Title
42785
    1SAPS     N    1   3.997   4.291   6.749 -0.4864  0.2004  0.5688
    1SAPS   HN1    2   4.060   4.326   6.674  0.7028  0.5736  1.6920
    1SAPS   HN2    3   3.898   4.282   6.717  0.1918 -3.4091 -0.9696
    1SAPS   HN3    4   3.995   4.360   6.827  1.3935  0.8535  0.0843
    1SAPS   C12    5   4.050   4.162   6.804 -0.7129  0.1169 -0.4921
    1SAPS  H12A    6   4.157   4.164   6.795 -0.7632 -0.2877 -1.2623
    1SAPS   C13    7   4.031   4.148   6.953  0.5981  0.4040 -0.4369
    1SAPS  O13A    8   3.981   4.246   7.015  0.1087 -0.3060 -0.1766
    1SAPS  O13B    9   4.053   4.045   7.019 -0.1919  0.3681 -0.0332
    1SAPS   C11   10   4.010   4.031   6.724  0.7205  0.4575  0.0249
    1SAPS  H11A   11   4.073   3.949   6.765 -0.7286 -0.7696 -0.1056
    1SAPS  H11B   12   4.028   4.055   6.617  0.0881  0.3681 -0.1102
    1SAPS     P   13   3.786   3.917   6.640  0.3475 -0.2224  0.2884
    1SAPS   O13   14   3.770   3.788   6.712 -0.1587 -0.4262  0.5587
    1SAPS   O14   15   3.659   3.983   6.601 -0.4132 -0.0354  0.2733
    1SAPS   O12   16   3.871   4.003   6.742  0.2784  0.2472  0.1407
    1SAPS   O11   17   3.875   3.896   6.506  0.4229 -0.2763  0.4197
    1SAPS    C1   18   3.976   3.786   6.497  0.6409 -0.5972  0.6480
    1SAPS    HA   19   4.073   3.816   6.542  0.9124  0.3363 -0.5105
    1SAPS    HB   20   3.937   3.695   6.548 -0.8682 -0.2698  0.0999
    1SAPS    C2   21   4.010   3.755   6.348  0.0234 -0.3704  0.0483
    1SAPS    HS   22   4.091   3.681   6.331  1.2382  0.1456  3.0241
    1SAPS   O21   23   4.044   3.879   6.285  0.0586 -0.1692  0.0315
    1SAPS   C21   24   4.171   3.919   6.309  0.4474 -0.6702 -0.1691
    1SAPS   O22   25   4.253   3.860   6.375 -0.1487 -0.1772 -0.1640
    1SAPS   C22   26   4.189   4.052   6.243 -0.3553 -0.0177  0.0698
    1SAPS   H2R   27   4.095   4.079   6.192  0.3822  2.8954  0.0599
    1SAPS   H2S   28   4.208   4.127   6.322  0.3411 -0.4962  0.3709
    1SAPS    C3   29   3.877   3.700   6.281  0.2782 -0.5694  0.0700
    1SAPS    HX   30   3.798   3.777   6.288  1.5240  0.8861 -1.3947
    1SAPS    HY   31   3.852   3.607   6.337  1.5658 -0.5828  0.6569
    1SAPS   O31   32   3.904   3.660   6.147 -0.0234 -0.5555 -0.6158
    1SAPS   C31   33   3.887   3.754   6.055 -0.1172  0.3750 -0.8599
    1SAPS   O32   34   3.855   3.870   6.077 -0.8718 -0.1491 -0.0834
    1SAPS   C32   35   3.924   3.689   5.918 -0.1772  0.2226 -0.1133
    1SAPS   H2X   36   3.846   3.610   5.902 -0.2062 -0.1878  1.7662
    1SAPS   H2Y   37   4.022   3.639   5.932  0.3612  1.0521 -0.8310
    1SAPS   C23   38   4.307   4.055   6.143 -0.1128  0.1901 -0.5421
    1SAPS   H3R   39   4.395   4.011   6.196 -0.6773  0.1329  0.3714
    1SAPS   H3S   40   4.331   4.160   6.114 -1.5747  0.9589  0.8604
    1SAPS   C24   41   4.269   3.987   6.010  0.9341 -0.8586 -0.0381
    1SAPS   H4R   42   4.210   4.065   5.958  0.6503 -0.9090  0.2103
    1SAPS   H4S   43   4.193   3.907   6.016  0.2217 -0.2976 -1.2703
    1SAPS   C25   44   4.392   3.939   5.935  0.1000 -0.2817 -1.0724
    1SAPS   H5R   45   4.478   3.907   5.995  0.0233 -1.5874 -1.6322
    1SAPS   C26   46   4.399   3.945   5.805 -0.6341 -0.0689 -0.1625
    1SAPS   H6R   47   4.485   3.895   5.759 -0.5856 -2.3623  2.2082
    1SAPS   C27   48   4.297   4.001   5.706 -0.5164  0.4488 -0.3595
    1SAPS   H7R   49   4.199   4.028   5.752 -1.1204 -2.2676  0.1172
    1SAPS   H7S   50   4.280   3.922   5.630  2.4675  0.1740 -0.8752
    1SAPS   C28   51   4.346   4.123   5.638 -0.9100  0.1553  0.3870
    1SAPS   H8R   52   4.354   4.203   5.713  2.0714  1.5050 -1.2209
    1SAPS   C29   53   4.373   4.150   5.505 -0.5585 -0.3167 -0.3989
    1SAPS   H9R   54   4.406   4.251   5.476  0.5763 -0.0614  1.6040
    1SAPS  C210   55   4.390   4.052   5.387 -0.0489 -0.6291  0.6744
    1SAPS  H10R   56   4.369   4.097   5.288  1.4042 -2.5298 -0.5647
    1SAPS  H10S   57   4.317   3.968   5.397 -3.6119  1.6895 -2.8333
    1SAPS  C211   58   4.529   3.996   5.378 -0.3159  0.2484  0.0570
    1SAPS  H11R   59   4.551   3.927   5.460  2.0962  0.5289 -0.2689
    1SAPS  C212   60   4.629   4.021   5.291  0.5241  0.6195 -0.5608
    1SAPS  H12R   61   4.717   3.957   5.302 -1.6919 -2.6795 -0.6291
    1SAPS  C213   62   4.633   4.117   5.175 -0.2597 -0.2216 -0.0260
    1SAPS  H13R   63   4.735   4.161   5.172 -0.1653 -0.3684  0.7227
    1SAPS  H13S   64   4.559   4.197   5.194 -0.5602 -0.8242  1.5394
    1SAPS  C214   65   4.604   4.053   5.037  0.1111 -0.2377  0.0133
    1SAPS  H14R   66   4.506   4.077   4.994 -0.4158 -3.8470 -1.1910
    1SAPS  C215   67   4.684   3.982   4.955  0.7029  0.4040  0.1097
    1SAPS  H15R   68   4.646   3.969   4.853  0.9538 -1.3311  0.2064
    1SAPS  C216   69   4.831   3.938   4.979 -0.5192 -0.4487 -0.4295
    1SAPS  H16R   70   4.845   3.829   4.961  0.6931 -0.5576  0.9648
    1SAPS  H16S   71   4.875   3.947   5.080 -0.1482 -1.6260 -0.4762
    1SAPS  C217   72   4.930   4.019   4.890  0.2932 -0.0843 -0.8514
    1SAPS  H17R   73   5.037   3.990   4.904  1.6220  3.0237 -3.2565
    1SAPS  H17S   74   4.930   4.125   4.923 -0.8672 -0.6467  1.1363
    1SAPS  C218   75   4.906   3.993   4.742  0.0442  0.6011  0.2102
    1SAPS  H18R   76   4.799   4.016   4.723 -0.5471 -1.4981  0.7240
    1SAPS  H18S   77   4.898   3.883   4.729  0.3786  0.5536  0.3929
    1SAPS  C219   78   5.015   4.043   4.651 -1.1764  0.7321  0.0345
    1SAPS  H19R   79   5.000   3.988   4.555 -0.9696 -1.3699  1.1549
    1SAPS  H19S   80   5.116   4.016   4.688 -1.0596 -2.4144 -2.1988
    1SAPS  C220   81   5.006   4.191   4.620 -0.2516 -0.6147  0.0621
    1SAPS  H20R   82   5.055   4.230   4.529 -1.2166 -1.4759 -0.8688
    1SAPS  H20S   83   5.042   4.257   4.701  0.3264  2.0962 -2.2438
    1SAPS  H20T   84   4.896   4.206   4.613 -0.2003  0.7509  1.5517
    1SAPS   C33   85   3.939   3.795   5.804 -0.1535  0.3711  0.4229
    1SAPS   H3X   86   4.016   3.872   5.827  0.4700  0.1155 -0.7461
    1SAPS   H3Y   87   3.839   3.842   5.797 -0.5161 -0.6324 -2.6337
    1SAPS   C34   88   3.979   3.730   5.672 -0.0134 -0.2243  0.1370
    1SAPS   H4X   89   3.919   3.638   5.662 -0.1139 -0.1873  0.4017
    1SAPS   H4Y   90   4.087   3.704   5.671  0.3883  1.1767  1.7763
    1SAPS   C35   91   3.946   3.822   5.553 -0.0813  0.0171  0.0530
    1SAPS   H5X   92   4.012   3.911   5.545  1.1165 -0.8445  0.0257
    1SAPS   H5Y   93   3.839   3.849   5.552 -0.1634 -0.3068 -0.6092
    1SAPS   C36   94   3.967   3.728   5.427  0.0024  0.2772  0.1752
    1SAPS   H6X   95   3.891   3.647   5.434  0.8745 -0.6693 -0.9197
    1SAPS   H6Y   96   4.069   3.684   5.434  0.1905  0.4249 -1.3712
    1SAPS   C37   97   3.957   3.777   5.286 -0.1819  0.0641 -0.4374
    1SAPS   H7X   98   3.872   3.848   5.287  0.3050  0.7026 -1.7359
    1SAPS   H7Y   99   3.940   3.692   5.216 -0.3243  1.3892 -2.1030
    1SAPS   C38  100   4.078   3.852   5.230  1.1445 -0.2536 -0.6350
    1SAPS   H8X  101   4.154   3.788   5.180  1.8461  1.0301 -1.2614
    1SAPS   H8Y  102   4.131   3.893   5.319 -1.7588 -0.0812  1.1318
    1SAPS   C39  103   4.027   3.965   5.131 -0.0496 -0.2668 -0.5071
    1SAPS   H9X  104   3.948   4.023   5.184  0.4215  1.6320 -1.7574
    1SAPS   H9Y  105   3.980   3.917   5.043 -1.3775  0.4687 -0.2286
    1SAPS  C310  106   4.148   4.049   5.080 -0.0915  0.3658  0.4353
    1SAPS  H10X  107   4.216   3.974   5.035 -0.0197  0.3007  0.6522
    1SAPS  H10Y  108   4.205   4.095   5.163 -0.1944 -0.2634  0.8555
    1SAPS  C311  109   4.112   4.141   4.954  0.0010  0.9170  0.0276
    1SAPS  H11X  110   4.195   4.210   4.928  0.7063 -0.5551 -1.7913
    1SAPS  H11Y  111   4.025   4.203   4.985  0.1460  0.8724  0.5430
    1SAPS  C312  112   4.073   4.068   4.819  0.6748 -0.0139  0.4264
    1SAPS  H12X  113   4.036   4.149   4.752 -0.0758  1.2502  2.2971
    1SAPS  H12Y  114   3.978   4.010   4.817  1.6370 -1.6700 -1.3039
    1SAPS  C313  115   4.186   3.999   4.737  0.1791  0.1720 -0.3331
    1SAPS  H13X  116   4.137   3.956   4.647 -1.8236  1.6590 -0.0170
    1SAPS  H13Y  117   4.225   3.926   4.811 -0.8063 -1.1983 -1.1318
    1SAPS  C314  118   4.308   4.086   4.699 -0.4116  0.1350 -0.0242
    1SAPS  H14X  119   4.338   4.148   4.786  0.3250 -0.0687 -0.1260
    1SAPS  H14Y  120   4.280   4.149   4.612 -1.5520 -0.4730 -0.1251
    1SAPS  C315  121   4.441   4.008   4.668  0.2474 -0.1166 -1.4335
    1SAPS  H15X  122   4.428   3.899   4.683 -0.3952  0.1228 -0.1013
    1SAPS  H15Y  123   4.527   4.049   4.726  1.1839  0.0045 -2.8508
    1SAPS  C316  124   4.475   4.035   4.517 -0.2819 -0.3977 -0.1117
    1SAPS  H16X  125   4.488   4.145   4.509 -1.0314 -0.2695  0.3672
    1SAPS  H16Y  126   4.388   4.001   4.457 -0.5329  0.2583 -0.1316
    1SAPS  C317  127   4.600   3.966   4.465  0.5531 -0.1089 -0.1670
    1SAPS  H17X  128   4.582   3.858   4.483 -0.7673  0.2370  0.6954
    1SAPS  H17Y  129   4.683   4.001   4.530  0.0231  1.1225 -0.1204
    1SAPS  C318  130   4.642   3.998   4.321  0.2944 -1.0786 -0.7391
    1SAPS  H18X  131   4.726   3.931   4.292  0.6878 -2.6802  3.4543
    1SAPS  H18Y  132   4.670   4.105   4.310 -0.6175 -0.7715 -0.2093
    1SAPS  H18Z  133   4.557   3.971   4.255 -0.7919  0.2766  0.0593
    2SAPS     N  134   4.864   6.642   6.536  0.0337  0.1945  0.2214
    2SAPS   HN1  135   4.855   6.742   6.564  2.7898  0.0832  1.8127
    2SAPS   HN2  136   4.959   6.614   6.566 -0.4729 -1.2653  0.5466
    2SAPS   HN3  137   4.863   6.637   6.432 -1.8766 -0.1177  0.2029
    2SAPS   C12  138   4.754   6.546   6.585  0.3802 -0.1019 -0.5058
    2SAPS  H12A  139   4.788   6.500   6.677 -1.2458  0.3481  0.3478
    2SAPS   C13  140   4.620   6.614   6.613 -0.4752  0.4246 -0.9295
    2SAPS  O13A  141   4.621   6.737   6.623 -0.0033  0.1156 -0.0716
    2SAPS  O13B  142   4.521   6.546   6.650 -0.1345  0.9880  0.3322
    2SAPS   C11  143   4.731   6.431   6.477  0.4043 -0.1464  0.0401
    2SAPS  H11A  144   4.707   6.488   6.385  0.8681 -0.2286 -0.1361
    2SAPS  H11B  145   4.642   6.372   6.505  0.2836  0.3739  0.7878
    2SAPS     P  146   4.933   6.319   6.348  0.0085  0.3071 -0.0420
    2SAPS   O13  147   5.011   6.440   6.317 -0.0411  0.4988 -0.1099
    2SAPS   O14  148   5.002   6.189   6.366  0.1567  0.0192 -0.2935
    2SAPS   O12  149   4.846   6.346   6.478 -0.1129 -0.2351  0.4900
    2SAPS   O11  150   4.829   6.297   6.230  0.0809 -0.3468 -0.2486
    2SAPS    C1  151   4.753   6.174   6.217  0.0856 -0.1374 -0.0419
    2SAPS    HA  152   4.816   6.092   6.178  1.4385  0.4970  0.7682
    2SAPS    HB  153   4.705   6.136   6.310 -0.3719 -0.4639 -0.4057
    2SAPS    C2  154   4.633   6.180   6.106 -0.5001  0.3026 -0.9201
    2SAPS    HS  155   4.574   6.086   6.111 -0.5474  0.2074  5.9242
    2SAPS   O21  156   4.682   6.216   5.978 -0.0439  0.0441 -0.1564
    2SAPS   C21  157   4.755   6.119   5.923 -0.1313  0.4657  0.8867
    2SAPS   O22  158   4.773   6.005   5.960 -0.3009  0.5109 -0.5561
    2SAPS   C22  159   4.831   6.184   5.808 -0.4908  0.2575  0.4266
    2SAPS   H2R  160   4.757   6.219   5.733  1.1725  0.0094 -1.4012
    2SAPS   H2S  161   4.891   6.270   5.845 -0.2769  0.5752 -0.6207
    2SAPS    C3  162   4.536   6.284   6.154  0.2579  0.4151  0.2021
    2SAPS    HX  163   4.604   6.368   6.178 -1.1883  1.0064  2.5520
    2SAPS    HY  164   4.481   6.262   6.248 -0.7681 -0.1739 -0.5099
    2SAPS   O31  165   4.437   6.322   6.054 -0.3671 -0.5458 -0.1616
    2SAPS   C31  166   4.344   6.232   6.027 -0.0514  0.2338 -0.7279
    2SAPS   O32  167   4.333   6.120   6.072 -0.5617 -0.4839  0.2161
    2SAPS   C32  168   4.248   6.293   5.924 -0.4243  0.5618  0.2136
    2SAPS   H2X  169   4.277   6.394   5.888  0.0001  0.1501 -0.6444
    2SAPS   H2Y  170   4.154   6.326   5.973  0.7683  1.4358  2.0160
    2SAPS   C23  171   4.929   6.089   5.735 -0.2850  0.7002 -0.7296
    2SAPS   H3R  172   4.868   6.004   5.697 -3.2648  1.5261  1.7806
    2SAPS   H3S  173   4.991   6.032   5.808  0.0577  0.5411 -1.1395
    2SAPS   C24  174   5.012   6.156   5.625  0.2657 -0.2205 -0.1664
    2SAPS   H4R  175   5.081   6.072   5.598 -0.4734 -0.5939 -0.9481
    2SAPS   H4S  176   5.075   6.238   5.664 -0.1387  0.0764 -0.1312
    2SAPS   C25  177   4.933   6.220   5.510  0.7657 -0.0335 -0.0820
    2SAPS   H5R  178   4.911   6.328   5.522  0.8237  0.0815 -0.9289
    2SAPS   C26  179   4.879   6.149   5.404 -0.3722 -0.0659  0.0951
    2SAPS   H6R  180   4.824   6.200   5.323  0.8886  0.4202 -0.4750
    2SAPS   C27  181   4.884   5.999   5.373 -0.3068 -1.0426  0.0875
    2SAPS   H7R  182   4.922   5.957   5.468 -1.2055 -0.3712  0.7664
    2SAPS   H7S  183   4.969   5.979   5.305 -1.6807 -1.6967 -1.5210
    2SAPS   C28  184   4.753   5.939   5.334 -0.3279  0.0305 -0.2774
    2SAPS   H8R  185   4.682   5.923   5.417  1.0496  1.4319  1.2544
    2SAPS   C29  186   4.720   5.915   5.203 -0.4154 -0.3423  0.0218
    2SAPS   H9R  187   4.619   5.876   5.183  0.1175 -2.2149  0.7637
    2SAPS  C210  188   4.797   5.942   5.080 -0.0992 -0.4237  0.4672
    2SAPS  H10R  189   4.898   5.975   5.112 -0.1154  2.5262 -2.0572
    2SAPS  H10S  190   4.752   6.033   5.034  0.4193  0.2458  1.2458
    2SAPS  C211  191   4.798   5.837   4.970  0.5278 -0.5683 -0.3328
    2SAPS  H11R  192   4.731   5.750   4.975  0.6500 -0.7403 -1.4950
    2SAPS  C212  193   4.871   5.856   4.862  0.1133 -0.2663 -0.0696
    2SAPS  H12R  194   4.845   5.797   4.773  1.1654 -0.5547 -0.1991
    2SAPS  C213  195   4.960   5.972   4.834  0.2836  0.0328  0.5738
    2SAPS  H13R  196   5.032   5.945   4.755 -0.3056 -1.8076  0.6259
    2SAPS  H13S  197   4.999   6.013   4.930 -1.7061 -0.6660  1.7482
    2SAPS  C214  198   4.886   6.085   4.765  0.0707  0.0857 -0.7390
    2SAPS  H14R  199   4.793   6.110   4.818  0.0974 -1.0591 -0.1250
    2SAPS  C215  200   4.916   6.143   4.644 -0.0565  0.8864 -0.7472
    2SAPS  H15R  201   4.844   6.222   4.618  0.1534  0.8801 -1.3470
    2SAPS  C216  202   5.027   6.109   4.545 -0.1798  0.4597 -0.1242
    2SAPS  H16R  203   5.122   6.063   4.579 -1.5855 -2.7006 -0.0648
    2SAPS  H16S  204   5.054   6.205   4.495  1.1740  1.9178  3.1727
    2SAPS  C217  205   4.976   6.008   4.434  0.1332 -0.6390 -0.4064
    2SAPS  H17R  206   4.894   6.055   4.377  1.2885  0.6160 -1.0770
    2SAPS  H17S  207   4.936   5.914   4.478 -0.7911 -0.3395 -0.5813
    2SAPS  C218  208   5.081   5.977   4.336  0.1481 -0.6473 -0.8676
    2SAPS  H18R  209   5.156   5.916   4.390 -2.0830 -1.4786  1.4825
    2SAPS  H18S  210   5.117   6.078   4.308 -0.3229 -0.2861 -0.2076
    2SAPS  C219  211   5.036   5.885   4.218  0.4196  0.5045 -0.3993
    2SAPS  H19R  212   4.944   5.925   4.170 -0.1704 -2.0157 -1.5061
    2SAPS  H19S  213   5.001   5.794   4.272 -0.4332  1.4428  0.7023
    2SAPS  C220  214   5.132   5.859   4.103 -0.5980 -0.0946 -0.8432
    2SAPS  H20R  215   5.096   5.775   4.039 -0.4090 -0.2637 -0.7274
    2SAPS  H20S  216   5.232   5.837   4.146 -0.8850 -0.2378 -0.2455
    2SAPS  H20T  217   5.140   5.953   4.043 -1.9251  0.9096  0.4917
    2SAPS   C33  218   4.222   6.199   5.803  0.4439  0.1187  0.7083
    2SAPS   H3X  219   4.151   6.250   5.734 -0.4571 -1.0004  0.7728
    2SAPS   H3Y  220   4.187   6.101   5.841  1.3363 -1.2132 -1.7162
    2SAPS   C34  221   4.353   6.171   5.727  0.2835 -0.3067  0.1333
    2SAPS   H4X  222   4.411   6.098   5.788  0.8678  0.1944  0.1847
    2SAPS   H4Y  223   4.415   6.260   5.705  0.6268  0.0568  2.3392
    2SAPS   C35  224   4.324   6.096   5.599 -0.4607 -1.4342 -0.5213
    2SAPS   H5X  225   4.246   6.017   5.596  0.2771 -2.1897  0.0785
    2SAPS   H5Y  226   4.425   6.058   5.573  1.6158  2.5548  0.9047
    2SAPS   C36  227   4.289   6.198   5.483 -0.4605  0.5381 -0.5238
    2SAPS   H6X  228   4.362   6.281   5.480  2.2366 -1.7020 -0.5367
    2SAPS   H6Y  229   4.185   6.234   5.500 -1.1151 -0.6725 -1.7422
    2SAPS   C37  230   4.303   6.122   5.355  0.2125 -0.6000  0.3960
    2SAPS   H7X  231   4.236   6.034   5.350  0.5292 -0.8028 -0.3609
    2SAPS   H7Y  232   4.411   6.096   5.344  0.4736 -0.7587  2.8103
    2SAPS   C38  233   4.269   6.223   5.241 -0.0946 -0.4811  0.0513
    2SAPS   H8X  234   4.323   6.318   5.260 -0.4958 -0.6104  1.9865
    2SAPS   H8Y  235   4.164   6.252   5.260 -0.3542  0.7584 -2.7764
    2SAPS   C39  236   4.276   6.170   5.099 -0.2648 -0.7941 -0.3576
    2SAPS   H9X  237   4.191   6.103   5.072 -0.4231 -0.3203 -1.0744
    2SAPS   H9Y  238   4.368   6.107   5.094 -0.0179 -0.3801 -1.4372
    2SAPS  C310  239   4.267   6.288   4.998  0.4115 -0.0217 -0.0069
    2SAPS  H10X  240   4.340   6.369   5.020  0.3318 -0.1758  0.8375
    2SAPS  H10Y  241   4.166   6.333   5.007  0.2870 -0.3651  0.3124
    2SAPS  C311  242   4.298   6.244   4.852 -0.5105  0.6845  0.0292
    2SAPS  H11X  243   4.234   6.156   4.830 -1.0320  1.6861 -3.0043
    2SAPS  H11Y  244   4.395   6.193   4.866  0.1111  2.3128  2.3601
    2SAPS  C312  245   4.301   6.348   4.736 -0.3437 -0.7766  0.3443
    2SAPS  H12X  246   4.371   6.433   4.752 -0.1424 -0.8576 -0.0864
    2SAPS  H12Y  247   4.200   6.393   4.750  0.1873  0.9373 -0.9750
    2SAPS  C313  248   4.329   6.286   4.601  0.5467 -0.2465  0.1532
    2SAPS  H13X  249   4.271   6.191   4.590  1.2658 -0.5348 -1.7006
    2SAPS  H13Y  250   4.435   6.254   4.599  1.3007  2.1010 -1.4412
    2SAPS  C314  251   4.292   6.383   4.485 -0.1125  0.3003 -0.1451
    2SAPS  H14X  252   4.330   6.487   4.493 -1.7181  1.0072 -1.2228
    2SAPS  H14Y  253   4.181   6.387   4.479 -0.0772  1.6399 -0.2007
    2SAPS  C315  254   4.338   6.338   4.341  0.1574  0.1972 -0.2855
    2SAPS  H15X  255   4.279   6.376   4.255  0.4955  0.8936 -0.2241
    2SAPS  H15Y  256   4.323   6.228   4.346  0.5268  0.1812  3.1887
    2SAPS  C316  257   4.484   6.367   4.297 -0.1908 -0.1996  0.1429
    2SAPS  H16X  258   4.560   6.331   4.371 -0.3371  0.1236  0.4566
    2SAPS  H16Y  259   4.488   6.478   4.287  0.9502 -0.4344 -3.6068
    2SAPS  C317  260   4.502   6.321   4.147 -0.7358  0.4778  0.2126
    2SAPS  H17X  261   4.594   6.358   4.098  0.5768 -2.8436 -0.1457
    2SAPS  H17Y  262   4.418   6.367   4.091  0.2348  0.8966 -0.9348
    2SAPS  C318  263   4.510   6.172   4.133 -0.4125  0.4320  0.5217
    2SAPS  H18X  264   4.414   6.119   4.147  1.1860 -3.1446 -0.6137
    2SAPS  H18Y  265   4.588   6.123   4.196  0.3485 -0.3078 -0.9129
    2SAPS  H18Z  266   4.565   6.155   4.037 -0.2073  0.5945  0.6095
    3SAPS     N  267   4.503   4.344   7.051  0.2183  0.1231 -0.4437
    3SAPS   HN1  268   4.451   4.397   7.124  0.1857 -0.6408  0.1038
    3SAPS   HN2  269   4.442   4.331   6.968  1.4166 -0.1620 -1.2998
    3SAPS   HN3  270   4.518   4.249   7.091 -1.1410  0.7448  1.7527
    3SAPS   C12  271   4.623   4.408   7.012  0.1487  0.6977 -0.1880
    3SAPS  H12A  272   4.601   4.484   6.938  1.9617  1.0295 -0.4191
    3SAPS   C13  273   4.721   4.463   7.124  0.3005  1.0733 -0.1964
    3SAPS  O13A  274   4.701   4.441   7.244  0.1895  0.3707  0.4319
    3SAPS  O13B  275   4.829   4.528   7.093 -0.1299 -0.5592  0.5124
    3SAPS   C11  276   4.705   4.298   6.939  0.8660  0.0166  0.4576
    3SAPS  H11A  277   4.728   4.212   7.005  0.8270 -1.5715 -1.5029
    3SAPS  H11B  278   4.805   4.334   6.908  0.5760 -0.6567 -1.3331
    3SAPS     P  279   4.658   4.254   6.679  0.1159 -0.1022 -0.3035
    3SAPS   O13  280   4.691   4.110   6.653  0.1362 -0.4571 -0.1648
    3SAPS   O14  281   4.540   4.307   6.606  0.1568 -0.3217  0.1676
    3SAPS   O12  282   4.621   4.250   6.829 -0.3853 -0.6443  0.3718
    3SAPS   O11  283   4.788   4.346   6.659 -0.4533 -0.5423 -0.4200
    3SAPS    C1  284   4.784   4.482   6.687 -0.2906  0.6153 -0.6928
    3SAPS    HA  285   4.692   4.514   6.741  0.9278  1.5216  0.9337
    3SAPS    HB  286   4.871   4.517   6.747  0.5320  1.2080 -2.1704
    3SAPS    C2  287   4.782   4.576   6.562 -0.0123  0.6790 -0.4601
    3SAPS    HS  288   4.683   4.558   6.516 -0.1560 -0.5405  0.2704
    3SAPS   O21  289   4.904   4.542   6.489  0.3047  0.5058  0.2556
    3SAPS   C21  290   4.877   4.468   6.383 -0.4356 -0.2331  0.1814
    3SAPS   O22  291   4.766   4.434   6.344 -0.5810 -0.1498  0.3287
    3SAPS   C22  292   5.009   4.432   6.314 -0.0154 -0.4770  0.3028
    3SAPS   H2R  293   5.078   4.519   6.313  0.4694 -0.8606 -0.1403
    3SAPS   H2S  294   5.063   4.371   6.389 -0.0479  0.9026  1.4868
    3SAPS    C3  295   4.782   4.718   6.622  0.1275  0.1597  0.0498
    3SAPS    HX  296   4.872   4.724   6.687  1.9413  2.5697 -2.4590
    3SAPS    HY  297   4.689   4.739   6.679  0.5350  0.7573  0.5102
    3SAPS   O31  298   4.764   4.811   6.511  0.1561 -0.1252 -0.2905
    3SAPS   C31  299   4.877   4.842   6.457 -0.1098  0.0539  0.2498
    3SAPS   O32  300   4.987   4.824   6.511 -0.3534 -0.1593 -0.2008
    3SAPS   C32  301   4.851   4.916   6.324 -0.0623 -0.0734 -0.4758
    3SAPS   H2X  302   4.846   5.026   6.342 -0.1777 -0.1998  0.3320
    3SAPS   H2Y  303   4.756   4.894   6.271  0.6541 -2.1049 -0.9924
    3SAPS   C23  304   4.998   4.370   6.176  0.2953 -0.2678  0.0680
    3SAPS   H3R  305   4.908   4.306   6.164 -0.0885  0.2298  0.2291
    3SAPS   H3S  306   5.083   4.305   6.148  0.1482  0.6212 -2.7029
    3SAPS   C24  307   4.977   4.467   6.062 -0.1379 -0.3590  0.0850
    3SAPS   H4R  308   4.889   4.534   6.072  0.8086  0.5752  2.7720
    3SAPS   H4S  309   4.973   4.419   5.962 -0.2118  1.5529 -0.8813
    3SAPS   C25  310   5.097   4.558   6.042 -0.1966 -0.0058 -0.4887
    3SAPS   H5R  311   5.150   4.562   6.138 -1.2877 -1.1032  0.1959
    3SAPS   C26  312   5.144   4.619   5.934  0.3386  0.1514 -0.1166
    3SAPS   H6R  313   5.237   4.677   5.944  0.3571  0.3986 -1.4940
    3SAPS   C27  314   5.089   4.609   5.793  0.3171 -0.3149 -0.6160
    3SAPS   H7R  315   5.146   4.681   5.730 -0.8855  0.3912 -0.9365
    3SAPS   H7S  316   4.987   4.649   5.779 -0.0645 -1.0142  0.1461
    3SAPS   C28  317   5.124   4.473   5.734  0.6305 -0.3182 -0.2438
    3SAPS   H8R  318   5.131   4.402   5.818 -1.4549  1.1171  1.2312
    3SAPS   C29  319   5.161   4.441   5.601  0.1055  0.2457 -0.3338
    3SAPS   H9R  320   5.176   4.334   5.580  0.2952  0.3891 -0.9426
    3SAPS  C210  321   5.162   4.546   5.497 -0.3075 -0.2126 -0.2825
    3SAPS  H10R  322   5.247   4.615   5.516 -1.3691  1.1222 -0.2138
    3SAPS  H10S  323   5.069   4.607   5.499 -1.1891 -1.5034  2.3962
    3SAPS  C211  324   5.186   4.505   5.350  0.1279 -0.5079  0.4591
    3SAPS  H11R  325   5.284   4.539   5.313  0.0983  0.6692  1.3972
    3SAPS  C212  326   5.113   4.414   5.281 -0.3650 -0.0037  0.6696
    3SAPS  H12R  327   5.143   4.394   5.178  1.6796  2.3450  0.7175
    3SAPS  C213  328   4.986   4.344   5.326  0.2091 -0.0985 -0.3000
    3SAPS  H13R  329   4.934   4.332   5.229 -0.5828  0.7732  0.0046
    3SAPS  H13S  330   4.921   4.408   5.390  0.2035 -0.0908 -0.3136
    3SAPS  C214  331   5.012   4.205   5.387 -0.4262 -0.9330 -0.0030
    3SAPS  H14R  332   5.081   4.145   5.325 -0.0334 -0.3769 -0.1127
    3SAPS  C215  333   4.964   4.148   5.497  0.6073 -0.3019 -0.5742
    3SAPS  H15R  334   4.982   4.045   5.532 -3.1287 -0.1423  2.4747
    3SAPS  C216  335   4.856   4.220   5.575  0.0952  0.0585 -0.1314
    3SAPS  H16R  336   4.773   4.261   5.515 -1.4433  1.7936  2.9420
    3SAPS  H16S  337   4.900   4.310   5.623 -0.5158  0.6269 -0.6335
    3SAPS  C217  338   4.791   4.141   5.690 -0.0266  0.3549  0.0021
    3SAPS  H17R  339   4.777   4.036   5.655  2.0422  0.3875 -1.0966
    3SAPS  H17S  340   4.694   4.191   5.712  0.4054  1.3686 -0.3289
    3SAPS  C218  341   4.874   4.131   5.814  0.0225 -0.3271 -0.1556
    3SAPS  H18R  342   4.915   4.229   5.848  0.4338 -0.8992  1.0491
    3SAPS  H18S  343   4.956   4.062   5.785 -1.7398 -1.3056 -3.2617
    3SAPS  C219  344   4.805   4.067   5.938  0.2797 -0.5289 -0.1062
    3SAPS  H19R  345   4.752   3.973   5.911 -1.9232  0.8972 -1.0248
    3SAPS  H19S  346   4.886   4.054   6.013  1.2340  0.6331 -0.9031
    3SAPS  C220  347   4.696   4.163   5.998 -0.5882 -0.2307 -0.0030
    3SAPS  H20R  348   4.626   4.194   5.917 -0.3919 -2.3245 -1.0409
    3SAPS  H20S  349   4.741   4.259   6.031 -0.0452  0.5364 -2.6930
    3SAPS  H20T  350   4.639   4.119   6.082 -1.6481 -0.2748 -0.7288
    3SAPS   C33  351   4.975   4.888   6.235  0.1213  0.0675  0.5377
    3SAPS   H3X  352   4.980   4.779   6.215 -0.4410  0.3031 -0.9483
    3SAPS   H3Y  353   5.067   4.910   6.294  0.1171  0.8097  0.2762
    3SAPS   C34  354   4.988   4.978   6.114 -0.5304 -0.1341  0.1171
    3SAPS   H4X  355   5.082   4.969   6.055 -0.2023 -1.5116  0.8241
    3SAPS   H4Y  356   4.975   5.080   6.155 -1.4650 -0.4147  0.5565
    3SAPS   C35  357   4.889   4.939   6.003 -0.4470  0.2681  0.2203
    3SAPS   H5X  358   4.884   4.829   5.993  1.5660 -0.0808  2.2640
    3SAPS   H5Y  359   4.791   4.975   6.041 -0.2372  1.4223 -0.2693
    3SAPS   C36  360   4.926   4.999   5.867  0.3496  0.8645  0.1812
    3SAPS   H6X  361   5.024   4.963   5.830 -0.2483 -1.2738  0.5496
    3SAPS   H6Y  362   4.946   5.107   5.881  2.4519  0.7015 -1.1589
    3SAPS   C37  363   4.830   4.960   5.749 -0.2369  0.2873 -0.6570
    3SAPS   H7X  364   4.730   5.007   5.759 -0.0611  0.8936 -1.6045
    3SAPS   H7Y  365   4.800   4.853   5.761 -1.1462  0.7765  2.3342
    3SAPS   C38  366   4.895   4.989   5.610  0.2889  0.3967 -0.4313
    3SAPS   H8X  367   4.993   4.938   5.594 -1.3796 -2.3371 -3.1551
    3SAPS   H8Y  368   4.922   5.097   5.607 -2.8753  1.2513 -1.7490
    3SAPS   C39  369   4.803   4.959   5.492  0.2063  0.1920  0.3256
    3SAPS   H9X  370   4.727   5.040   5.502  0.6867  0.9277 -1.4996
    3SAPS   H9Y  371   4.749   4.865   5.513  4.3742 -2.0105  2.3905
    3SAPS  C310  372   4.878   4.944   5.361  0.2310 -0.6250 -0.3164
    3SAPS  H10X  373   4.854   4.846   5.313 -0.7698  0.3843 -1.9842
    3SAPS  H10Y  374   4.987   4.934   5.378  0.0776  1.8236  3.3848
    3SAPS  C311  375   4.858   5.060   5.256 -0.3480  0.0418  0.2372
    3SAPS  H11X  376   4.904   5.152   5.297 -2.4657  1.8627 -1.2516
    3SAPS  H11Y  377   4.750   5.080   5.240 -0.6231  0.7776  2.6860
    3SAPS  C312  378   4.935   5.032   5.125  0.5271  0.0503  0.0012
    3SAPS  H12X  379   5.015   4.957   5.139  3.8731  2.8056 -2.4678
    3SAPS  H12Y  380   4.991   5.119   5.085  2.2978 -1.6388 -1.3784
    3SAPS  C313  381   4.828   4.987   5.023  0.2744  1.2039  0.8975
    3SAPS  H13X  382   4.747   5.062   5.013 -1.2145 -0.6341 -3.2956
    3SAPS  H13Y  383   4.782   4.894   5.061  2.8596  0.0788  1.4732
    3SAPS  C314  384   4.887   4.959   4.881 -0.3606 -0.1204  0.2200
    3SAPS  H14X  385   4.943   4.863   4.890  2.5298  1.4300 -0.1742
    3SAPS  H14Y  386   4.966   5.035   4.862  0.2066 -1.0601 -1.4137
    3SAPS  C315  387   4.781   4.948   4.770  0.6176 -0.2368  1.0700
    3SAPS  H15X  388   4.724   5.043   4.767 -2.4143 -1.6689  5.1123
    3SAPS  H15Y  389   4.705   4.870   4.788 -1.1564  1.3510  0.7205
    3SAPS  C316  390   4.861   4.933   4.641 -0.2490 -0.0644  0.0044
    3SAPS  H16X  391   4.944   4.859   4.645 -1.3855 -1.4437 -1.0275
    3SAPS  H16Y  392   4.907   5.033   4.620 -0.3937  0.7638  3.1653
    3SAPS  C317  393   4.772   4.900   4.517 -0.3200  0.3196 -0.1165
    3SAPS  H17X  394   4.696   4.976   4.487 -1.2244 -1.2156 -1.9817
    3SAPS  H17Y  395   4.702   4.821   4.552  1.2251  0.2376  3.1216
    3SAPS  C318  396   4.853   4.854   4.406  0.1100  0.0284 -0.0528
    3SAPS  H18X  397   4.921   4.936   4.375  0.8094 -0.9077 -1.0340
    3SAPS  H18Y  398   4.792   4.842   4.314 -0.1533  0.3361  0.0807
    3SAPS  H18Z  399   4.908   4.758   4.410 -0.8593 -0.5414 -0.0532
    4SAPS     N  400   1.415   2.656   6.903 -0.0776  0.2312  0.0385
    4SAPS   HN1  401   1.332   2.620   6.955  0.3274 -2.4133 -0.9883
    4SAPS   HN2  402   1.428   2.757   6.921  0.5514 -0.0699  1.3625
    4SAPS   HN3  403   1.403   2.641   6.800 -2.6699  1.0901  0.1565
    4SAPS   C12  404   1.532   2.586   6.931 -0.1017  0.4084  0.8858
    4SAPS  H12A  405   1.589   2.641   7.004 -0.0335 -0.3515  1.4232
    4SAPS   C13  406   1.519   2.450   7.017 -0.3445 -0.4332  0.1619
    4SAPS  O13A  407   1.413   2.413   7.064  0.6155 -0.0074 -0.5015
    4SAPS  O13B  408   1.625   2.398   7.047 -0.6762 -0.0372  0.2906
    4SAPS   C11  409   1.615   2.561   6.797 -0.1391 -0.6622  0.9368
    4SAPS  H11A  410   1.566   2.504   6.715  0.3050  0.3760 -0.0642
    4SAPS  H11B  411   1.702   2.496   6.820  0.6000  0.3816  1.1271
    4SAPS     P  412   1.807   2.732   6.755 -0.0903 -0.3200  0.1211
    4SAPS   O13  413   1.816   2.771   6.900  0.4572 -0.6101 -0.1911
    4SAPS   O14  414   1.901   2.630   6.704 -0.4019  0.3935 -0.1300
    4SAPS   O12  415   1.654   2.682   6.733 -0.3048 -0.2402 -0.0754
    4SAPS   O11  416   1.823   2.859   6.662 -0.3425 -0.2445  0.1909
    4SAPS    C1  417   1.703   2.927   6.615 -0.2532  0.0629 -0.1963
    4SAPS    HA  418   1.632   2.918   6.700 -1.7178  0.6315 -1.3186
    4SAPS    HB  419   1.726   3.034   6.597  0.0098 -0.2413 -1.8071
    4SAPS    C2  420   1.636   2.876   6.485  0.5846  0.0073 -0.5988
    4SAPS    HS  421   1.626   2.766   6.496  0.6606  0.0192 -0.4169
    4SAPS   O21  422   1.719   2.903   6.373 -0.0881 -0.5005  0.1965
    4SAPS   C21  423   1.742   2.815   6.290 -0.0755  0.0532  0.2160
    4SAPS   O22  424   1.708   2.699   6.291 -0.2224  0.0745  0.1399
    4SAPS   C22  425   1.824   2.871   6.167 -0.0485  0.1911 -0.2582
    4SAPS   H2R  426   1.791   2.976   6.154 -1.2405 -0.1251  0.1232
    4SAPS   H2S  427   1.931   2.871   6.197 -0.0360 -1.2574 -0.2235
    4SAPS    C3  428   1.507   2.957   6.455  0.1530  0.5349  0.4625
    4SAPS    HX  429   1.535   3.065   6.462 -0.8572  0.7113  2.4414
    4SAPS    HY  430   1.436   2.940   6.539  1.2371  0.9878  1.5087
    4SAPS   O31  431   1.453   2.922   6.321  0.0258  0.0457  0.4168
    4SAPS   C31  432   1.368   2.819   6.319  0.1349  0.1013  0.4225
    4SAPS   O32  433   1.342   2.741   6.412 -0.0368  0.2897  0.7590
    4SAPS   C32  434   1.302   2.799   6.181  0.6622  0.3421 -1.3535
    4SAPS   H2X  435   1.229   2.881   6.169  2.1645  1.8376 -0.6550
    4SAPS   H2Y  436   1.241   2.707   6.195  1.5601 -0.3753 -1.9584
    4SAPS   C23  437   1.801   2.805   6.029 -0.1435  0.1899 -0.1166
    4SAPS   H3R  438   1.691   2.791   6.022 -0.3539 -0.0468  2.4586
    4SAPS   H3S  439   1.832   2.701   6.055  1.5335  0.6734 -0.1190
    4SAPS   C24  440   1.861   2.877   5.907  0.3495 -0.0719  0.4864
    4SAPS   H4R  441   1.838   2.822   5.813  1.6781 -0.2944  0.2710
    4SAPS   H4S  442   1.971   2.893   5.904  0.6769 -1.6812 -3.7789
    4SAPS   C25  443   1.792   3.009   5.897  0.2307 -0.3087  0.0377
    4SAPS   H5R  444   1.711   3.040   5.965 -2.2829 -1.2211 -2.3311
    4SAPS   C26  445   1.788   3.083   5.780  0.0094 -0.2430  0.4602
    4SAPS   H6R  446   1.734   3.178   5.774  0.5400  0.1656  1.7491
    4SAPS   C27  447   1.872   3.052   5.662  0.4506  0.1178  0.0194
    4SAPS   H7R  448   1.830   3.105   5.574 -1.3745 -0.3100  0.5992
    4SAPS   H7S  449   1.867   2.945   5.633 -0.0732  0.0045  0.5168
    4SAPS   C28  450   2.016   3.082   5.682 -0.3554  0.0317  1.1055
    4SAPS   H8R  451   2.059   3.088   5.784  2.2664  1.3868  0.0125
    4SAPS   C29  452   2.109   3.107   5.585  0.2927  0.7483 -0.5592
    4SAPS   H9R  453   2.212   3.127   5.619  0.2901  0.8196 -0.5944
    4SAPS  C210  454   2.082   3.111   5.436 -0.2302  0.1881 -0.7585
    4SAPS  H10R  455   2.015   3.197   5.413  0.3157  1.5224  2.1457
    4SAPS  H10S  456   2.019   3.033   5.387  0.2221  0.6350 -2.0873
    4SAPS  C211  457   2.213   3.118   5.363 -0.0890  0.8411  0.9868
    4SAPS  H11R  458   2.305   3.143   5.419 -1.2808  2.1482  2.4475
    4SAPS  C212  459   2.210   3.113   5.224 -0.3842 -0.8606 -0.3734
    4SAPS  H12R  460   2.303   3.119   5.167 -1.3422 -1.8698 -2.1056
    4SAPS  C213  461   2.094   3.107   5.129 -0.0922  1.3253  0.6423
    4SAPS  H13R  462   2.115   3.186   5.053  1.7070 -0.4334 -0.8057
    4SAPS  H13S  463   1.996   3.128   5.177  0.3007 -2.1746  3.3686
    4SAPS  C214  464   2.083   2.960   5.085  0.1550  0.1709  0.0033
    4SAPS  H14R  465   2.094   2.884   5.163  0.5233 -1.9537 -2.0035
    4SAPS  C215  466   2.045   2.914   4.961 -0.4419  0.4002  0.5406
    4SAPS  H15R  467   2.064   2.808   4.944  2.1455  0.3546  3.0003
    4SAPS  C216  468   2.005   3.006   4.853 -0.3083 -0.4050  0.2286
    4SAPS  H16R  469   2.079   2.990   4.772  0.3124 -0.2479  0.7557
    4SAPS  H16S  470   1.993   3.112   4.883  0.1143  0.2201 -1.6736
    4SAPS  C217  471   1.863   2.970   4.807  0.4314  0.0932  0.0478
    4SAPS  H17R  472   1.798   3.001   4.892  0.6536  0.6140  0.0360
    4SAPS  H17S  473   1.839   2.862   4.800 -1.4029  0.4761 -0.0357
    4SAPS  C218  474   1.811   3.036   4.681 -0.5303  0.1275 -0.4129
    4SAPS  H18R  475   1.896   3.023   4.610 -0.6383  1.6699 -0.8591
    4SAPS  H18S  476   1.806   3.146   4.694 -1.0340 -0.0090  0.6522
    4SAPS  C219  477   1.681   2.973   4.624 -0.0007 -0.3141 -0.4115
    4SAPS  H19R  478   1.633   3.045   4.553 -2.0099  0.5997  1.7617
    4SAPS  H19S  479   1.605   2.955   4.703 -0.2157  1.2122 -0.2418
    4SAPS  C220  480   1.712   2.843   4.554  0.3894 -0.6845 -0.4455
    4SAPS  H20R  481   1.622   2.783   4.528  0.8341 -1.4850 -0.1465
    4SAPS  H20S  482   1.772   2.780   4.622 -1.7692  0.6757  2.9997
    4SAPS  H20T  483   1.773   2.862   4.464  2.7232  0.8894  1.3302
    4SAPS   C33  484   1.404   2.778   6.067  0.7914  0.1245  0.3164
    4SAPS   H3X  485   1.470   2.692   6.092  0.8759  0.6634  2.1105
    4SAPS   H3Y  486   1.468   2.868   6.078 -0.8772  1.2207  1.3650
    4SAPS   C34  487   1.343   2.761   5.931 -0.2291 -0.7120 -0.3693
    4SAPS   H4X  488   1.323   2.861   5.887  2.7094  0.1806  0.0785
    4SAPS   H4Y  489   1.254   2.697   5.944  1.3210 -2.9677 -0.1741
    4SAPS   C35  490   1.444   2.682   5.841  0.3478 -0.1612  0.9975
    4SAPS   H5X  491   1.453   2.577   5.874 -1.8145 -1.0975 -1.0336
    4SAPS   H5Y  492   1.547   2.721   5.847  0.7416 -0.5342 -2.0088
    4SAPS   C36  493   1.399   2.684   5.696 -0.1224 -0.0438 -0.2072
    4SAPS   H6X  494   1.373   2.788   5.666 -0.1140  0.3108  0.9751
    4SAPS   H6Y  495   1.303   2.630   5.681 -0.0664 -0.0635 -0.4909
    4SAPS   C37  496   1.497   2.621   5.601  0.0749  0.7054  0.3053
    4SAPS   H7X  497   1.491   2.511   5.614 -1.1685  0.5268 -1.4585
    4SAPS   H7Y  498   1.600   2.662   5.610  0.6319 -0.6094  0.0991
    4SAPS   C38  499   1.458   2.644   5.454  0.7669  0.3979  0.7362
    4SAPS   H8X  500   1.439   2.751   5.434  1.7050  1.1150  3.2236
    4SAPS   H8Y  501   1.368   2.585   5.423  0.5376  1.0161  0.2008
    4SAPS   C39  502   1.570   2.612   5.352 -0.5313 -0.5187  0.0829
    4SAPS   H9X  503   1.634   2.531   5.392 -0.9929 -0.3883  1.1291
    4SAPS   H9Y  504   1.629   2.707   5.351 -1.5251  0.1782  1.9914
    4SAPS  C310  505   1.514   2.570   5.216 -0.4198 -0.1194  0.2285
    4SAPS  H10X  506   1.473   2.660   5.165  1.1247 -1.1812 -3.1649
    4SAPS  H10Y  507   1.431   2.496   5.224 -1.8047  1.3318 -0.2822
    4SAPS  C311  508   1.629   2.528   5.127  0.0926 -0.3981  0.3636
    4SAPS  H11X  509   1.683   2.437   5.162  2.0029 -0.2855 -2.0089
    4SAPS  H11Y  510   1.712   2.600   5.146  1.5758 -1.9180 -0.1386
    4SAPS  C312  511   1.592   2.522   4.979  0.0946 -1.0663 -0.0782
    4SAPS  H12X  512   1.534   2.611   4.946 -0.7066 -1.1838  0.9617
    4SAPS  H12Y  513   1.530   2.434   4.954  1.4270 -1.7173 -1.2167
    4SAPS  C313  514   1.714   2.499   4.890 -0.0116  0.8849  0.2370
    4SAPS  H13X  515   1.768   2.411   4.931 -1.7561 -0.9698 -1.2395
    4SAPS  H13Y  516   1.767   2.596   4.881  2.5378 -0.0885  3.1513
    4SAPS  C314  517   1.665   2.449   4.746  0.4107 -0.5578  0.2040
    4SAPS  H14X  518   1.597   2.532   4.720 -0.9637 -0.9838  2.2607
    4SAPS  H14Y  519   1.611   2.353   4.760  0.2677 -0.6401 -0.8553
    4SAPS  C315  520   1.774   2.441   4.633  0.1756 -0.1469  0.1832
    4SAPS  H15X  521   1.852   2.367   4.662  0.5681  0.2310  0.1053
    4SAPS  H15Y  522   1.826   2.538   4.617  0.2712 -0.7433 -5.0250
    4SAPS  C316  523   1.718   2.413   4.491  0.8529 -0.0222 -0.1309
    4SAPS  H16X  524   1.649   2.498   4.473 -2.5461 -2.7674 -1.1491
    4SAPS  H16Y  525   1.648   2.327   4.497  1.6153 -0.6303  0.2601
    4SAPS  C317  526   1.817   2.400   4.373 -0.8693  0.3426 -0.2305
    4SAPS  H17X  527   1.867   2.302   4.387  0.9613  0.9422 -2.0798
    4SAPS  H17Y  528   1.886   2.486   4.385 -0.9561  0.1369  2.4669
    4SAPS  C318  529   1.744   2.403   4.247  0.3460  0.6574 -0.0908
    4SAPS  H18X  530   1.665   2.326   4.245  0.7647  0.2427 -1.0886
    4SAPS  H18Y  531   1.809   2.384   4.159 -1.0438  0.3151 -1.0702
    4SAPS  H18Z  532   1.699   2.504   4.233  0.8305  1.1562  1.6869
    5SAPS     N  533   5.225   4.732   6.569  0.0157  0.3971 -0.1374
    5SAPS   HN1  534   5.122   4.741   6.570  0.1422  2.6376 -1.4849
    5SAPS   HN2  535   5.278   4.821   6.573  1.4313 -0.4285  0.3053
    5SAPS   HN3  536   5.245   4.691   6.475 -1.4538  0.0118 -0.3106
    5SAPS   C12  537   5.257   4.629   6.673  0.8126  0.3157  0.1333
    5SAPS  H12A  538   5.364   4.634   6.685  0.8833 -1.5462  0.5220
    5SAPS   C13  539   5.192   4.649   6.819 -0.1988 -0.4870  0.6288
    5SAPS  O13A  540   5.109   4.741   6.827 -0.5273  0.1058 -0.2491
    5SAPS  O13B  541   5.225   4.569   6.912 -0.1082 -0.3191 -0.3875
    5SAPS   C11  542   5.221   4.482   6.636 -0.4529 -1.1199  0.0959
    5SAPS  H11A  543   5.118   4.475   6.596 -0.2053  1.9501 -1.4028
    5SAPS  H11B  544   5.216   4.414   6.724  0.4317  1.0127  1.9107
    5SAPS     P  545   5.440   4.366   6.567  0.7081 -0.2376 -0.7501
    5SAPS   O13  546   5.543   4.406   6.474 -0.5742 -0.5520 -0.4322
    5SAPS   O14  547   5.470   4.383   6.709 -0.4029 -0.4992  0.1377
    5SAPS   O12  548   5.305   4.439   6.532  0.0864  0.1165  0.0996
    5SAPS   O11  549   5.415   4.213   6.546  0.0383 -0.0734 -0.7686
    5SAPS    C1  550   5.284   4.168   6.501  0.0337  0.3626  0.4597
    5SAPS    HA  551   5.241   4.088   6.565 -2.3540 -0.1825 -1.6473
    5SAPS    HB  552   5.200   4.241   6.505 -0.3434 -0.0501  0.1447
    5SAPS    C2  553   5.278   4.107   6.355  0.0016  0.3378  0.4106
    5SAPS    HS  554   5.341   4.017   6.340  3.5829  3.1020 -3.1817
    5SAPS   O21  555   5.308   4.210   6.261  0.1605 -0.4957 -0.1729
    5SAPS   C21  556   5.437   4.206   6.211  0.2346  0.7384 -0.5219
    5SAPS   O22  557   5.514   4.112   6.223  0.2945  0.0970 -0.3284
    5SAPS   C22  558   5.471   4.336   6.152  0.4887 -0.1241  0.3423
    5SAPS   H2R  559   5.377   4.355   6.095  0.6915 -0.1102  0.0096
    5SAPS   H2S  560   5.464   4.412   6.233 -1.3448 -0.6511  0.7358
    5SAPS    C3  561   5.136   4.062   6.327 -0.2304 -0.5676 -0.2123
    5SAPS    HX  562   5.078   4.157   6.323  0.5872 -0.0741 -0.4083
    5SAPS    HY  563   5.104   4.003   6.416  1.0760  0.2023  0.8021
    5SAPS   O31  564   5.126   3.995   6.199 -0.2869  0.0381  0.4526
    5SAPS   C31  565   5.163   3.865   6.211  1.3000  0.3906  0.6796
    5SAPS   O32  566   5.177   3.797   6.311 -0.6212 -0.5451  0.3121
    5SAPS   C32  567   5.192   3.819   6.071  0.0052  0.0275 -0.2594
    5SAPS   H2X  568   5.093   3.789   6.028  0.0145  1.2195 -1.1621
    5SAPS   H2Y  569   5.241   3.721   6.053 -0.2683 -0.3625  1.0090
    5SAPS   C23  570   5.600   4.331   6.068 -0.0928  0.3591  0.3143
    5SAPS   H3R  571   5.604   4.244   5.999  0.8864  1.0514 -0.5471
    5SAPS   H3S  572   5.687   4.321   6.136 -0.5204  0.1004  0.8254
    5SAPS   C24  573   5.630   4.461   5.987  0.0783  0.5948  0.2126
    5SAPS   H4R  574   5.736   4.459   5.954  0.3235  0.8527  0.9661
    5SAPS   H4S  575   5.624   4.553   6.050 -0.5387  0.5631  0.2098
    5SAPS   C25  576   5.530   4.474   5.878 -0.3216  0.1635  0.4310
    5SAPS   H5R  577   5.467   4.385   5.867  1.0945 -0.6486 -1.8399
    5SAPS   C26  578   5.500   4.577   5.796  0.1658 -0.1155  0.1290
    5SAPS   H6R  579   5.420   4.565   5.722  0.1220  1.7524 -0.1956
    5SAPS   C27  580   5.569   4.711   5.796 -0.4822  0.7101  0.1194
    5SAPS   H7R  581   5.627   4.731   5.888  2.9480  0.1157 -1.7507
    5SAPS   H7S  582   5.501   4.797   5.778 -0.7587  0.3303 -0.7591
    5SAPS   C28  583   5.671   4.719   5.688  0.1219 -0.5338  0.0271
    5SAPS   H8R  584   5.773   4.726   5.729  0.7388 -0.2591 -1.4839
    5SAPS   C29  585   5.647   4.741   5.557  0.0947  0.0441  1.0267
    5SAPS   H9R  586   5.732   4.743   5.488 -1.0959  3.5840 -0.5891
    5SAPS  C210  587   5.512   4.756   5.494 -0.7563  0.1522 -0.2597
    5SAPS  H10R  588   5.434   4.760   5.573 -0.9359  0.5866 -0.4581
    5SAPS  H10S  589   5.483   4.674   5.424 -1.3936  0.0266  0.1477
    5SAPS  C211  590   5.504   4.903   5.439  0.4745  0.0020 -0.1893
    5SAPS  H11R  591   5.524   4.980   5.515  1.4504 -2.3852  2.1705
    5SAPS  C212  592   5.467   4.933   5.314  0.0315 -0.0842  0.1354
    5SAPS  H12R  593   5.464   5.039   5.284 -0.1428  0.5380  2.1817
    5SAPS  C213  594   5.427   4.840   5.201 -0.2717  1.2319 -0.5897
    5SAPS  H13R  595   5.486   4.748   5.216 -2.3250 -0.0702 -0.0616
    5SAPS  H13S  596   5.465   4.886   5.107  0.6969  2.8044  0.5340
    5SAPS  C214  597   5.284   4.792   5.199  0.7484 -0.1542  0.1530
    5SAPS  H14R  598   5.244   4.764   5.297  0.7828  0.6393  0.3986
    5SAPS  C215  599   5.207   4.764   5.088  0.6045 -0.5296 -1.0795
    5SAPS  H15R  600   5.108   4.722   5.109  0.4529  0.2559 -0.1516
    5SAPS  C216  601   5.250   4.791   4.944  0.4078  0.5954  0.7535
    5SAPS  H16R  602   5.354   4.830   4.937  1.0779 -0.7589  2.3689
    5SAPS  H16S  603   5.189   4.876   4.905  1.1302  1.0821  0.6670
    5SAPS  C217  604   5.218   4.673   4.855 -0.4381  0.4106 -0.3155
    5SAPS  H17R  605   5.109   4.673   4.831 -0.5781 -1.0415  0.1951
    5SAPS  H17S  606   5.241   4.578   4.909 -2.9362  0.5760  1.2270
    5SAPS  C218  607   5.308   4.660   4.734 -0.6374  0.1971 -0.2560
    5SAPS  H18R  608   5.415   4.643   4.762 -0.7793 -0.8811 -0.3337
    5SAPS  H18S  609   5.315   4.749   4.668 -0.2738  0.6237  0.3374
    5SAPS  C219  610   5.263   4.547   4.636 -0.0926  0.5166 -0.5267
    5SAPS  H19R  611   5.230   4.460   4.697 -0.1476 -0.9551 -2.5538
    5SAPS  H19S  612   5.349   4.527   4.569  1.0465 -0.9936  1.2960
    5SAPS  C220  613   5.132   4.567   4.553  0.2835 -0.3445 -0.7694
    5SAPS  H20R  614   5.116   4.476   4.491 -0.2899 -0.5223 -0.3681
    5SAPS  H20S  615   5.138   4.657   4.487  0.6344 -0.1467 -0.4684
    5SAPS  H20T  616   5.041   4.578   4.617  1.4428  0.4835  0.8033
    5SAPS   C33  617   5.248   3.930   5.984 -0.1141 -0.4442  0.0772
    5SAPS   H3X  618   5.341   3.968   6.030 -0.3225 -2.0541  1.9818
    5SAPS   H3Y  619   5.172   4.012   5.983 -1.0126 -1.2609 -0.3776
    5SAPS   C34  620   5.263   3.875   5.838  0.6067 -0.1962 -0.5330
    5SAPS   H4X  621   5.165   3.832   5.807  0.5798 -0.5264 -0.0138
    5SAPS   H4Y  622   5.344   3.799   5.837 -1.2171 -2.3130  1.1772
    5SAPS   C35  623   5.299   3.984   5.738 -0.4639 -0.5813 -0.5338
    5SAPS   H5X  624   5.401   4.022   5.761  0.5885 -1.6190 -3.0861
    5SAPS   H5Y  625   5.231   4.071   5.752  0.3865  0.1418 -0.7896
    5SAPS   C36  626   5.292   3.937   5.593  0.1383 -0.4208 -0.1668
    5SAPS   H6X  627   5.188   3.900   5.581 -0.3230  0.5841  0.5475
    5SAPS   H6Y  628   5.356   3.849   5.572  1.2333  0.5964 -1.1912
    5SAPS   C37  629   5.330   4.045   5.499 -0.0396 -0.0577 -0.5031
    5SAPS   H7X  630   5.429   4.092   5.519 -1.1549  2.9233 -1.5157
    5SAPS   H7Y  631   5.268   4.136   5.510  0.2533  0.3351 -1.8741
    5SAPS   C38  632   5.327   3.996   5.352  0.6734 -0.5330  0.1637
    5SAPS   H8X  633   5.233   3.955   5.309  0.1504  0.4282  0.3728
    5SAPS   H8Y  634   5.414   3.930   5.332  3.2966  2.8790 -0.6622
    5SAPS   C39  635   5.362   4.122   5.266  0.3536  0.4647  0.6149
    5SAPS   H9X  636   5.466   4.149   5.294  1.3591 -0.8811 -1.5390
    5SAPS   H9Y  637   5.302   4.212   5.290 -0.2086 -0.0014  1.0059
    5SAPS  C310  638   5.355   4.086   5.122 -0.4708 -0.1637  0.2291
    5SAPS  H10X  639   5.256   4.043   5.097 -0.3677 -0.2426 -0.0473
    5SAPS  H10Y  640   5.421   3.999   5.103 -0.0103  0.5971 -1.9633
    5SAPS  C311  641   5.407   4.192   5.017 -0.1410 -0.8091  0.8987
    5SAPS  H11X  642   5.511   4.218   5.046 -0.5112  0.1967  1.3406
    5SAPS  H11Y  643   5.338   4.276   5.041 -1.0656 -1.3756  0.3183
    5SAPS  C312  644   5.392   4.157   4.874  0.0005  0.4598  0.6912
    5SAPS  H12X  645   5.365   4.246   4.814 -2.0509 -0.6204 -0.1017
    5SAPS  H12Y  646   5.299   4.097   4.864  2.0179 -3.0077  1.0206
    5SAPS  C313  647   5.504   4.078   4.821  0.2303 -0.0068  0.0474
    5SAPS  H13X  648   5.507   3.994   4.894  0.7772 -1.4353 -1.5553
    5SAPS  H13Y  649   5.599   4.136   4.818 -0.1430  0.6632  0.8723
    5SAPS  C314  650   5.477   4.000   4.691  0.0212  0.0286 -0.1832
    5SAPS  H14X  651   5.390   3.933   4.711  0.2155 -0.0948  0.2624
    5SAPS  H14Y  652   5.563   3.930   4.686 -1.2880 -1.7122  0.5203
    5SAPS  C315  653   5.449   4.093   4.573 -0.5635  0.0639 -0.4524
    5SAPS  H15X  654   5.512   4.183   4.588 -2.0296  0.9689  0.5526
    5SAPS  H15Y  655   5.353   4.143   4.595 -0.4373  0.4382 -0.7458
    5SAPS  C316  656   5.459   4.034   4.435  0.2386  0.3584 -0.1397
    5SAPS  H16X  657   5.380   3.956   4.432  0.4472 -0.0057  2.0705
    5SAPS  H16Y  658   5.560   3.997   4.407  0.3963  0.7468 -0.0844
    5SAPS  C317  659   5.408   4.134   4.333 -0.6930 -0.7195 -0.1059
    5SAPS  H17X  660   5.299   4.144   4.350 -0.4396 -1.1358  2.0777
    5SAPS  H17Y  661   5.417   4.098   4.228 -0.0876 -2.3567  0.4772
    5SAPS  C318  662   5.480   4.274   4.341  0.1053  0.1697 -0.2313
    5SAPS  H18X  663   5.589   4.260   4.353  0.5394  0.6803 -3.0536
    5SAPS  H18Y  664   5.443   4.336   4.426  0.8313 -0.3363  0.4705
    5SAPS  H18Z  665   5.459   4.335   4.251  1.4696  4.6096  2.1583
    6SAPS     N  666   3.003   4.708   6.430 -0.4190  0.1161  0.1282
    6SAPS   HN1  667   2.932   4.781   6.450 -1.4395 -0.8645  0.2381
    6SAPS   HN2  668   3.058   4.748   6.352 -0.0431  0.4966  0.5840
    6SAPS   HN3  669   2.944   4.627   6.404 -2.5727  0.7523  2.6395
    6SAPS   C12  670   3.089   4.682   6.552  0.0385  0.6677 -0.2137
    6SAPS  H12A  671   3.182   4.636   6.520 -0.7890 -1.0076 -0.3354
    6SAPS   C13  672   3.129   4.794   6.642  0.4349 -0.1253  0.5478
    6SAPS  O13A  673   3.066   4.901   6.639  0.0771  0.3429 -0.3983
    6SAPS  O13B  674   3.219   4.779   6.734  0.0688 -0.0203 -0.1621
    6SAPS   C11  675   3.010   4.584   6.651  0.2580  0.1297  0.2434
    6SAPS  H11A  676   2.931   4.649   6.692 -0.0957  0.8925 -1.5604
    6SAPS  H11B  677   3.086   4.559   6.729  1.4288 -2.0715 -1.4625
    6SAPS     P  678   2.835   4.386   6.629 -0.0200 -0.0959  0.0446
    6SAPS   O13  679   2.876   4.247   6.678  0.3733 -0.4389  0.3778
    6SAPS   O14  680   2.753   4.466   6.721  0.2054 -0.3498  0.0993
    6SAPS   O12  681   2.956   4.472   6.576  0.1989 -0.3584 -0.4991
    6SAPS   O11  682   2.741   4.367   6.507  0.1579  0.2444  0.0417
    6SAPS    C1  683   2.764   4.259   6.409  0.4666  0.0647  0.3837
    6SAPS    HA  684   2.848   4.190   6.436  1.7553  0.8424 -1.4675
    6SAPS    HB  685   2.673   4.195   6.401 -0.2223  1.2243 -1.6602
    6SAPS    C2  686   2.809   4.321   6.271  0.0617 -0.7224 -0.6773
    6SAPS    HS  687   2.907   4.370   6.290 -0.9105  1.7572 -1.6229
    6SAPS   O21  688   2.704   4.416   6.225 -0.1886  0.1650  0.0965
    6SAPS   C21  689   2.733   4.548   6.226  0.1637 -0.3758  0.4093
    6SAPS   O22  690   2.836   4.595   6.275  0.1063 -0.4463 -0.3125
    6SAPS   C22  691   2.617   4.625   6.164 -0.2022 -0.1692 -0.1510
    6SAPS   H2R  692   2.592   4.579   6.066  0.2911 -2.1032  0.5770
    6SAPS   H2S  693   2.534   4.623   6.238  0.7853  1.0342  1.0412
    6SAPS    C3  694   2.827   4.205   6.173  0.7434 -0.0543  1.1015
    6SAPS    HX  695   2.738   4.140   6.186  0.2137  0.9681  3.0261
    6SAPS    HY  696   2.911   4.146   6.215  0.3520 -1.1583  0.3862
    6SAPS   O31  697   2.858   4.248   6.038 -0.1348  0.0413 -0.0068
    6SAPS   C31  698   2.770   4.233   5.943  1.1012 -0.9795  0.5141
    6SAPS   O32  699   2.657   4.188   5.956 -0.4511 -0.1755 -1.1171
    6SAPS   C32  700   2.829   4.251   5.804 -0.4470 -0.4125 -0.3609
    6SAPS   H2X  701   2.916   4.182   5.805  0.1488  0.3399  0.1934
    6SAPS   H2Y  702   2.864   4.356   5.799 -1.0036  0.0896  3.3673
    6SAPS   C23  703   2.647   4.774   6.148 -0.3950 -0.0864 -0.3301
    6SAPS   H3R  704   2.726   4.783   6.070  0.4615  2.4784  0.7212
    6SAPS   H3S  705   2.692   4.817   6.240  1.9279 -3.0695  0.0594
    6SAPS   C24  706   2.522   4.846   6.097 -0.8730  0.7358 -0.3923
    6SAPS   H4R  707   2.441   4.822   6.169 -0.6013 -2.5893 -1.0285
    6SAPS   H4S  708   2.494   4.810   5.996  0.6915  2.3493 -1.4648
    6SAPS   C25  709   2.548   4.995   6.083  0.4185 -0.2161 -0.7090
    6SAPS   H5R  710   2.508   5.046   6.171  0.6823 -2.3046  0.7021
    6SAPS   C26  711   2.606   5.061   5.981  0.6846  0.1780  0.4909
    6SAPS   H6R  712   2.619   5.170   5.980  1.8091  0.0610 -0.3085
    6SAPS   C27  713   2.655   5.000   5.849 -0.0659 -0.0584  0.3628
    6SAPS   H7R  714   2.660   4.889   5.863  2.2987  0.1452  1.6350
    6SAPS   H7S  715   2.757   5.039   5.828  0.0951 -1.2261 -1.3165
    6SAPS   C28  716   2.570   5.039   5.725 -0.5501 -0.6457 -1.0345
    6SAPS   H8R  717   2.474   4.985   5.729 -0.1795 -1.2795 -0.3798
    6SAPS   C29  718   2.601   5.119   5.620 -0.4194  0.3447 -0.8876
    6SAPS   H9R  719   2.515   5.133   5.553  0.2711  1.9248 -1.4790
    6SAPS  C210  720   2.728   5.197   5.591  0.0128  0.3369 -0.5650
    6SAPS  H10R  721   2.716   5.214   5.482 -2.1954 -0.5691 -0.5081
    6SAPS  H10S  722   2.813   5.127   5.607 -1.6385 -1.7731 -0.5509
    6SAPS  C211  723   2.739   5.328   5.668  0.2514  0.4129  0.1686
    6SAPS  H11R  724   2.675   5.321   5.756 -1.4400 -2.4666 -1.1347
    6SAPS  C212  725   2.800   5.441   5.633 -0.0999 -0.4922  0.5211
    6SAPS  H12R  726   2.801   5.525   5.704 -1.7506 -0.8132  0.9654
    6SAPS  C213  727   2.865   5.459   5.495 -0.1638 -0.2007  0.0714
    6SAPS  H13R  728   2.774   5.474   5.433  0.4216  3.3605 -0.1267
    6SAPS  H13S  729   2.911   5.362   5.469 -0.5229 -0.1761 -0.6805
    6SAPS  C214  730   2.944   5.587   5.463  0.4297  0.8576 -0.2137
    6SAPS  H14R  731   2.929   5.661   5.544 -1.1670 -1.4337  1.7245
    6SAPS  C215  732   2.998   5.617   5.344  0.0123 -0.7995 -0.0343
    6SAPS  H15R  733   3.035   5.720   5.331 -0.1246 -0.9721 -1.9829
    6SAPS  C216  734   3.022   5.535   5.220  0.1351 -0.2378 -0.6192
    6SAPS  H16R  735   3.023   5.426   5.239 -1.3690 -0.0620  0.7088
    6SAPS  H16S  736   3.125   5.559   5.187  1.1505 -0.7231  1.9564
    6SAPS  C217  737   2.910   5.584   5.125 -0.2571 -0.0994  0.0395
    6SAPS  H17R  738   2.919   5.694   5.130  1.9779 -0.2160  5.0885
    6SAPS  H17S  739   2.807   5.553   5.154 -1.6697  1.5135 -2.8471
    6SAPS  C218  740   2.939   5.531   4.989 -0.6994 -0.1519 -0.2191
    6SAPS  H18R  741   2.934   5.421   4.982 -1.0074 -0.0125 -3.1791
    6SAPS  H18S  742   3.045   5.558   4.969 -0.6519  1.5294  1.8588
    6SAPS  C219  743   2.845   5.575   4.865 -0.2107 -0.8983 -0.3231
    6SAPS  H19R  744   2.878   5.531   4.769 -2.7085 -1.0599 -1.1640
    6SAPS  H19S  745   2.848   5.685   4.851 -1.7908 -1.0554 -2.3852
    6SAPS  C220  746   2.695   5.546   4.888 -0.8039  0.3940  0.0703
    6SAPS  H20R  747   2.635   5.599   4.810 -0.2690 -0.3226 -0.8567
    6SAPS  H20S  748   2.671   5.574   4.993 -0.4231  1.5524 -0.1319
    6SAPS  H20T  749   2.676   5.437   4.874 -1.1948  0.2425  1.6426
    6SAPS   C33  750   2.738   4.223   5.695  0.5455  0.4357  0.7731
    6SAPS   H3X  751   2.632   4.256   5.701  0.4897  0.4420 -0.1117
    6SAPS   H3Y  752   2.735   4.113   5.686  1.0570  0.3722  1.3440
    6SAPS   C34  753   2.788   4.272   5.557 -0.3224 -0.2387  0.9054
    6SAPS   H4X  754   2.892   4.233   5.555 -0.5214 -0.8644  2.1073
    6SAPS   H4Y  755   2.785   4.383   5.565 -0.4948 -0.3209  2.4232
    6SAPS   C35  756   2.718   4.216   5.427  0.0905  0.3552  0.6497
    6SAPS   H5X  757   2.609   4.237   5.430 -0.0844 -0.6205  2.7782
    6SAPS   H5Y  758   2.714   4.105   5.437 -0.1500  0.4338  1.5008
    6SAPS   C36  759   2.765   4.251   5.287  0.7026  0.1734  0.3507
    6SAPS   H6X  760   2.868   4.211   5.271  0.5014 -0.2649  0.1241
    6SAPS   H6Y  761   2.759   4.360   5.266  1.1047  0.1738  0.2310
    6SAPS   C37  762   2.685   4.178   5.176  0.2397 -0.1243  0.0739
    6SAPS   H7X  763   2.577   4.205   5.181  0.4092  0.7339 -0.5479
    6SAPS   H7Y  764   2.700   4.070   5.195  2.4154  0.0766 -0.2419
    6SAPS   C38  765   2.735   4.213   5.028  0.2186 -0.4044 -1.3114
    6SAPS   H8X  766   2.695   4.139   4.956 -0.8784 -0.6367 -0.4994
    6SAPS   H8Y  767   2.846   4.215   5.019  0.3846  0.7361  0.4400
    6SAPS   C39  768   2.673   4.348   4.997 -0.6201 -0.4318  1.0059
    6SAPS   H9X  769   2.700   4.442   5.049 -0.2221  1.0862 -1.7485
    6SAPS   H9Y  770   2.564   4.336   5.008 -0.5320 -1.2374  1.0724
    6SAPS  C310  771   2.707   4.378   4.846  0.2187 -0.0884  0.1647
    6SAPS  H10X  772   2.727   4.285   4.789 -1.6246 -0.3133 -0.1847
    6SAPS  H10Y  773   2.800   4.437   4.835  0.8403 -1.3814 -2.0908
    6SAPS  C311  774   2.587   4.447   4.773 -0.4462 -0.2618  0.0552
    6SAPS  H11X  775   2.593   4.550   4.814  1.4033 -0.3077 -0.0251
    6SAPS  H11Y  776   2.489   4.396   4.784 -0.2566 -0.3870  1.3090
    6SAPS  C312  777   2.613   4.469   4.619  0.2845 -0.0980  0.6632
    6SAPS  H12X  778   2.531   4.534   4.579 -0.0358 -1.1875 -0.5329
    6SAPS  H12Y  779   2.601   4.370   4.569 -0.7001  0.2918  0.0839
    6SAPS  C313  780   2.753   4.518   4.584 -0.6415  0.2256  0.2648
    6SAPS  H13X  781   2.831   4.443   4.609 -1.5102  0.0004  2.5926
    6SAPS  H13Y  782   2.775   4.609   4.642  0.1387  0.3774 -0.2660
    6SAPS  C314  783   2.756   4.545   4.431 -0.3853 -0.5669  0.4268
    6SAPS  H14X  784   2.804   4.645   4.422 -2.1823  0.4325  1.2292
    6SAPS  H14Y  785   2.651   4.557   4.396  0.3350  0.0873 -1.6641
    6SAPS  C315  786   2.825   4.448   4.334  0.1047  0.0827  0.2091
    6SAPS  H15X  787   2.931   4.434   4.365 -0.0165 -0.1101  0.5375
    6SAPS  H15Y  788   2.823   4.491   4.232 -2.0929 -0.0298  0.1575
    6SAPS  C316  789   2.758   4.305   4.311  0.4359 -0.6913  0.0615
    6SAPS  H16X  790   2.800   4.267   4.215  2.3269  2.9876 -0.7644
    6SAPS  H16Y  791   2.649   4.295   4.296  0.0608  0.4077  1.8016
    6SAPS  C317  792   2.797   4.217   4.433 -1.0931 -0.2877 -0.1340
    6SAPS  H17X  793   2.755   4.244   4.532  1.2399  2.7832  0.1554
    6SAPS  H17Y  794   2.907   4.209   4.450 -0.6781 -0.6751 -2.6275
    6SAPS  C318  795   2.761   4.072   4.397 -0.2111  0.3987  0.6369
    6SAPS  H18X  796   2.777   3.998   4.478 -1.6110 -0.9211 -0.2435
    6SAPS  H18Y  797   2.817   4.040   4.306 -1.5545  3.0822 -1.3080
    6SAPS  H18Z  798   2.653   4.060   4.376  0.2145 -2.0303 -0.4465
    7SAPS     N  799   2.415   0.573   6.437  0.0191 -0.0713  0.2389
    7SAPS   HN1  800   2.450   0.670   6.451 -0.4751  0.2538 -0.6789
    7SAPS   HN2  801   2.414   0.551   6.336 -0.6195 -0.1059  0.2524
    7SAPS   HN3  802   2.322   0.584   6.480  0.0104 -1.7011  0.7095
    7SAPS   C12  803   2.480   0.476   6.527 -0.4013  0.8234 -0.0148
    7SAPS  H12A  804   2.542   0.532   6.596 -1.1910 -1.6703  2.9539
    7SAPS   C13  805   2.367   0.404   6.618  0.3146 -0.0876  0.2954
    7SAPS  O13A  806   2.246   0.432   6.624  0.0338  0.0716  0.2435
    7SAPS  O13B  807   2.424   0.347   6.713  0.0102  0.1383 -0.4400
    7SAPS   C11  808   2.548   0.366   6.440 -0.0714  0.3122  0.1271
    7SAPS  H11A  809   2.482   0.310   6.372 -0.9441  1.3142  0.1276
    7SAPS  H11B  810   2.594   0.297   6.514 -2.9170 -0.3825  1.3655
    7SAPS     P  811   2.777   0.343   6.311  0.1840 -0.2563  0.1258
    7SAPS   O13  812   2.860   0.305   6.429 -0.2078  0.0422  0.5438
    7SAPS   O14  813   2.731   0.229   6.225  0.1151  0.1233  0.0665
    7SAPS   O12  814   2.649   0.424   6.363 -0.7073  0.6607 -0.5097
    7SAPS   O11  815   2.860   0.450   6.220  0.1012  0.1115  0.6648
    7SAPS    C1  816   2.776   0.545   6.150  0.6726 -0.4608  0.3035
    7SAPS    HA  817   2.684   0.578   6.202 -0.0967 -0.7801 -0.8136
    7SAPS    HB  818   2.838   0.636   6.134  0.6112 -0.3570  0.6634
    7SAPS    C2  819   2.716   0.490   6.014  0.5344 -0.1393 -0.0284
    7SAPS    HS  820   2.650   0.404   6.034 -0.0222  0.1866 -0.4256
    7SAPS   O21  821   2.827   0.459   5.929 -0.1722 -0.3526 -0.6448
    7SAPS   C21  822   2.800   0.357   5.841 -0.3680  0.2617  0.0988
    7SAPS   O22  823   2.696   0.289   5.842 -0.4638  0.4460  0.4335
    7SAPS   C22  824   2.915   0.350   5.736  0.5028 -0.2667  0.1852
    7SAPS   H2R  825   3.010   0.372   5.789  0.9137  1.9683 -1.3493
    7SAPS   H2S  826   2.927   0.243   5.709 -0.8999 -0.7495  1.3537
    7SAPS    C3  827   2.616   0.599   5.948  0.3164  0.1287 -0.3010
    7SAPS    HX  828   2.691   0.675   5.919  0.5413  0.7918  1.8463
    7SAPS    HY  829   2.549   0.627   6.033  1.5121 -2.5128  1.6412
    7SAPS   O31  830   2.545   0.545   5.830  0.0161  0.3550  0.1222
    7SAPS   C31  831   2.448   0.458   5.846 -0.0029 -0.2171 -0.4981
    7SAPS   O32  832   2.396   0.435   5.958 -0.2459 -0.2046 -0.7404
    7SAPS   C32  833   2.417   0.391   5.711  0.7070 -0.0547 -0.0201
    7SAPS   H2X  834   2.502   0.414   5.643  1.3854 -2.1610  0.0556
    7SAPS   H2Y  835   2.321   0.436   5.680 -0.1111 -0.6225  1.5952
    7SAPS   C23  836   2.908   0.443   5.610  0.4656  0.2222 -0.2082
    7SAPS   H3R  837   2.995   0.430   5.541  0.0288 -1.2112 -0.5197
    7SAPS   H3S  838   2.906   0.540   5.663 -2.3404  0.1850 -0.1218
    7SAPS   C24  839   2.779   0.428   5.524 -0.1740 -0.1892  0.2253
    7SAPS   H4R  840   2.703   0.480   5.587  2.5728  1.2702  2.5915
    7SAPS   H4S  841   2.758   0.319   5.512 -2.6509  0.3655 -1.0655
    7SAPS   C25  842   2.776   0.505   5.396  0.2787 -0.5805 -0.0476
    7SAPS   H5R  843   2.747   0.610   5.414 -3.3437 -1.4024 -0.3606
    7SAPS   C26  844   2.806   0.469   5.272 -0.9683  0.3541 -0.6626
    7SAPS   H6R  845   2.787   0.546   5.195 -1.7331  0.2011 -0.6370
    7SAPS   C27  846   2.836   0.327   5.231  0.4891  0.7057  0.4195
    7SAPS   H7R  847   2.795   0.254   5.304 -2.0080  0.7155 -0.8798
    7SAPS   H7S  848   2.943   0.301   5.219  0.2136 -0.8065  1.1058
    7SAPS   C28  849   2.788   0.299   5.092 -0.5437  0.0065  0.2394
    7SAPS   H8R  850   2.869   0.310   5.019 -0.1435  2.4588  0.9542
    7SAPS   C29  851   2.662   0.280   5.051 -0.2455 -0.4543 -0.5404
    7SAPS   H9R  852   2.645   0.269   4.943 -1.3062  0.9442 -0.5306
    7SAPS  C210  853   2.535   0.273   5.136  0.2176  0.2115  0.0746
    7SAPS  H10R  854   2.448   0.320   5.087  0.5317  0.8539  0.1226
    7SAPS  H10S  855   2.542   0.337   5.227 -1.2790 -0.3842  0.6363
    7SAPS  C211  856   2.496   0.131   5.196  0.0138 -0.5824  0.1876
    7SAPS  H11R  857   2.537   0.096   5.292  0.5818 -0.7282 -0.1078
    7SAPS  C212  858   2.419   0.039   5.126 -0.3859 -0.5306 -0.2145
    7SAPS  H12R  859   2.400  -0.061   5.166  1.0326 -0.4659  0.6729
    7SAPS  C213  860   2.373   0.069   4.983  0.3291  0.5026 -0.2037
    7SAPS  H13R  861   2.354   0.178   4.972 -0.3517  0.4958  0.8220
    7SAPS  H13S  862   2.282   0.009   4.962  0.2214  0.8989 -0.9075
    7SAPS  C214  863   2.471   0.028   4.873  0.3085 -0.2221 -0.2592
    7SAPS  H14R  864   2.530  -0.061   4.900  2.0817  0.5943 -1.3076
    7SAPS  C215  865   2.470   0.069   4.742  0.0929 -0.0252 -1.3521
    7SAPS  H15R  866   2.533   0.023   4.665  1.4880 -2.7027  1.1872
    7SAPS  C216  867   2.374   0.170   4.695  0.1024  0.3109  0.4110
    7SAPS  H16R  868   2.273   0.154   4.739  1.2734 -2.3840  2.3974
    7SAPS  H16S  869   2.379   0.139   4.589  0.1877 -2.7455  1.2050
    7SAPS  C217  870   2.418   0.317   4.717  0.0605  0.9135 -0.1606
    7SAPS  H17R  871   2.503   0.343   4.650 -0.0178  1.8159  0.0835
    7SAPS  H17S  872   2.452   0.317   4.822  1.6441  4.7062 -0.5003
    7SAPS  C218  873   2.318   0.429   4.708 -0.2890 -0.0464  0.0372
    7SAPS  H18R  874   2.231   0.418   4.777 -1.0475 -0.0887 -0.8942
    7SAPS  H18S  875   2.273   0.401   4.610  3.9790 -2.3604 -1.5093
    7SAPS  C219  876   2.386   0.571   4.705  0.2790 -0.3207 -0.3525
    7SAPS  H19R  877   2.323   0.640   4.644 -1.7246 -0.9171  0.9269
    7SAPS  H19S  878   2.478   0.574   4.644 -0.8327  0.3600 -2.0630
    7SAPS  C220  879   2.411   0.632   4.840  0.1520  0.0001  0.0550
    7SAPS  H20R  880   2.322   0.696   4.860 -1.1777 -1.2383 -1.6089
    7SAPS  H20S  881   2.502   0.694   4.824 -0.1772 -0.1895 -3.2772
    7SAPS  H20T  882   2.432   0.551   4.913 -1.3082 -0.6020 -0.1486
    7SAPS   C33  883   2.398   0.241   5.719 -0.2374  0.5988 -0.9229
    7SAPS   H3X  884   2.327   0.221   5.802  0.0179 -0.4982 -0.9598
    7SAPS   H3Y  885   2.494   0.188   5.738 -1.8402 -2.5226 -0.8798
    7SAPS   C34  886   2.356   0.182   5.585 -0.3381  0.7186 -0.2913
    7SAPS   H4X  887   2.326   0.076   5.603 -2.9413  1.4462  0.0681
    7SAPS   H4Y  888   2.435   0.177   5.507 -1.4493  4.1461 -1.8339
    7SAPS   C35  889   2.236   0.241   5.527 -0.2675 -0.4997  0.7992
    7SAPS   H5X  890   2.269   0.332   5.473  0.4618 -0.7830  0.7688
    7SAPS   H5Y  891   2.153   0.267   5.597 -1.9673  2.0572 -1.8969
    7SAPS   C36  892   2.178   0.146   5.424  0.6007  0.1803  0.0931
    7SAPS   H6X  893   2.128   0.061   5.475 -0.0434  1.5993  1.9654
    7SAPS   H6Y  894   2.267   0.107   5.371  0.4403 -0.5688  0.3700
    7SAPS   C37  895   2.084   0.210   5.325 -0.0448  0.2570  0.2754
    7SAPS   H7X  896   2.146   0.283   5.269 -2.6261  2.7539  0.4194
    7SAPS   H7Y  897   2.001   0.265   5.375  0.0754  1.0063 -0.3365
    7SAPS   C38  898   2.024   0.109   5.228  0.0748  0.2978  0.3506
    7SAPS   H8X  899   1.964   0.033   5.282  1.5955 -0.5763  0.8619
    7SAPS   H8Y  900   2.106   0.071   5.163 -1.1726 -0.2075 -0.9648
    7SAPS   C39  901   1.918   0.171   5.128  0.0454  0.0430 -0.7406
    7SAPS   H9X  902   1.948   0.277   5.111 -0.3330  0.7336  2.2933
    7SAPS   H9Y  903   1.820   0.173   5.181 -0.1143 -0.7019 -0.9964
    7SAPS  C310  904   1.898   0.088   5.004 -0.0297 -0.2043 -1.1942
    7SAPS  H10X  905   1.894  -0.016   5.042  3.0129  0.2884  0.8169
    7SAPS  H10Y  906   1.992   0.100   4.945  0.3172  1.9268 -0.2850
    7SAPS  C311  907   1.767   0.120   4.922 -0.6464  0.6173 -0.2722
    7SAPS  H11X  908   1.771   0.228   4.897 -1.4305  0.7606  0.2006
    7SAPS  H11Y  909   1.676   0.105   4.985 -0.2069 -1.5402 -0.0485
    7SAPS  C312  910   1.760   0.046   4.781  0.0484 -0.1674 -0.6060
    7SAPS  H12X  911   1.667   0.066   4.723 -0.3215  1.1497  0.3890
    7SAPS  H12Y  912   1.752  -0.064   4.800  0.9519 -0.0354  0.6295
    7SAPS  C313  913   1.874   0.084   4.691 -0.6008  0.1528 -0.1171
    7SAPS  H13X  914   1.961   0.030   4.734 -2.2517 -3.7045 -1.2378
    7SAPS  H13Y  915   1.874   0.195   4.695  0.9791  0.2930 -2.0424
    7SAPS  C314  916   1.846   0.042   4.546 -0.5984 -0.2725  1.1785
    7SAPS  H14X  917   1.802   0.133   4.501  1.3430  0.2244  0.1758
    7SAPS  H14Y  918   1.773  -0.042   4.550  1.2626 -2.0216 -0.0299
    7SAPS  C315  919   1.973  -0.011   4.470 -0.4327  0.1203  0.3141
    7SAPS  H15X  920   2.059   0.053   4.499 -1.8467  1.2438  2.3376
    7SAPS  H15Y  921   1.959   0.002   4.361  1.1686  2.4708  0.3239
    7SAPS  C316  922   1.996  -0.158   4.512  0.2737 -0.4964 -0.3980
    7SAPS  H16X  923   1.904  -0.220   4.517  0.3448 -0.6915 -1.3727
    7SAPS  H16Y  924   2.048  -0.160   4.610  0.7855 -0.4907 -0.6678
    7SAPS  C317  925   2.077  -0.240   4.417  0.3567  0.4269 -0.3744
    7SAPS  H17X  926   2.036  -0.202   4.321  0.6414 -0.6324 -0.9455
    7SAPS  H17Y  927   2.049  -0.348   4.422  0.7456  0.3131 -0.5802
    7SAPS  C318  928   2.227  -0.216   4.428  0.0797  1.0104 -0.4434
    7SAPS  H18X  929   2.269  -0.113   4.420  1.6938  0.4988  0.8838
    7SAPS  H18Y  930   2.282  -0.282   4.359 -1.8957 -1.6541  0.3437
    7SAPS  H18Z  931   2.250  -0.258   4.528 -2.1852  0.6112 -0.0244
    8SAPS     N  932   2.034   1.772   6.652  0.5132  0.1258 -0.1701
    8SAPS   HN1  933   2.042   1.724   6.743  1.0850 -1.3594 -0.9674
    8SAPS   HN2  934   1.964   1.850   6.654  1.4436  0.9521  1.3335
    8SAPS   HN3  935   2.007   1.695   6.588 -0.0721 -0.6435  0.9807
    8SAPS   C12  936   2.168   1.815   6.603 -0.6903 -0.2605 -0.5554
    8SAPS  H12A  937   2.153   1.848   6.501 -3.4257 -0.4636 -0.3021
    8SAPS   C13  938   2.249   1.925   6.682 -0.4463  0.4327  0.5474
    8SAPS  O13A  939   2.211   1.979   6.782  0.2513 -0.1981 -0.2219
    8SAPS  O13B  940   2.365   1.926   6.635  0.2141  0.6317 -0.2822
    8SAPS   C11  941   2.253   1.683   6.597 -0.2848 -0.0422  0.1001
    8SAPS  H11A  942   2.281   1.648   6.698 -2.7490 -1.6714  0.3167
    8SAPS  H11B  943   2.344   1.714   6.541  0.4754 -1.5453  0.4526
    8SAPS     P  944   2.197   1.552   6.379 -0.4247  0.5320  0.0800
    8SAPS   O13  945   2.298   1.444   6.342 -0.2562 -0.1956 -0.2143
    8SAPS   O14  946   2.061   1.521   6.336  0.5039  0.1866 -0.3262
    8SAPS   O12  947   2.193   1.574   6.537  0.0055 -0.0861  0.5436
    8SAPS   O11  948   2.242   1.687   6.310  0.2025 -0.3397 -0.6445
    8SAPS    C1  949   2.174   1.762   6.208  0.2493 -0.3425  0.1156
    8SAPS    HA  950   2.073   1.724   6.183 -1.5617  3.0988  1.5778
    8SAPS    HB  951   2.150   1.865   6.242 -0.6111  0.3159 -2.2449
    8SAPS    C2  952   2.274   1.779   6.086 -0.3171 -0.9159 -0.4375
    8SAPS    HS  953   2.222   1.831   6.002  1.6764  0.5629 -0.8310
    8SAPS   O21  954   2.334   1.663   6.043  0.4137 -0.2534  0.6388
    8SAPS   C21  955   2.243   1.590   5.980  0.4840  0.4034  0.3986
    8SAPS   O22  956   2.127   1.624   5.957 -0.6311  0.3625 -0.0760
    8SAPS   C22  957   2.305   1.464   5.928  0.3828 -0.0917  0.4546
    8SAPS   H2R  958   2.412   1.470   5.897 -0.1808 -0.4951 -1.7146
    8SAPS   H2S  959   2.306   1.391   6.012 -0.6054  1.1561  1.5981
    8SAPS    C3  960   2.382   1.877   6.123  0.3961 -0.1909  0.0577
    8SAPS    HX  961   2.434   1.833   6.210 -0.3119 -1.2509 -0.0375
    8SAPS    HY  962   2.335   1.974   6.151  1.2917  0.2832 -0.0616
    8SAPS   O31  963   2.463   1.906   6.004 -0.0261  0.4117  0.1140
    8SAPS   C31  964   2.590   1.861   6.012  0.0903 -0.2248 -0.1787
    8SAPS   O32  965   2.633   1.800   6.110  0.1920  0.1874  0.2394
    8SAPS   C32  966   2.668   1.897   5.884  0.0812 -0.1722 -0.7206
    8SAPS   H2X  967   2.760   1.834   5.880  0.8675  0.8994  0.1796
    8SAPS   H2Y  968   2.694   2.005   5.884  1.0274 -0.1820 -5.2366
    8SAPS   C23  969   2.232   1.406   5.802 -0.4384 -0.3792 -0.2781
    8SAPS   H3R  970   2.239   1.477   5.717 -0.5858 -1.5408 -1.2885
    8SAPS   H3S  971   2.125   1.386   5.823 -0.7938  1.4051 -0.2588
    8SAPS   C24  972   2.288   1.273   5.765  0.3890 -0.0155  0.4322
    8SAPS   H4R  973   2.226   1.229   5.684 -0.3867  2.5387 -0.4713
    8SAPS   H4S  974   2.279   1.212   5.857 -3.5413  0.0680  0.2534
    8SAPS   C25  975   2.432   1.264   5.708  0.1477 -0.2827 -0.6021
    8SAPS   H5R  976   2.506   1.290   5.785 -0.9374 -0.0268  0.3916
    8SAPS   C26  977   2.485   1.233   5.589 -0.2204  0.7554 -0.0475
    8SAPS   H6R  978   2.594   1.237   5.576 -0.1356 -2.0615 -0.7888
    8SAPS   C27  979   2.418   1.195   5.458  0.3266 -0.1002  0.0301
    8SAPS   H7R  980   2.329   1.139   5.492 -0.6320  2.3457  1.9301
    8SAPS   H7S  981   2.481   1.124   5.401 -2.6301 -2.1450 -0.9029
    8SAPS   C28  982   2.380   1.311   5.372 -0.1562 -0.8426 -0.9199
    8SAPS   H8R  983   2.346   1.402   5.424 -0.6145 -0.1261 -2.4065
    8SAPS   C29  984   2.363   1.312   5.239 -0.2525  0.2022  0.1543
    8SAPS   H9R  985   2.345   1.402   5.178  1.8075  0.1581 -0.5726
    8SAPS  C210  986   2.398   1.186   5.155 -0.3049 -0.4385 -0.6577
    8SAPS  H10R  987   2.444   1.109   5.221 -0.4743  0.2166  0.2569
    8SAPS  H10S  988   2.478   1.215   5.084  0.6389  2.6100  1.4213
    8SAPS  C211  989   2.275   1.126   5.088  0.5234  0.4806  0.5127
    8SAPS  H11R  990   2.210   1.097   5.172 -0.6800  0.6568 -0.3379
    8SAPS  C212  991   2.264   1.074   4.961  0.0749 -0.0570  0.1785
    8SAPS  H12R  992   2.171   1.033   4.919 -1.3217  1.7442  1.3627
    8SAPS  C213  993   2.355   1.114   4.849 -0.3770  0.1116 -0.2723
    8SAPS  H13R  994   2.440   1.174   4.889  0.4818 -2.0166  1.3444
    8SAPS  H13S  995   2.309   1.178   4.772 -0.3713  2.5446  1.6134
    8SAPS  C214  996   2.413   0.987   4.784 -0.2057  0.2648  0.3985
    8SAPS  H14R  997   2.449   0.914   4.858 -1.1872  0.2409  0.8718
    8SAPS  C215  998   2.440   0.971   4.655 -0.8009 -0.0173 -0.0357
    8SAPS  H15R  999   2.471   0.870   4.623 -1.0392  0.1091 -0.6973
    8SAPS  C216 1000   2.417   1.078   4.547 -0.0736 -0.4528 -0.1476
    8SAPS  H16R 1001   2.495   1.068   4.469  0.3837 -0.0822  0.2522
    8SAPS  H16S 1002   2.434   1.181   4.586 -0.3336 -0.1421 -0.8441
    8SAPS  C217 1003   2.280   1.072   4.490  0.4345  0.0573  0.4255
    8SAPS  H17R 1004   2.249   1.166   4.439 -0.6984 -1.0353 -0.9729
    8SAPS  H17S 1005   2.207   1.049   4.571 -0.4062 -1.7077 -0.7612
    8SAPS  C218 1006   2.276   0.956   4.382  0.0066 -1.0121 -0.4234
    8SAPS  H18R 1007   2.167   0.935   4.374 -0.3287  0.5709 -0.2738
    8SAPS  H18S 1008   2.335   0.872   4.424  1.8942  0.0738 -0.8136
    8SAPS  C219 1009   2.333   1.005   4.252  0.3846 -0.2031  0.8848
    8SAPS  H19R 1010   2.437   1.039   4.274  0.9182 -0.7354 -0.7132
    8SAPS  H19S 1011   2.283   1.097   4.217  2.3988 -0.2728 -2.5898
    8SAPS  C220 1012   2.339   0.905   4.128 -0.6026 -0.5970 -0.7304
    8SAPS  H20R 1013   2.409   0.820   4.146 -1.4762 -1.1657  0.0584
    8SAPS  H20S 1014   2.369   0.965   4.039  1.6213 -1.4533 -0.6247
    8SAPS  H20T 1015   2.240   0.858   4.109 -1.1102  0.3044 -0.3899
    8SAPS   C33 1016   2.572   1.873   5.765  0.1647  0.1767 -0.1366
    8SAPS   H3X 1017   2.602   1.934   5.677 -0.5111 -0.1735 -0.6222
    8SAPS   H3Y 1018   2.462   1.889   5.766  0.1459  0.4581 -2.1789
    8SAPS   C34 1019   2.574   1.723   5.730 -0.4460 -0.0485  0.3597
    8SAPS   H4X 1020   2.537   1.660   5.814  0.7457 -3.5230 -1.5237
    8SAPS   H4Y 1021   2.676   1.694   5.696 -0.7168 -0.0385 -0.4890
    8SAPS   C35 1022   2.490   1.699   5.600  0.3418  0.4376 -0.1305
    8SAPS   H5X 1023   2.401   1.764   5.589  0.7664  0.9774 -0.4118
    8SAPS   H5Y 1024   2.452   1.595   5.610 -2.3860  1.4965  1.4073
    8SAPS   C36 1025   2.575   1.727   5.479 -0.1238  0.8250 -0.2379
    8SAPS   H6X 1026   2.671   1.672   5.467 -0.8004 -0.5381  0.4381
    8SAPS   H6Y 1027   2.594   1.835   5.496  0.3437  0.4881  1.5498
    8SAPS   C37 1028   2.491   1.704   5.350 -0.5870  0.2208 -0.0102
    8SAPS   H7X 1029   2.404   1.773   5.349  0.6127  1.7982 -1.5166
    8SAPS   H7Y 1030   2.452   1.600   5.346  1.2796 -0.5095 -0.3371
    8SAPS   C38 1031   2.565   1.719   5.215 -0.3733 -0.2583 -0.2388
    8SAPS   H8X 1032   2.654   1.653   5.213  1.9932  2.7225 -0.9394
    8SAPS   H8Y 1033   2.616   1.818   5.213 -2.2382  0.7609 -2.0405
    8SAPS   C39 1034   2.488   1.720   5.082 -0.0158  0.5599 -0.6954
    8SAPS   H9X 1035   2.403   1.791   5.085 -1.6759 -1.3601  2.1139
    8SAPS   H9Y 1036   2.446   1.618   5.068 -0.4881  0.4914  1.0086
    8SAPS  C310 1037   2.585   1.749   4.960 -0.3576  1.0429 -0.3151
    8SAPS  H10X 1038   2.665   1.672   4.954 -0.9889  0.3884 -0.6216
    8SAPS  H10Y 1039   2.628   1.850   4.978  0.4632  0.5423  0.6867
    8SAPS  C311 1040   2.510   1.747   4.823  0.2370  0.6430  0.2964
    8SAPS  H11X 1041   2.415   1.804   4.828  0.1696  0.4476  1.2816
    8SAPS  H11Y 1042   2.482   1.642   4.799 -1.2068  0.8672  0.8847
    8SAPS  C312 1043   2.589   1.799   4.709  0.5455  0.1787 -0.1006
    8SAPS  H12X 1044   2.698   1.802   4.730  0.9127 -1.4494 -1.5311
    8SAPS  H12Y 1045   2.575   1.905   4.679 -0.6311 -0.5811 -2.5483
    8SAPS  C313 1046   2.583   1.724   4.574 -0.2233  0.2142 -0.0467
    8SAPS  H13X 1047   2.581   1.616   4.601  0.4907  0.3404  0.5310
    8SAPS  H13Y 1048   2.678   1.741   4.519  1.8190  2.1680  3.6982
    8SAPS  C314 1049   2.444   1.750   4.502 -0.5361  0.2391  0.0765
    8SAPS  H14X 1050   2.434   1.859   4.483 -2.1019  0.0578 -0.2574
    8SAPS  H14Y 1051   2.362   1.710   4.565 -0.8704 -1.6551 -1.4668
    8SAPS  C315 1052   2.427   1.665   4.376  0.1259 -0.0926  0.4979
    8SAPS  H15X 1053   2.459   1.563   4.406  0.5670  0.5063  2.1540
    8SAPS  H15Y 1054   2.496   1.710   4.302  0.7392 -1.4030  0.2604
    8SAPS  C316 1055   2.286   1.668   4.328 -0.4147  0.3527  0.0863
    8SAPS  H16X 1056   2.208   1.714   4.392 -2.4533 -1.3106 -1.0620
    8SAPS  H16Y 1057   2.253   1.563   4.309  0.7658  0.1288 -0.8322
    8SAPS  C317 1058   2.273   1.749   4.198  0.1086 -0.3961 -0.1232
    8SAPS  H17X 1059   2.180   1.725   4.141  0.2832  1.8016 -1.4329
    8SAPS  H17Y 1060   2.358   1.721   4.132  0.2874  2.9253 -1.4527
    8SAPS  C318 1061   2.267   1.898   4.213  0.0596 -1.1792  0.4519
    8SAPS  H18X 1062   2.264   1.945   4.112 -0.1799 -1.4855  0.3149
    8SAPS  H18Y 1063   2.362   1.936   4.255 -0.2135  0.6712 -0.4989
    8SAPS  H18Z 1064   2.182   1.930   4.277  0.3182 -2.6735  1.6164
    9SAPS     N 1065   0.621   5.317   6.691  0.3437  0.5025  0.6042
    9SAPS   HN1 1066   0.527   5.296   6.650  1.5409 -1.2814 -1.4358
    9SAPS   HN2 1067   0.639   5.419   6.698 -0.0334  0.5446  0.9721
    9SAPS   HN3 1068   0.683   5.280   6.616  2.0590  0.8983  1.7805
    9SAPS   C12 1069   0.617   5.240   6.815  0.2815 -0.1183  0.0803
    9SAPS  H12A 1070   0.687   5.279   6.888 -0.8113 -0.6223  1.4268
    9SAPS   C13 1071   0.468   5.235   6.868  0.0606  0.4698  0.0665
    9SAPS  O13A 1072   0.375   5.295   6.818 -0.6922  0.5554  0.3586
    9SAPS  O13B 1073   0.447   5.181   6.983 -0.3739  0.9029 -0.0545
    9SAPS   C11 1074   0.660   5.091   6.777 -0.1461  0.5835 -0.1563
    9SAPS  H11A 1075   0.578   5.042   6.720  1.8528 -1.4484 -1.4826
    9SAPS  H11B 1076   0.665   5.028   6.869 -0.6120  2.0528  0.9054
    9SAPS     P 1077   0.917   5.101   6.740  0.0907  0.2971  0.2098
    9SAPS   O13 1078   0.921   5.229   6.813 -0.4307  0.0464  0.6470
    9SAPS   O14 1079   0.949   4.982   6.818 -0.2531  1.3179  0.2921
    9SAPS   O12 1080   0.775   5.088   6.684 -0.0187  0.1528 -0.1585
    9SAPS   O11 1081   1.012   5.120   6.613 -0.2893  0.2982 -0.0523
    9SAPS    C1 1082   1.152   5.152   6.618  0.2166  0.2388  0.2146
    9SAPS    HA 1083   1.163   5.260   6.639  4.5582  0.2551 -1.1319
    9SAPS    HB 1084   1.213   5.110   6.700  0.3012  0.9492  0.5208
    9SAPS    C2 1085   1.223   5.106   6.490  0.2434  0.1016  0.1415
    9SAPS    HS 1086   1.322   5.154   6.506 -0.0740  1.6892 -2.1737
    9SAPS   O21 1087   1.145   5.150   6.380  0.6308  0.0938  0.3114
    9SAPS   C21 1088   1.133   5.284   6.363 -1.0373 -0.1494 -0.1004
    9SAPS   O22 1089   1.184   5.368   6.439 -0.8780  0.3835 -0.2597
    9SAPS   C22 1090   1.065   5.308   6.233 -0.2151 -0.4955 -0.7977
    9SAPS   H2R 1091   1.010   5.218   6.197 -1.7598 -1.3063  3.0710
    9SAPS   H2S 1092   0.987   5.384   6.254  1.8536  1.2321  1.1088
    9SAPS    C3 1093   1.251   4.960   6.479  0.6972  0.0837 -0.5689
    9SAPS    HX 1094   1.156   4.904   6.483  1.2173 -0.9231 -1.5311
    9SAPS    HY 1095   1.297   4.928   6.575 -0.1624 -2.0720 -0.8227
    9SAPS   O31 1096   1.320   4.913   6.364  0.2373 -0.4129 -0.1116
    9SAPS   C31 1097   1.454   4.915   6.376  0.7740 -0.2599  0.3261
    9SAPS   O32 1098   1.512   4.960   6.474  0.4719  0.4910  0.7594
    9SAPS   C32 1099   1.525   4.857   6.244  0.0132  0.1700 -0.9799
    9SAPS   H2X 1100   1.450   4.802   6.184 -2.3415  1.1778  0.8502
    9SAPS   H2Y 1101   1.607   4.789   6.278 -1.7035 -0.3444  2.6395
    9SAPS   C23 1102   1.163   5.355   6.123 -0.4320  0.0148 -1.2287
    9SAPS   H3R 1103   1.239   5.275   6.116  0.3221  0.4051  1.5231
    9SAPS   H3S 1104   1.227   5.439   6.157  0.1605 -1.0763  0.4505
    9SAPS   C24 1105   1.093   5.378   5.992  0.5080  0.5847  0.4446
    9SAPS   H4R 1106   0.991   5.417   6.009 -0.5772 -1.6825 -0.5042
    9SAPS   H4S 1107   1.074   5.282   5.940 -0.2760  0.7714  0.3801
    9SAPS   C25 1108   1.158   5.468   5.891 -0.2249 -0.5948  0.1775
    9SAPS   H5R 1109   1.169   5.570   5.930 -1.2595 -0.7039  0.7853
    9SAPS   C26 1110   1.204   5.441   5.772 -0.3863  0.6929 -0.1611
    9SAPS   H6R 1111   1.259   5.514   5.710  1.6362  0.3165  1.0944
    9SAPS   C27 1112   1.190   5.300   5.709  0.0243  0.0697  1.2645
    9SAPS   H7R 1113   1.141   5.223   5.772 -0.3294 -2.3020 -1.6921
    9SAPS   H7S 1114   1.285   5.252   5.678 -0.1386  0.9628 -0.7934
    9SAPS   C28 1115   1.117   5.315   5.576 -0.4157  0.3034  0.5794
    9SAPS   H8R 1116   1.039   5.392   5.579 -0.6263  0.0698  1.7309
    9SAPS   C29 1117   1.155   5.271   5.454  0.0355 -0.2965 -0.2767
    9SAPS   H9R 1118   1.088   5.291   5.370  0.1637  0.5794 -0.1782
    9SAPS  C210 1119   1.261   5.169   5.414 -0.2263  0.2578  0.2831
    9SAPS  H10R 1120   1.207   5.081   5.375 -0.0429 -0.2326  1.1215
    9SAPS  H10S 1121   1.328   5.127   5.492  3.2607  0.6589 -2.2238
    9SAPS  C211 1122   1.363   5.233   5.318 -0.3012 -0.7554  0.1415
    9SAPS  H11R 1123   1.437   5.302   5.361 -0.4574 -1.5697  1.7981
    9SAPS  C212 1124   1.380   5.214   5.186  0.3098 -0.1137 -0.1995
    9SAPS  H12R 1125   1.450   5.285   5.139  0.5995 -1.2658 -1.5985
    9SAPS  C213 1126   1.305   5.118   5.097 -0.3893  0.9965  0.2710
    9SAPS  H13R 1127   1.274   5.036   5.165  2.1960  0.3411  0.7326
    9SAPS  H13S 1128   1.384   5.064   5.041  1.4002  2.0597  1.6553
    9SAPS  C214 1129   1.187   5.188   5.031  0.1501  0.2162 -0.9006
    9SAPS  H14R 1130   1.124   5.259   5.085 -1.9575 -0.5993 -2.1576
    9SAPS  C215 1131   1.174   5.192   4.901 -0.0248 -0.9412  1.4482
    9SAPS  H15R 1132   1.093   5.254   4.861  0.7107 -0.8942 -0.0476
    9SAPS  C216 1133   1.254   5.129   4.796  0.0422 -0.1179 -0.9182
    9SAPS  H16R 1134   1.308   5.044   4.843  0.5430  0.7683  0.1574
    9SAPS  H16S 1135   1.326   5.204   4.755 -0.3444  2.1658  2.2083
    9SAPS  C217 1136   1.171   5.054   4.687  0.0579 -0.1093 -0.2222
    9SAPS  H17R 1137   1.137   5.127   4.611 -1.4210  1.8488  2.1712
    9SAPS  H17S 1138   1.079   5.017   4.738 -1.4428 -0.5249 -3.0701
    9SAPS  C218 1139   1.242   4.929   4.635  0.1171  0.2260 -0.1640
    9SAPS  H18R 1140   1.173   4.871   4.569 -0.7088  2.6853 -1.5743
    9SAPS  H18S 1141   1.264   4.878   4.731  0.2740 -0.3883 -0.5125
    9SAPS  C219 1142   1.370   4.948   4.553 -0.6294 -0.5515  0.6980
    9SAPS  H19R 1143   1.450   4.996   4.613 -0.5560 -0.7293  0.7420
    9SAPS  H19S 1144   1.339   5.028   4.482  1.0220 -1.6790 -1.3718
    9SAPS  C220 1145   1.429   4.826   4.472  0.1930  0.5083  0.4193
    9SAPS  H20R 1146   1.500   4.853   4.392  0.7020 -1.0242  0.3055
    9SAPS  H20S 1147   1.348   4.767   4.423  2.0963 -0.8515 -1.2465
    9SAPS  H20T 1148   1.489   4.758   4.536 -2.5555 -0.1302  2.5685
    9SAPS   C33 1149   1.588   4.970   6.165  0.7517 -0.2503  0.2618
    9SAPS   H3X 1150   1.661   4.928   6.093 -0.9078 -0.0133 -1.6644
    9SAPS   H3Y 1151   1.634   5.030   6.246 -1.5545  0.1235  1.3929
    9SAPS   C34 1152   1.493   5.047   6.072  0.5360  0.3372 -0.0252
    9SAPS   H4X 1153   1.538   5.148   6.058  1.4384  0.1947  1.6767
    9SAPS   H4Y 1154   1.399   5.053   6.131  0.0154 -0.4991 -0.7329
    9SAPS   C35 1155   1.476   4.976   5.939  0.7587 -0.1594 -0.4646
    9SAPS   H5X 1156   1.370   4.999   5.914  0.2180 -3.1518 -1.3791
    9SAPS   H5Y 1157   1.484   4.866   5.956  1.4839 -0.1424 -0.6616
    9SAPS   C36 1158   1.577   5.023   5.829 -0.2440  0.1317 -0.0395
    9SAPS   H6X 1159   1.682   5.010   5.862  0.1177  0.4877 -1.0217
    9SAPS   H6Y 1160   1.554   5.132   5.824 -0.3775  0.0948 -0.2733
    9SAPS   C37 1161   1.540   4.953   5.701  0.3097 -0.2276  0.2197
    9SAPS   H7X 1162   1.430   4.963   5.691 -0.2880 -3.8322  1.8651
    9SAPS   H7Y 1163   1.554   4.844   5.712  0.4042 -0.2891 -0.4513
    9SAPS   C38 1164   1.612   5.017   5.589  0.2920  0.3287  0.0539
    9SAPS   H8X 1165   1.718   5.013   5.624  0.1331  0.8797  0.6254
    9SAPS   H8Y 1166   1.577   5.122   5.576 -1.6455 -0.0979  1.4268
    9SAPS   C39 1167   1.592   4.946   5.455 -0.4461 -0.4309  0.2026
    9SAPS   H9X 1168   1.486   4.960   5.423 -0.7418  1.1838  1.7794
    9SAPS   H9Y 1169   1.617   4.838   5.462  3.0320  0.1428 -1.3307
    9SAPS  C310 1170   1.688   4.998   5.340 -0.1268 -0.3435  0.0908
    9SAPS  H10X 1171   1.792   4.978   5.372  0.2100 -1.2158 -1.4591
    9SAPS  H10Y 1172   1.675   5.108   5.351 -0.3170 -0.2380 -1.0613
    9SAPS  C311 1173   1.661   4.931   5.204  0.0253 -0.8828  0.7412
    9SAPS  H11X 1174   1.570   4.977   5.161  1.9716  3.3564  0.5352
    9SAPS  H11Y 1175   1.640   4.825   5.228 -0.9896 -0.9387 -0.3441
    9SAPS  C312 1176   1.762   4.959   5.101  0.3091 -0.4792 -0.2701
    9SAPS  H12X 1177   1.865   4.922   5.121  0.8881  1.5167  0.6618
    9SAPS  H12Y 1178   1.768   5.070   5.097 -0.4584 -0.4610 -1.5591
    9SAPS  C313 1179   1.733   4.908   4.956  0.0592  0.5889  0.3894
    9SAPS  H13X 1180   1.647   4.973   4.929 -0.8444 -0.1913  1.3150
    9SAPS  H13Y 1181   1.693   4.805   4.970  2.2416 -0.3808 -0.1080
    9SAPS  C314 1182   1.850   4.937   4.857 -0.1881  0.7953 -0.0014
    9SAPS  H14X 1183   1.944   4.893   4.898 -0.0672 -1.5402 -2.5338
    9SAPS  H14Y 1184   1.865   5.047   4.862  0.6090  0.6471  1.5347
    9SAPS  C315 1185   1.823   4.877   4.718 -0.5640 -0.5607 -0.1471
    9SAPS  H15X 1186   1.755   4.790   4.734 -0.8837 -0.3803 -0.5093
    9SAPS  H15Y 1187   1.920   4.844   4.674  0.4762  0.7244  1.1176
    9SAPS  C316 1188   1.740   4.974   4.632 -0.7048 -0.0180 -0.8677
    9SAPS  H16X 1189   1.648   5.005   4.687 -0.1325  2.4425 -1.1782
    9SAPS  H16Y 1190   1.722   4.927   4.533 -2.1655  0.1982 -0.7316
    9SAPS  C317 1191   1.836   5.099   4.601  0.0062  0.4713  0.1322
    9SAPS  H17X 1192   1.937   5.058   4.578 -0.2037  0.4288 -0.7582
    9SAPS  H17Y 1193   1.858   5.159   4.692  2.2878  0.8478 -0.5938
    9SAPS  C318 1194   1.784   5.189   4.491 -0.1628 -0.1271 -0.0968
    9SAPS  H18X 1195   1.699   5.248   4.530  0.2460  0.3374  0.1112
    9SAPS  H18Y 1196   1.765   5.140   4.393 -1.2089  0.0193  0.0213
    9SAPS  H18Z 1197   1.858   5.270   4.475 -0.5024  0.6354  1.9616
   10SAPS     N 1198   1.542   4.549   6.943  0.4178 -0.6360 -0.2666
   10SAPS   HN1 1199   1.511   4.465   6.996 -1.1366 -0.5428 -0.9532
   10SAPS   HN2 1200   1.489   4.631   6.980  0.4566 -0.8647  0.3137
   10SAPS   HN3 1201   1.517   4.545   6.842 -1.3116 -3.9696  0.1519
   10SAPS   C12 1202   1.693   4.578   6.954 -0.4201  0.1540 -0.3697
   10SAPS  H12A 1203   1.711   4.670   6.901 -2.0442  0.8903  0.2762
   10SAPS   C13 1204   1.725   4.603   7.111 -0.7434 -0.2351  0.2918
   10SAPS  O13A 1205   1.637   4.639   7.186 -0.0615  0.2430 -0.1542
   10SAPS  O13B 1206   1.847   4.623   7.133  0.1223 -0.1265 -0.5126
   10SAPS   C11 1207   1.765   4.455   6.883 -0.1055  0.0767 -0.4646
   10SAPS  H11A 1208   1.737   4.364   6.940  1.9886  0.0179  0.5630
   10SAPS  H11B 1209   1.875   4.467   6.895 -0.0714 -0.2641 -0.4311
   10SAPS     P 1210   1.837   4.386   6.636 -0.4649 -0.1851  0.0660
   10SAPS   O13 1211   1.922   4.280   6.697  0.2269  0.0756  0.1056
   10SAPS   O14 1212   1.777   4.354   6.508 -0.1556  0.1694  0.4111
   10SAPS   O12 1213   1.731   4.439   6.741  0.1467 -0.2229 -0.1996
   10SAPS   O11 1214   1.930   4.507   6.621 -0.2012 -0.2396  0.1107
   10SAPS    C1 1215   1.889   4.641   6.603  0.1248  0.2500 -0.4246
   10SAPS    HA 1216   1.795   4.669   6.655  0.1772  2.0850 -1.2196
   10SAPS    HB 1217   1.970   4.698   6.654  2.0727 -3.7164  1.3561
   10SAPS    C2 1218   1.900   4.693   6.457  0.0981  0.2168  0.9575
   10SAPS    HS 1219   1.818   4.643   6.401 -1.0041  2.1557  0.7621
   10SAPS   O21 1220   2.028   4.658   6.409  0.3024  0.1753  0.4152
   10SAPS   C21 1221   2.036   4.617   6.290 -0.2743  0.9051 -0.1400
   10SAPS   O22 1222   1.937   4.604   6.212 -0.1621 -0.0100  0.1124
   10SAPS   C22 1223   2.183   4.602   6.243  0.5865 -0.5690 -0.9232
   10SAPS   H2R 1224   2.212   4.708   6.224  0.6735 -0.5340 -0.6057
   10SAPS   H2S 1225   2.247   4.563   6.325  2.0244  0.6635 -1.4151
   10SAPS    C3 1226   1.877   4.851   6.443 -0.7717  0.2099  0.3256
   10SAPS    HX 1227   1.953   4.911   6.496 -1.5327  2.0416 -0.5603
   10SAPS    HY 1228   1.779   4.873   6.489 -1.8432 -2.3262 -0.5495
   10SAPS   O31 1229   1.868   4.895   6.306 -0.1245 -0.9357  0.0276
   10SAPS   C31 1230   1.980   4.934   6.243 -0.3128  0.1424  0.3363
   10SAPS   O32 1231   2.090   4.945   6.299 -0.3737  0.1615 -0.3256
   10SAPS   C32 1232   1.938   4.975   6.100  0.1042  0.3567 -0.2411
   10SAPS   H2X 1233   1.906   5.081   6.100  0.9223  0.6235  0.8369
   10SAPS   H2Y 1234   1.847   4.915   6.075  1.6887 -2.3816  0.1608
   10SAPS   C23 1235   2.186   4.523   6.112  0.3459 -0.0670 -0.3051
   10SAPS   H3R 1236   2.116   4.569   6.039 -1.5474  0.9359  1.9746
   10SAPS   H3S 1237   2.172   4.414   6.125  1.0866  0.0584  2.1604
   10SAPS   C24 1238   2.321   4.535   6.047 -0.7666  1.0364  1.4933
   10SAPS   H4R 1239   2.396   4.503   6.124 -0.9222 -0.0429  1.2157
   10SAPS   H4S 1240   2.330   4.643   6.022 -0.2164  0.5446 -0.6006
   10SAPS   C25 1241   2.347   4.443   5.929 -0.3240 -1.0678 -0.0770
   10SAPS   H5R 1242   2.340   4.339   5.963  0.0592 -1.0843 -0.0399
   10SAPS   C26 1243   2.377   4.468   5.803 -0.8160 -0.3700  0.3932
   10SAPS   H6R 1244   2.419   4.382   5.750  1.4474 -1.3979  3.5207
   10SAPS   C27 1245   2.395   4.609   5.738  0.2529 -0.2004 -0.0605
   10SAPS   H7R 1246   2.502   4.621   5.710 -0.0285 -1.7514 -2.1432
   10SAPS   H7S 1247   2.357   4.694   5.798 -0.4882 -0.6851  0.1753
   10SAPS   C28 1248   2.308   4.628   5.614  0.4989  0.5430  0.6407
   10SAPS   H8R 1249   2.231   4.702   5.639 -0.3478 -0.0344 -0.2317
   10SAPS   C29 1250   2.316   4.572   5.490 -0.2047 -0.0691 -0.0907
   10SAPS   H9R 1251   2.246   4.604   5.412  0.9732  2.3378 -0.2378
   10SAPS  C210 1252   2.425   4.481   5.436  0.2662  0.5731 -0.0816
   10SAPS  H10R 1253   2.370   4.425   5.358  2.8514 -1.0282 -0.8593
   10SAPS  H10S 1254   2.471   4.413   5.511  1.7183  2.3255  0.7038
   10SAPS  C211 1255   2.534   4.562   5.377  0.2333 -0.4601 -0.0001
   10SAPS  H11R 1256   2.625   4.551   5.438 -0.6520  0.0533  1.4770
   10SAPS  C212 1257   2.533   4.643   5.269  0.4923  0.3683  1.0452
   10SAPS  H12R 1258   2.629   4.686   5.236 -0.0345  0.0698 -1.0315
   10SAPS  C213 1259   2.414   4.670   5.179  0.3886 -0.1880  0.3660
   10SAPS  H13R 1260   2.439   4.762   5.122 -0.4188  0.0918  0.4450
   10SAPS  H13S 1261   2.332   4.705   5.246 -1.6724 -1.9181 -1.1032
   10SAPS  C214 1262   2.372   4.560   5.085  0.3885  0.1734 -0.6867
   10SAPS  H14R 1263   2.396   4.464   5.131 -1.9241 -0.1599 -0.0667
   10SAPS  C215 1264   2.312   4.578   4.974  0.2527  0.3421 -0.1563
   10SAPS  H15R 1265   2.289   4.511   4.890  0.8770  1.4636 -1.2399
   10SAPS  C216 1266   2.255   4.713   4.939  0.2980 -0.4714 -0.0370
   10SAPS  H16R 1267   2.246   4.785   5.024 -2.2364  0.6087 -1.1174
   10SAPS  H16S 1268   2.154   4.689   4.900 -0.3352  0.3451  1.0440
   10SAPS  C217 1269   2.339   4.794   4.837  0.0201  0.0040 -0.7406
   10SAPS  H17R 1270   2.446   4.788   4.865 -0.2048 -2.6745 -0.1834
   10SAPS  H17S 1271   2.320   4.901   4.857  1.1277  0.1760 -0.5513
   10SAPS  C218 1272   2.317   4.773   4.685 -0.3717  0.0995 -0.7722
   10SAPS  H18R 1273   2.219   4.817   4.657 -0.4060  0.7038  0.2457
   10SAPS  H18S 1274   2.313   4.662   4.676 -0.0197 -0.0492  0.7153
   10SAPS  C219 1275   2.433   4.819   4.594 -0.1213  0.1331 -0.3990
   10SAPS  H19R 1276   2.524   4.768   4.630 -0.4271 -0.7605 -0.8700
   10SAPS  H19S 1277   2.437   4.928   4.617  2.1647 -0.1273  0.6715
   10SAPS  C220 1278   2.427   4.797   4.445  0.1891  0.0930 -0.1912
   10SAPS  H20R 1279   2.446   4.692   4.415 -0.4002  0.2342 -1.0936
   10SAPS  H20S 1280   2.504   4.859   4.393  0.6334  1.6760  2.1778
   10SAPS  H20T 1281   2.328   4.832   4.407 -0.8258 -0.4893  1.7857
   10SAPS   C33 1282   2.049   4.970   6.000 -1.0612  0.6529  0.6813
   10SAPS   H3X 1283   2.102   4.872   6.004  0.7075  1.2515 -3.4733
   10SAPS   H3Y 1284   2.118   5.056   6.014  0.5549 -0.6480  1.0075
   10SAPS   C34 1285   2.002   4.975   5.853 -0.3277 -0.6169  0.0218
   10SAPS   H4X 1286   1.947   5.072   5.847  0.0875 -0.4125 -0.5175
   10SAPS   H4Y 1287   1.930   4.891   5.838  1.2794 -1.5816 -2.7975
   10SAPS   C35 1288   2.123   4.965   5.754  0.5387 -0.2070  0.0809
   10SAPS   H5X 1289   2.158   4.862   5.776  2.3891  0.5482  0.8857
   10SAPS   H5Y 1290   2.203   5.041   5.771  1.4535 -0.2868 -3.2538
   10SAPS   C36 1291   2.086   4.989   5.606 -0.0977 -0.4759 -0.3708
   10SAPS   H6X 1292   2.063   5.097   5.592 -0.9284 -0.8021 -1.6926
   10SAPS   H6Y 1293   1.992   4.933   5.588 -0.8862  1.0997 -1.4156
   10SAPS   C37 1294   2.188   4.943   5.501 -0.0001  0.0283 -0.2804
   10SAPS   H7X 1295   2.169   4.837   5.471 -0.8933  0.2587 -0.5637
   10SAPS   H7Y 1296   2.291   4.948   5.542  0.5806  0.5713 -1.7468
   10SAPS   C38 1297   2.186   5.026   5.369  0.1015 -0.4881  0.4449
   10SAPS   H8X 1298   2.258   4.966   5.308  1.2464 -0.9076  2.1490
   10SAPS   H8Y 1299   2.227   5.126   5.397 -0.1761 -0.1725 -0.2320
   10SAPS   C39 1300   2.050   5.055   5.304  0.6941  0.1159  0.5426
   10SAPS   H9X 1301   1.985   5.100   5.383  0.5783  1.6673 -0.3802
   10SAPS   H9Y 1302   1.992   4.963   5.282 -1.0051  1.3257 -0.3260
   10SAPS  C310 1303   2.061   5.151   5.191 -0.2858 -0.9307 -0.1875
   10SAPS  H10X 1304   2.108   5.245   5.227  1.4559 -1.3788 -1.1661
   10SAPS  H10Y 1305   1.962   5.193   5.162  0.4129  1.6231  0.8347
   10SAPS  C311 1306   2.139   5.089   5.067  0.1701 -0.1683 -0.1204
   10SAPS  H11X 1307   2.107   4.984   5.048  2.0791 -0.9353  0.6300
   10SAPS  H11Y 1308   2.247   5.084   5.092 -0.1126 -1.9465  0.9651
   10SAPS  C312 1309   2.106   5.178   4.947 -0.1478 -0.2354 -0.6173
   10SAPS  H12X 1310   1.998   5.201   4.954 -0.6968 -2.8757  1.1754
   10SAPS  H12Y 1311   2.129   5.132   4.849  1.1161 -0.2789 -0.3222
   10SAPS  C313 1312   2.182   5.311   4.951  0.5905 -0.0779  0.7020
   10SAPS  H13X 1313   2.285   5.286   4.915  1.0388  2.0026  0.3648
   10SAPS  H13Y 1314   2.189   5.355   5.052  0.1057  0.4448  0.5143
   10SAPS  C314 1315   2.120   5.417   4.851 -1.0022 -0.5357  0.0099
   10SAPS  H14X 1316   2.018   5.437   4.890 -0.8284 -2.0473  1.3281
   10SAPS  H14Y 1317   2.100   5.362   4.757  0.6341 -0.8205 -0.1996
   10SAPS  C315 1318   2.219   5.536   4.830  0.7960 -0.0156  0.1329
   10SAPS  H15X 1319   2.319   5.490   4.816  1.9314  1.0769  3.5832
   10SAPS  H15Y 1320   2.228   5.587   4.929 -0.7107 -2.9634  1.9458
   10SAPS  C316 1321   2.182   5.619   4.709 -0.1202 -0.9983 -0.0994
   10SAPS  H16X 1322   2.086   5.673   4.725 -0.7911 -2.2800  0.3550
   10SAPS  H16Y 1323   2.168   5.558   4.618  0.4030  1.4963 -1.9551
   10SAPS  C317 1324   2.297   5.722   4.688  0.0113  0.0852 -0.0653
   10SAPS  H17X 1325   2.398   5.676   4.691  0.8522  1.6853 -1.5697
   10SAPS  H17Y 1326   2.304   5.795   4.772  1.3252  0.4189 -0.4328
   10SAPS  C318 1327   2.283   5.806   4.561  0.6524  0.5633 -0.4938
   10SAPS  H18X 1328   2.177   5.837   4.552 -0.6091 -2.9239  0.8622
   10SAPS  H18Y 1329   2.300   5.729   4.482 -1.9610 -0.1591 -0.4250
   10SAPS  H18Z 1330   2.358   5.888   4.557  2.7280 -1.1014  1.4420
   11SAPS     N 1331   3.803   3.291   2.083  0.5359  0.0525 -0.2051
   11SAPS   HN1 1332   3.706   3.279   2.120 -0.0160  1.2815 -1.1642
   11SAPS   HN2 1333   3.873   3.269   2.157  0.4406 -1.1795 -0.4626
   11SAPS   HN3 1334   3.810   3.395   2.074 -1.9483  0.4284  1.1250
   11SAPS   C12 1335   3.835   3.217   1.962  0.5156 -0.0261 -0.3646
   11SAPS  H12A 1336   3.752   3.250   1.902  0.1734 -2.2181 -1.1695
   11SAPS   C13 1337   3.964   3.251   1.887  0.0598 -0.1312  0.3738
   11SAPS  O13A 1338   4.047   3.343   1.914 -0.3370 -0.0111  0.4288
   11SAPS  O13B 1339   3.970   3.188   1.776 -0.9333 -0.1424  0.1233
   11SAPS   C11 1340   3.813   3.070   1.979  0.0655  0.4324  0.4083
   11SAPS  H11A 1341   3.882   3.028   2.055 -1.2020  0.4162  1.5854
   11SAPS  H11B 1342   3.841   3.019   1.884 -1.2405  0.4020  0.0138
   11SAPS     P 1343   3.631   2.905   2.049 -0.4839 -0.1445  0.0644
   11SAPS   O13 1344   3.500   2.907   2.121  0.1834 -0.1667 -0.5115
   11SAPS   O14 1345   3.638   2.821   1.926  0.3710 -0.2369  0.1252
   11SAPS   O12 1346   3.681   3.051   2.015 -0.3623  0.5420 -0.5322
   11SAPS   O11 1347   3.747   2.860   2.145 -0.2877 -0.3867  0.1359
   11SAPS    C1 1348   3.781   2.919   2.267 -0.8486 -0.1204 -0.0589
   11SAPS    HA 1349   3.875   2.875   2.306 -0.4020 -0.5247 -1.5109
   11SAPS    HB 1350   3.793   3.030   2.267  1.5036 -0.2281 -2.9180
   11SAPS    C2 1351   3.677   2.881   2.376 -0.2914 -0.2248 -0.2208
   11SAPS    HS 1352   3.574   2.915   2.353  0.3492  2.3564  0.4207
   11SAPS   O21 1353   3.732   2.923   2.499  0.1518  0.0092 -0.5756
   11SAPS   C21 1354   3.714   3.059   2.530  0.6662  0.0119  0.1797
   11SAPS   O22 1355   3.641   3.134   2.476 -0.1600  0.2393  0.3172
   11SAPS   C22 1356   3.792   3.092   2.661 -0.1475 -0.7005  0.1080
   11SAPS   H2R 1357   3.833   2.996   2.701  4.9295  1.3902  0.6471
   11SAPS   H2S 1358   3.873   3.158   2.622 -0.0755 -1.0782 -0.3932
   11SAPS    C3 1359   3.664   2.723   2.386 -0.0801  0.3819  0.3977
   11SAPS    HX 1360   3.772   2.698   2.392 -0.2299 -0.0912  1.4054
   11SAPS    HY 1361   3.613   2.685   2.295  1.0595 -0.7651  0.2090
   11SAPS   O31 1362   3.595   2.685   2.505  0.2499 -0.0363  0.3813
   11SAPS   C31 1363   3.579   2.554   2.506 -0.2594  0.0150 -0.5023
   11SAPS   O32 1364   3.630   2.477   2.420  0.3914  0.0239  0.3803
   11SAPS   C32 1365   3.496   2.504   2.634  0.3234  0.9096  0.2758
   11SAPS   H2X 1366   3.449   2.406   2.608  0.7884  0.6247  0.5034
   11SAPS   H2Y 1367   3.407   2.570   2.647  0.0779  0.4541  0.9479
   11SAPS   C23 1368   3.719   3.174   2.780  0.0889 -0.5597  0.2211
   11SAPS   H3R 1369   3.613   3.142   2.774 -1.3705  3.4786  1.2369
   11SAPS   H3S 1370   3.726   3.283   2.760  0.4532 -0.6576 -0.2080
   11SAPS   C24 1371   3.788   3.147   2.915  0.0750  0.0536  0.0016
   11SAPS   H4R 1372   3.799   3.038   2.935 -0.7658  0.1864  1.3037
   11SAPS   H4S 1373   3.726   3.184   2.999  1.5804  2.1123  0.2793
   11SAPS   C25 1374   3.922   3.211   2.919 -0.1382  0.2757 -0.6652
   11SAPS   H5R 1375   3.979   3.230   2.827  3.6812  1.3173  1.6754
   11SAPS   C26 1376   3.982   3.235   3.037 -0.7300 -0.3324 -0.7092
   11SAPS   H6R 1377   4.083   3.276   3.023 -0.0303 -2.3250 -2.0077
   11SAPS   C27 1378   3.931   3.214   3.172  0.3107 -0.3109  0.1578
   11SAPS   H7R 1379   4.022   3.198   3.234  1.3210 -0.2419 -1.2486
   11SAPS   H7S 1380   3.860   3.129   3.185 -1.7968  1.4838  1.0077
   11SAPS   C28 1381   3.848   3.337   3.217 -0.9702  0.0953  0.3163
   11SAPS   H8R 1382   3.791   3.379   3.133 -0.8992 -0.6039 -0.0951
   11SAPS   C29 1383   3.852   3.384   3.341  0.0672 -0.0022  0.5300
   11SAPS   H9R 1384   3.775   3.460   3.364  0.4662  0.6215 -0.1448
   11SAPS  C210 1385   3.932   3.338   3.461 -0.7393 -0.2348  0.2225
   11SAPS  H10R 1386   3.926   3.228   3.474 -0.9632 -0.4516 -1.4219
   11SAPS  H10S 1387   3.875   3.375   3.548  0.1252  3.0503 -0.4554
   11SAPS  C211 1388   4.075   3.390   3.462 -0.0920  0.5723  0.2399
   11SAPS  H11R 1389   4.134   3.369   3.372  1.6081 -2.0514  1.8315
   11SAPS  C212 1390   4.138   3.442   3.571  0.2542 -0.1353 -0.1323
   11SAPS  H12R 1391   4.244   3.470   3.564  0.1761 -0.2464 -2.4661
   11SAPS  C213 1392   4.066   3.469   3.700  0.1080 -0.0055  0.6549
   11SAPS  H13R 1393   3.975   3.405   3.702 -0.4116  0.2842 -3.9167
   11SAPS  H13S 1394   4.020   3.568   3.715 -0.4272 -0.4106  1.7977
   11SAPS  C214 1395   4.151   3.443   3.819 -0.5577 -0.0387 -1.0399
   11SAPS  H14R 1396   4.256   3.410   3.812 -0.4268 -0.1907  1.0395
   11SAPS  C215 1397   4.098   3.461   3.945  0.3934 -0.4414  0.2619
   11SAPS  H15R 1398   4.164   3.441   4.030  2.7266  0.0929 -1.3360
   11SAPS  C216 1399   3.957   3.504   3.980  0.1501 -0.6826 -0.2019
   11SAPS  H16R 1400   3.898   3.558   3.903  1.9358  0.8617 -0.5324
   11SAPS  H16S 1401   3.964   3.578   4.062 -1.5631 -0.9408  0.2365
   11SAPS  C217 1402   3.878   3.387   4.025 -1.1086  0.2218  0.4544
   11SAPS  H17R 1403   3.779   3.417   4.066 -1.3032 -0.8442  0.7886
   11SAPS  H17S 1404   3.933   3.319   4.094  0.2881  1.7521  0.9276
   11SAPS  C218 1405   3.828   3.304   3.903  0.1138 -0.6097  0.2232
   11SAPS  H18R 1406   3.919   3.273   3.848  0.1842  0.0382 -0.0356
   11SAPS  H18S 1407   3.758   3.356   3.835 -2.2618 -1.8850  1.5577
   11SAPS  C219 1408   3.737   3.189   3.950 -0.1678 -0.1964  0.0745
   11SAPS  H19R 1409   3.646   3.240   3.988  0.6791  0.9576  0.5874
   11SAPS  H19S 1410   3.787   3.126   4.026 -0.4558 -0.0982  0.3479
   11SAPS  C220 1411   3.680   3.118   3.825  0.8103  0.8190 -0.3136
   11SAPS  H20R 1412   3.621   3.027   3.848 -0.6284  1.4963 -1.1779
   11SAPS  H20S 1413   3.749   3.082   3.746 -1.1096 -3.9378 -0.1311
   11SAPS  H20T 1414   3.602   3.178   3.773 -0.4869  0.3867  1.0624
   11SAPS   C33 1415   3.560   2.509   2.778 -0.6331 -0.5071 -0.5051
   11SAPS   H3X 1416   3.611   2.607   2.785 -1.0836 -0.1522 -1.8435
   11SAPS   H3Y 1417   3.643   2.435   2.767 -1.6420 -2.1322  1.9834
   11SAPS   C34 1418   3.468   2.499   2.900  0.7563  0.6244 -0.1441
   11SAPS   H4X 1419   3.406   2.407   2.906  1.4894  0.1117 -0.2468
   11SAPS   H4Y 1420   3.401   2.586   2.884  0.1853  0.5254  1.4956
   11SAPS   C35 1421   3.545   2.520   3.034  0.0464  0.5494  0.1653
   11SAPS   H5X 1422   3.591   2.621   3.028  2.5664 -0.5380  0.2026
   11SAPS   H5Y 1423   3.616   2.434   3.039 -1.2161 -0.5443 -0.0842
   11SAPS   C36 1424   3.444   2.511   3.151 -0.0244 -0.0484  0.1165
   11SAPS   H6X 1425   3.402   2.409   3.162  0.8046 -0.3585  0.5317
   11SAPS   H6Y 1426   3.368   2.589   3.130  0.8152  0.5745 -0.7208
   11SAPS   C37 1427   3.504   2.558   3.284  0.7980  0.1253  0.4980
   11SAPS   H7X 1428   3.419   2.549   3.355  0.4419 -1.9144 -0.1065
   11SAPS   H7Y 1429   3.537   2.664   3.280 -0.1336  0.3982 -1.3202
   11SAPS   C38 1430   3.613   2.465   3.342 -0.6356 -0.6969 -0.1337
   11SAPS   H8X 1431   3.707   2.457   3.284  0.1157 -2.7559  1.2247
   11SAPS   H8Y 1432   3.576   2.360   3.354 -1.4056 -0.3632  0.4914
   11SAPS   C39 1433   3.675   2.512   3.472  0.2815 -0.1356 -0.6662
   11SAPS   H9X 1434   3.701   2.620   3.462 -1.5865  0.6156  1.6731
   11SAPS   H9Y 1435   3.765   2.451   3.497  0.1606 -0.6407 -1.4324
   11SAPS  C310 1436   3.578   2.491   3.590 -0.2383 -0.0847 -1.1275
   11SAPS  H10X 1437   3.584   2.382   3.613 -0.0573  0.8128  4.1438
   11SAPS  H10Y 1438   3.483   2.536   3.554 -0.7412  3.2168  3.5406
   11SAPS  C311 1439   3.621   2.566   3.715 -0.1367  0.0765 -0.3586
   11SAPS  H11X 1440   3.647   2.667   3.679  2.2458 -0.3698 -0.0465
   11SAPS  H11Y 1441   3.713   2.513   3.747  1.4732  2.9051  0.0114
   11SAPS  C312 1442   3.507   2.579   3.822 -0.2648 -0.2680 -0.0875
   11SAPS  H12X 1443   3.465   2.481   3.855  0.9844 -0.6438  0.4180
   11SAPS  H12Y 1444   3.425   2.636   3.773 -1.9668 -1.8193  0.7958
   11SAPS  C313 1445   3.556   2.651   3.952  0.0858 -0.4386  0.5760
   11SAPS  H13X 1446   3.587   2.753   3.921  1.3583 -0.5353  1.4492
   11SAPS  H13Y 1447   3.642   2.590   3.987 -2.0709 -2.3211  3.0257
   11SAPS  C314 1448   3.444   2.656   4.059 -0.1480  0.7858  1.0453
   11SAPS  H14X 1449   3.413   2.554   4.090  3.8957 -1.1655 -0.6136
   11SAPS  H14Y 1450   3.357   2.720   4.029  0.5563  1.5805  0.6635
   11SAPS  C315 1451   3.486   2.712   4.193 -0.1591 -0.2849 -0.3543
   11SAPS  H15X 1452   3.402   2.703   4.266 -1.3100  0.1124 -1.5736
   11SAPS  H15Y 1453   3.516   2.817   4.175  0.3577 -0.0961  1.4764
   11SAPS  C316 1454   3.622   2.665   4.253 -0.3379 -0.4460  0.3348
   11SAPS  H16X 1455   3.698   2.708   4.184 -2.4676  1.8507 -0.7529
   11SAPS  H16Y 1456   3.626   2.554   4.250 -0.3353 -0.4519  0.6032
   11SAPS  C317 1457   3.646   2.717   4.397 -0.3717  0.1182  1.1228
   11SAPS  H17X 1458   3.729   2.652   4.432 -0.2344 -0.1577  0.3074
   11SAPS  H17Y 1459   3.560   2.686   4.460 -1.5770 -0.2894 -0.6430
   11SAPS  C318 1460   3.671   2.862   4.405  0.9280 -0.5850  0.9452
   11SAPS  H18X 1461   3.589   2.915   4.351 -0.2633 -1.5767  1.7296
   11SAPS  H18Y 1462   3.767   2.877   4.350  0.1554 -3.0876 -1.3090
   11SAPS  H18Z 1463   3.683   2.899   4.509 -0.9996 -1.4586  1.5235
   12SAPS     N 1464   2.706   1.604   1.969 -0.6643 -0.1764  0.2081
   12SAPS   HN1 1465   2.708   1.667   2.053 -0.9221 -1.8218  1.4970
   12SAPS   HN2 1466   2.686   1.669   1.890  2.2804  0.0695 -0.4429
   12SAPS   HN3 1467   2.626   1.539   1.979  0.6335 -1.8655  0.1122
   12SAPS   C12 1468   2.843   1.542   1.946  0.4250 -0.1852 -0.7825
   12SAPS  H12A 1469   2.843   1.463   2.019 -0.9022  1.8813  1.6589
   12SAPS   C13 1470   2.852   1.480   1.805  0.0833 -0.1380 -0.1990
   12SAPS  O13A 1471   2.755   1.491   1.726  0.1705  0.2841  0.0401
   12SAPS  O13B 1472   2.960   1.434   1.772  0.7416  0.8302  0.1668
   12SAPS   C11 1473   2.952   1.653   1.964  0.0947  0.3054  0.3642
   12SAPS  H11A 1474   2.933   1.727   1.884 -0.3744  0.4709  0.6263
   12SAPS  H11B 1475   3.054   1.611   1.953  0.8614  2.0143  0.6337
   12SAPS     P 1476   3.051   1.801   2.163  0.0751 -0.2160  0.1002
   12SAPS   O13 1477   3.172   1.795   2.079 -0.1161  0.0130 -0.1889
   12SAPS   O14 1478   2.999   1.938   2.199  0.5105  0.4140 -0.6544
   12SAPS   O12 1479   2.929   1.725   2.087  0.2972  0.2806 -0.5087
   12SAPS   O11 1480   3.069   1.710   2.291 -0.4334  0.4080  0.1471
   12SAPS    C1 1481   2.955   1.689   2.369  0.3666  0.5019 -0.2114
   12SAPS    HA 1482   2.856   1.696   2.318 -0.4698  0.5612  1.3406
   12SAPS    HB 1483   2.956   1.586   2.410 -0.8630  0.6361  0.2120
   12SAPS    C2 1484   2.949   1.784   2.492  0.2161 -0.2801 -0.7127
   12SAPS    HS 1485   2.945   1.888   2.451 -2.1874  0.2726  0.7038
   12SAPS   O21 1486   3.055   1.753   2.582  0.0419 -0.1961 -0.2307
   12SAPS   C21 1487   3.107   1.858   2.644 -0.1829  0.4139  0.5054
   12SAPS   O22 1488   3.093   1.970   2.593  0.1570  0.1419  0.4010
   12SAPS   C22 1489   3.181   1.816   2.771 -0.2872  0.2683  1.0211
   12SAPS   H2R 1490   3.149   1.711   2.793 -0.2650  0.3507  1.4415
   12SAPS   H2S 1491   3.288   1.807   2.743 -0.0138 -0.6087  2.2454
   12SAPS    C3 1492   2.810   1.763   2.565  0.0615 -0.1652 -0.1252
   12SAPS    HX 1493   2.819   1.657   2.597  0.7449  0.2361  1.0791
   12SAPS    HY 1494   2.729   1.779   2.490 -1.5593  3.0474  2.0835
   12SAPS   O31 1495   2.784   1.845   2.672  0.1243 -0.2626 -0.3071
   12SAPS   C31 1496   2.655   1.845   2.721 -0.0821 -0.0634 -0.1285
   12SAPS   O32 1497   2.565   1.775   2.683 -0.0777  0.0262 -0.0870
   12SAPS   C32 1498   2.636   1.953   2.817  0.3861 -1.4595 -0.4418
   12SAPS   H2X 1499   2.554   2.019   2.782  0.0673  0.1986  2.9828
   12SAPS   H2Y 1500   2.726   2.018   2.824  0.7472 -2.0749  0.9503
   12SAPS   C23 1501   3.160   1.897   2.899 -0.6048 -0.3459 -0.6287
   12SAPS   H3R 1502   3.067   1.958   2.899  0.2710  1.0239 -1.5039
   12SAPS   H3S 1503   3.244   1.969   2.907 -1.0662  0.3099 -1.5750
   12SAPS   C24 1504   3.162   1.814   3.026 -0.6609 -0.5495  0.1886
   12SAPS   H4R 1505   3.167   1.888   3.109 -0.0274 -0.7114  0.3046
   12SAPS   H4S 1506   3.252   1.749   3.033 -0.3259 -0.2343 -1.0660
   12SAPS   C25 1507   3.054   1.715   3.049  0.8787  0.2967  0.0749
   12SAPS   H5R 1508   3.000   1.682   2.959 -0.9807  2.8752  0.1381
   12SAPS   C26 1509   3.009   1.676   3.176  0.0171  0.0266  0.1695
   12SAPS   H6R 1510   2.928   1.603   3.184 -0.0001 -0.0417 -0.5688
   12SAPS   C27 1511   3.089   1.723   3.300  0.5173 -0.3775 -0.9153
   12SAPS   H7R 1512   3.039   1.819   3.326 -0.4332 -0.9635 -0.5063
   12SAPS   H7S 1513   3.196   1.749   3.282  1.2834 -3.3956 -1.1956
   12SAPS   C28 1514   3.098   1.614   3.411  0.1955 -0.6257  0.8552
   12SAPS   H8R 1515   3.117   1.518   3.362 -3.0889 -0.1141 -1.8334
   12SAPS   C29 1516   3.050   1.622   3.539  0.6331  0.4332  0.0295
   12SAPS   H9R 1517   3.062   1.539   3.610  1.0204  0.1586 -0.3553
   12SAPS  C210 1518   2.989   1.741   3.603 -0.0798 -0.5640 -0.1750
   12SAPS  H10R 1519   3.022   1.830   3.544  2.3428 -1.0468  0.3388
   12SAPS  H10S 1520   3.034   1.755   3.704  2.2559  0.3196 -1.2494
   12SAPS  C211 1521   2.834   1.726   3.615  0.6050 -0.2831  0.7450
   12SAPS  H11R 1522   2.777   1.737   3.521  2.4059  1.2018 -0.2177
   12SAPS  C212 1523   2.762   1.684   3.723  0.1133 -0.7613 -0.6329
   12SAPS  H12R 1524   2.653   1.690   3.717 -0.2597 -1.0784  3.2194
   12SAPS  C213 1525   2.828   1.653   3.859 -0.3550  0.7377  0.6089
   12SAPS  H13R 1526   2.936   1.680   3.854  0.3389 -1.8984 -3.5105
   12SAPS  H13S 1527   2.827   1.543   3.868 -0.2534  0.7730  1.0708
   12SAPS  C214 1528   2.767   1.732   3.971 -0.3931 -0.0650  0.2871
   12SAPS  H14R 1529   2.784   1.840   3.960 -0.5810  0.1813  2.0933
   12SAPS  C215 1530   2.703   1.686   4.082 -0.8308  0.5300  0.0549
   12SAPS  H15R 1531   2.663   1.756   4.157 -1.5915 -1.0563  1.1786
   12SAPS  C216 1532   2.688   1.541   4.117  0.2875  0.6602 -0.8408
   12SAPS  H16R 1533   2.702   1.477   4.027  1.0392 -0.1479 -0.1721
   12SAPS  H16S 1534   2.579   1.524   4.127  0.6988 -3.1218 -1.1675
   12SAPS  C217 1535   2.756   1.477   4.239  0.0675 -0.0062 -0.1591
   12SAPS  H17R 1536   2.713   1.529   4.328  2.2793  0.4577  0.7191
   12SAPS  H17S 1537   2.865   1.499   4.244  0.2363 -1.0336  1.4026
   12SAPS  C218 1538   2.729   1.324   4.252 -0.3034  0.5311  0.6422
   12SAPS  H18R 1539   2.767   1.270   4.162 -2.2388 -0.5769  0.4484
   12SAPS  H18S 1540   2.625   1.286   4.259  0.4388 -1.5869  1.1877
   12SAPS  C219 1541   2.795   1.260   4.374 -0.1252  0.0153  0.1610
   12SAPS  H19R 1542   2.750   1.296   4.468 -0.1405 -0.0835  0.1913
   12SAPS  H19S 1543   2.899   1.299   4.361 -0.8113  1.5202 -1.1202
   12SAPS  C220 1544   2.792   1.108   4.362  0.6369  0.2557  1.1180
   12SAPS  H20R 1545   2.850   1.069   4.275 -1.6790 -1.2913  0.1460
   12SAPS  H20S 1546   2.688   1.072   4.349  0.7804  0.7055 -1.8759
   12SAPS  H20T 1547   2.836   1.054   4.448 -1.1527 -0.5905  1.5592
   12SAPS   C33 1548   2.597   1.909   2.955  0.6716  0.3264 -0.0909
   12SAPS   H3X 1549   2.526   1.823   2.954  1.2599 -0.1822 -2.0908
   12SAPS   H3Y 1550   2.544   1.992   3.006  1.0009  0.5268 -0.0747
   12SAPS   C34 1551   2.714   1.878   3.049  0.0949  0.2552 -0.0678
   12SAPS   H4X 1552   2.770   1.972   3.072 -1.0566  0.5286  1.8158
   12SAPS   H4Y 1553   2.786   1.813   2.996 -0.6230 -0.9460  0.4044
   12SAPS   C35 1554   2.671   1.804   3.178  0.2233 -0.1721  0.4102
   12SAPS   H5X 1555   2.758   1.769   3.238 -0.3455 -0.7741  0.8952
   12SAPS   H5Y 1556   2.617   1.714   3.144 -0.3011  1.1201 -2.4816
   12SAPS   C36 1557   2.576   1.885   3.269  0.4993  0.0554  0.0167
   12SAPS   H6X 1558   2.569   1.829   3.365  0.9309 -0.3679 -0.1942
   12SAPS   H6Y 1559   2.480   1.867   3.216  1.5208 -0.5813 -1.7162
   12SAPS   C37 1560   2.601   2.035   3.292  0.0628  0.8184  0.5838
   12SAPS   H7X 1561   2.589   2.093   3.198  1.5440 -1.3261 -1.0332
   12SAPS   H7Y 1562   2.705   2.067   3.316  0.2291 -0.5226  1.7328
   12SAPS   C38 1563   2.513   2.085   3.400 -1.0173  0.1191 -0.1907
   12SAPS   H8X 1564   2.407   2.052   3.388 -0.4964 -2.7420  1.9857
   12SAPS   H8Y 1565   2.504   2.195   3.405  0.1278  0.2742 -1.2111
   12SAPS   C39 1566   2.573   2.032   3.526  0.2430 -0.2938 -0.2940
   12SAPS   H9X 1567   2.682   2.048   3.520  0.0622  1.0801 -0.2569
   12SAPS   H9Y 1568   2.538   1.928   3.545 -2.8599  0.6649 -0.0727
   12SAPS  C310 1569   2.545   2.114   3.657 -0.0870 -0.0355 -0.6240
   12SAPS  H10X 1570   2.439   2.102   3.688  0.5897 -1.2009  1.5301
   12SAPS  H10Y 1571   2.559   2.223   3.642  0.3662  0.1772  1.1271
   12SAPS  C311 1572   2.626   2.070   3.782  0.9328 -0.1609 -0.8570
   12SAPS  H11X 1573   2.729   2.106   3.758  0.3813  0.9106 -1.6886
   12SAPS  H11Y 1574   2.625   1.960   3.796 -0.8518 -0.0422  0.3196
   12SAPS  C312 1575   2.581   2.134   3.916  0.0630  0.1360  0.9846
   12SAPS  H12X 1576   2.469   2.133   3.919 -0.1376 -1.7638 -2.3813
   12SAPS  H12Y 1577   2.614   2.240   3.923 -2.1207  0.8687  1.2254
   12SAPS  C313 1578   2.622   2.058   4.047 -0.1055 -0.7201 -0.6604
   12SAPS  H13X 1579   2.733   2.054   4.049 -0.0375 -2.0430 -2.9091
   12SAPS  H13Y 1580   2.591   1.952   4.039 -0.3346 -0.6459 -0.7727
   12SAPS  C314 1581   2.569   2.126   4.174 -0.4101 -0.2446  0.2655
   12SAPS  H14X 1582   2.461   2.099   4.179 -0.6460  0.4616 -0.7103
   12SAPS  H14Y 1583   2.589   2.235   4.167  0.3414 -0.4778 -2.2226
   12SAPS  C315 1584   2.635   2.073   4.307 -0.2104  0.1774 -0.0568
   12SAPS  H15X 1585   2.646   1.963   4.297  0.6575  0.4597 -2.9789
   12SAPS  H15Y 1586   2.565   2.098   4.390  2.0124 -0.3243  2.0767
   12SAPS  C316 1587   2.760   2.144   4.352  0.1421  0.0782 -0.1059
   12SAPS  H16X 1588   2.738   2.250   4.325 -2.7613 -0.3869  0.1353
   12SAPS  H16Y 1589   2.842   2.105   4.288  0.5972  1.7998 -0.6186
   12SAPS  C317 1590   2.793   2.133   4.507  0.0329  0.9972  0.0935
   12SAPS  H17X 1591   2.697   2.151   4.560 -1.7697 -1.9969 -1.8609
   12SAPS  H17Y 1592   2.864   2.213   4.536  0.5022  0.0188  1.8071
   12SAPS  C318 1593   2.859   2.001   4.551 -0.1727 -1.2730  0.4722
   12SAPS  H18X 1594   2.962   2.000   4.511 -0.1547 -0.0432  0.4654
   12SAPS  H18Y 1595   2.798   1.919   4.506 -1.1820 -1.4357  2.0351
   12SAPS  H18Z 1596   2.852   1.998   4.662 -1.4048 -0.0713  0.4545
   13SAPS     N 1597   5.040   1.716   1.737  0.6774 -0.0871 -0.4752
   13SAPS   HN1 1598   5.009   1.812   1.710 -0.6517 -0.4387 -0.2400
   13SAPS   HN2 1599   5.109   1.716   1.815  1.7049  2.2884 -1.2837
   13SAPS   HN3 1600   5.077   1.666   1.653  0.5897  2.0494 -1.8592
   13SAPS   C12 1601   4.926   1.632   1.786  0.1954  0.1142 -0.8261
   13SAPS  H12A 1602   4.845   1.696   1.816 -0.2680  0.5596 -2.8696
   13SAPS   C13 1603   4.872   1.526   1.691 -0.1240  0.0285  0.3103
   13SAPS  O13A 1604   4.928   1.503   1.580  0.4184 -0.8225 -0.8599
   13SAPS  O13B 1605   4.770   1.456   1.725 -0.0270 -0.6794 -0.2123
   13SAPS   C11 1606   4.964   1.562   1.920 -0.9357  0.1462  0.4640
   13SAPS  H11A 1607   5.047   1.491   1.899 -2.2129 -1.3496  0.2216
   13SAPS  H11B 1608   4.875   1.509   1.961 -1.1277  1.1401  1.3767
   13SAPS     P 1609   4.892   1.714   2.129  0.2406 -0.4189 -0.1536
   13SAPS   O13 1610   4.931   1.851   2.173 -0.1966 -0.0780  0.6410
   13SAPS   O14 1611   4.755   1.703   2.069  0.4262  0.4384 -0.0003
   13SAPS   O12 1612   4.995   1.661   2.019 -0.6585 -0.0465  0.3690
   13SAPS   O11 1613   4.919   1.608   2.240 -0.1571 -0.3997  0.7153
   13SAPS    C1 1614   5.035   1.532   2.258 -0.8130  0.6068  0.5632
   13SAPS    HA 1615   5.026   1.442   2.194  1.2204 -0.3961  1.5794
   13SAPS    HB 1616   5.125   1.579   2.212 -0.6599 -2.1376 -2.3349
   13SAPS    C2 1617   5.056   1.485   2.401 -0.2204  0.3813  0.1823
   13SAPS    HS 1618   5.129   1.403   2.416 -1.6641 -1.0665 -0.4156
   13SAPS   O21 1619   4.929   1.447   2.464  0.1410  0.0995  0.4233
   13SAPS   C21 1620   4.887   1.332   2.416  0.0212  0.6792 -0.4270
   13SAPS   O22 1621   4.936   1.264   2.331 -0.0714 -0.4682  0.7539
   13SAPS   C22 1622   4.761   1.294   2.499 -0.4397 -0.3609 -0.2063
   13SAPS   H2R 1623   4.785   1.327   2.602  1.7126 -0.2264 -0.7013
   13SAPS   H2S 1624   4.679   1.361   2.465  0.3090 -0.6251 -2.7589
   13SAPS    C3 1625   5.122   1.604   2.486 -0.4742  0.0514  0.2434
   13SAPS    HX 1626   5.055   1.690   2.466  1.7553  2.1900  1.4089
   13SAPS    HY 1627   5.225   1.618   2.446 -0.9940 -1.1470 -1.6433
   13SAPS   O31 1628   5.118   1.580   2.635  0.6152  0.0888 -0.0964
   13SAPS   C31 1629   5.187   1.469   2.680  0.3756 -0.8421  0.1439
   13SAPS   O32 1630   5.257   1.403   2.605 -0.3371 -0.1005  0.0948
   13SAPS   C32 1631   5.172   1.450   2.825 -0.1210  0.0665 -0.0177
   13SAPS   H2X 1632   5.196   1.544   2.880  0.9285 -0.3724  0.2944
   13SAPS   H2Y 1633   5.253   1.380   2.855  0.3640  0.9714  0.8634
   13SAPS   C23 1634   4.719   1.144   2.518 -0.1472 -0.1255 -0.6056
   13SAPS   H3R 1635   4.791   1.087   2.580 -0.9571 -1.9843 -1.2945
   13SAPS   H3S 1636   4.737   1.094   2.420  1.0612 -1.0729  0.0692
   13SAPS   C24 1637   4.574   1.112   2.572 -0.5351  0.1834 -0.2095
   13SAPS   H4R 1638   4.510   1.139   2.486 -1.7370  0.8370  0.8563
   13SAPS   H4S 1639   4.558   1.181   2.658 -0.0834  1.6063 -1.2405
   13SAPS   C25 1640   4.560   0.967   2.605 -0.0449  0.4143  0.7911
   13SAPS   H5R 1641   4.573   0.906   2.514 -1.2617  0.0112  0.8635
   13SAPS   C26 1642   4.540   0.915   2.726  0.4001 -0.4439  0.1541
   13SAPS   H6R 1643   4.535   0.806   2.740 -0.2108 -0.6428 -1.4494
   13SAPS   C27 1644   4.519   0.981   2.857  0.4218 -0.0471 -1.0207
   13SAPS   H7R 1645   4.449   0.918   2.915  0.8631  0.8957  0.5957
   13SAPS   H7S 1646   4.458   1.075   2.851  0.0730 -0.2198 -0.2025
   13SAPS   C28 1647   4.640   1.002   2.937 -0.8042  0.1657 -0.0029
   13SAPS   H8R 1648   4.731   0.987   2.877 -0.9877 -1.9381  0.1744
   13SAPS   C29 1649   4.642   1.036   3.070  0.2092 -1.0136 -0.4993
   13SAPS   H9R 1650   4.735   1.030   3.128 -0.4029  2.9643  1.2165
   13SAPS  C210 1651   4.520   1.045   3.158  1.0790  0.3359 -0.0528
   13SAPS  H10R 1652   4.440   0.987   3.107  2.7183 -0.9328 -1.2523
   13SAPS  H10S 1653   4.485   1.151   3.164  0.3103  0.0388  1.1289
   13SAPS  C211 1654   4.532   1.017   3.307 -0.2682 -0.3296 -0.2855
   13SAPS  H11R 1655   4.522   0.909   3.324 -0.9873 -0.1360  0.6664
   13SAPS  C212 1656   4.566   1.097   3.418  0.0773  0.2077  0.3093
   13SAPS  H12R 1657   4.588   1.058   3.518 -0.0944  0.1575  0.3275
   13SAPS  C213 1658   4.581   1.246   3.410 -0.1948 -0.4039 -0.7057
   13SAPS  H13R 1659   4.559   1.271   3.516 -0.1221  0.9607 -1.0009
   13SAPS  H13S 1660   4.507   1.287   3.337 -0.3869 -1.2333 -0.9862
   13SAPS  C214 1661   4.725   1.292   3.394  0.2116 -0.5052 -0.2968
   13SAPS  H14R 1662   4.769   1.267   3.296  0.7392  0.9601 -0.4609
   13SAPS  C215 1663   4.808   1.360   3.479  0.1216  0.2967 -0.4278
   13SAPS  H15R 1664   4.907   1.388   3.440  0.0476  0.7096 -0.3228
   13SAPS  C216 1665   4.769   1.413   3.618  0.0401  0.0230 -0.2282
   13SAPS  H16R 1666   4.659   1.430   3.626  0.1554  1.2703 -0.8962
   13SAPS  H16S 1667   4.830   1.501   3.650  0.1026 -0.5336  1.2696
   13SAPS  C217 1668   4.813   1.308   3.718 -0.7011 -0.5363 -0.6473
   13SAPS  H17R 1669   4.924   1.300   3.711 -0.7702 -0.7956 -1.5430
   13SAPS  H17S 1670   4.774   1.206   3.701  0.1799 -0.7051 -1.7498
   13SAPS  C218 1671   4.776   1.341   3.866 -0.4055  0.1038  0.4883
   13SAPS  H18R 1672   4.809   1.442   3.898 -1.0767  0.2148  0.8489
   13SAPS  H18S 1673   4.820   1.258   3.925  1.6146 -0.8982 -2.2264
   13SAPS  C219 1674   4.625   1.311   3.884  0.0284  0.3418 -0.2930
   13SAPS  H19R 1675   4.610   1.212   3.836 -0.3121  0.2798 -0.0662
   13SAPS  H19S 1676   4.559   1.381   3.828  0.8327  1.7073  0.4010
   13SAPS  C220 1677   4.588   1.316   4.027 -0.5400  0.0860 -0.1725
   13SAPS  H20R 1678   4.656   1.256   4.092 -1.3450 -0.2869  0.3426
   13SAPS  H20S 1679   4.487   1.273   4.042 -0.9922  1.0316 -0.4395
   13SAPS  H20T 1680   4.595   1.419   4.069  0.5801 -0.5687  1.3796
   13SAPS   C33 1681   5.035   1.395   2.865  0.1735 -0.1273 -0.0749
   13SAPS   H3X 1682   5.032   1.291   2.827  4.8743  0.0552 -1.6968
   13SAPS   H3Y 1683   4.960   1.462   2.818  1.2515 -0.5291 -2.5877
   13SAPS   C34 1684   5.003   1.391   3.016  0.9200  0.8674  0.7184
   13SAPS   H4X 1685   4.900   1.351   3.027  2.0470 -3.8094 -2.5994
   13SAPS   H4Y 1686   5.001   1.492   3.062 -1.8034  1.6788 -0.9813
   13SAPS   C35 1687   5.098   1.313   3.103 -0.0756 -0.2177 -0.1388
   13SAPS   H5X 1688   5.195   1.366   3.092 -1.0114  2.2755  2.4991
   13SAPS   H5Y 1689   5.106   1.208   3.068 -0.4548  0.1117 -1.2450
   13SAPS   C36 1690   5.073   1.321   3.258 -0.0579  0.5523 -0.2476
   13SAPS   H6X 1691   4.974   1.275   3.275 -0.5308  0.5881 -2.6257
   13SAPS   H6Y 1692   5.082   1.430   3.281  1.9108  0.2978  0.3791
   13SAPS   C37 1693   5.188   1.251   3.331  0.4779 -0.4037  0.0750
   13SAPS   H7X 1694   5.283   1.309   3.322  1.1552 -1.5180 -0.1337
   13SAPS   H7Y 1695   5.203   1.148   3.292 -0.9268 -0.9850  0.9813
   13SAPS   C38 1696   5.156   1.253   3.482 -0.4232 -0.0415 -0.4867
   13SAPS   H8X 1697   5.069   1.190   3.510 -0.5580 -0.0886 -1.0054
   13SAPS   H8Y 1698   5.137   1.355   3.522  2.7770 -0.3238  2.1864
   13SAPS   C39 1699   5.283   1.223   3.563  0.9514  0.1820 -0.2473
   13SAPS   H9X 1700   5.357   1.297   3.528  0.5886  1.4941  1.6199
   13SAPS   H9Y 1701   5.313   1.118   3.539  0.8423  0.6642 -2.8239
   13SAPS  C310 1702   5.263   1.229   3.709 -0.2689  0.4109 -0.0476
   13SAPS  H10X 1703   5.213   1.325   3.729 -0.7398  0.8080 -2.6852
   13SAPS  H10Y 1704   5.362   1.240   3.759 -0.1907 -0.6737  0.0735
   13SAPS  C311 1705   5.208   1.103   3.766  0.6808 -1.0753 -0.8973
   13SAPS  H11X 1706   5.260   1.012   3.729  1.4782 -0.2821 -1.7883
   13SAPS  H11Y 1707   5.101   1.088   3.738 -1.0170  2.4339  2.8553
   13SAPS  C312 1708   5.213   1.102   3.924 -0.4817  0.4456  0.1071
   13SAPS  H12X 1709   5.313   1.139   3.955 -0.9002  0.8796  0.9531
   13SAPS  H12Y 1710   5.184   1.002   3.963  1.6713  0.1675  1.1314
   13SAPS  C313 1711   5.119   1.198   3.980 -0.9541  0.3068  0.0065
   13SAPS  H13X 1712   5.018   1.154   3.965 -0.4197 -1.4967  1.3741
   13SAPS  H13Y 1713   5.123   1.298   3.931 -0.8452  1.4621  2.2110
   13SAPS  C314 1714   5.138   1.217   4.129 -0.3858  0.4027 -0.0295
   13SAPS  H14X 1715   5.248   1.227   4.145 -0.4921  1.1612  0.2906
   13SAPS  H14Y 1716   5.104   1.124   4.178  1.4162 -0.2760 -0.0017
   13SAPS  C315 1717   5.064   1.337   4.186  0.1520  0.1490  0.4825
   13SAPS  H15X 1718   4.957   1.308   4.196  0.5851 -1.1144  1.8073
   13SAPS  H15Y 1719   5.064   1.431   4.127  0.1811 -0.2274 -0.1258
   13SAPS  C316 1720   5.108   1.361   4.333  0.4091 -0.0017  0.2821
   13SAPS  H16X 1721   5.082   1.274   4.397  0.1014 -0.4227 -0.3982
   13SAPS  H16Y 1722   5.044   1.445   4.366  0.6288  0.7133 -1.0315
   13SAPS  C317 1723   5.250   1.405   4.351  0.6221  0.5676  0.4224
   13SAPS  H17X 1724   5.280   1.468   4.265 -1.5870 -0.0865 -0.9291
   13SAPS  H17Y 1725   5.313   1.316   4.333  3.7000  2.7376 -0.1620
   13SAPS  C318 1726   5.281   1.464   4.489  0.8509  0.1820  0.3082
   13SAPS  H18X 1727   5.230   1.562   4.501  2.3906  1.0069  0.4570
   13SAPS  H18Y 1728   5.390   1.476   4.510  0.2596  0.9004  3.5389
   13SAPS  H18Z 1729   5.249   1.398   4.573 -3.0333 -2.4321 -2.8482
   14SAPS     N 1730   5.327   3.058   2.253 -0.6233 -0.1885  0.1516
   14SAPS   HN1 1731   5.374   3.080   2.344  1.7633  1.0515 -1.2885
   14SAPS   HN2 1732   5.227   3.074   2.275 -0.6192  0.4259 -0.2655
   14SAPS   HN3 1733   5.345   2.958   2.232 -0.2747 -0.1441  0.2255
   14SAPS   C12 1734   5.372   3.152   2.146 -0.2673  0.7178 -0.6945
   14SAPS  H12A 1735   5.471   3.129   2.111  0.2686  2.2592 -0.2415
   14SAPS   C13 1736   5.280   3.162   2.028 -0.5761 -0.9726  0.2402
   14SAPS  O13A 1737   5.160   3.138   2.037 -0.3884 -0.1162 -0.4461
   14SAPS  O13B 1738   5.325   3.235   1.930  0.0857  0.0921 -0.0956
   14SAPS   C11 1739   5.391   3.300   2.198  0.0398  0.3425  0.2666
   14SAPS  H11A 1740   5.288   3.332   2.224 -0.8532 -2.5452  0.6235
   14SAPS  H11B 1741   5.428   3.369   2.120 -2.4643 -0.0001 -1.3150
   14SAPS     P 1742   5.606   3.371   2.333  0.0164 -0.0875 -0.0646
   14SAPS   O13 1743   5.703   3.292   2.251 -0.5895 -0.3151  0.3638
   14SAPS   O14 1744   5.601   3.514   2.311  0.4211 -0.2720  0.3352
   14SAPS   O12 1745   5.465   3.305   2.327  0.4350  0.4009  0.0410
   14SAPS   O11 1746   5.647   3.344   2.480  0.0452 -0.1468 -0.1840
   14SAPS    C1 1747   5.599   3.226   2.552 -0.2790  0.1863  0.2782
   14SAPS    HA 1748   5.552   3.157   2.479  0.2336  0.9888 -0.8267
   14SAPS    HB 1749   5.687   3.174   2.597  0.1204  1.1930  0.7138
   14SAPS    C2 1750   5.508   3.252   2.673 -0.4164 -0.0206 -0.1642
   14SAPS    HS 1751   5.500   3.155   2.727  1.2329  1.9488  4.1248
   14SAPS   O21 1752   5.378   3.314   2.639 -0.0134  0.6584 -0.1898
   14SAPS   C21 1753   5.297   3.247   2.562 -0.1667  0.6717 -0.0612
   14SAPS   O22 1754   5.319   3.135   2.514  0.4298 -0.5018 -0.1897
   14SAPS   C22 1755   5.162   3.310   2.557 -0.4541 -0.0575  0.3155
   14SAPS   H2R 1756   5.184   3.416   2.533 -0.8767  0.1218  0.7139
   14SAPS   H2S 1757   5.103   3.260   2.478 -2.6341  1.8966  0.6146
   14SAPS    C3 1758   5.585   3.354   2.763 -0.0838  0.0712 -0.6451
   14SAPS    HX 1759   5.564   3.457   2.729 -2.0087 -0.3056 -0.7005
   14SAPS    HY 1760   5.693   3.329   2.765 -0.5041 -1.9123  0.6673
   14SAPS   O31 1761   5.543   3.332   2.894  0.2363  0.1049 -0.1531
   14SAPS   C31 1762   5.532   3.428   2.973  0.3951  0.4804 -0.1897
   14SAPS   O32 1763   5.553   3.544   2.948  0.3686  0.5871 -0.2040
   14SAPS   C32 1764   5.467   3.379   3.096  0.1895 -0.0117  0.0152
   14SAPS   H2X 1765   5.488   3.273   3.118 -0.3033  0.0544  0.8494
   14SAPS   H2Y 1766   5.361   3.368   3.063  0.0703 -2.2240  1.0014
   14SAPS   C23 1767   5.087   3.301   2.688 -0.5549 -0.0143  0.7063
   14SAPS   H3R 1768   5.129   3.347   2.780 -0.7472  0.4557  0.5592
   14SAPS   H3S 1769   5.066   3.194   2.712  1.3354 -0.9734 -1.5806
   14SAPS   C24 1770   4.943   3.351   2.668 -0.1421 -0.2653  0.8633
   14SAPS   H4R 1771   4.876   3.283   2.724 -1.8621  1.6274  1.2523
   14SAPS   H4S 1772   4.913   3.336   2.562 -2.2948 -0.5242  1.4689
   14SAPS   C25 1773   4.915   3.493   2.713  0.0768 -0.2016  0.5419
   14SAPS   H5R 1774   4.952   3.571   2.644  1.4291 -1.3544 -0.0859
   14SAPS   C26 1775   4.858   3.535   2.827 -0.1399 -0.4519  0.3810
   14SAPS   H6R 1776   4.847   3.642   2.851 -1.8145 -0.7882  1.3006
   14SAPS   C27 1777   4.813   3.448   2.944  0.3870 -0.3488  0.3636
   14SAPS   H7R 1778   4.842   3.341   2.937 -0.0496 -0.5819  1.8539
   14SAPS   H7S 1779   4.703   3.448   2.950  0.1912  1.4403 -2.0186
   14SAPS   C28 1780   4.874   3.493   3.077  0.3615 -0.1840 -0.0029
   14SAPS   H8R 1781   4.842   3.595   3.103 -0.2565 -0.0186 -1.3571
   14SAPS   C29 1782   4.938   3.422   3.173 -0.3339 -0.0147  0.4149
   14SAPS   H9R 1783   4.977   3.472   3.263 -3.5528  1.4655  1.1463
   14SAPS  C210 1784   4.963   3.273   3.158  0.0898 -0.2352  0.1010
   14SAPS  H10R 1785   4.908   3.223   3.076 -0.7774  1.1242 -0.1717
   14SAPS  H10S 1786   4.921   3.219   3.246  2.4118 -0.5473  1.1039
   14SAPS  C211 1787   5.109   3.250   3.158 -0.4005  0.1545 -0.3606
   14SAPS  H11R 1788   5.152   3.270   3.059 -2.1128 -0.8825 -1.3545
   14SAPS  C212 1789   5.193   3.210   3.263  0.3729  0.1036  0.5477
   14SAPS  H12R 1790   5.302   3.205   3.248  0.4648  1.3201  0.7083
   14SAPS  C213 1791   5.152   3.186   3.399 -0.3595  0.0148  0.3212
   14SAPS  H13R 1792   5.177   3.081   3.426  0.6109  0.0038 -0.5562
   14SAPS  H13S 1793   5.045   3.215   3.408  0.0943  1.3860  1.9799
   14SAPS  C214 1794   5.228   3.259   3.507  0.6620 -0.4716  0.0910
   14SAPS  H14R 1795   5.324   3.214   3.536  1.3419  0.3755 -0.8337
   14SAPS  C215 1796   5.200   3.378   3.570 -0.7588 -0.6573  0.9164
   14SAPS  H15R 1797   5.286   3.429   3.616  1.6643 -2.1355 -1.6430
   14SAPS  C216 1798   5.077   3.466   3.551 -0.2608 -0.0359  0.3429
   14SAPS  H16R 1799   4.982   3.408   3.545  0.6789 -1.4689 -3.2406
   14SAPS  H16S 1800   5.085   3.537   3.466  1.4479 -1.0893 -0.4146
   14SAPS  C217 1801   5.066   3.570   3.674  0.4757  1.2737 -0.4882
   14SAPS  H17R 1802   4.969   3.620   3.652  0.5664  0.6334 -2.4969
   14SAPS  H17S 1803   5.148   3.644   3.666  2.7788 -1.1491 -0.5184
   14SAPS  C218 1804   5.053   3.488   3.809  0.2182  0.3592 -0.0418
   14SAPS  H18R 1805   5.139   3.420   3.825  1.0889  0.8079 -2.3580
   14SAPS  H18S 1806   4.969   3.415   3.795  0.8978 -0.0284 -2.6309
   14SAPS  C219 1807   5.022   3.571   3.930  0.4910 -0.0231 -0.3456
   14SAPS  H19R 1808   4.952   3.654   3.905 -0.1589 -0.1127  1.0809
   14SAPS  H19S 1809   5.113   3.615   3.976 -1.5795  0.8373  3.3211
   14SAPS  C220 1810   4.957   3.481   4.037 -0.6670  0.0222 -0.0973
   14SAPS  H20R 1811   5.023   3.399   4.072 -1.2578 -0.5812 -0.3860
   14SAPS  H20S 1812   4.868   3.433   3.993 -0.6534 -1.4426  1.3656
   14SAPS  H20T 1813   4.925   3.538   4.127 -1.6489 -1.2840  0.3976
   14SAPS   C33 1814   5.464   3.463   3.222 -0.1176  0.1475 -0.4397
   14SAPS   H3X 1815   5.380   3.450   3.293  0.3109  0.4345  0.1300
   14SAPS   H3Y 1816   5.478   3.571   3.198  1.5710  0.0097 -0.2364
   14SAPS   C34 1817   5.585   3.428   3.318  0.1511 -0.3083 -0.5457
   14SAPS   H4X 1818   5.677   3.450   3.261  3.0818 -1.0399  3.4754
   14SAPS   H4Y 1819   5.579   3.321   3.348  0.6449  0.3242  1.9765
   14SAPS   C35 1820   5.584   3.538   3.432 -0.5343  0.2216  0.0186
   14SAPS   H5X 1821   5.496   3.510   3.493  0.1794  1.1696  1.5546
   14SAPS   H5Y 1822   5.556   3.637   3.390 -1.1969  0.3755  0.8069
   14SAPS   C36 1823   5.713   3.537   3.505 -0.4418  0.7893 -0.6284
   14SAPS   H6X 1824   5.793   3.585   3.445 -0.6476  0.5995 -1.0562
   14SAPS   H6Y 1825   5.737   3.431   3.527 -1.5169  0.6495 -0.0360
   14SAPS   C37 1826   5.705   3.609   3.640  0.5194 -0.0016  0.4509
   14SAPS   H7X 1827   5.626   3.575   3.711 -1.1769  2.8269  0.0879
   14SAPS   H7Y 1828   5.677   3.711   3.604 -1.8535 -0.4200  0.9323
   14SAPS   C38 1829   5.839   3.608   3.718 -0.5989 -0.0817  0.0703
   14SAPS   H8X 1830   5.823   3.684   3.797 -2.4061 -1.7929  1.4593
   14SAPS   H8Y 1831   5.918   3.649   3.651  0.5601 -4.6797 -1.7471
   14SAPS   C39 1832   5.882   3.470   3.767  0.1175 -0.0544 -0.4462
   14SAPS   H9X 1833   5.967   3.488   3.837  0.1130 -0.4602 -0.3287
   14SAPS   H9Y 1834   5.926   3.410   3.684 -0.3253 -0.5511 -0.3271
   14SAPS  C310 1835   5.772   3.391   3.830 -0.0349 -1.1072 -0.1330
   14SAPS  H10X 1836   5.697   3.364   3.754 -0.7601 -3.1438  1.2230
   14SAPS  H10Y 1837   5.723   3.461   3.902  0.1889  0.0501 -1.0709
   14SAPS  C311 1838   5.794   3.249   3.886 -0.2677  0.0560  1.0460
   14SAPS  H11X 1839   5.850   3.189   3.811  0.2150  1.8435 -0.0846
   14SAPS  H11Y 1840   5.698   3.197   3.905 -0.4551  0.0996  0.2269
   14SAPS  C312 1841   5.867   3.247   4.022 -0.6207 -0.1126  0.3381
   14SAPS  H12X 1842   5.800   3.296   4.096  0.4667  1.1533  0.5268
   14SAPS  H12Y 1843   5.959   3.306   4.001 -1.5218  1.1915 -0.1398
   14SAPS  C313 1844   5.921   3.103   4.050 -0.0679 -0.0752  0.1747
   14SAPS  H13X 1845   6.007   3.089   3.980 -1.8424  0.8728 -2.3292
   14SAPS  H13Y 1846   5.850   3.025   4.015  2.2652 -0.5849 -4.1515
   14SAPS  C314 1847   5.967   3.100   4.195 -0.1728 -0.0293  0.2243
   14SAPS  H14X 1848   5.879   3.102   4.262  0.0670  3.5020  0.6210
   14SAPS  H14Y 1849   6.024   3.189   4.229 -0.6693  0.2234  0.3971
   14SAPS  C315 1850   6.068   2.984   4.223 -0.2466  0.2622 -0.4750
   14SAPS  H15X 1851   6.154   2.970   4.154  0.8887 -0.1001  0.9843
   14SAPS  H15Y 1852   6.003   2.894   4.211  2.2979 -2.1989  2.5519
   14SAPS  C316 1853   6.110   2.972   4.371  0.7916 -0.3507 -0.1910
   14SAPS  H16X 1854   6.125   2.865   4.393 -3.2720 -1.1169 -0.4197
   14SAPS  H16Y 1855   6.032   3.002   4.445  1.1842  2.1200 -0.6640
   14SAPS  C317 1856   6.236   3.060   4.395 -0.5279 -0.3701  0.2869
   14SAPS  H17X 1857   6.258   3.053   4.504  0.8257  2.1622  0.2627
   14SAPS  H17Y 1858   6.199   3.164   4.384 -0.6868 -0.2712  1.6232
   14SAPS  C318 1859   6.359   3.016   4.312 -0.3238 -0.7136  0.0023
   14SAPS  H18X 1860   6.339   3.049   4.208 -0.9062  2.6937  1.0694
   14SAPS  H18Y 1861   6.382   2.908   4.301 -1.4423 -0.7384 -3.6443
   14SAPS  H18Z 1862   6.450   3.074   4.336 -1.3100  0.2552  1.5493
   15SAPS     N 1863   4.270   2.865   2.083  0.1728 -0.2736  0.6254
   15SAPS   HN1 1864   4.291   2.807   1.999 -0.9944  1.2191 -0.7807
   15SAPS   HN2 1865   4.295   2.798   2.158 -1.8448 -1.0948  0.6261
   15SAPS   HN3 1866   4.167   2.874   2.101  0.4523  0.7188  1.8963
   15SAPS   C12 1867   4.339   2.993   2.103  0.0124  0.1759  0.3565
   15SAPS  H12A 1868   4.416   2.978   2.178  1.1326 -1.3437 -1.0263
   15SAPS   C13 1869   4.420   3.046   1.981  0.3636 -0.1721  0.2431
   15SAPS  O13A 1870   4.392   3.014   1.859 -0.0890  0.3257  0.0450
   15SAPS  O13B 1871   4.489   3.146   2.007 -0.4781 -0.2938 -0.4886
   15SAPS   C11 1872   4.231   3.099   2.150 -0.0409 -0.0603  0.0548
   15SAPS  H11A 1873   4.152   3.106   2.073  0.6519 -2.6147 -1.0039
   15SAPS  H11B 1874   4.280   3.197   2.168  3.2262 -1.8226  1.8014
   15SAPS     P 1875   4.082   3.150   2.349  0.5421 -0.6441 -0.2003
   15SAPS   O13 1876   4.003   3.223   2.244 -1.2500  0.0115  0.1553
   15SAPS   O14 1877   4.013   3.069   2.450 -0.2976  0.8924  0.4144
   15SAPS   O12 1878   4.171   3.049   2.269 -0.0950  0.1893  0.1285
   15SAPS   O11 1879   4.203   3.246   2.397 -0.0855 -0.9277 -0.1235
   15SAPS    C1 1880   4.172   3.376   2.443  0.1718  0.5669 -0.1789
   15SAPS    HA 1881   4.264   3.436   2.432  0.8504 -0.6321 -1.4215
   15SAPS    HB 1882   4.101   3.430   2.376  2.2226  1.2447 -1.9009
   15SAPS    C2 1883   4.139   3.390   2.593  0.3312 -0.2170  0.3560
   15SAPS    HS 1884   4.199   3.470   2.642  0.7698 -0.7447  0.6881
   15SAPS   O21 1885   4.143   3.266   2.667 -0.3628 -0.3293 -0.4426
   15SAPS   C21 1886   4.267   3.220   2.693 -0.1942  0.6454  0.2418
   15SAPS   O22 1887   4.372   3.281   2.661 -0.4782  0.8166 -0.1821
   15SAPS   C22 1888   4.268   3.088   2.775 -0.2585 -0.0026 -0.4126
   15SAPS   H2R 1889   4.180   3.077   2.843 -0.6529 -0.3915 -0.9804
   15SAPS   H2S 1890   4.258   3.006   2.702  1.4443  2.0280 -3.1073
   15SAPS    C3 1891   3.982   3.439   2.601 -0.9515  0.1328  0.0218
   15SAPS    HX 1892   3.923   3.350   2.570  1.3291 -1.8302  0.9409
   15SAPS    HY 1893   3.952   3.524   2.537 -3.0528  0.0733  0.8584
   15SAPS   O31 1894   3.950   3.466   2.741  0.4720 -0.7537 -0.2946
   15SAPS   C31 1895   3.852   3.553   2.756  0.3696 -0.5174 -0.1280
   15SAPS   O32 1896   3.780   3.608   2.675  0.2124  0.3889 -0.7063
   15SAPS   C32 1897   3.849   3.591   2.904 -0.1491 -0.4761  0.3244
   15SAPS   H2X 1898   3.932   3.538   2.955 -1.1598 -1.9545  0.4943
   15SAPS   H2Y 1899   3.747   3.562   2.937 -0.5777  0.2391 -0.3323
   15SAPS   C23 1900   4.403   3.067   2.854  0.7903 -0.0538 -0.4922
   15SAPS   H3R 1901   4.489   3.074   2.784  0.4337 -0.8821 -1.0292
   15SAPS   H3S 1902   4.399   2.964   2.894 -2.5771 -0.8433 -2.4855
   15SAPS   C24 1903   4.424   3.174   2.967  0.0615  0.0276  0.0177
   15SAPS   H4R 1904   4.348   3.150   3.045  1.2752 -0.8134  0.9851
   15SAPS   H4S 1905   4.408   3.272   2.919 -0.4941 -0.2202 -0.3099
   15SAPS   C25 1906   4.562   3.151   3.025 -0.0773  0.5235 -0.4478
   15SAPS   H5R 1907   4.644   3.175   2.955  0.0889  1.6027  0.0977
   15SAPS   C26 1908   4.591   3.109   3.150  0.4570  0.2336  0.2121
   15SAPS   H6R 1909   4.698   3.091   3.172  0.8989  3.0106  0.6997
   15SAPS   C27 1910   4.496   3.073   3.257 -0.1758  0.0086 -0.0986
   15SAPS   H7R 1911   4.536   2.985   3.312 -0.5548  2.1950  4.1063
   15SAPS   H7S 1912   4.405   3.033   3.207  0.6681 -1.2492 -0.7082
   15SAPS   C28 1913   4.476   3.188   3.348 -0.0910  0.5911 -0.1879
   15SAPS   H8R 1914   4.388   3.251   3.326  1.0983  1.4462 -3.0567
   15SAPS   C29 1915   4.550   3.214   3.456 -0.4747 -0.9392  0.3543
   15SAPS   H9R 1916   4.521   3.306   3.509  0.2191 -1.9454  2.6185
   15SAPS  C210 1917   4.672   3.130   3.506 -0.7923  0.4752  0.1030
   15SAPS  H10R 1918   4.739   3.202   3.557 -0.8538  1.3714 -1.0284
   15SAPS  H10S 1919   4.717   3.084   3.416 -1.4232 -0.6550  0.3529
   15SAPS  C211 1920   4.629   3.014   3.587  0.4971  0.6590  0.0257
   15SAPS  H11R 1921   4.562   2.948   3.529  0.3703  0.9682 -0.1817
   15SAPS  C212 1922   4.664   2.997   3.716 -0.3539  0.2358  0.0780
   15SAPS  H12R 1923   4.603   2.919   3.763  0.4690 -0.5153 -0.0792
   15SAPS  C213 1924   4.756   3.089   3.789 -0.4285 -0.3707  0.1522
   15SAPS  H13R 1925   4.831   3.137   3.722  0.7401  0.4923  1.9867
   15SAPS  H13S 1926   4.815   3.029   3.862 -1.7149 -1.8082  0.0497
   15SAPS  C214 1927   4.682   3.213   3.839  0.5535  0.2111  1.2609
   15SAPS  H14R 1928   4.692   3.305   3.781 -3.4322  0.7165  1.1191
   15SAPS  C215 1929   4.612   3.234   3.960 -0.0429 -0.1367  0.8790
   15SAPS  H15R 1930   4.556   3.328   3.972  0.0276  0.3889 -2.1176
   15SAPS  C216 1931   4.584   3.132   4.070  0.2525 -0.3876 -0.0613
   15SAPS  H16R 1932   4.632   3.034   4.048 -0.0055 -0.4907 -0.1633
   15SAPS  H16S 1933   4.476   3.108   4.077  0.6012 -2.1520 -0.2882
   15SAPS  C217 1934   4.637   3.171   4.214 -0.0678 -0.1624  0.9143
   15SAPS  H17R 1935   4.592   3.108   4.294  4.5207 -2.7042  1.8602
   15SAPS  H17S 1936   4.613   3.279   4.220 -2.4654 -0.0013 -4.8803
   15SAPS  C218 1937   4.783   3.140   4.240  0.3932  0.0295 -0.1721
   15SAPS  H18R 1938   4.852   3.199   4.177 -0.4996  0.1757 -1.0374
   15SAPS  H18S 1939   4.795   3.030   4.229  1.0087  0.1951 -1.2462
   15SAPS  C219 1940   4.823   3.179   4.388 -0.2495  0.3222  0.4221
   15SAPS  H19R 1941   4.760   3.126   4.463  2.2409  0.6280  2.8691
   15SAPS  H19S 1942   4.815   3.287   4.409  0.6366  0.4734  0.0219
   15SAPS  C220 1943   4.967   3.137   4.417  1.2109 -0.1106  0.3456
   15SAPS  H20R 1944   4.983   3.030   4.392 -0.5438 -1.0527  2.9125
   15SAPS  H20S 1945   4.996   3.167   4.519  3.6202  1.6647 -0.7665
   15SAPS  H20T 1946   5.038   3.198   4.357 -0.1904  1.1042 -0.1297
   15SAPS   C33 1947   3.855   3.744   2.921  0.2966 -0.3258 -0.2728
   15SAPS   H3X 1948   3.751   3.781   2.935  0.3049 -0.1455 -0.6681
   15SAPS   H3Y 1949   3.891   3.794   2.829  0.1125 -0.4417 -0.4076
   15SAPS   C34 1950   3.937   3.777   3.047  0.1904 -1.1149  0.0452
   15SAPS   H4X 1951   3.957   3.885   3.063  1.4845 -1.7112  3.3871
   15SAPS   H4Y 1952   4.038   3.732   3.034  1.6102  1.2227  2.1796
   15SAPS   C35 1953   3.893   3.716   3.176 -0.0583 -0.5250  0.5483
   15SAPS   H5X 1954   3.887   3.605   3.173  0.5331 -0.5498 -1.3043
   15SAPS   H5Y 1955   3.791   3.757   3.195  0.5452  1.5998 -0.4307
   15SAPS   C36 1956   3.967   3.758   3.305  0.0008  0.4711  0.3624
   15SAPS   H6X 1957   3.978   3.867   3.287 -0.2540  0.3133 -0.8319
   15SAPS   H6Y 1958   4.072   3.727   3.320  0.1249 -0.2048 -1.5612
   15SAPS   C37 1959   3.883   3.747   3.433  0.1783  0.0567 -0.0611
   15SAPS   H7X 1960   3.873   3.641   3.463 -0.4139 -0.0466 -0.5999
   15SAPS   H7Y 1961   3.778   3.780   3.416 -1.0110 -2.7177  1.2259
   15SAPS   C38 1962   3.939   3.834   3.544 -0.2141 -0.7412 -0.1974
   15SAPS   H8X 1963   3.938   3.943   3.520  2.0884 -0.5889  0.2552
   15SAPS   H8Y 1964   4.041   3.809   3.579  1.1971  6.7789  2.9166
   15SAPS   C39 1965   3.860   3.815   3.680 -0.0254 -0.3999  0.0688
   15SAPS   H9X 1966   3.869   3.709   3.711 -0.0877 -0.4157  0.0325
   15SAPS   H9Y 1967   3.751   3.834   3.674  0.4023  2.4663  0.0498
   15SAPS  C310 1968   3.912   3.910   3.787  0.1437  0.0910 -0.3909
   15SAPS  H10X 1969   3.877   3.900   3.892 -0.1923  0.7317 -0.4378
   15SAPS  H10Y 1970   3.885   4.012   3.751  1.4162 -0.2288 -2.3668
   15SAPS  C311 1971   4.066   3.930   3.797  0.2636  0.1888  0.5087
   15SAPS  H11X 1972   4.098   3.980   3.703 -2.0050  2.3182  0.7658
   15SAPS  H11Y 1973   4.107   3.827   3.813 -3.4715 -1.4128  0.7944
   15SAPS  C312 1974   4.116   4.024   3.908 -0.0390 -0.2501 -0.1088
   15SAPS  H12X 1975   4.029   4.027   3.978 -1.2948 -1.3091 -1.5476
   15SAPS  H12Y 1976   4.133   4.130   3.880 -1.3572  0.2026  0.6791
   15SAPS  C313 1977   4.241   3.959   3.966 -0.1621 -0.0710 -0.3634
   15SAPS  H13X 1978   4.307   3.943   3.878 -0.8708  1.7156 -1.2785
   15SAPS  H13Y 1979   4.227   3.863   4.020  2.3401  0.7221  1.8688
   15SAPS  C314 1980   4.314   4.050   4.068 -0.2619  0.1424  0.0418
   15SAPS  H14X 1981   4.296   4.154   4.035  0.1737 -0.2195 -1.4076
   15SAPS  H14Y 1982   4.423   4.033   4.054 -0.2332 -0.9707  1.3740
   15SAPS  C315 1983   4.270   4.043   4.219  0.5556  1.0554  0.0284
   15SAPS  H15X 1984   4.346   4.114   4.259  1.4096  0.1202  0.1264
   15SAPS  H15Y 1985   4.305   3.943   4.254  1.1082  1.1036 -0.3829
   15SAPS  C316 1986   4.124   4.094   4.246 -1.0228  0.3847 -0.0520
   15SAPS  H16X 1987   4.054   4.009   4.260  0.1838 -0.0738  5.9223
   15SAPS  H16Y 1988   4.096   4.158   4.160  2.7930  0.6450 -1.3085
   15SAPS  C317 1989   4.123   4.180   4.370  0.3003 -0.1900  0.1649
   15SAPS  H17X 1990   4.202   4.257   4.384  0.7865 -0.8544  1.2165
   15SAPS  H17Y 1991   4.121   4.105   4.451  2.3409  0.0508  0.4996
   15SAPS  C318 1992   3.988   4.259   4.387  0.4106  0.0136  0.6523
   15SAPS  H18X 1993   3.909   4.181   4.395 -1.3081  1.4210 -1.2511
   15SAPS  H18Y 1994   3.972   4.337   4.309  0.8101  2.6241  3.0322
   15SAPS  H18Z 1995   3.996   4.306   4.487  1.3145 -0.5015  0.8334
   16SAPS     N 1996   5.935   3.873   2.281 -0.5298 -0.1627  0.5490
   16SAPS   HN1 1997   6.026   3.920   2.261 -0.9499  0.4675  0.1036
   16SAPS   HN2 1998   5.857   3.930   2.244 -0.8251 -1.0129 -0.1748
   16SAPS   HN3 1999   5.905   3.869   2.380 -0.8750  1.6691  0.5441
   16SAPS   C12 2000   5.932   3.743   2.207 -0.6799 -0.1290 -0.1789
   16SAPS  H12A 2001   5.839   3.690   2.221 -0.3190 -1.4657 -2.3749
   16SAPS   C13 2002   5.953   3.760   2.055 -0.7903 -0.5160 -0.3010
   16SAPS  O13A 2003   5.958   3.876   2.010  0.6736  0.0265 -0.5966
   16SAPS  O13B 2004   5.954   3.655   1.984 -0.1486 -0.1852 -0.7143
   16SAPS   C11 2005   6.049   3.650   2.253 -0.1843  0.5024 -0.2113
   16SAPS  H11A 2006   6.148   3.699   2.239  1.9239 -3.2419  0.0135
   16SAPS  H11B 2007   6.044   3.557   2.192 -2.2043 -1.0447  2.1449
   16SAPS     P 2008   6.122   3.498   2.449 -0.1281  0.0665  0.5368
   16SAPS   O13 2009   6.107   3.372   2.376 -0.2282  0.0090 -0.3263
   16SAPS   O14 2010   6.261   3.551   2.467  0.1968  0.4232  0.3129
   16SAPS   O12 2011   6.027   3.607   2.390 -0.1408 -0.2928 -0.0631
   16SAPS   O11 2012   6.064   3.473   2.594 -0.0845  0.8576 -0.2578
   16SAPS    C1 2013   5.929   3.495   2.630 -0.3079 -0.5097  0.5037
   16SAPS    HA 2014   5.869   3.478   2.538 -1.1311  1.5788  0.6098
   16SAPS    HB 2015   5.897   3.416   2.701 -0.4497 -2.2911 -1.4316
   16SAPS    C2 2016   5.916   3.637   2.690  0.2145  0.2145 -0.4084
   16SAPS    HS 2017   5.992   3.696   2.635 -0.4344  0.9165 -0.5744
   16SAPS   O21 2018   5.935   3.631   2.831 -0.6696 -0.4064 -0.5706
   16SAPS   C21 2019   5.985   3.729   2.900 -0.2764 -0.7358  0.4394
   16SAPS   O22 2020   6.025   3.839   2.854 -0.0796  0.7085  0.7026
   16SAPS   C22 2021   5.957   3.705   3.048  0.0007 -0.3153 -0.0295
   16SAPS   H2R 2022   5.898   3.611   3.058  0.1908 -0.5563 -1.0348
   16SAPS   H2S 2023   6.046   3.687   3.111  0.3782  0.1114 -0.4359
   16SAPS    C3 2024   5.772   3.682   2.665  0.0843 -0.8037  0.3783
   16SAPS    HX 2025   5.697   3.612   2.706 -0.9233 -0.3600 -0.6460
   16SAPS    HY 2026   5.764   3.686   2.554  0.4996  2.5940  0.3446
   16SAPS   O31 2027   5.742   3.815   2.715 -0.3616 -0.1351  0.8439
   16SAPS   C31 2028   5.792   3.919   2.637  0.3665  0.7682  0.2308
   16SAPS   O32 2029   5.839   3.903   2.526 -0.3243 -0.0066  0.0249
   16SAPS   C32 2030   5.760   4.052   2.695 -0.0811  0.1652 -0.2311
   16SAPS   H2X 2031   5.674   4.101   2.643 -1.1610 -0.9765  0.4399
   16SAPS   H2Y 2032   5.850   4.115   2.680  0.0815 -0.4332 -1.9643
   16SAPS   C23 2033   5.866   3.812   3.102  0.3155 -0.2619  0.0333
   16SAPS   H3R 2034   5.773   3.830   3.043  1.9448  2.7095 -1.9014
   16SAPS   H3S 2035   5.920   3.909   3.096  1.0058 -0.7286 -1.9505
   16SAPS   C24 2036   5.823   3.771   3.246  0.4690 -0.7603  0.2991
   16SAPS   H4R 2037   5.910   3.773   3.314  1.1869  2.4854 -0.5167
   16SAPS   H4S 2038   5.769   3.674   3.238 -2.6627  0.9606 -1.7428
   16SAPS   C25 2039   5.728   3.874   3.302  0.3223 -0.2089 -0.7036
   16SAPS   H5R 2040   5.623   3.867   3.270  0.0007 -1.3635  0.4754
   16SAPS   C26 2041   5.766   3.967   3.397  0.8837  0.1728 -0.4034
   16SAPS   H6R 2042   5.691   4.036   3.439 -0.2498 -0.6089 -1.0860
   16SAPS   C27 2043   5.907   3.985   3.454 -0.2978 -0.0052  0.2160
   16SAPS   H7R 2044   5.985   3.987   3.375  0.9163 -0.7141  1.3585
   16SAPS   H7S 2045   5.933   3.896   3.515  1.2100 -0.4879 -1.0649
   16SAPS   C28 2046   5.922   4.117   3.532 -0.1776  0.4360  0.2171
   16SAPS   H8R 2047   5.918   4.209   3.472 -0.1305  1.9160  2.3632
   16SAPS   C29 2048   5.938   4.134   3.659  0.2728  0.8795 -0.5991
   16SAPS   H9R 2049   5.939   4.238   3.696  0.1945  0.1919  1.4859
   16SAPS  C210 2050   5.936   4.033   3.776  0.2164  0.7177  0.8657
   16SAPS  H10R 2051   5.967   3.933   3.742  0.0231  1.1642 -0.7158
   16SAPS  H10S 2052   5.831   4.012   3.804  0.6644  1.7919  3.8011
   16SAPS  C211 2053   6.027   4.058   3.894  0.4136 -0.1708  0.5472
   16SAPS  H11R 2054   6.115   4.119   3.872  1.0427 -1.2786 -0.1094
   16SAPS  C212 2055   5.992   4.041   4.026  0.3125  0.1420  0.1135
   16SAPS  H12R 2056   6.058   4.068   4.110 -1.0164  2.6311  0.4735
   16SAPS  C213 2057   5.866   3.974   4.072  0.1904  0.1569 -0.0749
   16SAPS  H13R 2058   5.801   3.951   3.985 -0.5501 -1.3507  0.8403
   16SAPS  H13S 2059   5.807   4.047   4.132 -1.0430 -2.7715  2.5467
   16SAPS  C214 2060   5.862   3.849   4.150 -0.3168  0.1547 -0.0124
   16SAPS  H14R 2061   5.823   3.762   4.095 -2.2914  1.9588 -1.6652
   16SAPS  C215 2062   5.893   3.839   4.279 -0.2444 -0.4235  0.5000
   16SAPS  H15R 2063   5.874   3.740   4.323 -0.6231 -0.4741  0.2230
   16SAPS  C216 2064   5.964   3.935   4.369  0.1249 -0.1261 -0.0648
   16SAPS  H16R 2065   5.914   4.030   4.341 -0.8435 -1.0534 -1.6716
   16SAPS  H16S 2066   6.072   3.935   4.341 -0.0580  1.2955 -0.8681
   16SAPS  C217 2067   5.950   3.924   4.520  0.1828  0.4162 -0.5743
   16SAPS  H17R 2068   5.846   3.932   4.560  0.7499  0.5467  0.9292
   16SAPS  H17S 2069   6.017   4.001   4.563  0.6871 -0.5034  0.3351
   16SAPS  C218 2070   5.998   3.787   4.575  0.3271  0.2638  0.3005
   16SAPS  H18R 2071   6.100   3.784   4.530  0.9955  1.0410  1.6869
   16SAPS  H18S 2072   5.941   3.699   4.538  0.0799  0.1000  1.0510
   16SAPS  C219 2073   6.004   3.770   4.726 -0.0946  0.8116  0.1416
   16SAPS  H19R 2074   5.905   3.792   4.771 -1.6965  0.7574 -3.0767
   16SAPS  H19S 2075   6.073   3.853   4.754  0.1872  0.9348 -0.8766
   16SAPS  C220 2076   6.071   3.638   4.784  0.2784 -0.3476 -0.0428
   16SAPS  H20R 2077   6.000   3.561   4.747 -0.9718 -0.0502  1.6404
   16SAPS  H20S 2078   6.071   3.644   4.895 -0.6597 -0.9330 -0.0019
   16SAPS  H20T 2079   6.166   3.625   4.727  0.4341 -2.7994  0.6487
   16SAPS   C33 2080   5.726   4.048   2.851 -1.1502  1.0250  0.6226
   16SAPS   H3X 2081   5.816   4.021   2.911  0.1815  1.9186 -0.8811
   16SAPS   H3Y 2082   5.641   3.977   2.855 -1.3844  0.9171 -3.1004
   16SAPS   C34 2083   5.660   4.179   2.903  0.7316  0.4465  0.0961
   16SAPS   H4X 2084   5.558   4.176   2.859  0.6005  1.7613  0.2535
   16SAPS   H4Y 2085   5.716   4.262   2.855 -2.4924  2.2050 -0.9459
   16SAPS   C35 2086   5.667   4.191   3.056  0.1266  0.7046  0.3494
   16SAPS   H5X 2087   5.775   4.195   3.081  0.2365  0.3433 -0.0577
   16SAPS   H5Y 2088   5.628   4.100   3.106  2.9242 -1.0846 -0.4758
   16SAPS   C36 2089   5.600   4.318   3.108  0.1983 -0.1128  0.3800
   16SAPS   H6X 2090   5.491   4.312   3.085 -0.0155 -0.9911  1.5347
   16SAPS   H6Y 2091   5.659   4.388   3.046 -0.9500  1.0620  0.5823
   16SAPS   C37 2092   5.633   4.348   3.250 -0.8525  0.0494 -0.0784
   16SAPS   H7X 2093   5.743   4.365   3.256 -0.5977 -1.6725  0.7877
   16SAPS   H7Y 2094   5.616   4.263   3.319 -0.6066 -1.1159 -1.4102
   16SAPS   C38 2095   5.558   4.467   3.317  0.0124  0.0755  0.1759
   16SAPS   H8X 2096   5.631   4.489   3.399 -0.0236  3.2833 -0.5004
   16SAPS   H8Y 2097   5.459   4.431   3.353  0.9701 -0.5645  2.3556
   16SAPS   C39 2098   5.541   4.580   3.215  0.1312 -0.6661 -0.3610
   16SAPS   H9X 2099   5.447   4.552   3.163 -1.7246  2.1560  1.2185
   16SAPS   H9Y 2100   5.629   4.580   3.147  1.2006 -3.9337  0.8492
   16SAPS  C310 2101   5.521   4.733   3.270  0.3569  0.9406  0.0334
   16SAPS  H10X 2102   5.544   4.801   3.186  1.0202  0.7483  0.0559
   16SAPS  H10Y 2103   5.599   4.754   3.346  2.3332 -2.1912 -0.9329
   16SAPS  C311 2104   5.383   4.759   3.339  0.4023 -0.4900 -0.8407
   16SAPS  H11X 2105   5.379   4.864   3.375  2.6451 -1.2963  2.1787
   16SAPS  H11Y 2106   5.370   4.699   3.432 -0.5410  1.3697  0.2802
   16SAPS  C312 2107   5.261   4.754   3.250 -0.7311 -0.3115 -0.2154
   16SAPS  H12X 2108   5.164   4.778   3.299 -0.0007 -0.7207  1.4946
   16SAPS  H12Y 2109   5.253   4.653   3.206 -1.0194 -1.8326  3.0755
   16SAPS  C313 2110   5.269   4.853   3.142 -0.6454 -0.5568  0.1662
   16SAPS  H13X 2111   5.348   4.805   3.080  2.5621  2.0134  1.9669
   16SAPS  H13Y 2112   5.306   4.946   3.190  0.0415  0.1608 -1.6530
   16SAPS  C314 2113   5.146   4.855   3.050  0.0538 -0.3669  0.8965
   16SAPS  H14X 2114   5.065   4.926   3.079  1.3923  1.4869  0.3032
   16SAPS  H14Y 2115   5.091   4.759   3.049 -1.2299  0.2585 -2.8543
   16SAPS  C315 2116   5.192   4.886   2.904  0.8225 -0.1940 -0.6111
   16SAPS  H15X 2117   5.123   4.838   2.831  0.4978 -0.3652 -0.1963
   16SAPS  H15Y 2118   5.299   4.860   2.888  0.9238  0.4982 -1.1328
   16SAPS  C316 2119   5.186   5.039   2.886  0.5066  0.6874  0.1283
   16SAPS  H16X 2120   5.274   5.086   2.936  0.2623  1.3713 -0.0744
   16SAPS  H16Y 2121   5.090   5.073   2.929 -0.3955 -0.2780 -1.0518
   16SAPS  C317 2122   5.196   5.088   2.744  0.3689  0.2967  0.4706
   16SAPS  H17X 2123   5.135   5.180   2.734 -2.7578 -1.7251 -0.6898
   16SAPS  H17Y 2124   5.137   5.017   2.682 -1.9641  2.0535  0.5119
   16SAPS  C318 2125   5.336   5.100   2.691  0.2077 -0.4243  1.3847
   16SAPS  H18X 2126   5.327   5.141   2.588  0.6688 -0.7032  1.2282
   16SAPS  H18Y 2127   5.369   4.995   2.677  0.8360  0.0703 -1.5991
   16SAPS  H18Z 2128   5.417   5.144   2.753 -0.3466  0.5032  1.4709
   17SAPS     N 2129   1.751   2.171   1.979 -0.0054 -0.1160  0.4699
   17SAPS   HN1 2130   1.732   2.271   2.000 -0.0822 -0.2431  1.0108
   17SAPS   HN2 2131   1.657   2.128   1.967 -0.5725  1.4423 -1.2085
   17SAPS   HN3 2132   1.815   2.108   2.032  1.3914  0.5132 -0.4120
   17SAPS   C12 2133   1.805   2.174   1.837 -0.0288  0.1385  0.2061
   17SAPS  H12A 2134   1.767   2.267   1.798 -0.1367  0.5829  1.3123
   17SAPS   C13 2135   1.956   2.189   1.822 -0.3746 -0.4017 -0.6365
   17SAPS  O13A 2136   2.036   2.161   1.917  0.5148  0.0354  0.8464
   17SAPS  O13B 2137   1.999   2.240   1.716  0.1123  0.0110 -0.0467
   17SAPS   C11 2138   1.761   2.055   1.747 -0.0111 -0.1528 -0.6710
   17SAPS  H11A 2139   1.790   1.955   1.787  0.8379 -0.3787 -1.7897
   17SAPS  H11B 2140   1.825   2.070   1.657  0.4741 -1.0788 -0.4907
   17SAPS     P 2141   1.509   1.991   1.770  0.2809 -0.3818  0.3697
   17SAPS   O13 2142   1.379   2.043   1.725  0.3121  0.4279  0.0307
   17SAPS   O14 2143   1.531   1.849   1.750 -0.2516 -0.3948 -0.3904
   17SAPS   O12 2144   1.627   2.069   1.698  0.6776  0.0679  0.1981
   17SAPS   O11 2145   1.528   2.030   1.925  0.3788 -0.0257  0.0753
   17SAPS    C1 2146   1.406   2.080   1.991 -0.8125 -0.1235 -1.0475
   17SAPS    HA 2147   1.379   2.183   1.960 -2.7948  0.6390  2.6046
   17SAPS    HB 2148   1.327   2.005   1.971 -0.2483 -0.8391 -0.6214
   17SAPS    C2 2149   1.423   2.078   2.148  0.3938  0.1237  0.5854
   17SAPS    HS 2150   1.503   2.150   2.175 -0.5573  1.3500  0.2122
   17SAPS   O21 2151   1.454   1.950   2.186 -0.2380  0.5131 -0.2219
   17SAPS   C21 2152   1.569   1.917   2.229 -0.6817 -0.0336  0.3170
   17SAPS   O22 2153   1.662   1.999   2.233 -0.0441  0.9816 -0.0335
   17SAPS   C22 2154   1.572   1.766   2.261 -0.1282 -0.2756 -0.2031
   17SAPS   H2R 2155   1.504   1.750   2.347 -1.2578  0.9209 -0.8238
   17SAPS   H2S 2156   1.544   1.700   2.176 -0.0499 -0.7430  0.1332
   17SAPS    C3 2157   1.289   2.107   2.221 -0.3679 -0.3289  0.1007
   17SAPS    HX 2158   1.217   2.023   2.214  0.2089 -0.8682  0.5135
   17SAPS    HY 2159   1.250   2.194   2.165  2.2144 -0.1671 -1.6386
   17SAPS   O31 2160   1.316   2.145   2.365 -0.3920  0.2551  0.2124
   17SAPS   C31 2161   1.309   2.043   2.450 -0.0783 -0.5133  0.0975
   17SAPS   O32 2162   1.289   1.926   2.425 -0.0181  0.7632 -0.1412
   17SAPS   C32 2163   1.320   2.102   2.588  0.2271  0.5764  0.5555
   17SAPS   H2X 2164   1.238   2.176   2.601 -0.7866 -0.6360  1.3218
   17SAPS   H2Y 2165   1.414   2.160   2.606 -0.5418  1.6395  1.3425
   17SAPS   C23 2166   1.722   1.722   2.308 -0.2353 -0.1484  0.6766
   17SAPS   H3R 2167   1.793   1.785   2.251 -0.8063 -0.3304 -0.2427
   17SAPS   H3S 2168   1.727   1.614   2.281 -0.2307 -0.4261  1.7319
   17SAPS   C24 2169   1.741   1.746   2.457 -0.1463 -0.2786  0.1740
   17SAPS   H4R 2170   1.652   1.712   2.515 -0.1839  1.0459  0.9133
   17SAPS   H4S 2171   1.739   1.856   2.471 -0.2892 -0.1828 -0.5335
   17SAPS   C25 2172   1.871   1.683   2.503 -0.0649 -0.6077 -0.4850
   17SAPS   H5R 2173   1.952   1.703   2.432 -0.9646 -1.3360 -1.7592
   17SAPS   C26 2174   1.891   1.616   2.618 -0.4498  0.0578  0.1618
   17SAPS   H6R 2175   1.984   1.563   2.642 -1.0843 -1.0082  0.2966
   17SAPS   C27 2176   1.784   1.585   2.720 -0.1415 -0.2057  0.0660
   17SAPS   H7R 2177   1.685   1.563   2.674 -0.1674  1.2496 -0.6195
   17SAPS   H7S 2178   1.770   1.673   2.787 -0.6382 -0.7520  0.6907
   17SAPS   C28 2179   1.823   1.458   2.803  0.0889 -0.5698 -0.3086
   17SAPS   H8R 2180   1.806   1.355   2.767 -0.1650 -0.2802 -1.0331
   17SAPS   C29 2181   1.896   1.470   2.918 -0.9589  0.6910 -0.5959
   17SAPS   H9R 2182   1.942   1.381   2.963 -0.0625  0.1226 -2.5731
   17SAPS  C210 2183   1.936   1.594   2.997  0.0918 -0.2033  0.1000
   17SAPS  H10R 2184   1.857   1.627   3.069 -0.8184 -0.1087 -0.9248
   17SAPS  H10S 2185   1.953   1.678   2.927 -1.0035 -0.9942 -1.1552
   17SAPS  C211 2186   2.052   1.578   3.087 -0.0554 -0.5676 -0.6526
   17SAPS  H11R 2187   2.030   1.587   3.194 -0.4071  1.8833 -0.8735
   17SAPS  C212 2188   2.182   1.578   3.053 -0.0353  0.1094 -0.3756
   17SAPS  H12R 2189   2.259   1.577   3.131 -0.4149  1.6275  0.0586
   17SAPS  C213 2190   2.238   1.584   2.914 -0.0618 -0.2054 -0.2598
   17SAPS  H13R 2191   2.224   1.679   2.858  0.2628  0.4512  0.7442
   17SAPS  H13S 2192   2.196   1.504   2.849  0.6905 -0.9509  0.1446
   17SAPS  C214 2193   2.391   1.559   2.908 -0.1029  0.7739  0.1982
   17SAPS  H14R 2194   2.448   1.641   2.862  0.4079 -0.1104 -0.7966
   17SAPS  C215 2195   2.454   1.448   2.931 -0.3199  0.5267 -0.4400
   17SAPS  H15R 2196   2.564   1.452   2.937 -0.2068 -1.7306 -0.1627
   17SAPS  C216 2197   2.393   1.322   2.989 -0.9008 -0.3964 -0.9546
   17SAPS  H16R 2198   2.382   1.234   2.922 -2.2628 -0.8571 -0.1759
   17SAPS  H16S 2199   2.294   1.324   3.039 -0.5854  0.0320 -0.3259
   17SAPS  C217 2200   2.481   1.280   3.111 -0.3180 -0.0055  0.6712
   17SAPS  H17R 2201   2.589   1.279   3.082 -0.8440 -0.1515 -1.3752
   17SAPS  H17S 2202   2.461   1.174   3.137  2.3027 -0.9254 -0.7271
   17SAPS  C218 2203   2.473   1.371   3.231 -0.0150 -0.5686  0.0850
   17SAPS  H18R 2204   2.370   1.377   3.271  0.8635  2.6795  2.3736
   17SAPS  H18S 2205   2.507   1.472   3.197  2.1892 -0.5790  1.9713
   17SAPS  C219 2206   2.552   1.339   3.356  0.0566 -0.4226  0.5753
   17SAPS  H19R 2207   2.573   1.231   3.371  1.5766 -0.1571  0.5412
   17SAPS  H19S 2208   2.502   1.381   3.446  1.9047  0.9792  0.9975
   17SAPS  C220 2209   2.697   1.387   3.349 -0.4914  0.0855 -0.0129
   17SAPS  H20R 2210   2.759   1.382   3.441  1.4366 -1.0012 -1.2906
   17SAPS  H20S 2211   2.701   1.497   3.337 -1.4373  0.3578  1.7627
   17SAPS  H20T 2212   2.750   1.340   3.264  1.5072  1.8876  0.1640
   17SAPS   C33 2213   1.294   2.006   2.709 -0.1345 -0.0329 -0.4658
   17SAPS   H3X 2214   1.386   1.946   2.721 -0.2607  0.1286  1.7326
   17SAPS   H3Y 2215   1.201   1.948   2.694 -0.2197  0.3535 -1.5566
   17SAPS   C34 2216   1.279   2.075   2.851  0.1381 -0.2716  0.4079
   17SAPS   H4X 2217   1.371   2.135   2.871 -0.7162  1.0721  0.4054
   17SAPS   H4Y 2218   1.283   1.998   2.931  0.0920 -0.9904 -0.2693
   17SAPS   C35 2219   1.144   2.147   2.866  0.3953 -0.5709  0.4369
   17SAPS   H5X 2220   1.061   2.074   2.856 -2.0230  2.0277 -0.0379
   17SAPS   H5Y 2221   1.119   2.226   2.792 -0.9887 -2.1151 -0.8104
   17SAPS   C36 2222   1.148   2.227   2.998 -0.1442  0.5645  0.1121
   17SAPS   H6X 2223   1.211   2.316   2.978  1.8092 -1.2022 -2.4726
   17SAPS   H6Y 2224   1.196   2.168   3.079  2.3153  0.6208 -1.2060
   17SAPS   C37 2225   1.017   2.270   3.037  0.4481  0.1323 -0.4240
   17SAPS   H7X 2226   0.948   2.184   3.052 -1.8670  1.9853  0.2364
   17SAPS   H7Y 2227   0.969   2.329   2.956  1.1512  1.5469  0.1727
   17SAPS   C38 2228   1.016   2.351   3.162 -0.2943  0.0495  1.4236
   17SAPS   H8X 2229   0.914   2.392   3.177 -1.0179 -0.6662 -1.0108
   17SAPS   H8Y 2230   1.076   2.445   3.157 -1.8862  1.1281  1.8954
   17SAPS   C39 2231   1.063   2.290   3.294 -0.1349  0.0367 -0.1373
   17SAPS   H9X 2232   1.099   2.366   3.367  1.0827 -1.0189  0.3808
   17SAPS   H9Y 2233   1.154   2.233   3.269 -0.5540 -1.0020  0.6271
   17SAPS  C310 2234   0.948   2.212   3.360  0.3026  0.1540 -0.4385
   17SAPS  H10X 2235   0.931   2.116   3.307  0.4433 -0.3123  0.3388
   17SAPS  H10Y 2236   0.854   2.269   3.354  0.2588  0.6807  3.0054
   17SAPS  C311 2237   0.981   2.163   3.508 -0.0695 -0.6746 -0.2841
   17SAPS  H11X 2238   0.899   2.094   3.538 -0.8937  0.8647  1.2487
   17SAPS  H11Y 2239   0.978   2.249   3.579 -1.6844 -2.2374  1.6663
   17SAPS  C312 2240   1.111   2.077   3.508  0.2934  0.1871  0.1130
   17SAPS  H12X 2241   1.203   2.140   3.512  0.5431 -0.0494 -1.3377
   17SAPS  H12Y 2242   1.117   2.016   3.415 -3.1172  0.1075 -0.1515
   17SAPS  C313 2243   1.127   1.988   3.637 -0.0180 -0.2503 -0.6184
   17SAPS  H13X 2244   1.211   1.916   3.629  1.8608  0.9338  4.6080
   17SAPS  H13Y 2245   1.025   1.942   3.638 -0.9040  1.6416 -0.2678
   17SAPS  C314 2246   1.138   2.074   3.761 -0.2518  0.8492 -0.2540
   17SAPS  H14X 2247   1.056   2.146   3.779 -0.2286  1.2338 -1.5684
   17SAPS  H14Y 2248   1.231   2.131   3.742  0.3850 -0.5258 -1.4593
   17SAPS  C315 2249   1.158   1.997   3.899  0.1194  0.0354 -0.1179
   17SAPS  H15X 2250   1.249   1.933   3.889  2.0165  2.4542  0.5984
   17SAPS  H15Y 2251   1.073   1.937   3.936  1.0698 -0.2186  1.7401
   17SAPS  C316 2252   1.187   2.096   4.010  0.3839 -0.8998 -0.1989
   17SAPS  H16X 2253   1.198   2.026   4.095  1.8200  0.3821  0.7343
   17SAPS  H16Y 2254   1.094   2.152   4.035  0.7125 -1.1939  1.7752
   17SAPS  C317 2255   1.312   2.184   3.992  0.5611 -0.6567  0.1141
   17SAPS  H17X 2256   1.330   2.250   4.080 -0.0849  0.3184 -0.4692
   17SAPS  H17Y 2257   1.303   2.260   3.912 -1.5221 -0.5004  0.4211
   17SAPS  C318 2258   1.444   2.111   3.965 -0.0522 -0.9096 -0.3548
   17SAPS  H18X 2259   1.450   2.058   3.868 -1.4390 -0.5197 -0.6826
   17SAPS  H18Y 2260   1.453   2.026   4.036 -0.2154 -0.4100  0.2806
   17SAPS  H18Z 2261   1.526   2.185   3.977 -0.3609 -0.7382  0.9080
   18SAPS     N 2262   4.847   2.707   2.088 -0.1394 -0.1842  0.4041
   18SAPS   HN1 2263   4.841   2.628   2.155  0.4987  1.0138  1.9223
   18SAPS   HN2 2264   4.918   2.706   2.012 -2.1737 -2.1768 -1.6129
   18SAPS   HN3 2265   4.874   2.788   2.148 -0.1331  0.2210 -0.1320
   18SAPS   C12 2266   4.716   2.729   2.017  1.0479  0.2862  0.5166
   18SAPS  H12A 2267   4.728   2.806   1.942 -2.0814  0.7661  0.3757
   18SAPS   C13 2268   4.664   2.613   1.927 -0.1537  0.1954 -0.4274
   18SAPS  O13A 2269   4.750   2.533   1.876  0.0136 -0.0766 -0.1037
   18SAPS  O13B 2270   4.563   2.643   1.859  0.5103  0.2694 -0.3066
   18SAPS   C11 2271   4.602   2.777   2.110 -0.6169 -0.2435 -0.4018
   18SAPS  H11A 2272   4.514   2.779   2.043 -1.1071  2.9088  0.1668
   18SAPS  H11B 2273   4.629   2.882   2.134 -3.4122  0.1410  1.4801
   18SAPS     P 2274   4.474   2.581   2.252  0.0329 -0.2132  0.3179
   18SAPS   O13 2275   4.344   2.634   2.196 -0.6355  0.6376 -0.2265
   18SAPS   O14 2276   4.518   2.447   2.218  0.2071 -0.8723 -0.1247
   18SAPS   O12 2277   4.586   2.686   2.222 -0.2375 -0.0285 -0.0478
   18SAPS   O11 2278   4.469   2.600   2.412 -0.2125 -0.2533 -0.5724
   18SAPS    C1 2279   4.578   2.576   2.494  0.4584  0.9403 -0.8733
   18SAPS    HA 2280   4.642   2.498   2.449 -0.8769 -2.1561  2.1030
   18SAPS    HB 2281   4.638   2.669   2.506 -0.3009  1.3804 -0.3506
   18SAPS    C2 2282   4.533   2.539   2.638  0.0894  0.0513  0.1313
   18SAPS    HS 2283   4.627   2.517   2.693  0.1788 -0.4306 -0.2101
   18SAPS   O21 2284   4.446   2.431   2.642 -0.7635  0.1386 -0.0288
   18SAPS   C21 2285   4.485   2.309   2.605  0.2632 -0.4137 -0.2651
   18SAPS   O22 2286   4.595   2.274   2.568 -0.7172  1.0382 -0.6427
   18SAPS   C22 2287   4.374   2.209   2.633 -0.5255 -0.4343  1.1505
   18SAPS   H2R 2288   4.318   2.230   2.726 -2.8760 -1.8079  0.1371
   18SAPS   H2S 2289   4.304   2.222   2.547  0.9970 -2.5097 -0.5157
   18SAPS    C3 2290   4.458   2.658   2.707  0.0881 -0.2805  0.4749
   18SAPS    HX 2291   4.370   2.676   2.641  2.3798 -0.3109 -2.8689
   18SAPS    HY 2292   4.508   2.757   2.705 -0.5457  0.0448  0.6540
   18SAPS   O31 2293   4.412   2.630   2.839  0.2072 -0.2722  0.4283
   18SAPS   C31 2294   4.506   2.653   2.931  0.0443  0.3584 -0.0610
   18SAPS   O32 2295   4.624   2.659   2.918 -0.6458 -0.1252 -0.4052
   18SAPS   C32 2296   4.441   2.672   3.071  0.0080  0.2589 -0.4273
   18SAPS   H2X 2297   4.361   2.596   3.087  0.7941 -1.1657 -2.7301
   18SAPS   H2Y 2298   4.383   2.766   3.065 -0.4135 -0.0583 -1.5950
   18SAPS   C23 2299   4.422   2.058   2.622  0.3221 -0.6736  0.1677
   18SAPS   H3R 2300   4.494   2.045   2.539  0.2141  1.3316 -0.2936
   18SAPS   H3S 2301   4.328   2.006   2.592 -1.4787  1.9219  0.9222
   18SAPS   C24 2302   4.476   1.997   2.757 -0.3182 -0.3514 -0.6813
   18SAPS   H4R 2303   4.495   1.892   2.725  1.6351  0.4106 -2.1809
   18SAPS   H4S 2304   4.401   2.010   2.838  1.0787  1.3331  0.4024
   18SAPS   C25 2305   4.607   2.069   2.790  0.2302  0.4501  0.6275
   18SAPS   H5R 2306   4.680   2.056   2.708 -1.5487 -1.1043 -0.8093
   18SAPS   C26 2307   4.634   2.167   2.879 -0.1007 -0.2999 -0.5346
   18SAPS   H6R 2308   4.737   2.202   2.896  0.2987 -0.6887 -2.0378
   18SAPS   C27 2309   4.536   2.212   2.983  0.0269  0.4445  0.3742
   18SAPS   H7R 2310   4.433   2.193   2.945 -0.7145  1.5737  1.7189
   18SAPS   H7S 2311   4.538   2.320   3.008  0.2883 -0.0615  2.8207
   18SAPS   C28 2312   4.567   2.135   3.114 -0.6400  0.0646 -0.3584
   18SAPS   H8R 2313   4.630   2.046   3.105 -1.1832 -0.1611 -2.2033
   18SAPS   C29 2314   4.534   2.168   3.242  0.0345  0.4296  0.1052
   18SAPS   H9R 2315   4.558   2.091   3.316  0.2387  0.4481  0.0594
   18SAPS  C210 2316   4.444   2.278   3.289 -0.2290 -0.4357 -0.2598
   18SAPS  H10R 2317   4.430   2.357   3.212 -0.6912  0.8587  1.1074
   18SAPS  H10S 2318   4.493   2.335   3.370 -0.2722  1.4057 -1.4825
   18SAPS  C211 2319   4.308   2.247   3.341 -0.3403  0.1002  0.4666
   18SAPS  H11R 2320   4.232   2.231   3.263  0.2424 -0.0819 -0.0730
   18SAPS  C212 2321   4.278   2.222   3.466 -0.0666 -0.2077  0.2157
   18SAPS  H12R 2322   4.174   2.196   3.492  0.0279 -1.4402 -0.5554
   18SAPS  C213 2323   4.379   2.220   3.580  0.9587  0.1950  0.1644
   18SAPS  H13R 2324   4.410   2.323   3.608 -0.4036  0.6504  0.0886
   18SAPS  H13S 2325   4.463   2.154   3.553 -2.3197 -4.1439 -0.5503
   18SAPS  C214 2326   4.319   2.159   3.708 -0.5308 -0.0258  1.0735
   18SAPS  H14R 2327   4.279   2.058   3.695  0.3843 -0.3614  0.7561
   18SAPS  C215 2328   4.319   2.207   3.833 -0.0817 -0.2141  0.3126
   18SAPS  H15R 2329   4.265   2.156   3.915  0.1622  0.1336  0.6923
   18SAPS  C216 2330   4.370   2.340   3.873 -0.0046  0.6156 -0.6610
   18SAPS  H16R 2331   4.365   2.410   3.786  0.8102  0.6448 -0.6917
   18SAPS  H16S 2332   4.478   2.328   3.896 -0.0491  0.0420 -0.7550
   18SAPS  C217 2333   4.304   2.415   3.998 -0.0208 -0.3568 -0.1654
   18SAPS  H17R 2334   4.354   2.513   4.003 -0.8451  0.1238 -0.9550
   18SAPS  H17S 2335   4.325   2.357   4.091  0.1296 -0.5146 -0.2969
   18SAPS  C218 2336   4.157   2.445   3.986  0.0394  0.4152 -0.3982
   18SAPS  H18R 2337   4.106   2.347   3.993  0.6597  0.2021  1.9667
   18SAPS  H18S 2338   4.152   2.502   3.890 -1.3075  2.1127  0.6277
   18SAPS  C219 2339   4.095   2.532   4.095 -0.7278  0.5587 -0.0119
   18SAPS  H19R 2340   4.148   2.629   4.103  0.7155  0.1080 -2.7667
   18SAPS  H19S 2341   4.111   2.481   4.193  0.8622 -0.5365 -0.8021
   18SAPS  C220 2342   3.947   2.560   4.061  0.5980  0.0471 -0.7144
   18SAPS  H20R 2343   3.891   2.630   4.127  0.7318 -0.7656  0.2922
   18SAPS  H20S 2344   3.885   2.468   4.059 -0.6193  0.7913  0.7825
   18SAPS  H20T 2345   3.949   2.598   3.957  3.2196 -0.3025 -0.8556
   18SAPS   C33 2346   4.540   2.675   3.188 -0.0896 -0.1233  0.9401
   18SAPS   H3X 2347   4.590   2.772   3.168 -1.5321  0.2176 -1.4315
   18SAPS   H3Y 2348   4.619   2.597   3.182 -0.6824 -0.7943  1.6857
   18SAPS   C34 2349   4.489   2.669   3.334  0.5951 -0.2340  0.0172
   18SAPS   H4X 2350   4.424   2.583   3.360 -0.5565  1.0952  1.7394
   18SAPS   H4Y 2351   4.431   2.763   3.348  2.0055  0.9692 -1.8353
   18SAPS   C35 2352   4.604   2.665   3.431  0.4367 -0.3893  0.5582
   18SAPS   H5X 2353   4.672   2.750   3.408  0.4268 -0.7448 -0.9258
   18SAPS   H5Y 2354   4.658   2.569   3.418 -0.8959 -1.3093  1.5100
   18SAPS   C36 2355   4.558   2.659   3.579  0.4650 -0.4816 -0.0483
   18SAPS   H6X 2356   4.488   2.573   3.577  1.5867 -1.4390 -3.1343
   18SAPS   H6Y 2357   4.503   2.753   3.601 -0.1366  0.0200 -3.2537
   18SAPS   C37 2358   4.662   2.643   3.683 -0.5568 -0.2413 -0.4073
   18SAPS   H7X 2359   4.729   2.730   3.669 -0.6500 -0.1925 -0.5570
   18SAPS   H7Y 2360   4.721   2.550   3.672 -0.2772 -0.0982 -0.1250
   18SAPS   C38 2361   4.602   2.649   3.825 -0.3664 -0.6585  0.5766
   18SAPS   H8X 2362   4.559   2.550   3.853 -1.2673 -0.4025  0.1439
   18SAPS   H8Y 2363   4.514   2.714   3.805  0.5074 -0.3174 -2.7287
   18SAPS   C39 2364   4.692   2.697   3.935 -0.7328 -0.5319 -0.5043
   18SAPS   H9X 2365   4.716   2.806   3.927 -1.6491 -0.2061  0.9435
   18SAPS   H9Y 2366   4.789   2.642   3.932  0.0033  0.5620  1.2677
   18SAPS  C310 2367   4.633   2.676   4.074  0.2975 -0.8108  0.0532
   18SAPS  H10X 2368   4.613   2.567   4.073  1.9541 -1.1785  1.1673
   18SAPS  H10Y 2369   4.537   2.731   4.083 -0.0688 -1.2147 -1.2024
   18SAPS  C311 2370   4.726   2.716   4.186  0.1177  0.8106 -0.7533
   18SAPS  H11X 2371   4.765   2.820   4.175  0.7661  0.7035  0.3509
   18SAPS  H11Y 2372   4.815   2.650   4.193 -0.8791 -0.6677 -1.5525
   18SAPS  C312 2373   4.648   2.709   4.318  0.7926 -0.5404 -0.5581
   18SAPS  H12X 2374   4.604   2.609   4.336 -0.7608 -0.1062 -1.7530
   18SAPS  H12Y 2375   4.551   2.761   4.301 -1.1478 -3.1451  1.5866
   18SAPS  C313 2376   4.728   2.747   4.444  0.5281 -0.2745 -0.6303
   18SAPS  H13X 2377   4.658   2.791   4.518 -0.8400 -1.5008 -1.1535
   18SAPS  H13Y 2378   4.793   2.833   4.417 -1.5112  1.7145  0.5060
   18SAPS  C314 2379   4.804   2.627   4.502  0.0791 -0.2218 -0.0396
   18SAPS  H14X 2380   4.885   2.594   4.433  0.5998  0.6151  0.1519
   18SAPS  H14Y 2381   4.734   2.540   4.507 -2.4721  1.5192 -2.4338
   18SAPS  C315 2382   4.869   2.664   4.638  0.0803  0.2610 -0.2932
   18SAPS  H15X 2383   4.792   2.677   4.717  2.0477 -0.4266  1.8450
   18SAPS  H15Y 2384   4.932   2.755   4.634 -0.8542  0.9509  0.3399
   18SAPS  C316 2385   4.958   2.544   4.695  0.2627  0.1583  0.7288
   18SAPS  H16X 2386   5.040   2.526   4.622 -0.6294  0.4042 -0.3797
   18SAPS  H16Y 2387   4.900   2.450   4.685 -0.1658  0.6132 -1.6884
   18SAPS  C317 2388   5.013   2.572   4.836  0.6732 -0.7650 -0.1193
   18SAPS  H17X 2389   4.924   2.575   4.902  1.5169 -1.4235  1.0720
   18SAPS  H17Y 2390   5.051   2.676   4.852 -3.0884  0.2303  5.0014
   18SAPS  C318 2391   5.101   2.461   4.898  0.2545 -1.3627  0.1674
   18SAPS  H18X 2392   5.112   2.480   5.007  0.0737 -0.6730  0.0698
   18SAPS  H18Y 2393   5.190   2.454   4.832 -0.8705  0.1077 -1.5952
   18SAPS  H18Z 2394   5.042   2.368   4.883 -0.5624 -0.8427  0.1253
   19SAPS     N 2395   3.879   5.163   1.914  0.3502 -0.0870  0.0761
   19SAPS   HN1 2396   3.799   5.116   1.961 -0.5557  1.3593  0.0292
   19SAPS   HN2 2397   3.926   5.232   1.977  1.1250  0.3097 -0.9120
   19SAPS   HN3 2398   3.832   5.228   1.849  2.4127  0.9805 -0.4375
   19SAPS   C12 2399   3.976   5.076   1.849  1.1723  0.2798  0.1664
   19SAPS  H12A 2400   3.927   5.010   1.779  1.6742  1.2228 -1.1188
   19SAPS   C13 2401   4.076   5.152   1.764 -0.3094 -0.3720  0.2952
   19SAPS  O13A 2402   4.066   5.278   1.741 -0.1231  0.0318 -0.4407
   19SAPS  O13B 2403   4.142   5.076   1.683  0.0497 -0.3820 -0.0800
   19SAPS   C11 2404   4.051   4.988   1.955  0.3515  0.2231 -0.5863
   19SAPS  H11A 2405   4.123   4.927   1.897 -1.5369 -1.3839 -1.3590
   19SAPS  H11B 2406   3.978   4.910   1.988  1.5566 -0.6405  0.1119
   19SAPS     P 2407   4.200   5.012   2.176 -0.3470 -0.1128 -0.4265
   19SAPS   O13 2408   4.320   4.958   2.100 -0.0847  0.0976  0.4219
   19SAPS   O14 2409   4.219   5.116   2.281  0.0028 -0.1043 -0.3359
   19SAPS   O12 2410   4.094   5.067   2.067 -0.4232 -0.0275  0.0232
   19SAPS   O11 2411   4.115   4.895   2.239 -0.4648  0.3652 -0.2536
   19SAPS    C1 2412   3.975   4.889   2.276 -0.8719  0.9065  0.1237
   19SAPS    HA 2413   3.919   4.977   2.238  0.1276  1.4953 -0.0271
   19SAPS    HB 2414   3.930   4.797   2.233  0.3449 -0.6749  2.0526
   19SAPS    C2 2415   3.957   4.886   2.435 -0.9613  0.5204 -0.5985
   19SAPS    HS 2416   3.848   4.906   2.439 -0.8254  1.4224 -1.1535
   19SAPS   O21 2417   4.033   4.990   2.496  0.8390  0.5147 -0.4971
   19SAPS   C21 2418   3.983   5.115   2.484  0.2840  0.6062 -0.6305
   19SAPS   O22 2419   3.896   5.155   2.412 -0.2183 -0.3359  0.3293
   19SAPS   C22 2420   4.056   5.193   2.592 -0.4425 -1.0262  0.7399
   19SAPS   H2R 2421   4.123   5.135   2.659 -2.5724 -2.3277  1.8803
   19SAPS   H2S 2422   4.117   5.265   2.535  0.4184 -1.9715  0.4303
   19SAPS    C3 2423   4.002   4.755   2.500  0.6674  0.4437  0.5254
   19SAPS    HX 2424   4.105   4.729   2.466  0.8034  2.3470 -0.6794
   19SAPS    HY 2425   3.931   4.679   2.464  1.8152 -0.1749 -0.5002
   19SAPS   O31 2426   3.983   4.764   2.645 -0.0855  0.1497 -0.6866
   19SAPS   C31 2427   4.088   4.740   2.717  0.1319  0.4179  0.1067
   19SAPS   O32 2428   4.201   4.729   2.678  0.3817 -0.1316 -0.0830
   19SAPS   C32 2429   4.044   4.728   2.864  0.2296  0.1171 -0.3235
   19SAPS   H2X 2430   3.981   4.637   2.867  0.2248  0.0446 -1.6948
   19SAPS   H2Y 2431   3.979   4.816   2.882  1.1257  0.7243  0.0276
   19SAPS   C23 2432   3.953   5.264   2.689 -0.1746 -0.2397  0.2240
   19SAPS   H3R 2433   3.882   5.326   2.631  1.0746  0.0551 -1.0348
   19SAPS   H3S 2434   4.016   5.331   2.752  0.0430  1.9457 -2.1477
   19SAPS   C24 2435   3.871   5.168   2.777 -0.0669 -0.2551 -0.2868
   19SAPS   H4R 2436   3.818   5.093   2.715  2.8790 -2.0029 -0.9285
   19SAPS   H4S 2437   3.790   5.227   2.824 -0.2548  0.5631 -1.5802
   19SAPS   C25 2438   3.967   5.108   2.882 -0.1782  0.1887 -0.3462
   19SAPS   H5R 2439   4.042   5.043   2.833 -0.5934  1.0864 -2.3006
   19SAPS   C26 2440   3.955   5.115   3.013  0.9652 -0.3838  0.0169
   19SAPS   H6R 2441   4.037   5.066   3.069  2.0508  1.5168  0.1922
   19SAPS   C27 2442   3.854   5.206   3.086 -0.4844 -0.4068  0.3431
   19SAPS   H7R 2443   3.747   5.186   3.065 -0.2037  0.2915 -2.0241
   19SAPS   H7S 2444   3.869   5.309   3.046  0.3642  0.1288  1.9205
   19SAPS   C28 2445   3.871   5.207   3.233 -0.4169  0.6893  0.3000
   19SAPS   H8R 2446   3.956   5.264   3.272 -0.1910 -0.1303  1.0339
   19SAPS   C29 2447   3.791   5.147   3.323  0.4976 -0.1379  0.2783
   19SAPS   H9R 2448   3.825   5.138   3.427  0.9146 -0.3975  0.1220
   19SAPS  C210 2449   3.662   5.065   3.296  0.4307 -0.3143 -0.1014
   19SAPS  H10R 2450   3.594   5.136   3.245  0.0224 -1.4518 -1.1726
   19SAPS  H10S 2451   3.621   5.046   3.398 -1.9564 -2.1272 -1.3096
   19SAPS  C211 2452   3.697   4.942   3.212 -0.1045 -0.2120 -0.3235
   19SAPS  H11R 2453   3.705   4.959   3.103  3.4360 -0.6364 -0.2638
   19SAPS  C212 2454   3.731   4.825   3.264  0.0136  0.4080 -0.6371
   19SAPS  H12R 2455   3.751   4.751   3.186  0.0172  0.2815 -0.5174
   19SAPS  C213 2456   3.734   4.761   3.406  0.4772  0.2964  0.2600
   19SAPS  H13R 2457   3.816   4.796   3.473 -0.0032  1.2086  0.3819
   19SAPS  H13S 2458   3.740   4.650   3.394 -0.0702  0.1598  1.1472
   19SAPS  C214 2459   3.607   4.785   3.482 -0.3934  0.2303  0.5781
   19SAPS  H14R 2460   3.526   4.825   3.419 -1.9477 -1.4443  1.4297
   19SAPS  C215 2461   3.575   4.750   3.606  0.0480 -0.6552 -0.5368
   19SAPS  H15R 2462   3.484   4.788   3.655 -0.4042  0.1110 -1.9150
   19SAPS  C216 2463   3.674   4.675   3.692  0.4953 -0.4251  0.2902
   19SAPS  H16R 2464   3.765   4.739   3.693 -0.6735  1.3734  2.8640
   19SAPS  H16S 2465   3.687   4.568   3.662 -0.7380 -0.9927  1.6683
   19SAPS  C217 2466   3.630   4.646   3.843 -0.1891 -0.2538 -0.0912
   19SAPS  H17R 2467   3.710   4.590   3.896  0.4987 -0.1407 -0.9734
   19SAPS  H17S 2468   3.539   4.583   3.841 -0.1207 -0.3441 -1.1231
   19SAPS  C218 2469   3.621   4.780   3.918 -0.3362 -0.4410 -0.2138
   19SAPS  H18R 2470   3.527   4.836   3.899 -0.1750  0.6832  1.9540
   19SAPS  H18S 2471   3.704   4.847   3.888 -2.4703  1.5209 -2.1538
   19SAPS  C219 2472   3.618   4.764   4.068 -0.5044  0.3064 -0.5397
   19SAPS  H19R 2473   3.718   4.728   4.100  1.6714  3.3600 -3.2307
   19SAPS  H19S 2474   3.549   4.682   4.098 -0.6498  0.2417 -1.0499
   19SAPS  C220 2475   3.583   4.898   4.134  0.4598  0.5957  0.6357
   19SAPS  H20R 2476   3.598   4.897   4.244 -0.6388 -1.0772  0.8146
   19SAPS  H20S 2477   3.476   4.925   4.115  0.8844 -0.0775 -3.6565
   19SAPS  H20T 2478   3.654   4.972   4.093  1.2826  1.1422  2.8778
   19SAPS   C33 2479   4.156   4.707   2.973 -0.1897  0.2459  0.1606
   19SAPS   H3X 2480   4.240   4.778   2.958  0.0278 -0.0422  0.0043
   19SAPS   H3Y 2481   4.188   4.601   2.961 -1.0427 -0.4497  3.0866
   19SAPS   C34 2482   4.101   4.722   3.110  0.0783 -0.5075 -0.0906
   19SAPS   H4X 2483   4.028   4.640   3.126 -0.1012 -0.1206  1.2176
   19SAPS   H4Y 2484   4.062   4.826   3.118  0.4530 -0.3827  0.1677
   19SAPS   C35 2485   4.215   4.711   3.221 -0.0445  0.0762  0.7357
   19SAPS   H5X 2486   4.284   4.797   3.218  0.5024 -0.2693  2.3487
   19SAPS   H5Y 2487   4.271   4.622   3.184 -0.0576  0.8008 -1.1275
   19SAPS   C36 2488   4.161   4.704   3.367 -0.1442 -0.8273  0.4258
   19SAPS   H6X 2489   4.252   4.681   3.425  2.0631 -1.4199 -3.0028
   19SAPS   H6Y 2490   4.083   4.627   3.384 -2.1602  1.1801  0.9007
   19SAPS   C37 2491   4.103   4.838   3.413  0.2038 -0.8261  0.0527
   19SAPS   H7X 2492   4.017   4.851   3.345  2.1829  0.9338 -2.2687
   19SAPS   H7Y 2493   4.171   4.920   3.384  1.6752 -2.6462 -1.9412
   19SAPS   C38 2494   4.069   4.837   3.567  0.2623  0.0018  0.2227
   19SAPS   H8X 2495   4.152   4.798   3.629  0.9769  0.4811 -0.4155
   19SAPS   H8Y 2496   3.993   4.759   3.590 -0.1369  0.5578  0.8212
   19SAPS   C39 2497   4.022   4.974   3.626  0.1800  0.0157  0.7344
   19SAPS   H9X 2498   3.940   5.009   3.560  0.8268  0.0208 -0.0933
   19SAPS   H9Y 2499   4.100   5.053   3.624 -1.9083  2.1729  0.2090
   19SAPS  C310 2500   3.969   4.974   3.770  0.7967 -0.6252  0.7087
   19SAPS  H10X 2501   4.049   4.931   3.834  2.6027  0.0256 -1.0233
   19SAPS  H10Y 2502   3.885   4.902   3.768  0.7999 -0.6171  0.1785
   19SAPS  C311 2503   3.935   5.114   3.825  0.1802  0.4000  0.4246
   19SAPS  H11X 2504   3.844   5.109   3.889 -0.8088  2.1804 -0.7407
   19SAPS  H11Y 2505   3.912   5.167   3.730  1.0253 -0.5048 -0.3046
   19SAPS  C312 2506   4.050   5.177   3.901 -0.4654 -0.2913 -0.2805
   19SAPS  H12X 2507   4.140   5.163   3.838 -0.8435 -0.2766 -0.8303
   19SAPS  H12Y 2508   4.060   5.132   4.002  1.1009 -0.1544 -0.3441
   19SAPS  C313 2509   4.028   5.330   3.932 -0.5067  0.4587  0.2226
   19SAPS  H13X 2510   3.918   5.343   3.944 -1.2986  0.3744 -4.8636
   19SAPS  H13Y 2511   4.059   5.386   3.842  0.1119  1.9791  1.3392
   19SAPS  C314 2512   4.104   5.390   4.051 -0.1478 -0.0638 -0.2730
   19SAPS  H14X 2513   4.213   5.375   4.034 -0.5640 -2.6594 -1.0886
   19SAPS  H14Y 2514   4.068   5.335   4.141 -1.5707 -0.4892 -1.0674
   19SAPS  C315 2515   4.080   5.542   4.059 -0.5091 -0.6328  0.4469
   19SAPS  H15X 2516   3.970   5.556   4.049 -0.8489  0.8469  4.5688
   19SAPS  H15Y 2517   4.140   5.589   3.978  0.7350 -0.2443  1.5546
   19SAPS  C316 2518   4.123   5.595   4.199 -0.1548  0.0104 -0.5840
   19SAPS  H16X 2519   4.122   5.523   4.284  0.3227 -1.6548 -1.9254
   19SAPS  H16Y 2520   4.051   5.671   4.235  1.1102 -0.1317  2.5286
   19SAPS  C317 2521   4.256   5.675   4.214  0.9387  0.5941 -0.1743
   19SAPS  H17X 2522   4.267   5.717   4.316 -1.9353  0.0746  0.4461
   19SAPS  H17Y 2523   4.258   5.758   4.141  2.6600 -0.1243 -1.0041
   19SAPS  C318 2524   4.387   5.588   4.201  0.3442  0.4378 -0.1233
   19SAPS  H18X 2525   4.400   5.554   4.096  3.1794  0.7855  0.0478
   19SAPS  H18Y 2526   4.368   5.495   4.258 -3.3371  0.6705 -0.7018
   19SAPS  H18Z 2527   4.478   5.635   4.242  1.3932 -2.9157  1.7223
   20SAPS     N 2528   5.043   5.764   1.975 -0.2665 -0.1622 -0.5408
   20SAPS   HN1 2529   4.953   5.728   2.012  0.0890 -0.4546  0.0620
   20SAPS   HN2 2530   5.092   5.679   1.940 -1.3801 -0.6854 -0.8744
   20SAPS   HN3 2531   5.108   5.808   2.043 -1.0440  2.0009 -1.1291
   20SAPS   C12 2532   5.002   5.855   1.863 -0.2607 -0.2640  0.2546
   20SAPS  H12A 2533   5.087   5.866   1.798 -0.7553 -0.7291 -0.4728
   20SAPS   C13 2534   4.884   5.803   1.777 -0.1471 -0.6370  0.4360
   20SAPS  O13A 2535   4.842   5.687   1.793 -0.1225  0.1623 -0.1101
   20SAPS  O13B 2536   4.861   5.867   1.670 -0.2180 -0.0246 -0.2639
   20SAPS   C11 2537   4.959   5.986   1.917 -0.4117  0.4080 -0.0588
   20SAPS  H11A 2538   4.870   5.978   1.984 -0.9994  1.0152 -0.7457
   20SAPS  H11B 2539   4.930   6.047   1.828 -1.2305 -2.3847 -1.8645
   20SAPS     P 2540   5.040   6.195   2.051  0.2916  0.1129  0.3504
   20SAPS   O13 2541   5.162   6.227   2.127  0.1020 -0.1867  0.2718
   20SAPS   O14 2542   4.983   6.284   1.951 -0.0731 -0.1239  0.3107
   20SAPS   O12 2543   5.064   6.047   1.992 -0.6047 -0.0488  0.5034
   20SAPS   O11 2544   4.925   6.184   2.148  0.8798  0.2021 -0.3137
   20SAPS    C1 2545   4.925   6.091   2.265 -0.6194  1.1076  0.3463
   20SAPS    HA 2546   4.845   6.015   2.256  0.1452  0.3333 -0.0817
   20SAPS    HB 2547   5.027   6.049   2.278 -0.7659  0.2647 -1.0249
   20SAPS    C2 2548   4.902   6.170   2.394  0.1750  0.1688 -0.0401
   20SAPS    HS 2549   4.815   6.238   2.378 -1.0412 -1.3129 -0.0544
   20SAPS   O21 2550   5.023   6.229   2.433  0.5204  0.0888  0.2913
   20SAPS   C21 2551   5.031   6.359   2.409 -0.0362 -0.2920  0.2468
   20SAPS   O22 2552   4.935   6.424   2.368 -0.5094 -0.3373 -0.1339
   20SAPS   C22 2553   5.175   6.412   2.420  0.8035 -0.4635  0.2655
   20SAPS   H2R 2554   5.228   6.345   2.349  2.2144 -1.2370  1.9518
   20SAPS   H2S 2555   5.191   6.515   2.383  2.5942 -0.5102  0.7872
   20SAPS    C3 2556   4.884   6.075   2.521  0.1678  0.3061  0.1714
   20SAPS    HX 2557   4.861   6.140   2.609 -0.2722  0.3866 -0.0017
   20SAPS    HY 2558   4.976   6.015   2.539 -0.1338 -0.3005 -0.2779
   20SAPS   O31 2559   4.773   5.980   2.495 -0.0093  0.2222 -0.2424
   20SAPS   C31 2560   4.748   5.879   2.584  0.7784  0.0512 -0.0096
   20SAPS   O32 2561   4.823   5.862   2.678  0.5896  0.3292  0.1703
   20SAPS   C32 2562   4.620   5.810   2.558  0.7510  0.5191  0.1087
   20SAPS   H2X 2563   4.631   5.727   2.485 -0.6948  1.1512 -0.8898
   20SAPS   H2Y 2564   4.543   5.884   2.525 -0.7473 -1.4741 -1.1102
   20SAPS   C23 2565   5.227   6.401   2.563  0.5656  0.5626 -1.1185
   20SAPS   H3R 2566   5.280   6.305   2.577 -1.9934 -0.5985  1.6854
   20SAPS   H3S 2567   5.136   6.407   2.626 -0.2454 -2.1544 -1.9025
   20SAPS   C24 2568   5.329   6.516   2.603  0.2882  0.2729 -0.6259
   20SAPS   H4R 2569   5.408   6.546   2.531 -0.4752 -0.0794 -1.6364
   20SAPS   H4S 2570   5.387   6.469   2.684  1.9249  0.9543 -1.3507
   20SAPS   C25 2571   5.251   6.640   2.657 -0.6424  0.2862  0.6028
   20SAPS   H5R 2572   5.240   6.714   2.577  0.9549 -0.5872 -0.4829
   20SAPS   C26 2573   5.215   6.664   2.784  0.8298  0.1990 -1.0168
   20SAPS   H6R 2574   5.165   6.756   2.818  2.6434  1.3179 -1.2229
   20SAPS   C27 2575   5.238   6.565   2.894  0.0774 -0.0610 -0.4497
   20SAPS   H7R 2576   5.342   6.525   2.895 -0.5142 -1.6876  0.7281
   20SAPS   H7S 2577   5.185   6.474   2.860  1.0144 -0.5807 -0.5461
   20SAPS   C28 2578   5.177   6.602   3.029  0.1492 -0.3077 -0.7813
   20SAPS   H8R 2579   5.068   6.621   3.028  0.3476  0.9734 -0.6721
   20SAPS   C29 2580   5.245   6.600   3.144 -0.8623 -0.8077  0.5067
   20SAPS   H9R 2581   5.194   6.622   3.239 -2.4266 -1.8474 -0.0509
   20SAPS  C210 2582   5.400   6.582   3.156  0.0604  0.2635  0.0761
   20SAPS  H10R 2583   5.453   6.676   3.183  2.3633 -1.7021  3.1239
   20SAPS  H10S 2584   5.451   6.548   3.064  0.9883  0.6413  0.4390
   20SAPS  C211 2585   5.425   6.475   3.258  0.3467  0.2601 -0.1137
   20SAPS  H11R 2586   5.448   6.376   3.216 -0.9210 -0.2174  0.2519
   20SAPS  C212 2587   5.420   6.489   3.389 -0.2872 -0.3190 -0.3554
   20SAPS  H12R 2588   5.436   6.406   3.459  0.6645  2.0012  2.3817
   20SAPS  C213 2589   5.387   6.608   3.471 -0.3560  0.4919  0.0731
   20SAPS  H13R 2590   5.346   6.685   3.402  1.3545  1.7154  0.3728
   20SAPS  H13S 2591   5.471   6.665   3.516 -0.2554  0.6574 -0.3170
   20SAPS  C214 2592   5.271   6.573   3.569  0.3361 -0.0210 -0.2479
   20SAPS  H14R 2593   5.172   6.562   3.522 -1.9606  1.0742  3.8497
   20SAPS  C215 2594   5.286   6.560   3.697  0.8660 -0.3124  0.1395
   20SAPS  H15R 2595   5.191   6.533   3.744  0.4273 -0.0187 -0.5654
   20SAPS  C216 2596   5.410   6.574   3.775  0.0325 -0.0797  0.0800
   20SAPS  H16R 2597   5.506   6.575   3.720 -0.0947 -0.0167 -0.1397
   20SAPS  H16S 2598   5.414   6.483   3.840  0.1790  0.0340  0.2317
   20SAPS  C217 2599   5.406   6.687   3.880 -0.6992  0.3201  0.1009
   20SAPS  H17R 2600   5.382   6.786   3.837 -2.3015 -0.3517 -0.6404
   20SAPS  H17S 2601   5.511   6.685   3.916 -0.3320  2.1312 -0.7716
   20SAPS  C218 2602   5.308   6.669   3.996  0.0352  0.3954  0.0926
   20SAPS  H18R 2603   5.307   6.564   4.030  2.6220 -0.1460 -1.2476
   20SAPS  H18S 2604   5.205   6.694   3.962  0.0762 -1.3433 -1.4364
   20SAPS  C219 2605   5.341   6.767   4.121 -0.0884  0.5079  0.5603
   20SAPS  H19R 2606   5.323   6.875   4.102  1.1811  1.0840  2.3730
   20SAPS  H19S 2607   5.448   6.764   4.151 -0.5549  4.3010  3.3233
   20SAPS  C220 2608   5.277   6.722   4.251 -0.1049 -0.4062 -0.5900
   20SAPS  H20R 2609   5.304   6.616   4.266  2.0283  0.2060  0.2847
   20SAPS  H20S 2610   5.167   6.730   4.250 -0.1310  0.9126 -4.4599
   20SAPS  H20T 2611   5.310   6.772   4.345  0.1250 -2.3631  0.4167
   20SAPS   C33 2612   4.556   5.755   2.693  0.1364  0.1955  0.4219
   20SAPS   H3X 2613   4.521   5.841   2.756 -0.4327 -0.9087  1.6607
   20SAPS   H3Y 2614   4.631   5.702   2.755  1.9809  1.4486 -0.6176
   20SAPS   C34 2615   4.439   5.665   2.664  0.3377  0.0440 -0.2246
   20SAPS   H4X 2616   4.471   5.575   2.608 -1.8990 -0.2006 -1.1727
   20SAPS   H4Y 2617   4.371   5.720   2.597  1.1321  0.8567 -0.3876
   20SAPS   C35 2618   4.376   5.613   2.794  0.0128  0.1132 -0.2590
   20SAPS   H5X 2619   4.334   5.696   2.854  0.9608 -0.9928  2.0569
   20SAPS   H5Y 2620   4.446   5.554   2.856  0.4536 -0.2421 -1.0819
   20SAPS   C36 2621   4.249   5.520   2.791 -0.1234  0.1358  0.6423
   20SAPS   H6X 2622   4.280   5.437   2.724  0.1946  0.0256  0.9253
   20SAPS   H6Y 2623   4.166   5.572   2.737 -0.6147 -0.0480  1.2184
   20SAPS   C37 2624   4.205   5.467   2.928 -0.0159 -0.5144  0.5691
   20SAPS   H7X 2625   4.286   5.400   2.963  2.0240  1.3237 -0.3902
   20SAPS   H7Y 2626   4.115   5.402   2.918  0.2793 -0.7398 -0.8580
   20SAPS   C38 2627   4.160   5.574   3.025 -1.2541 -0.2316 -0.1357
   20SAPS   H8X 2628   4.073   5.631   2.986 -1.0948 -0.7524 -1.2819
   20SAPS   H8Y 2629   4.244   5.643   3.050 -2.7063  1.4956  0.1254
   20SAPS   C39 2630   4.108   5.524   3.161 -0.2763  0.2354  0.1930
   20SAPS   H9X 2631   4.185   5.466   3.217 -0.5893 -0.7137 -0.3254
   20SAPS   H9Y 2632   4.026   5.451   3.141  0.0752 -0.1787  0.2330
   20SAPS  C310 2633   4.043   5.638   3.248  0.1659  0.4620  0.0463
   20SAPS  H10X 2634   3.962   5.687   3.189  0.6748  0.3789 -0.7272
   20SAPS  H10Y 2635   4.118   5.719   3.255 -1.6521  2.6041 -2.9734
   20SAPS  C311 2636   4.007   5.585   3.386 -0.0369  0.9479 -0.0239
   20SAPS  H11X 2637   4.106   5.561   3.430  0.5210  1.7362 -0.8092
   20SAPS  H11Y 2638   3.957   5.487   3.368  1.9263 -0.1593  0.3152
   20SAPS  C312 2639   3.930   5.683   3.474  0.5438 -0.8702  0.3143
   20SAPS  H12X 2640   3.827   5.687   3.433  0.3852 -3.1271  0.3428
   20SAPS  H12Y 2641   3.991   5.775   3.472  1.6603 -1.5992 -0.2443
   20SAPS  C313 2642   3.915   5.644   3.617  0.1799  0.3637 -1.1062
   20SAPS  H13X 2643   4.013   5.629   3.668 -0.7280 -1.8305  0.1266
   20SAPS  H13Y 2644   3.862   5.547   3.627  0.7972  0.2240  2.3978
   20SAPS  C314 2645   3.829   5.755   3.682  0.0339 -0.0323  0.5062
   20SAPS  H14X 2646   3.799   5.728   3.786 -0.1671  2.3832  1.1523
   20SAPS  H14Y 2647   3.737   5.759   3.621  1.6536  3.3452 -2.0382
   20SAPS  C315 2648   3.901   5.890   3.713  0.2447 -0.3193 -0.8403
   20SAPS  H15X 2649   3.832   5.950   3.775  0.4187  0.5131 -1.4386
   20SAPS  H15Y 2650   3.922   5.952   3.623  1.4372  0.2583 -0.1875
   20SAPS  C316 2651   4.040   5.867   3.775  0.2111  0.1650  0.4972
   20SAPS  H16X 2652   4.120   5.851   3.700  0.0639 -0.4899  0.4775
   20SAPS  H16Y 2653   4.026   5.776   3.838  2.8245 -0.7480 -0.1444
   20SAPS  C317 2654   4.089   5.990   3.862  0.4175  0.3287  0.3115
   20SAPS  H17X 2655   4.085   6.091   3.816  0.2123  1.2441  2.2072
   20SAPS  H17Y 2656   4.197   5.966   3.874  0.0808 -1.4853  0.0119
   20SAPS  C318 2657   4.011   6.006   3.996  0.3323 -0.5880 -0.9327
   20SAPS  H18X 2658   3.914   6.057   3.977 -0.2173 -1.0320  0.6087
   20SAPS  H18Y 2659   4.062   6.070   4.071 -2.1619 -0.0991  0.4350
   20SAPS  H18Z 2660   3.999   5.906   4.041  1.7225 -0.0762  0.6445
   21CHL1    C3 2661   1.330   3.667   5.932  0.3210  0.2581  0.2497
   21CHL1    H3 2662   1.283   3.569   5.912 -1.1928  1.1018 -0.5087
   21CHL1    O3 2663   1.282   3.722   6.051  0.0183  0.8139 -0.0814
   21CHL1   H3' 2664   1.235   3.802   6.028 -4.1421 -1.3185  0.1304
   21CHL1    C4 2665   1.486   3.679   5.935  0.1982  0.4026 -0.6758
   21CHL1   H4A 2666   1.516   3.784   5.955 -0.4525  0.7920 -1.6893
   21CHL1   H4B 2667   1.521   3.626   6.027 -0.8280  0.3086 -0.3239
   21CHL1    C5 2668   1.551   3.630   5.812  0.1285 -0.2670  0.4698
   21CHL1    C6 2669   1.636   3.524   5.807  0.2313 -0.8398 -0.9317
   21CHL1    H6 2670   1.662   3.487   5.907  1.8411  2.6438  0.0586
   21CHL1    C7 2671   1.695   3.467   5.689 -0.7396  0.5148  0.0911
   21CHL1   H7A 2672   1.799   3.438   5.714 -0.7368 -0.0349 -0.5190
   21CHL1   H7B 2673   1.648   3.368   5.666 -1.6021  1.1658 -1.0726
   21CHL1    C8 2674   1.683   3.552   5.568  0.7747 -0.1506  0.3287
   21CHL1    H8 2675   1.757   3.635   5.569  1.1660 -0.4874  0.0185
   21CHL1   C14 2676   1.707   3.466   5.450  0.0341  0.4401  0.2036
   21CHL1   H14 2677   1.636   3.381   5.455 -1.1358  1.2293 -2.0039
   21CHL1   C15 2678   1.845   3.402   5.441 -0.4113  0.4007  0.3041
   21CHL1  H15A 2679   1.919   3.475   5.481 -0.9504  2.1161 -1.6389
   21CHL1  H15B 2680   1.850   3.312   5.505 -3.1085  1.8597  2.8235
   21CHL1   C16 2681   1.868   3.379   5.291  0.1833 -0.8400 -0.2487
   21CHL1  H16A 2682   1.966   3.427   5.270  0.8455 -1.4321  1.3005
   21CHL1  H16B 2683   1.878   3.272   5.264  0.1042 -0.8163 -0.3703
   21CHL1   C17 2684   1.738   3.429   5.227  0.0553 -0.3058  0.3278
   21CHL1   H17 2685   1.650   3.361   5.238 -1.2934  1.0422 -1.4749
   21CHL1   C13 2686   1.688   3.538   5.316 -0.2261 -0.0140 -0.8112
   21CHL1   C18 2687   1.783   3.660   5.303 -0.0784 -0.1993  0.9202
   21CHL1  H18A 2688   1.888   3.624   5.300  0.3984  1.0608  1.9311
   21CHL1  H18B 2689   1.768   3.711   5.205  0.9746  0.5737  1.1516
   21CHL1  H18C 2690   1.762   3.734   5.383  0.0612  0.8883 -0.0271
   21CHL1   C12 2691   1.544   3.578   5.306 -0.0009  0.6146  0.3774
   21CHL1  H12A 2692   1.537   3.643   5.215 -1.9839  0.7266  0.5537
   21CHL1  H12B 2693   1.491   3.482   5.293 -0.9481  1.0725  0.7403
   21CHL1   C11 2694   1.494   3.653   5.425  0.1636  0.5196 -0.1968
   21CHL1  H11A 2695   1.514   3.760   5.401  0.2956  0.4915 -0.2104
   21CHL1  H11B 2696   1.383   3.662   5.417 -0.0476 -2.0392 -0.7059
   21CHL1    C9 2697   1.537   3.600   5.561 -0.3590 -0.1492  0.9523
   21CHL1    H9 2698   1.478   3.507   5.578 -1.2924 -0.1170 -1.6202
   21CHL1   C10 2699   1.496   3.694   5.681  0.4502  0.2999 -0.3236
   21CHL1   C19 2700   1.567   3.825   5.656  0.1990 -0.8122  0.5467
   21CHL1  H19A 2701   1.551   3.899   5.737 -0.6603 -0.9951  0.5438
   21CHL1  H19B 2702   1.677   3.810   5.642  0.4939  2.2744 -1.4244
   21CHL1  H19C 2703   1.522   3.869   5.565  0.6542  1.0919  1.1982
   21CHL1    C1 2704   1.343   3.709   5.686  0.1081 -0.5180 -0.1091
   21CHL1   H1A 2705   1.316   3.795   5.621  2.4711 -0.5665 -1.2638
   21CHL1   H1B 2706   1.289   3.615   5.663  0.3176 -0.5266 -0.5812
   21CHL1    C2 2707   1.281   3.755   5.827 -0.6424  0.0787  0.2577
   21CHL1   H2A 2708   1.170   3.757   5.833 -0.9858  0.3364 -3.4133
   21CHL1   H2B 2709   1.319   3.859   5.839 -2.6788  0.7888  1.0811
   21CHL1   C20 2710   1.747   3.457   5.080 -0.4163  0.7143  0.8091
   21CHL1   H20 2711   1.755   3.567   5.062  2.2923  0.6616  1.2904
   21CHL1   C21 2712   1.607   3.409   5.014 -0.2827  0.1449 -1.5807
   21CHL1  H21A 2713   1.605   3.433   4.905 -1.0095  3.1558 -0.9907
   21CHL1  H21B 2714   1.528   3.478   5.049  0.8234 -0.4477  2.5409
   21CHL1  H21C 2715   1.588   3.305   5.048  0.7144  0.3344 -0.3539
   21CHL1   C22 2716   1.871   3.399   5.005 -0.1854  0.1580  0.8796
   21CHL1  H22A 2717   1.960   3.438   5.058  0.9518 -2.1852  0.7672
   21CHL1  H22B 2718   1.868   3.289   5.019  0.3137  0.3846  3.0004
   21CHL1   C23 2719   1.881   3.434   4.856  0.4407 -0.2234 -0.0456
   21CHL1  H23A 2720   1.927   3.348   4.802  0.9622  0.6317 -0.9863
   21CHL1  H23B 2721   1.784   3.435   4.801  1.7723  1.0035 -2.5536
   21CHL1   C24 2722   1.963   3.559   4.822  0.2100  0.6236 -0.3214
   21CHL1  H24A 2723   1.913   3.653   4.853 -0.5506  0.7013 -1.7349
   21CHL1  H24B 2724   2.057   3.547   4.882 -0.9973 -0.3753  1.4604
   21CHL1   C25 2725   2.007   3.578   4.676  0.5958  0.0940  0.5007
   21CHL1   H25 2726   1.918   3.597   4.613  1.7579  1.3213 -0.8660
   21CHL1   C26 2727   2.087   3.709   4.661 -0.1932  0.7099  0.7468
   21CHL1  H26A 2728   2.180   3.703   4.722 -0.4488 -0.6356  1.0342
   21CHL1  H26B 2729   2.117   3.727   4.556 -1.7631  2.2260  0.5147
   21CHL1  H26C 2730   2.022   3.792   4.695  1.4122  2.5997 -0.5907
   21CHL1   C27 2731   2.100   3.460   4.626 -0.1572  0.3300 -0.0670
   21CHL1  H27A 2732   2.058   3.357   4.621  0.6330 -0.0149  0.2152
   21CHL1  H27B 2733   2.133   3.474   4.521  1.7321 -1.7814  0.1668
   21CHL1  H27C 2734   2.190   3.447   4.690 -0.6483 -2.9082  0.1410
   22CHL1    C3 2735   2.004   2.354   6.160  0.6609  0.3583 -0.1449
   22CHL1    H3 2736   2.111   2.338   6.134  0.4559  0.0383 -0.8120
   22CHL1    O3 2737   1.982   2.326   6.304  0.1120 -0.6941 -0.3282
   22CHL1   H3' 2738   1.956   2.412   6.337 -0.5907 -1.2283  0.5481
   22CHL1    C4 2739   1.977   2.495   6.126  0.3121 -0.1745 -0.8704
   22CHL1   H4A 2740   1.870   2.515   6.146  0.6527 -0.2836  1.2598
   22CHL1   H4B 2741   2.036   2.555   6.199 -1.1000 -0.0107  0.1802
   22CHL1    C5 2742   2.005   2.522   5.980  0.7542  0.2517 -0.8631
   22CHL1    C6 2743   2.088   2.620   5.936 -0.3118  1.0119 -0.1584
   22CHL1    H6 2744   2.133   2.693   6.005  0.0998  0.6438 -0.0320
   22CHL1    C7 2745   2.123   2.641   5.788  0.7205  0.4979  0.0242
   22CHL1   H7A 2746   2.128   2.749   5.761 -3.6458  1.8119  3.3443
   22CHL1   H7B 2747   2.223   2.597   5.766 -1.1404 -3.1294 -2.0042
   22CHL1    C8 2748   2.021   2.577   5.690  0.4284 -0.0130 -0.3834
   22CHL1    H8 2749   1.932   2.644   5.688  1.4729  1.6524  2.6197
   22CHL1   C14 2750   2.088   2.560   5.556 -0.7741 -0.3511  0.5178
   22CHL1   H14 2751   2.168   2.485   5.573 -0.3811 -0.0570  0.0051
   22CHL1   C15 2752   2.163   2.682   5.503 -0.5566 -0.2361 -0.2558
   22CHL1  H15A 2753   2.106   2.776   5.520 -2.0056 -1.0883 -0.2702
   22CHL1  H15B 2754   2.261   2.697   5.552 -0.7022  1.2687 -0.3818
   22CHL1   C16 2755   2.170   2.661   5.346 -0.5593  0.9320  0.9312
   22CHL1  H16A 2756   2.119   2.745   5.294  1.2429  1.5373  0.0808
   22CHL1  H16B 2757   2.272   2.673   5.305  0.3427 -0.2017  2.7321
   22CHL1   C17 2758   2.100   2.525   5.322  0.4231 -0.2802  0.1036
   22CHL1   H17 2759   2.181   2.450   5.338 -1.1446 -2.4819 -1.5806
   22CHL1   C13 2760   2.002   2.517   5.436 -0.0029 -0.2882 -0.4041
   22CHL1   C18 2761   1.898   2.632   5.423 -0.6241 -0.0770  0.2491
   22CHL1  H18A 2762   1.941   2.734   5.420  0.2985 -0.4682 -0.9791
   22CHL1  H18B 2763   1.839   2.614   5.331  1.0612 -1.5269 -0.6226
   22CHL1  H18C 2764   1.822   2.631   5.504 -2.2345  2.5804 -1.0988
   22CHL1   C12 2765   1.921   2.394   5.478 -0.0137 -0.6163 -0.3273
   22CHL1  H12A 2766   1.833   2.372   5.414 -0.2431  0.9446 -0.6044
   22CHL1  H12B 2767   1.985   2.304   5.471 -0.0350 -0.7994  1.3469
   22CHL1   C11 2768   1.868   2.393   5.627  1.1012  0.1318 -0.7190
   22CHL1  H11A 2769   1.783   2.463   5.632 -0.4412 -1.6958 -0.2472
   22CHL1  H11B 2770   1.818   2.301   5.662  0.8473  1.3395  2.3592
   22CHL1    C9 2771   1.971   2.437   5.736  0.1604 -0.0135 -0.2740
   22CHL1    H9 2772   2.064   2.377   5.724 -0.0375 -0.1612 -1.1472
   22CHL1   C10 2773   1.929   2.430   5.883  0.3308 -0.2767  0.1372
   22CHL1   C19 2774   1.780   2.474   5.883  0.1439 -0.2217  0.2313
   22CHL1  H19A 2775   1.742   2.503   5.984 -0.6854 -0.2318 -0.0704
   22CHL1  H19B 2776   1.758   2.562   5.820 -0.6853  0.1208  0.9819
   22CHL1  H19C 2777   1.713   2.391   5.851 -0.8550  0.2019  1.1795
   22CHL1    C1 2778   1.939   2.279   5.932 -0.2634 -0.1494 -0.3072
   22CHL1   H1A 2779   1.856   2.226   5.880 -2.2380  2.1921  0.2835
   22CHL1   H1B 2780   2.039   2.240   5.902  0.1121  0.6959 -0.1942
   22CHL1    C2 2781   1.925   2.263   6.083  0.6559  0.4610  0.5266
   22CHL1   H2A 2782   1.947   2.157   6.111  1.5100  0.7461  0.9657
   22CHL1   H2B 2783   1.819   2.290   6.105  1.1164  0.5676  2.9234
   22CHL1   C20 2784   2.045   2.506   5.178 -0.2196 -0.3961  0.1918
   22CHL1   H20 2785   1.965   2.582   5.166  0.0937 -0.0635  0.2106
   22CHL1   C21 2786   1.981   2.366   5.169  0.5838 -0.6405 -0.0085
   22CHL1  H21A 2787   1.878   2.376   5.210  1.5882  1.2368  2.2952
   22CHL1  H21B 2788   2.042   2.293   5.226 -0.0329 -0.3017  1.1033
   22CHL1  H21C 2789   1.972   2.337   5.062  1.0099 -3.8094  0.7301
   22CHL1   C22 2790   2.150   2.508   5.064  0.1478  0.0439  0.2147
   22CHL1  H22A 2791   2.204   2.604   5.082 -1.3599  0.7775  0.9944
   22CHL1  H22B 2792   2.222   2.423   5.070  1.2249  0.8664 -0.7784
   22CHL1   C23 2793   2.100   2.527   4.916  0.3364  0.8058 -0.5429
   22CHL1  H23A 2794   2.052   2.430   4.891 -0.1372 -0.0537  3.1414
   22CHL1  H23B 2795   2.022   2.604   4.902  1.2180  1.7313 -0.4814
   22CHL1   C24 2796   2.210   2.555   4.812 -0.6162  0.6314  0.3578
   22CHL1  H24A 2797   2.256   2.652   4.840  1.1621 -0.0750  0.0089
   22CHL1  H24B 2798   2.293   2.481   4.811 -0.6655  0.4432 -3.1523
   22CHL1   C25 2799   2.166   2.581   4.664 -0.3525  0.3354  0.0282
   22CHL1   H25 2800   2.096   2.503   4.627  2.7561 -1.4995 -2.4254
   22CHL1   C26 2801   2.111   2.718   4.646  0.6566  0.4508 -0.3368
   22CHL1  H26A 2802   2.043   2.741   4.731  1.5832 -0.0049  0.5400
   22CHL1  H26B 2803   2.193   2.791   4.663 -0.8636  1.8133  1.6528
   22CHL1  H26C 2804   2.056   2.729   4.550 -0.8467  0.1250  0.4421
   22CHL1   C27 2805   2.297   2.563   4.581 -0.2169  0.5171 -0.3111
   22CHL1  H27A 2806   2.338   2.460   4.587 -0.9000  0.2976  0.7776
   22CHL1  H27B 2807   2.284   2.593   4.474 -0.8713  0.0267 -0.3783
   22CHL1  H27C 2808   2.383   2.620   4.620  0.1721 -0.0453 -0.3336
   23CHL1    C3 2809   0.875   3.460   5.774  0.1191 -0.1639 -0.6443
   23CHL1    H3 2810   0.868   3.570   5.761 -1.0560 -0.3959 -2.2899
   23CHL1    O3 2811   0.856   3.438   5.916  0.4631 -0.5153  0.2240
   23CHL1   H3' 2812   0.937   3.452   5.965  0.6788  2.6674 -0.8499
   23CHL1    C4 2813   0.766   3.389   5.700 -0.2551  0.7138  0.6214
   23CHL1   H4A 2814   0.784   3.283   5.728  0.1248  0.2439 -1.2594
   23CHL1   H4B 2815   0.667   3.419   5.741  0.3667  0.0158  2.7492
   23CHL1    C5 2816   0.773   3.404   5.552  0.0721 -0.2455  0.3892
   23CHL1    C6 2817   0.672   3.463   5.488  0.0120  0.8907  0.5938
   23CHL1    H6 2818   0.577   3.484   5.538 -0.0152  0.7834  0.5879
   23CHL1    C7 2819   0.659   3.477   5.338  0.0613  0.1299 -0.4165
   23CHL1   H7A 2820   0.567   3.444   5.287 -1.8442  2.7811  1.0402
   23CHL1   H7B 2821   0.666   3.586   5.318  0.3042  0.1050 -0.4732
   23CHL1    C8 2822   0.783   3.419   5.265  0.0038  0.3389  0.7670
   23CHL1    H8 2823   0.760   3.311   5.256  1.1618  0.0015  1.5338
   23CHL1   C14 2824   0.797   3.482   5.125  0.8462  0.1481 -0.4698
   23CHL1   H14 2825   0.843   3.581   5.145  0.3032  0.1769  0.7399
   23CHL1   C15 2826   0.677   3.508   5.031  0.2029 -0.3394 -0.7321
   23CHL1  H15A 2827   0.618   3.414   5.043  0.2575 -0.4917 -1.5878
   23CHL1  H15B 2828   0.621   3.602   5.051  0.7249  0.2699 -2.0006
   23CHL1   C16 2829   0.738   3.515   4.890 -0.5861  0.4894 -0.8678
   23CHL1  H16A 2830   0.681   3.450   4.820  1.1386  0.3331 -2.1919
   23CHL1  H16B 2831   0.729   3.613   4.839 -0.8495  0.5939 -0.6184
   23CHL1   C17 2832   0.890   3.489   4.905 -0.5958 -0.2650 -0.3488
   23CHL1   H17 2833   0.937   3.588   4.926 -1.4918  0.3566 -1.1676
   23CHL1   C13 2834   0.905   3.413   5.042 -0.0919 -1.4480  0.0314
   23CHL1   C18 2835   0.859   3.269   5.000 -0.7354 -0.4493  0.5416
   23CHL1  H18A 2836   0.938   3.217   4.942 -1.0436 -1.2560  0.8343
   23CHL1  H18B 2837   0.859   3.210   5.094  2.6655  1.8513  2.2077
   23CHL1  H18C 2838   0.769   3.256   4.936  0.9815 -3.8923 -1.4630
   23CHL1   C12 2839   1.036   3.418   5.118  0.3353 -0.5474 -0.2536
   23CHL1  H12A 2840   1.118   3.359   5.071  2.3146 -0.5157  2.8993
   23CHL1  H12B 2841   1.075   3.521   5.129  3.5264 -1.8735  2.3111
   23CHL1   C11 2842   1.028   3.372   5.264 -0.5446  0.3726 -0.2935
   23CHL1  H11A 2843   1.015   3.262   5.262 -1.3002  0.4476  0.2003
   23CHL1  H11B 2844   1.124   3.396   5.314  0.7771  0.1880 -2.6231
   23CHL1    C9 2845   0.914   3.433   5.343  0.7106  0.0121  0.0403
   23CHL1    H9 2846   0.930   3.542   5.339 -1.4250  0.3719  0.2916
   23CHL1   C10 2847   0.910   3.377   5.492  0.8278 -0.5477 -0.1459
   23CHL1   C19 2848   0.920   3.221   5.500 -0.4913 -0.5985 -0.0830
   23CHL1  H19A 2849   0.841   3.169   5.442 -0.1042 -1.7210  0.3631
   23CHL1  H19B 2850   1.018   3.184   5.463  0.8528  3.8144 -1.6541
   23CHL1  H19C 2851   0.920   3.182   5.604 -0.1946  1.2873  0.6639
   23CHL1    C1 2852   1.023   3.444   5.575 -0.7132  0.7900  0.7372
   23CHL1   H1A 2853   1.118   3.407   5.533 -1.0511 -1.8866  2.1465
   23CHL1   H1B 2854   1.027   3.554   5.559 -1.4288  0.5327 -1.6155
   23CHL1    C2 2855   1.014   3.419   5.724  0.0369 -0.0651  0.2077
   23CHL1   H2A 2856   1.086   3.486   5.775  2.6939 -1.2059 -1.7611
   23CHL1   H2B 2857   1.037   3.314   5.752  2.7892  0.0035 -1.3880
   23CHL1   C20 2858   0.954   3.439   4.778 -0.0249 -0.1563 -0.3277
   23CHL1   H20 2859   0.912   3.339   4.752  0.1433 -0.3236  0.0306
   23CHL1   C21 2860   1.110   3.422   4.800  0.9145 -0.1869 -0.0811
   23CHL1  H21A 2861   1.146   3.521   4.834 -0.2839 -0.6197  2.6991
   23CHL1  H21B 2862   1.148   3.390   4.701  0.5447 -1.8174  0.2774
   23CHL1  H21C 2863   1.132   3.338   4.869 -0.6640 -0.3187  0.2966
   23CHL1   C22 2864   0.923   3.530   4.657  0.6151  0.0951  0.1139
   23CHL1  H22A 2865   0.814   3.543   4.644  0.0971 -1.1988  2.4935
   23CHL1  H22B 2866   0.963   3.632   4.673  0.9368 -0.2229  1.4962
   23CHL1   C23 2867   0.970   3.481   4.521 -0.6031  1.1824 -0.2697
   23CHL1  H23A 2868   1.081   3.479   4.514 -0.5591  0.6446  0.4542
   23CHL1  H23B 2869   0.932   3.377   4.507 -1.1543  1.3618 -0.0955
   23CHL1   C24 2870   0.924   3.573   4.411  0.1537 -0.4734 -0.1205
   23CHL1  H24A 2871   0.813   3.571   4.422  0.1864 -1.4797  0.1768
   23CHL1  H24B 2872   0.962   3.677   4.405 -0.9791 -0.0750 -0.9310
   23CHL1   C25 2873   0.948   3.519   4.266 -0.2786 -0.0602 -0.1788
   23CHL1   H25 2874   1.055   3.488   4.267 -0.5984 -1.2266 -0.5650
   23CHL1   C26 2875   0.870   3.391   4.232  0.2404  0.5152  0.5366
   23CHL1  H26A 2876   0.880   3.362   4.125 -2.4133  1.9415 -0.1803
   23CHL1  H26B 2877   0.902   3.309   4.300 -2.2675 -0.0979  1.0697
   23CHL1  H26C 2878   0.769   3.436   4.240  0.0865  0.2561  0.0594
   23CHL1   C27 2879   0.930   3.625   4.154 -0.3668  0.1557  0.3905
   23CHL1  H27A 2880   0.997   3.711   4.176 -1.2898  1.6268 -2.0676
   23CHL1  H27B 2881   0.948   3.592   4.049 -1.3018 -3.2296  1.1859
   23CHL1  H27C 2882   0.824   3.659   4.155 -0.6037 -0.5314 -0.3981
   24CHL1    C3 2883   3.178   4.693   6.036 -0.1138  0.7424 -1.1126
   24CHL1    H3 2884   3.198   4.799   6.008  0.4675  0.4168 -1.9829
   24CHL1    O3 2885   3.174   4.675   6.181 -0.5041 -0.1274 -0.6043
   24CHL1   H3' 2886   3.169   4.580   6.192 -1.3164 -0.0473 -0.2041
   24CHL1    C4 2887   3.051   4.636   5.988  0.2249  0.0743  0.1068
   24CHL1   H4A 2888   3.026   4.540   6.038 -2.0938  0.4992 -0.1475
   24CHL1   H4B 2889   2.968   4.697   6.029 -1.6748 -3.0185  1.1386
   24CHL1    C5 2890   3.045   4.632   5.838  0.0315 -0.0191  0.2292
   24CHL1    C6 2891   2.951   4.701   5.772  0.0513  0.0691  0.3950
   24CHL1    H6 2892   2.874   4.748   5.835  0.0184  1.0140 -0.3207
   24CHL1    C7 2893   2.939   4.705   5.622 -0.5294 -0.0786 -0.0432
   24CHL1   H7A 2894   2.828   4.697   5.610 -0.5184  1.7168 -1.7822
   24CHL1   H7B 2895   2.981   4.803   5.593  0.6799 -0.9155 -1.2357
   24CHL1    C8 2896   3.029   4.606   5.552 -0.2145  1.1315  0.2596
   24CHL1    H8 2897   2.976   4.509   5.564  2.2705 -0.3691 -0.1074
   24CHL1   C14 2898   3.055   4.651   5.409 -0.2034  0.1290 -0.1471
   24CHL1   H14 2899   3.100   4.752   5.425 -0.5365  0.1262  0.8668
   24CHL1   C15 2900   2.930   4.675   5.318 -0.0769 -0.1460 -0.1862
   24CHL1  H15A 2901   2.855   4.596   5.343 -0.3174  0.0524 -0.2804
   24CHL1  H15B 2902   2.880   4.774   5.317  0.0689 -0.0447  0.9946
   24CHL1   C16 2903   2.981   4.653   5.175  0.2833  0.3394 -0.3325
   24CHL1  H16A 2904   2.918   4.579   5.122 -0.2850 -0.6793  1.6899
   24CHL1  H16B 2905   2.985   4.748   5.118  0.5922  0.0380 -0.8238
   24CHL1   C17 2906   3.127   4.610   5.190 -0.2064 -0.1580 -0.2314
   24CHL1   H17 2907   3.187   4.703   5.182  0.3775 -0.5367 -0.2493
   24CHL1   C13 2908   3.143   4.550   5.328 -0.7721 -0.3756 -0.0367
   24CHL1   C18 2909   3.091   4.404   5.333  0.0573 -0.2107 -0.0198
   24CHL1  H18A 2910   3.159   4.344   5.269  0.7058 -0.5452  0.9584
   24CHL1  H18B 2911   3.105   4.359   5.433 -0.5772  1.0022  0.6400
   24CHL1  H18C 2912   2.987   4.403   5.294 -0.3751  0.4055  1.0776
   24CHL1   C12 2913   3.282   4.559   5.392 -0.7269 -0.0156 -0.3733
   24CHL1  H12A 2914   3.350   4.480   5.353 -1.7621 -1.0812 -0.0653
   24CHL1  H12B 2915   3.329   4.659   5.378 -0.3440 -0.1407 -0.0282
   24CHL1   C11 2916   3.278   4.529   5.538 -0.7151 -0.0253  0.3705
   24CHL1  H11A 2917   3.260   4.420   5.548 -1.5639  0.1396  0.7896
   24CHL1  H11B 2918   3.380   4.548   5.578 -0.5053  1.8286 -0.9474
   24CHL1    C9 2919   3.175   4.606   5.619 -0.0058 -0.4637 -0.1013
   24CHL1    H9 2920   3.207   4.712   5.611  2.1262 -0.9584  1.2442
   24CHL1   C10 2921   3.162   4.567   5.764  0.4027  0.1242 -0.3756
   24CHL1   C19 2922   3.147   4.415   5.765 -0.9310  0.6338 -0.9719
   24CHL1  H19A 2923   3.075   4.385   5.686 -1.2104  3.0277 -1.7240
   24CHL1  H19B 2924   3.241   4.360   5.745 -1.9274 -1.4668 -0.1382
   24CHL1  H19C 2925   3.120   4.380   5.867  1.8200  0.6948 -0.1414
   24CHL1    C1 2926   3.296   4.601   5.836  0.0404 -0.4411 -0.4673
   24CHL1   H1A 2927   3.378   4.535   5.803  0.6059  0.8465 -1.7076
   24CHL1   H1B 2928   3.319   4.702   5.796 -0.8776 -0.4634 -1.0738
   24CHL1    C2 2929   3.286   4.598   5.989 -0.6548  0.0456 -0.3566
   24CHL1   H2A 2930   3.383   4.634   6.029 -1.3013  0.0909  1.2103
   24CHL1   H2B 2931   3.258   4.498   6.028  0.9641  0.1965  1.3469
   24CHL1   C20 2932   3.193   4.529   5.071  0.1654 -0.0898 -0.1399
   24CHL1   H20 2933   3.262   4.459   5.123 -0.5401 -1.9733 -1.5928
   24CHL1   C21 2934   3.289   4.624   4.998 -0.1059 -0.1428 -0.2051
   24CHL1  H21A 2935   3.346   4.578   4.915  0.5797  0.4215 -0.0590
   24CHL1  H21B 2936   3.358   4.675   5.069 -1.8125 -1.1722  2.3254
   24CHL1  H21C 2937   3.228   4.708   4.958 -1.1445  0.2805  2.0992
   24CHL1   C22 2938   3.099   4.443   4.980  1.1530 -0.2815 -0.2187
   24CHL1  H22A 2939   3.037   4.378   5.045  2.0890 -2.5746 -1.5178
   24CHL1  H22B 2940   3.024   4.513   4.937 -0.3573 -0.2102  2.3396
   24CHL1   C23 2941   3.167   4.360   4.877 -0.6853  0.2284 -0.1244
   24CHL1  H23A 2942   3.228   4.413   4.801 -2.5326  0.5699 -1.4362
   24CHL1  H23B 2943   3.238   4.285   4.919  1.3959  3.5320  2.8105
   24CHL1   C24 2944   3.062   4.283   4.796  0.0137  0.1194 -0.6813
   24CHL1  H24A 2945   3.014   4.203   4.858  2.2604 -0.8413 -0.0599
   24CHL1  H24B 2946   2.989   4.358   4.762 -1.1232 -0.7084 -0.1414
   24CHL1   C25 2947   3.123   4.212   4.675 -0.2826  0.2837  1.2128
   24CHL1   H25 2948   3.040   4.155   4.628  2.4800 -2.3088 -0.9329
   24CHL1   C26 2949   3.175   4.301   4.565 -0.5489  0.3628 -0.3310
   24CHL1  H26A 2950   3.113   4.390   4.542 -0.4534  0.0968 -1.7259
   24CHL1  H26B 2951   3.279   4.333   4.586 -0.5657  1.1750 -1.4242
   24CHL1  H26C 2952   3.181   4.243   4.470  0.7548 -0.4546  0.2159
   24CHL1   C27 2953   3.235   4.109   4.710 -0.1966  0.0042  0.4815
   24CHL1  H27A 2954   3.285   4.076   4.617  0.0391  0.9888  0.2452
   24CHL1  H27B 2955   3.307   4.144   4.788 -2.0202  2.1426  1.3412
   24CHL1  H27C 2956   3.197   4.015   4.755 -0.6156 -0.2411 -0.3665
   25CHL1    C3 2957   6.364   5.643   5.980  0.7139  0.6719  0.1610
   25CHL1    H3 2958   6.469   5.671   5.960  1.9782 -2.0387  2.2689
   25CHL1    O3 2959   6.338   5.628   6.120  0.4091 -0.9229  0.3187
   25CHL1   H3' 2960   6.245   5.606   6.127 -0.0443  0.4000 -0.9296
   25CHL1    C4 2961   6.264   5.740   5.909 -1.3897  1.0909 -0.3877
   25CHL1   H4A 2962   6.160   5.730   5.947 -1.1965  0.4963  0.0024
   25CHL1   H4B 2963   6.289   5.839   5.954 -0.3027  0.4637  0.4635
   25CHL1    C5 2964   6.278   5.743   5.761 -0.7958  0.0626  0.5268
   25CHL1    C6 2965   6.303   5.854   5.690 -0.1034 -0.0384  0.5503
   25CHL1    H6 2966   6.304   5.949   5.745 -0.3993  1.1927 -1.4528
   25CHL1    C7 2967   6.294   5.856   5.541  0.3659 -0.0794  0.2940
   25CHL1   H7A 2968   6.232   5.944   5.511  0.9924  0.0348 -0.7081
   25CHL1   H7B 2969   6.390   5.869   5.488  0.6579 -2.6906  0.0814
   25CHL1    C8 2970   6.231   5.724   5.480  0.3110 -0.0237  0.4525
   25CHL1    H8 2971   6.126   5.736   5.514 -0.3926 -0.8069 -1.3490
   25CHL1   C14 2972   6.240   5.720   5.335  0.3327  0.5210 -0.3776
   25CHL1   H14 2973   6.350   5.718   5.322  0.2682  0.1959 -0.9155
   25CHL1   C15 2974   6.181   5.836   5.248  0.0302  0.4205  0.5213
   25CHL1  H15A 2975   6.073   5.851   5.272 -0.1308 -0.9427  0.7300
   25CHL1  H15B 2976   6.226   5.935   5.271 -0.7409  0.9031  0.0022
   25CHL1   C16 2977   6.194   5.782   5.103 -0.2153  0.0351 -0.4845
   25CHL1  H16A 2978   6.126   5.813   5.021 -1.0415 -2.1545 -0.6887
   25CHL1  H16B 2979   6.292   5.809   5.057 -1.1004  0.1585 -2.3983
   25CHL1   C17 2980   6.197   5.627   5.118  0.2978 -0.5024 -0.3852
   25CHL1   H17 2981   6.301   5.600   5.090  0.3155  0.7927 -1.6858
   25CHL1   C13 2982   6.195   5.595   5.272  0.2085 -0.3713  0.6584
   25CHL1   C18 2983   6.048   5.561   5.316  0.1178 -0.3887  0.8439
   25CHL1  H18A 2984   6.002   5.466   5.279 -0.6018 -0.5104  1.9977
   25CHL1  H18B 2985   6.033   5.555   5.426 -1.1320  1.3858  0.8066
   25CHL1  H18C 2986   5.986   5.648   5.285  1.0847 -1.2575 -4.6329
   25CHL1   C12 2987   6.283   5.480   5.322  0.4387  0.5274  0.4287
   25CHL1  H12A 2988   6.267   5.385   5.266 -0.5786  0.0960  1.3922
   25CHL1  H12B 2989   6.386   5.506   5.291  0.0859 -0.0184 -1.3175
   25CHL1   C11 2990   6.278   5.460   5.478  0.2908  0.0558  0.0917
   25CHL1  H11A 2991   6.183   5.410   5.507 -0.3827  1.4070  0.2917
   25CHL1  H11B 2992   6.362   5.391   5.502  1.8067  1.4456 -0.9468
   25CHL1    C9 2993   6.300   5.600   5.546 -0.3038 -0.2446 -0.2968
   25CHL1    H9 2994   6.405   5.631   5.529 -0.4129  0.3404  0.0487
   25CHL1   C10 2995   6.267   5.601   5.697 -0.7209  1.0499 -0.5415
   25CHL1   C19 2996   6.115   5.550   5.726  0.0895 -0.3820  0.6342
   25CHL1  H19A 2997   6.047   5.602   5.655  0.4394 -2.2735 -1.1622
   25CHL1  H19B 2998   6.101   5.446   5.691  1.6775  0.1951 -1.9988
   25CHL1  H19C 2999   6.084   5.561   5.832 -3.2034 -0.6982 -0.2100
   25CHL1    C1 3000   6.362   5.505   5.779  0.1439  0.7536  0.5173
   25CHL1   H1A 3001   6.349   5.401   5.741 -0.3304  0.2264  2.0430
   25CHL1   H1B 3002   6.468   5.534   5.761  0.3359  1.6467  2.7901
   25CHL1    C2 3003   6.355   5.502   5.931 -0.1673 -0.5378 -0.1083
   25CHL1   H2A 3004   6.428   5.430   5.974 -0.8281 -0.2153  1.6410
   25CHL1   H2B 3005   6.250   5.473   5.954 -0.8337  0.8593 -1.2401
   25CHL1   C20 3006   6.114   5.556   5.015 -0.0919  0.0957 -0.2464
   25CHL1   H20 3007   6.010   5.579   5.046 -0.1638  1.1848 -1.2260
   25CHL1   C21 3008   6.136   5.401   5.019 -0.3176  0.2375  0.0311
   25CHL1  H21A 3009   6.236   5.369   4.985  0.0800  2.0235 -0.5904
   25CHL1  H21B 3010   6.087   5.355   4.931  0.2443  0.5637 -0.4553
   25CHL1  H21C 3011   6.103   5.357   5.116 -1.8326 -0.2434 -0.6691
   25CHL1   C22 3012   6.128   5.609   4.863 -0.2136 -0.5150 -0.1855
   25CHL1  H22A 3013   6.081   5.532   4.799 -0.2896  0.6152 -1.5541
   25CHL1  H22B 3014   6.053   5.692   4.865 -2.5631 -2.5467  1.7424
   25CHL1   C23 3015   6.262   5.640   4.805 -0.1557  0.1657 -0.3813
   25CHL1  H23A 3016   6.321   5.704   4.874  2.9120  0.7617 -3.2770
   25CHL1  H23B 3017   6.313   5.542   4.802 -2.8364 -1.4752  2.1237
   25CHL1   C24 3018   6.254   5.688   4.660  0.4502 -0.0778  0.2507
   25CHL1  H24A 3019   6.178   5.622   4.613  0.0168 -0.0515  0.8912
   25CHL1  H24B 3020   6.212   5.790   4.667 -1.5655 -0.9195  1.9464
   25CHL1   C25 3021   6.386   5.714   4.585 -0.5976  0.4764  0.0446
   25CHL1   H25 3022   6.446   5.783   4.649 -2.2021  3.3722 -1.4109
   25CHL1   C26 3023   6.468   5.580   4.565 -0.4285  0.1899  0.2561
   25CHL1  H26A 3024   6.569   5.595   4.521  0.1504  0.6493  1.6841
   25CHL1  H26B 3025   6.489   5.545   4.668 -1.7980 -1.2074  0.1107
   25CHL1  H26C 3026   6.405   5.506   4.510  1.9283 -0.6401 -1.5040
   25CHL1   C27 3027   6.363   5.787   4.449  0.2673 -0.2973 -0.2312
   25CHL1  H27A 3028   6.328   5.887   4.480  1.8069  0.2399 -0.1477
   25CHL1  H27B 3029   6.455   5.813   4.394 -0.5266  0.6627 -1.1243
   25CHL1  H27C 3030   6.287   5.733   4.388  1.1939 -0.0672 -1.6244
   26CHL1    C3 3031   3.865   3.302   6.080 -0.8162 -0.1046  1.0519
   26CHL1    H3 3032   3.834   3.409   6.076 -1.9769 -0.4587 -0.5554
   26CHL1    O3 3033   3.841   3.257   6.210 -0.0314 -0.0060 -0.1623
   26CHL1   H3' 3034   3.770   3.307   6.251  1.9570  1.2785  1.9570
   26CHL1    C4 3035   3.768   3.223   5.987 -1.0990 -0.0407  0.0749
   26CHL1   H4A 3036   3.789   3.117   6.014  2.2906  0.1425 -1.3141
   26CHL1   H4B 3037   3.664   3.242   6.019 -1.3733 -1.7530  0.3434
   26CHL1    C5 3038   3.790   3.264   5.838  0.4385 -0.7749  0.6781
   26CHL1    C6 3039   3.689   3.321   5.768 -0.1243 -0.7749  0.0698
   26CHL1    H6 3040   3.592   3.345   5.814  1.0890 -0.8687  2.8542
   26CHL1    C7 3041   3.711   3.353   5.623 -0.1402  0.2094 -0.3542
   26CHL1   H7A 3042   3.619   3.347   5.560 -0.7221 -0.7532  0.5726
   26CHL1   H7B 3043   3.746   3.458   5.614  0.4258  0.0965  0.4581
   26CHL1    C8 3044   3.828   3.279   5.557  0.4680 -0.3108  0.1742
   26CHL1    H8 3045   3.797   3.173   5.543 -0.6044 -0.3141  2.1606
   26CHL1   C14 3046   3.854   3.335   5.416  0.0171  0.5604  0.4522
   26CHL1   H14 3047   3.893   3.438   5.430 -1.5100  1.2426 -0.0679
   26CHL1   C15 3048   3.736   3.327   5.325 -0.7342 -0.3698 -0.0315
   26CHL1  H15A 3049   3.698   3.223   5.317 -0.0926 -0.5406 -1.1586
   26CHL1  H15B 3050   3.663   3.409   5.343  0.2019  0.4106  0.3444
   26CHL1   C16 3051   3.809   3.357   5.193 -0.1954 -0.3274 -0.0300
   26CHL1  H16A 3052   3.770   3.278   5.125 -0.9699  0.2109 -0.2231
   26CHL1  H16B 3053   3.785   3.456   5.149  0.0886 -0.9289 -1.6371
   26CHL1   C17 3054   3.963   3.328   5.208  0.4155 -0.2484  0.0140
   26CHL1   H17 3055   4.009   3.426   5.233 -0.1938 -0.0047  0.2238
   26CHL1   C13 3056   3.970   3.261   5.340 -0.0101  0.3297  0.7249
   26CHL1   C18 3057   3.939   3.108   5.319  0.8405 -0.0557 -0.2112
   26CHL1  H18A 3058   3.919   3.065   5.420  2.1345  0.0513  0.1136
   26CHL1  H18B 3059   3.853   3.097   5.251 -0.9316  0.8709  1.7505
   26CHL1  H18C 3060   4.029   3.061   5.274  0.4701 -0.9838  0.0017
   26CHL1   C12 3061   4.103   3.284   5.422  0.0596  0.2979  0.7285
   26CHL1  H12A 3062   4.199   3.243   5.382  0.1494 -1.3816  2.5745
   26CHL1  H12B 3063   4.118   3.394   5.430  0.9087  0.2816 -0.3389
   26CHL1   C11 3064   4.084   3.231   5.565 -0.2810  0.0308 -0.0686
   26CHL1  H11A 3065   4.065   3.121   5.564 -0.4039  0.0027 -2.9146
   26CHL1  H11B 3066   4.177   3.247   5.624  2.0660 -0.3673 -3.3618
   26CHL1    C9 3067   3.960   3.287   5.638  0.2347  0.1610 -0.3999
   26CHL1    H9 3068   3.964   3.398   5.647  0.4113  0.0995  0.4220
   26CHL1   C10 3069   3.930   3.236   5.789 -0.0193 -0.2412 -1.2244
   26CHL1   C19 3070   3.944   3.087   5.797 -0.0931  0.3246  0.1448
   26CHL1  H19A 3071   3.892   3.041   5.711 -1.4306  1.3436  0.3889
   26CHL1  H19B 3072   4.053   3.063   5.788 -0.2024 -0.0540 -0.1754
   26CHL1  H19C 3073   3.913   3.036   5.891  2.1836  0.9688  1.3188
   26CHL1    C1 3074   4.038   3.303   5.884  0.6580  0.1676  0.0746
   26CHL1   H1A 3075   4.142   3.269   5.866  0.2103 -1.8610  1.0222
   26CHL1   H1B 3076   4.028   3.414   5.881 -0.9730  0.0215 -1.5851
   26CHL1    C2 3077   4.012   3.282   6.039 -0.7544  1.1172  0.1042
   26CHL1   H2A 3078   4.071   3.356   6.096  0.3009 -0.9523  1.8730
   26CHL1   H2B 3079   4.047   3.179   6.064  0.1892  1.3707 -0.1236
   26CHL1   C20 3080   4.032   3.280   5.085 -0.0941  1.0533  0.2743
   26CHL1   H20 3081   4.004   3.174   5.065 -1.7983  1.4447  0.4513
   26CHL1   C21 3082   4.183   3.267   5.094 -0.2966 -1.1900  0.4109
   26CHL1  H21A 3083   4.237   3.364   5.099  0.9997 -1.9395  1.8518
   26CHL1  H21B 3084   4.228   3.212   5.009 -0.2446  0.7865 -0.9101
   26CHL1  H21C 3085   4.214   3.220   5.190  0.3812  0.4787  1.0576
   26CHL1   C22 3086   3.998   3.359   4.957  0.0064 -0.2622 -0.3265
   26CHL1  H22A 3087   4.071   3.328   4.880 -0.2694 -0.5283 -0.4823
   26CHL1  H22B 3088   3.906   3.309   4.919 -0.1389  0.3439 -0.7756
   26CHL1   C23 3089   4.005   3.510   4.960  0.0649 -0.1234 -0.0516
   26CHL1  H23A 3090   3.965   3.557   5.053  3.1013  0.4708  1.0861
   26CHL1  H23B 3091   4.111   3.543   4.970  0.7283 -1.7117 -1.4476
   26CHL1   C24 3092   3.935   3.577   4.845 -0.4471  0.0720 -0.7755
   26CHL1  H24A 3093   3.827   3.552   4.852 -0.0757 -1.3101  0.4230
   26CHL1  H24B 3094   3.932   3.688   4.848 -1.2034  0.0663  2.9367
   26CHL1   C25 3095   3.992   3.530   4.707 -0.1383  0.1625 -0.0316
   26CHL1   H25 3096   3.973   3.421   4.699  1.0818 -0.0557 -0.0429
   26CHL1   C26 3097   3.920   3.598   4.590  0.3110 -0.3056 -0.9816
   26CHL1  H26A 3098   3.957   3.563   4.491 -0.4983 -1.3054 -0.9428
   26CHL1  H26B 3099   3.817   3.560   4.604 -0.5083  2.0908 -0.1169
   26CHL1  H26C 3100   3.930   3.708   4.603 -1.8314 -0.3670  2.3929
   26CHL1   C27 3101   4.141   3.556   4.707  0.0158 -0.0622 -0.1036
   26CHL1  H27A 3102   4.196   3.525   4.615 -0.5432  3.9779 -2.0259
   26CHL1  H27B 3103   4.164   3.662   4.731  1.7706 -0.2960 -0.6152
   26CHL1  H27C 3104   4.187   3.495   4.787 -0.9009 -0.6801 -0.0335
   27CHL1    C3 3105   0.525   2.375   6.043 -0.1155 -0.7785  0.1141
   27CHL1    H3 3106   0.449   2.296   6.026 -1.3058  0.7258 -2.2022
   27CHL1    O3 3107   0.554   2.399   6.180 -0.2642  0.3462 -0.1130
   27CHL1   H3' 3108   0.609   2.477   6.171 -2.8888  2.2464 -0.7128
   27CHL1    C4 3109   0.649   2.338   5.969  0.1053  0.1594 -0.5863
   27CHL1   H4A 3110   0.723   2.416   5.997 -1.5459  1.1234  1.3828
   27CHL1   H4B 3111   0.670   2.244   6.026 -2.2954 -0.3835 -0.5124
   27CHL1    C5 3112   0.637   2.328   5.817 -0.5250  0.6423 -0.1936
   27CHL1    C6 3113   0.675   2.215   5.744  0.1417 -0.2413 -0.6060
   27CHL1    H6 3114   0.720   2.131   5.799  0.0575  0.7857  1.1139
   27CHL1    C7 3115   0.661   2.210   5.592 -0.7680 -0.6098  0.0662
   27CHL1   H7A 3116   0.745   2.162   5.537  1.0913  3.1767 -0.7870
   27CHL1   H7B 3117   0.573   2.149   5.561 -0.8823  0.3436 -1.6298
   27CHL1    C8 3118   0.651   2.346   5.522  0.2648 -0.9034  0.0569
   27CHL1    H8 3119   0.750   2.397   5.515 -0.3732  0.5232  1.0149
   27CHL1   C14 3120   0.598   2.329   5.380 -0.2402  1.0173 -0.1283
   27CHL1   H14 3121   0.493   2.294   5.383  1.2384 -4.1229  1.9739
   27CHL1   C15 3122   0.663   2.230   5.280 -0.2303  0.4999 -0.3781
   27CHL1  H15A 3123   0.773   2.238   5.276 -0.3237  1.9376 -0.5748
   27CHL1  H15B 3124   0.635   2.125   5.305  0.3402  0.0606 -1.4804
   27CHL1   C16 3125   0.611   2.264   5.145 -0.6695  0.3982  0.0719
   27CHL1  H16A 3126   0.695   2.265   5.073  0.4406 -0.6797  1.3016
   27CHL1  H16B 3127   0.535   2.191   5.108  0.7351  0.0372 -2.3204
   27CHL1   C17 3128   0.544   2.402   5.163  0.0114  0.3443  0.2653
   27CHL1   H17 3129   0.434   2.394   5.178 -0.3725  0.9880 -1.8375
   27CHL1   C13 3130   0.591   2.461   5.301 -0.4024 -0.4117 -0.4312
   27CHL1   C18 3131   0.734   2.521   5.284  0.3806  0.6233 -0.3629
   27CHL1  H18A 3132   0.731   2.624   5.241 -0.5981  1.8538  2.3976
   27CHL1  H18B 3133   0.769   2.550   5.386 -1.0835  1.9114 -0.1862
   27CHL1  H18C 3134   0.813   2.464   5.232  1.3896  2.0651 -0.4773
   27CHL1   C12 3135   0.499   2.562   5.376  0.0925 -0.0837  0.5742
   27CHL1  H12A 3136   0.505   2.661   5.327  1.7967 -0.6992 -0.5443
   27CHL1  H12B 3137   0.397   2.518   5.365 -0.6332  1.7986 -0.8014
   27CHL1   C11 3138   0.535   2.571   5.524 -0.5089  0.0119 -0.4107
   27CHL1  H11A 3139   0.618   2.644   5.534 -0.1259 -0.5298  0.5097
   27CHL1  H11B 3140   0.447   2.626   5.564 -2.1786 -1.0484 -2.4750
   27CHL1    C9 3141   0.558   2.438   5.597  0.5112  0.2394 -0.5481
   27CHL1    H9 3142   0.459   2.388   5.598 -0.9851  3.0263 -0.6994
   27CHL1   C10 3143   0.590   2.454   5.748  0.2790 -0.2692 -0.2834
   27CHL1   C19 3144   0.700   2.565   5.761  0.1914 -0.3577 -0.5367
   27CHL1  H19A 3145   0.741   2.582   5.863 -3.3332 -2.7017  1.4967
   27CHL1  H19B 3146   0.790   2.538   5.701  0.7456 -2.2300  1.0312
   27CHL1  H19C 3147   0.678   2.667   5.724  3.5848  1.5000  1.9528
   27CHL1    C1 3148   0.461   2.497   5.824  0.1422  0.1916 -0.2207
   27CHL1   H1A 3149   0.444   2.604   5.798  2.0164  1.1378  2.1087
   27CHL1   H1B 3150   0.374   2.434   5.797  1.2666 -2.1383  1.3283
   27CHL1    C2 3151   0.474   2.507   5.977 -0.1514 -0.0425 -0.3151
   27CHL1   H2A 3152   0.377   2.530   6.026  1.0056 -1.1758  2.7461
   27CHL1   H2B 3153   0.550   2.580   6.013  0.6717 -0.9621 -0.1503
   27CHL1   C20 3154   0.557   2.496   5.033  0.5331  0.5948  0.0091
   27CHL1   H20 3155   0.658   2.544   5.031 -0.1211  2.0159 -0.2827
   27CHL1   C21 3156   0.471   2.625   5.043  0.6204  0.5558  0.1541
   27CHL1  H21A 3157   0.516   2.691   5.120  3.3782 -1.6317  0.5601
   27CHL1  H21B 3158   0.376   2.584   5.083 -0.8117  2.6161 -0.8859
   27CHL1  H21C 3159   0.458   2.676   4.945  1.2848 -0.2707 -0.3775
   27CHL1   C22 3160   0.533   2.431   4.898 -1.3632 -1.1872  0.1863
   27CHL1  H22A 3161   0.510   2.323   4.916  0.4734 -1.4042  1.5465
   27CHL1  H22B 3162   0.446   2.471   4.841 -0.4503 -0.7067 -0.9133
   27CHL1   C23 3163   0.658   2.429   4.811 -0.4326 -0.0897 -0.6091
   27CHL1  H23A 3164   0.740   2.475   4.869 -1.3393  0.7994 -0.0113
   27CHL1  H23B 3165   0.690   2.327   4.777 -1.3317 -0.8601  0.7745
   27CHL1   C24 3166   0.633   2.527   4.688 -0.9761  0.0325 -0.4512
   27CHL1  H24A 3167   0.534   2.488   4.654 -1.9479 -1.4478  3.4982
   27CHL1  H24B 3168   0.618   2.628   4.732  2.0337  0.6409 -0.6186
   27CHL1   C25 3169   0.744   2.545   4.580 -0.0321 -0.1874  0.0419
   27CHL1   H25 3170   0.761   2.446   4.531  2.9316  0.3561 -0.2014
   27CHL1   C26 3171   0.692   2.640   4.477 -0.1951 -0.0842  0.8422
   27CHL1  H26A 3172   0.764   2.636   4.392  0.1240  2.4243  0.9130
   27CHL1  H26B 3173   0.589   2.606   4.452  0.9091 -2.2510 -1.2357
   27CHL1  H26C 3174   0.689   2.741   4.523 -1.2548 -1.0503  2.9937
   27CHL1   C27 3175   0.880   2.584   4.635 -0.5777 -0.1117 -0.1072
   27CHL1  H27A 3176   0.873   2.687   4.677 -0.1717  0.7410 -2.0008
   27CHL1  H27B 3177   0.960   2.577   4.558  0.5457 -4.3359  1.2046
   27CHL1  H27C 3178   0.912   2.514   4.715  2.3416  1.2939  0.1017
   28CHL1    C3 3179   5.544   2.379   6.152 -0.3612  0.0885 -0.3718
   28CHL1    H3 3180   5.644   2.421   6.129 -0.6775  0.4582 -1.0993
   28CHL1    O3 3181   5.491   2.438   6.275 -0.2737  0.1995  0.1001
   28CHL1   H3' 3182   5.419   2.379   6.299  0.7016 -1.5309 -1.0002
   28CHL1    C4 3183   5.452   2.411   6.030 -0.1250  0.1158  0.4759
   28CHL1   H4A 3184   5.355   2.360   6.048  0.6976 -1.5506  0.3882
   28CHL1   H4B 3185   5.440   2.521   6.029 -0.0595  0.1777 -2.0854
   28CHL1    C5 3186   5.522   2.358   5.904 -1.2067 -0.0095 -0.0837
   28CHL1    C6 3187   5.570   2.436   5.803 -0.1679 -0.2282 -0.1942
   28CHL1    H6 3188   5.549   2.543   5.798  1.9781  0.3593  1.5346
   28CHL1    C7 3189   5.619   2.380   5.675 -0.2916 -0.0243 -0.4114
   28CHL1   H7A 3190   5.578   2.447   5.597 -0.4227 -1.1315 -1.3184
   28CHL1   H7B 3191   5.730   2.386   5.680 -0.2329 -1.2252  0.1622
   28CHL1    C8 3192   5.586   2.225   5.665  0.1948  0.1340  0.2721
   28CHL1    H8 3193   5.478   2.226   5.641  0.1637 -0.2707  0.3950
   28CHL1   C14 3194   5.663   2.168   5.550 -0.2060  0.3759  0.2179
   28CHL1   H14 3195   5.771   2.184   5.574  0.5281  1.8604 -3.4807
   28CHL1   C15 3196   5.627   2.217   5.413  0.3414 -0.3123  0.3139
   28CHL1  H15A 3197   5.521   2.246   5.399  0.8019  0.7793 -1.1267
   28CHL1  H15B 3198   5.683   2.310   5.388  0.8997 -0.8660 -0.5619
   28CHL1   C16 3199   5.669   2.107   5.313  0.1864  0.1146  0.1275
   28CHL1  H16A 3200   5.575   2.105   5.254 -0.8309  1.5176  1.6118
   28CHL1  H16B 3201   5.760   2.118   5.251  1.0782 -2.2585  0.9080
   28CHL1   C17 3202   5.703   1.982   5.397  0.3067  0.1395 -0.2696
   28CHL1   H17 3203   5.813   1.988   5.413  0.4986  1.8407 -1.8666
   28CHL1   C13 3204   5.638   2.013   5.535 -0.1818 -0.6071 -0.5135
   28CHL1   C18 3205   5.490   1.975   5.525  0.0947 -0.2878  0.3491
   28CHL1  H18A 3206   5.466   1.868   5.509 -1.6484  0.2785 -1.1084
   28CHL1  H18B 3207   5.436   2.013   5.614 -0.2910 -1.2228  0.5293
   28CHL1  H18C 3208   5.433   2.025   5.444 -1.6589 -0.2329  1.5722
   28CHL1   C12 3209   5.703   1.958   5.662 -1.4187 -0.1553  0.5249
   28CHL1  H12A 3210   5.707   1.847   5.658 -0.6019 -0.0848 -2.1678
   28CHL1  H12B 3211   5.805   2.002   5.668 -1.6732  0.4393  0.5493
   28CHL1   C11 3212   5.633   2.000   5.788  0.3222 -0.5166 -0.0608
   28CHL1  H11A 3213   5.532   1.954   5.777  1.0330 -2.1024 -0.1523
   28CHL1  H11B 3214   5.667   1.959   5.885 -0.3893  1.3375  1.0328
   28CHL1    C9 3215   5.622   2.155   5.792 -0.3383 -0.1375 -0.0654
   28CHL1    H9 3216   5.731   2.173   5.794 -0.2401 -0.4769 -1.4015
   28CHL1   C10 3217   5.538   2.206   5.910 -0.0319 -0.4350  0.2783
   28CHL1   C19 3218   5.391   2.155   5.900 -0.0638  0.5435  0.3574
   28CHL1  H19A 3219   5.330   2.158   5.993  0.6474 -2.0387  0.9653
   28CHL1  H19B 3220   5.326   2.208   5.826 -2.7010  0.9347  2.8033
   28CHL1  H19C 3221   5.398   2.050   5.866  0.5706  0.1869  1.5478
   28CHL1    C1 3222   5.597   2.152   6.041  0.0625  0.2570 -1.0463
   28CHL1   H1A 3223   5.564   2.049   6.066  1.9395  0.3422  2.3726
   28CHL1   H1B 3224   5.709   2.151   6.042  0.0760  0.9861 -0.3985
   28CHL1    C2 3225   5.561   2.225   6.173  0.2142 -0.3488  0.4673
   28CHL1   H2A 3226   5.636   2.201   6.252  0.4456 -2.1559 -0.2457
   28CHL1   H2B 3227   5.460   2.190   6.204 -0.2132 -1.3344 -1.8284
   28CHL1   C20 3228   5.678   1.850   5.327 -0.2267 -0.6297 -0.2405
   28CHL1   H20 3229   5.569   1.857   5.305 -0.4273  0.1982  0.9322
   28CHL1   C21 3230   5.723   1.734   5.410  0.3164  1.1455 -0.0189
   28CHL1  H21A 3231   5.731   1.642   5.348  0.0656  0.8235  0.4193
   28CHL1  H21B 3232   5.657   1.724   5.499  2.6058  0.9903  1.7758
   28CHL1  H21C 3233   5.831   1.739   5.438  1.4192 -4.5741 -1.9341
   28CHL1   C22 3234   5.739   1.843   5.181 -0.6075 -0.2419 -0.3198
   28CHL1  H22A 3235   5.723   1.939   5.127 -1.0253 -0.6758 -0.9840
   28CHL1  H22B 3236   5.849   1.829   5.180 -0.5674  0.0121  0.0942
   28CHL1   C23 3237   5.680   1.727   5.099 -0.2218 -0.4168 -0.0752
   28CHL1  H23A 3238   5.729   1.629   5.117  1.3153 -0.0921 -2.1050
   28CHL1  H23B 3239   5.572   1.732   5.122 -0.3147  1.1798 -0.6901
   28CHL1   C24 3240   5.687   1.753   4.950 -0.9172  0.1852 -0.1951
   28CHL1  H24A 3241   5.655   1.857   4.927 -1.3410  0.4043  1.2954
   28CHL1  H24B 3242   5.794   1.741   4.925 -0.4805 -3.6726  2.6021
   28CHL1   C25 3243   5.607   1.655   4.855  0.1997 -0.1027  0.2890
   28CHL1   H25 3244   5.518   1.624   4.914  1.7253 -2.1581  1.6764
   28CHL1   C26 3245   5.571   1.722   4.719 -0.1865 -0.8599 -0.3078
   28CHL1  H26A 3246   5.668   1.754   4.673 -1.5051  1.0267 -1.9562
   28CHL1  H26B 3247   5.523   1.654   4.646 -0.4197 -0.6313 -0.3682
   28CHL1  H26C 3248   5.513   1.815   4.735  1.3929 -0.1566  1.8001
   28CHL1   C27 3249   5.687   1.530   4.827  0.1278  0.4480 -0.3345
   28CHL1  H27A 3250   5.627   1.465   4.761  0.1796 -0.0527  0.1086
   28CHL1  H27B 3251   5.788   1.556   4.788  0.1506 -0.2851 -0.7837
   28CHL1  H27C 3252   5.702   1.476   4.923 -2.6325  0.4240  0.1754
   29CHL1    C3 3253   2.029   3.970   5.932  0.3379  0.4513  0.0652
   29CHL1    H3 3254   1.936   4.012   5.888  0.1405 -0.4328 -0.3704
   29CHL1    O3 3255   2.008   3.961   6.070  0.3414 -0.0242  0.3069
   29CHL1   H3' 3256   2.075   4.020   6.108  1.1611 -1.8068  1.8240
   29CHL1    C4 3257   2.082   3.837   5.877  0.8430  0.3576  0.6722
   29CHL1   H4A 3258   2.159   3.793   5.943 -0.3744 -2.2031  0.4820
   29CHL1   H4B 3259   1.996   3.768   5.887  1.0115  0.0802  0.2214
   29CHL1    C5 3260   2.113   3.858   5.726 -0.4435  0.1855  0.3490
   29CHL1    C6 3261   2.052   3.777   5.638 -0.0279 -0.0228 -0.1054
   29CHL1    H6 3262   1.985   3.699   5.677  0.2022 -0.0322  0.2712
   29CHL1    C7 3263   2.064   3.786   5.487  0.2081  0.2550  0.1641
   29CHL1   H7A 3264   2.087   3.684   5.449 -1.6868  0.4319 -1.6967
   29CHL1   H7B 3265   1.971   3.824   5.439  0.5321  1.8419  0.7096
   29CHL1    C8 3266   2.179   3.878   5.440  0.2288 -0.3499  0.6393
   29CHL1    H8 3267   2.267   3.811   5.442 -0.7255 -1.8314 -1.8626
   29CHL1   C14 3268   2.158   3.914   5.302 -0.5736  1.1966 -0.6032
   29CHL1   H14 3269   2.076   3.989   5.298  0.1029  1.9224 -1.2602
   29CHL1   C15 3270   2.133   3.799   5.196  0.7635 -0.0475 -0.0058
   29CHL1  H15A 3271   2.183   3.703   5.222 -1.5892 -1.4578 -0.3020
   29CHL1  H15B 3272   2.024   3.780   5.188  1.1981 -3.9613  1.0510
   29CHL1   C16 3273   2.183   3.851   5.061 -0.2517  0.2553  0.5253
   29CHL1  H16A 3274   2.264   3.785   5.021 -0.4679 -0.3983  1.1497
   29CHL1  H16B 3275   2.105   3.849   4.982  0.5531  0.8676 -0.3061
   29CHL1   C17 3276   2.220   3.997   5.095 -0.0811 -0.1092 -0.0894
   29CHL1   H17 3277   2.118   4.043   5.096 -0.8743 -1.7896  0.2945
   29CHL1   C13 3278   2.273   3.992   5.243  0.4565 -0.0339 -0.5011
   29CHL1   C18 3279   2.401   3.909   5.247 -0.6244 -0.5799  0.4719
   29CHL1  H18A 3280   2.399   3.808   5.201  0.2379 -0.5782  0.4111
   29CHL1  H18B 3281   2.486   3.958   5.194  0.5121 -3.6174 -0.7443
   29CHL1  H18C 3282   2.443   3.892   5.348 -2.0251 -0.5009  1.0840
   29CHL1   C12 3283   2.291   4.123   5.324  0.8280  0.3613 -0.6787
   29CHL1  H12A 3284   2.385   4.168   5.287  1.1843 -0.0446 -0.2694
   29CHL1  H12B 3285   2.202   4.187   5.304 -0.8385 -1.7161 -0.2904
   29CHL1   C11 3286   2.301   4.106   5.480  0.0566  0.1445 -0.3068
   29CHL1  H11A 3287   2.401   4.058   5.487 -0.5609 -0.9882  1.3260
   29CHL1  H11B 3288   2.304   4.204   5.531 -1.6486 -0.4707  1.0690
   29CHL1    C9 3289   2.190   4.004   5.533  0.3619  0.1087  0.3880
   29CHL1    H9 3290   2.098   4.063   5.513 -0.2940 -1.3034 -1.0010
   29CHL1   C10 3291   2.200   3.983   5.686  0.2431  0.4785 -0.1894
   29CHL1   C19 3292   2.351   3.934   5.722 -0.3472  0.4155 -0.1377
   29CHL1  H19A 3293   2.388   3.881   5.631  3.1486 -1.0496  1.9373
   29CHL1  H19B 3294   2.422   4.015   5.747 -1.2279  0.8946  0.8797
   29CHL1  H19C 3295   2.350   3.873   5.815 -0.5502 -0.5043 -0.7230
   29CHL1    C1 3296   2.162   4.109   5.758  0.5642  0.0424 -0.0613
   29CHL1   H1A 3297   2.244   4.184   5.751 -0.5190  1.3141  0.4067
   29CHL1   H1B 3298   2.067   4.150   5.719 -0.3278 -0.3073  1.6230
   29CHL1    C2 3299   2.133   4.080   5.903  0.0035  0.3551 -0.0004
   29CHL1   H2A 3300   2.110   4.173   5.960 -1.1590  0.0683  0.0265
   29CHL1   H2B 3301   2.228   4.034   5.936  0.8669  0.6627 -1.8935
   29CHL1   C20 3302   2.299   4.061   4.984 -0.6360 -0.5940 -0.0103
   29CHL1   H20 3303   2.406   4.029   4.992 -0.2076  0.3649 -1.4599
   29CHL1   C21 3304   2.293   4.214   5.005  0.5582 -0.0412  0.2856
   29CHL1  H21A 3305   2.186   4.243   5.019 -0.5787 -4.0399  1.1646
   29CHL1  H21B 3306   2.346   4.270   4.925  1.2215  0.1529  0.8498
   29CHL1  H21C 3307   2.355   4.240   5.093  0.5708 -0.4914  0.4136
   29CHL1   C22 3308   2.241   4.034   4.848  0.2856  0.2795  0.1724
   29CHL1  H22A 3309   2.244   3.923   4.838 -0.8490  0.2714 -0.3003
   29CHL1  H22B 3310   2.133   4.059   4.844  0.2293  0.1968  1.0330
   29CHL1   C23 3311   2.318   4.090   4.723 -0.0510  0.1425  0.2953
   29CHL1  H23A 3312   2.308   4.201   4.726 -1.2274  0.0820 -0.7962
   29CHL1  H23B 3313   2.426   4.072   4.743  0.3166  1.8208 -0.0251
   29CHL1   C24 3314   2.274   4.028   4.585  0.1816 -0.4140  0.1543
   29CHL1  H24A 3315   2.259   3.919   4.598 -0.5930 -1.0707 -4.6154
   29CHL1  H24B 3316   2.177   4.076   4.559  0.5644  1.0292  1.2481
   29CHL1   C25 3317   2.379   4.042   4.482  0.2647  0.2178  0.5244
   29CHL1   H25 3318   2.479   4.029   4.529  0.5006 -1.1070 -0.2937
   29CHL1   C26 3319   2.355   3.929   4.380 -0.6075 -0.7285 -0.1398
   29CHL1  H26A 3320   2.380   3.826   4.409 -2.4556 -0.4716  2.7781
   29CHL1  H26B 3321   2.247   3.934   4.352 -0.2163  0.6123 -1.5445
   29CHL1  H26C 3322   2.417   3.953   4.291 -1.8052  1.8538 -0.3840
   29CHL1   C27 3323   2.380   4.182   4.411  0.2854 -0.0715 -0.2089
   29CHL1  H27A 3324   2.288   4.199   4.350 -1.0586 -1.9644  1.1355
   29CHL1  H27B 3325   2.394   4.261   4.488  1.2302  0.4005 -0.8510
   29CHL1  H27C 3326   2.468   4.181   4.344 -0.4125  1.5028 -1.2055
   30CHL1    C3 3327   2.839   3.876   6.030 -0.2244 -0.2875 -0.1288
   30CHL1    H3 3328   2.792   3.974   6.005  1.2640  0.0894 -1.6110
   30CHL1    O3 3329   2.827   3.874   6.170  0.5249 -1.1025  0.0864
   30CHL1   H3' 3330   2.736   3.852   6.193  0.6860 -0.7795  1.1080
   30CHL1    C4 3331   2.757   3.759   5.969 -0.5218  0.3307  0.0552
   30CHL1   H4A 3332   2.785   3.663   6.017 -0.2187 -0.4089 -1.5264
   30CHL1   H4B 3333   2.647   3.773   5.984 -0.7711 -0.8004 -0.6164
   30CHL1    C5 3334   2.777   3.748   5.819 -1.1699  0.2559  0.1138
   30CHL1    C6 3335   2.684   3.748   5.728 -0.3478  1.0810 -0.5356
   30CHL1    H6 3336   2.579   3.760   5.759 -0.8456  0.2330 -1.8185
   30CHL1    C7 3337   2.694   3.727   5.580 -0.3109  0.0162 -0.3547
   30CHL1   H7A 3338   2.633   3.641   5.546  0.7132 -0.5932 -0.6874
   30CHL1   H7B 3339   2.644   3.821   5.545 -0.0145  0.5941  0.7465
   30CHL1    C8 3340   2.838   3.716   5.527  0.6965  0.1404 -0.5469
   30CHL1    H8 3341   2.850   3.606   5.527 -0.8453 -0.0512 -0.1619
   30CHL1   C14 3342   2.857   3.766   5.385 -0.4321  0.0057  0.3183
   30CHL1   H14 3343   2.844   3.876   5.393  1.9752  0.3750 -0.2140
   30CHL1   C15 3344   2.769   3.712   5.280 -0.9120 -0.0641 -0.1659
   30CHL1  H15A 3345   2.770   3.601   5.282 -1.7629 -0.0723  0.4643
   30CHL1  H15B 3346   2.661   3.737   5.292 -0.6492  0.9423  0.1894
   30CHL1   C16 3347   2.835   3.754   5.147  0.6623  0.1801 -0.1750
   30CHL1  H16A 3348   2.832   3.674   5.070  2.7099 -0.4999  0.3861
   30CHL1  H16B 3349   2.769   3.838   5.117 -1.4746 -0.7046  1.6920
   30CHL1   C17 3350   2.972   3.814   5.195 -0.4187  0.2442  0.2296
   30CHL1   H17 3351   2.944   3.922   5.200  0.6791  0.6940 -2.1741
   30CHL1   C13 3352   2.997   3.756   5.333 -0.4009  0.3670  0.1271
   30CHL1   C18 3353   3.045   3.612   5.317  0.1811  0.3325 -0.2874
   30CHL1  H18A 3354   2.999   3.555   5.234 -0.0650 -0.8684  0.6457
   30CHL1  H18B 3355   3.156   3.609   5.305  0.2558  0.0037  0.4501
   30CHL1  H18C 3356   3.023   3.540   5.399  2.6642  1.3636  1.4108
   30CHL1   C12 3357   3.096   3.842   5.424  0.5371  0.2023  0.4388
   30CHL1  H12A 3358   3.199   3.816   5.389  1.1836  0.7405  1.8320
   30CHL1  H12B 3359   3.077   3.950   5.407  0.5630  0.0241 -0.7866
   30CHL1   C11 3360   3.085   3.788   5.563  0.7049  0.4777  0.1002
   30CHL1  H11A 3361   3.128   3.685   5.561 -2.2049 -0.8280 -1.0454
   30CHL1  H11B 3362   3.140   3.862   5.624 -0.7346  1.7825 -0.1297
   30CHL1    C9 3363   2.936   3.785   5.615  0.1441 -0.4893 -0.9601
   30CHL1    H9 3364   2.906   3.892   5.607  0.6215 -0.1866  0.8290
   30CHL1   C10 3365   2.922   3.752   5.768 -0.1626 -0.8417  0.1865
   30CHL1   C19 3366   2.971   3.609   5.801 -0.7134 -0.1156 -0.2613
   30CHL1  H19A 3367   3.081   3.616   5.792 -0.9193  1.8850 -1.8239
   30CHL1  H19B 3368   2.958   3.582   5.908  0.4330  1.1287  0.2158
   30CHL1  H19C 3369   2.944   3.534   5.723  1.1584  0.1494 -1.2092
   30CHL1    C1 3370   2.998   3.868   5.846  0.8010  0.4163  0.2660
   30CHL1   H1A 3371   3.107   3.870   5.821  0.5415  0.0784 -0.9403
   30CHL1   H1B 3372   2.952   3.963   5.814 -2.5211 -0.6416  1.5429
   30CHL1    C2 3373   2.986   3.875   5.997  0.2322 -0.0817 -0.2070
   30CHL1   H2A 3374   3.035   3.966   6.038 -0.8080 -0.7993  2.9306
   30CHL1   H2B 3375   3.037   3.785   6.037  0.3439  0.6823  1.4608
   30CHL1   C20 3376   3.095   3.812   5.096 -0.4588  0.4055 -0.6168
   30CHL1   H20 3377   3.184   3.778   5.153  0.1280  1.5209 -0.8398
   30CHL1   C21 3378   3.132   3.950   5.053 -0.2793 -0.4946  0.4070
   30CHL1  H21A 3379   3.228   3.967   4.999 -1.3772  2.4644 -0.7750
   30CHL1  H21B 3380   3.141   4.012   5.145 -1.1980  1.4422 -0.7462
   30CHL1  H21C 3381   3.049   3.984   4.988 -1.5877 -1.1867  1.6692
   30CHL1   C22 3382   3.092   3.700   4.990  0.7362  0.7314 -1.0395
   30CHL1  H22A 3383   3.100   3.603   5.042 -2.8363  0.7172 -0.2717
   30CHL1  H22B 3384   2.994   3.716   4.939  1.3684  0.3201 -2.4414
   30CHL1   C23 3385   3.197   3.705   4.882  0.2780  0.2342 -0.4679
   30CHL1  H23A 3386   3.204   3.805   4.836  1.5793  1.4980  2.2609
   30CHL1  H23B 3387   3.285   3.695   4.950  0.1845  0.8490 -0.2562
   30CHL1   C24 3388   3.208   3.597   4.774 -0.6454  0.1925  0.3241
   30CHL1  H24A 3389   3.310   3.553   4.765  0.7184  3.5913 -2.7107
   30CHL1  H24B 3390   3.135   3.516   4.799 -0.0622 -0.9648 -1.5350
   30CHL1   C25 3391   3.172   3.647   4.631  0.1342 -0.1073 -0.6466
   30CHL1   H25 3392   3.072   3.696   4.634  0.2911  0.1638  0.8101
   30CHL1   C26 3393   3.276   3.745   4.571  0.5139 -0.4462 -0.0970
   30CHL1  H26A 3394   3.365   3.693   4.532  2.2475  0.7211  2.0752
   30CHL1  H26B 3395   3.237   3.798   4.481  1.4558 -2.3538 -1.7092
   30CHL1  H26C 3396   3.314   3.819   4.645  0.1202  0.0844 -0.4149
   30CHL1   C27 3397   3.154   3.527   4.539 -0.0098  0.7300 -0.0488
   30CHL1  H27A 3398   3.246   3.465   4.529 -0.3662  0.4041 -1.6419
   30CHL1  H27B 3399   3.069   3.463   4.571  1.2193  0.8440  4.0147
   30CHL1  H27C 3400   3.135   3.572   4.439  0.7864 -0.6767 -0.8591
   31CHL1    C3 3401   1.685   4.509   6.009  0.2576  0.1355 -0.0106
   31CHL1    H3 3402   1.584   4.472   5.982  0.6972 -1.2986  0.2107
   31CHL1    O3 3403   1.686   4.533   6.152 -0.2849  0.2509 -0.7143
   31CHL1   H3' 3404   1.753   4.599   6.171 -1.1618  0.2973  3.0152
   31CHL1    C4 3405   1.785   4.394   5.966 -0.8891 -0.2331  0.3858
   31CHL1   H4A 3406   1.882   4.429   6.007 -0.7830 -0.9115  0.7326
   31CHL1   H4B 3407   1.775   4.293   6.012  0.2928 -0.4771  0.1586
   31CHL1    C5 3408   1.796   4.379   5.812 -0.5686  0.0100 -0.6082
   31CHL1    C6 3409   1.767   4.261   5.758  0.9839  0.5168 -0.1488
   31CHL1    H6 3410   1.762   4.167   5.814  0.7651 -1.0627 -2.6543
   31CHL1    C7 3411   1.770   4.245   5.616  0.3397  0.4166  0.0832
   31CHL1   H7A 3412   1.842   4.163   5.596  0.6284  0.3995  1.1451
   31CHL1   H7B 3413   1.668   4.226   5.576 -0.1982  3.4530 -0.2246
   31CHL1    C8 3414   1.844   4.357   5.535  0.0687 -0.6731  0.1585
   31CHL1    H8 3415   1.955   4.350   5.548  0.2996  0.7052 -0.8415
   31CHL1   C14 3416   1.822   4.346   5.383 -0.5295  0.8086  0.3999
   31CHL1   H14 3417   1.711   4.349   5.373 -0.5567  1.0135  0.7546
   31CHL1   C15 3418   1.855   4.209   5.323 -0.2315 -0.1859  0.1655
   31CHL1  H15A 3419   1.948   4.163   5.362 -0.6596 -1.7110 -0.5362
   31CHL1  H15B 3420   1.775   4.135   5.343 -1.3320  1.4411  2.1854
   31CHL1   C16 3421   1.867   4.236   5.171  0.0187 -0.4413  0.8864
   31CHL1  H16A 3422   1.971   4.209   5.147  0.5196 -1.2865  3.6603
   31CHL1  H16B 3423   1.799   4.181   5.102 -1.6688  0.8296  1.4436
   31CHL1   C17 3424   1.859   4.394   5.156  0.6971 -0.4775 -0.8929
   31CHL1   H17 3425   1.750   4.412   5.148  0.3243 -1.5783  1.0768
   31CHL1   C13 3426   1.891   4.448   5.294 -0.0286  0.5623 -0.4635
   31CHL1   C18 3427   2.045   4.454   5.303  0.3912 -0.0203  0.1503
   31CHL1  H18A 3428   2.086   4.519   5.223 -2.1181  1.2243 -0.2235
   31CHL1  H18B 3429   2.065   4.506   5.399  0.3626  1.0631 -0.4200
   31CHL1  H18C 3430   2.087   4.352   5.311  1.5075  0.4022 -0.2378
   31CHL1   C12 3431   1.833   4.579   5.343  0.5862  0.2961  0.1593
   31CHL1  H12A 3432   1.901   4.652   5.296  1.9951 -2.1286 -1.8292
   31CHL1  H12B 3433   1.729   4.598   5.307 -0.4084 -0.4598  2.4319
   31CHL1   C11 3434   1.849   4.608   5.497 -0.0257 -0.6095  0.0818
   31CHL1  H11A 3435   1.957   4.633   5.501  0.6701 -2.6770 -2.6544
   31CHL1  H11B 3436   1.788   4.701   5.501 -0.3418 -0.7730 -0.6826
   31CHL1    C9 3437   1.796   4.499   5.584 -0.1536  0.7339  0.1729
   31CHL1    H9 3438   1.686   4.487   5.571 -0.2515  1.5728  0.2106
   31CHL1   C10 3439   1.814   4.511   5.732 -0.2427  0.6672  0.2204
   31CHL1   C19 3440   1.969   4.545   5.757 -0.4061 -0.5555  0.3274
   31CHL1  H19A 3441   1.999   4.533   5.863  3.3598 -0.3829 -0.5713
   31CHL1  H19B 3442   2.049   4.497   5.696  2.7666  3.4123  0.9035
   31CHL1  H19C 3443   1.987   4.651   5.728 -1.4237 -0.7253 -1.0154
   31CHL1    C1 3444   1.724   4.626   5.788 -0.9232  0.3859  0.7261
   31CHL1   H1A 3445   1.753   4.722   5.739 -2.4682  0.6551  0.2770
   31CHL1   H1B 3446   1.624   4.603   5.748 -0.5357 -0.1801  0.0746
   31CHL1    C2 3447   1.722   4.644   5.943  0.5197 -0.3696  0.0029
   31CHL1   H2A 3448   1.642   4.713   5.978  1.0228 -0.2533  0.9505
   31CHL1   H2B 3449   1.818   4.678   5.987  0.3109 -2.1454  2.0167
   31CHL1   C20 3450   1.923   4.455   5.025 -0.6192 -0.6836 -0.2114
   31CHL1   H20 3451   2.033   4.443   5.035 -0.3271  0.5086 -1.6554
   31CHL1   C21 3452   1.890   4.602   5.031  0.3345 -0.0216 -0.6303
   31CHL1  H21A 3453   1.779   4.611   5.029 -0.0223 -1.8816  2.9560
   31CHL1  H21B 3454   1.935   4.659   4.947  3.4090 -2.7238 -1.0095
   31CHL1  H21C 3455   1.928   4.663   5.115  1.5258 -0.2275 -1.0046
   31CHL1   C22 3456   1.871   4.382   4.893  0.0930 -0.4724  0.3472
   31CHL1  H22A 3457   1.888   4.275   4.917  0.9321  0.1168  2.6346
   31CHL1  H22B 3458   1.761   4.401   4.899 -0.3135 -2.8116  1.7935
   31CHL1   C23 3459   1.932   4.434   4.756  0.1334  0.2753 -0.5451
   31CHL1  H23A 3460   1.916   4.544   4.762 -1.6916 -0.0279  0.9931
   31CHL1  H23B 3461   2.039   4.410   4.772 -0.0652 -0.1084  0.2655
   31CHL1   C24 3462   1.875   4.363   4.631  0.6095 -0.7924 -0.5774
   31CHL1  H24A 3463   1.903   4.260   4.660  2.6717 -0.2364 -0.4622
   31CHL1  H24B 3464   1.764   4.369   4.635  0.7031  0.8801  0.9863
   31CHL1   C25 3465   1.926   4.398   4.489  0.3752  0.4425  0.1132
   31CHL1   H25 3466   1.873   4.316   4.436 -0.0976 -0.2417  1.6049
   31CHL1   C26 3467   1.881   4.530   4.433  0.5155  0.7906 -0.1022
   31CHL1  H26A 3468   1.921   4.616   4.491  0.0912 -0.6755  2.5367
   31CHL1  H26B 3469   1.920   4.531   4.329  0.6273  0.4385 -0.0680
   31CHL1  H26C 3470   1.770   4.532   4.433  0.4451 -0.8924  0.5617
   31CHL1   C27 3471   2.079   4.363   4.486  0.6459 -0.1901  0.4085
   31CHL1  H27A 3472   2.145   4.425   4.551  1.7125 -0.4913 -0.3529
   31CHL1  H27B 3473   2.093   4.254   4.500  2.5759 -0.3994 -2.3306
   31CHL1  H27C 3474   2.115   4.370   4.382  0.1548  0.6731  0.2871
   32CHL1    C3 3475   2.395   2.376   5.968  0.0296 -0.6639  0.1858
   32CHL1    H3 3476   2.311   2.440   5.935  0.9645  1.7932  2.1641
   32CHL1    O3 3477   2.401   2.370   6.104  0.2340 -0.0018  0.1975
   32CHL1   H3' 3478   2.482   2.324   6.126  0.6915  0.3188 -0.7841
   32CHL1    C4 3479   2.375   2.235   5.904  0.3582  0.1594  1.0617
   32CHL1   H4A 3480   2.451   2.159   5.930  1.0425  1.3673  2.7426
   32CHL1   H4B 3481   2.279   2.193   5.943  0.8694  0.0498  2.2396
   32CHL1    C5 3482   2.382   2.236   5.751  0.2524 -0.1564  0.4341
   32CHL1    C6 3483   2.299   2.162   5.677 -0.2802 -0.2303 -0.0474
   32CHL1    H6 3484   2.218   2.108   5.727 -1.2226  1.0219 -0.1785
   32CHL1    C7 3485   2.314   2.150   5.530  0.5706 -0.2735  0.0324
   32CHL1   H7A 3486   2.276   2.053   5.492 -0.2626 -0.4573  1.2768
   32CHL1   H7B 3487   2.239   2.224   5.494 -0.6337 -0.6421  1.6793
   32CHL1    C8 3488   2.453   2.194   5.473  0.2583 -0.3210  0.8212
   32CHL1    H8 3489   2.526   2.114   5.497  1.0883 -0.3054 -1.4843
   32CHL1   C14 3490   2.440   2.216   5.323  0.2445 -0.2885 -0.1235
   32CHL1   H14 3491   2.362   2.295   5.310 -0.3264 -0.8817 -0.3415
   32CHL1   C15 3492   2.407   2.084   5.237  0.2707  0.1085 -0.1150
   32CHL1  H15A 3493   2.453   2.003   5.297 -1.4926 -0.3482  0.6981
   32CHL1  H15B 3494   2.299   2.059   5.236  0.8272 -2.8262  1.2289
   32CHL1   C16 3495   2.469   2.114   5.094  0.1863 -0.0092 -0.2841
   32CHL1  H16A 3496   2.542   2.033   5.074  1.2854  0.8291  0.2112
   32CHL1  H16B 3497   2.398   2.130   5.010  1.4289  2.5362 -0.9455
   32CHL1   C17 3498   2.547   2.247   5.115 -0.9681 -0.5845  0.3332
   32CHL1   H17 3499   2.466   2.322   5.108 -0.7221 -0.2800  0.7108
   32CHL1   C13 3500   2.575   2.267   5.266  0.2575 -0.0015  0.3231
   32CHL1   C18 3501   2.692   2.176   5.305  0.2998  0.4842  0.2793
   32CHL1  H18A 3502   2.670   2.078   5.257  2.2345 -1.5014  3.1048
   32CHL1  H18B 3503   2.785   2.227   5.271  0.2957 -0.3590 -1.0517
   32CHL1  H18C 3504   2.698   2.154   5.414 -0.6531 -0.1590  0.2154
   32CHL1   C12 3505   2.601   2.407   5.315  0.4338  0.8882  0.6985
   32CHL1  H12A 3506   2.693   2.440   5.263  0.7121  0.8955  1.1935
   32CHL1  H12B 3507   2.517   2.473   5.283  0.8062  1.9134  1.7636
   32CHL1   C11 3508   2.609   2.395   5.467 -0.2162  0.2653 -0.1819
   32CHL1  H11A 3509   2.707   2.347   5.486  0.4610  1.0184 -1.6347
   32CHL1  H11B 3510   2.619   2.498   5.508 -2.1584  0.0968  0.8650
   32CHL1    C9 3511   2.489   2.328   5.538 -0.2673  0.0575  0.0386
   32CHL1    H9 3512   2.402   2.395   5.519  0.8929  1.3853 -0.7804
   32CHL1   C10 3513   2.502   2.312   5.693 -0.2722 -0.1176  0.3287
   32CHL1   C19 3514   2.639   2.244   5.726  0.0249 -0.2354  0.2628
   32CHL1  H19A 3515   2.654   2.220   5.833  2.2016 -4.2113 -0.6956
   32CHL1  H19B 3516   2.656   2.142   5.685  0.5372 -0.2404  0.4796
   32CHL1  H19C 3517   2.727   2.305   5.697 -1.0912  2.2889  1.9282
   32CHL1    C1 3518   2.499   2.449   5.766 -0.3034 -0.1732 -0.3206
   32CHL1   H1A 3519   2.588   2.495   5.718  0.8250  0.1661  1.9716
   32CHL1   H1B 3520   2.419   2.522   5.743  0.6035  0.6852 -0.8698
   32CHL1    C2 3521   2.511   2.459   5.913  0.3710  0.3161  0.1672
   32CHL1   H2A 3522   2.518   2.563   5.951 -1.2501  0.2475  0.6954
   32CHL1   H2B 3523   2.605   2.414   5.953  0.9182  2.1112  1.0109
   32CHL1   C20 3524   2.653   2.284   5.012  0.4639 -0.4601 -0.8253
   32CHL1   H20 3525   2.695   2.381   5.045 -3.1327  1.0101 -0.0940
   32CHL1   C21 3526   2.585   2.309   4.870 -0.6845  0.9378 -0.1069
   32CHL1  H21A 3527   2.525   2.400   4.890  0.5879  1.8343 -0.2334
   32CHL1  H21B 3528   2.519   2.228   4.832 -0.0920 -0.3696  1.5160
   32CHL1  H21C 3529   2.657   2.346   4.794  0.9620 -2.7849 -0.6000
   32CHL1   C22 3530   2.761   2.174   4.995 -0.8059 -0.0030 -0.5314
   32CHL1  H22A 3531   2.802   2.152   5.096 -1.6767 -1.1738 -0.4164
   32CHL1  H22B 3532   2.721   2.084   4.945 -0.3947  0.0262 -0.9245
   32CHL1   C23 3533   2.887   2.230   4.914 -0.4768 -0.1013  0.5648
   32CHL1  H23A 3534   2.859   2.271   4.815 -1.5572  0.1420  0.9508
   32CHL1  H23B 3535   2.913   2.321   4.973 -2.1214 -0.7383  2.4054
   32CHL1   C24 3536   3.002   2.128   4.903 -0.0267  0.4249  0.4368
   32CHL1  H24A 3537   3.029   2.094   5.005  1.8599 -0.3242 -0.2833
   32CHL1  H24B 3538   2.966   2.038   4.849  0.1307 -1.1133  2.7699
   32CHL1   C25 3539   3.132   2.179   4.830  0.1109  0.2467 -0.4143
   32CHL1   H25 3540   3.095   2.230   4.738  0.0422 -0.0422 -0.5512
   32CHL1   C26 3541   3.195   2.290   4.910 -0.0046  0.3233 -0.1422
   32CHL1  H26A 3542   3.119   2.349   4.966  0.0774 -1.1743  1.6388
   32CHL1  H26B 3543   3.264   2.260   4.991  1.2813  0.1500 -1.2730
   32CHL1  H26C 3544   3.247   2.356   4.838  1.9533 -0.8559  0.1314
   32CHL1   C27 3545   3.225   2.067   4.800  0.5361 -0.0192  0.4956
   32CHL1  H27A 3546   3.191   1.999   4.719  2.6066  1.0537 -1.3443
   32CHL1  H27B 3547   3.320   2.113   4.766 -0.8472  1.7544 -1.2708
   32CHL1  H27C 3548   3.241   2.012   4.896 -1.1937  0.8071  1.3195
   33CHL1    C3 3549   0.669   1.614   5.673  0.5055 -0.3404 -0.2813
   33CHL1    H3 3550   0.772   1.655   5.664 -0.1567  1.7101  0.8504
   33CHL1    O3 3551   0.632   1.609   5.810 -0.2835  0.0843  0.3412
   33CHL1   H3' 3552   0.685   1.540   5.851 -0.3635 -0.1578  0.0339
   33CHL1    C4 3553   0.574   1.719   5.615  0.0270 -0.9699  0.0117
   33CHL1   H4A 3554   0.472   1.693   5.651  0.4153 -1.8065  0.5308
   33CHL1   H4B 3555   0.609   1.815   5.659 -1.5472 -1.1977  1.9194
   33CHL1    C5 3556   0.594   1.726   5.465 -0.2394  0.3918 -0.3051
   33CHL1    C6 3557   0.630   1.834   5.392 -0.2793 -0.2413  0.3475
   33CHL1    H6 3558   0.633   1.927   5.450 -0.5416  1.0286 -1.5870
   33CHL1    C7 3559   0.650   1.843   5.245  0.0580  0.9327 -0.4764
   33CHL1   H7A 3560   0.601   1.934   5.205 -2.8498 -0.1718  0.2941
   33CHL1   H7B 3561   0.758   1.843   5.216 -0.0470 -1.7673 -1.1491
   33CHL1    C8 3562   0.581   1.727   5.168  0.0935 -0.4427  0.2033
   33CHL1    H8 3563   0.470   1.734   5.167  0.0769 -0.4051  1.3291
   33CHL1   C14 3564   0.623   1.731   5.024  0.8212  0.2118  0.5030
   33CHL1   H14 3565   0.733   1.716   5.011  0.9380  1.9878 -0.9835
   33CHL1   C15 3566   0.607   1.863   4.946  0.4582  0.5791 -0.6774
   33CHL1  H15A 3567   0.515   1.914   4.981 -0.0984 -0.9549  0.1601
   33CHL1  H15B 3568   0.691   1.930   4.974  0.8336 -0.2630  0.2591
   33CHL1   C16 3569   0.591   1.818   4.804 -0.0642 -1.5928 -0.8286
   33CHL1  H16A 3570   0.491   1.855   4.772  0.6950  1.9000  0.4251
   33CHL1  H16B 3571   0.666   1.863   4.734 -1.5157  2.5994  0.0110
   33CHL1   C17 3572   0.600   1.663   4.797  0.0295  0.1665  0.3937
   33CHL1   H17 3573   0.706   1.630   4.796  0.4080  1.3264 -1.4574
   33CHL1   C13 3574   0.557   1.622   4.938 -0.2891 -0.3359  0.7803
   33CHL1   C18 3575   0.398   1.636   4.939 -0.9807  0.5742  0.2493
   33CHL1  H18A 3576   0.351   1.567   4.866 -0.2247 -0.1190  0.4083
   33CHL1  H18B 3577   0.359   1.600   5.037 -2.3024 -1.6089 -0.9923
   33CHL1  H18C 3578   0.373   1.743   4.922  1.0556  0.6420 -3.1649
   33CHL1   C12 3579   0.603   1.486   4.995  0.0240 -1.6412  0.2970
   33CHL1  H12A 3580   0.565   1.400   4.937  0.5216 -1.1989 -0.6984
   33CHL1  H12B 3581   0.712   1.500   4.981 -0.6380  0.8057 -4.7650
   33CHL1   C11 3582   0.568   1.467   5.147  0.1624 -0.0757  0.1639
   33CHL1  H11A 3583   0.459   1.452   5.157  0.0575 -0.5914 -1.5338
   33CHL1  H11B 3584   0.612   1.374   5.189 -0.2989  0.8691  2.9504
   33CHL1    C9 3585   0.614   1.591   5.235  0.0032 -0.8446  0.2015
   33CHL1    H9 3586   0.725   1.597   5.233 -0.0404  0.1297  0.4373
   33CHL1   C10 3587   0.581   1.591   5.389 -0.0809  0.4849 -0.1066
   33CHL1   C19 3588   0.431   1.548   5.400  0.2501  0.6783 -0.8632
   33CHL1  H19A 3589   0.419   1.448   5.352 -0.4213  0.7929 -0.9496
   33CHL1  H19B 3590   0.402   1.544   5.507  2.6340 -0.1386 -0.1786
   33CHL1  H19C 3591   0.366   1.622   5.349 -2.2490 -1.8124 -1.5881
   33CHL1    C1 3592   0.675   1.486   5.455 -0.0942 -0.2580 -0.0789
   33CHL1   H1A 3593   0.653   1.385   5.413  1.5777 -0.5018 -0.4332
   33CHL1   H1B 3594   0.783   1.509   5.439 -0.1338  1.1922  1.4396
   33CHL1    C2 3595   0.661   1.482   5.610  0.3907  0.3264  0.4496
   33CHL1   H2A 3596   0.729   1.411   5.661 -0.2658  0.7868  2.0399
   33CHL1   H2B 3597   0.557   1.445   5.624 -0.0222  1.0336 -0.5753
   33CHL1   C20 3598   0.539   1.603   4.667 -0.2630 -0.5154 -0.8773
   33CHL1   H20 3599   0.432   1.633   4.670 -0.2502 -0.5332  0.5966
   33CHL1   C21 3600   0.545   1.450   4.651 -0.9704 -0.6275 -0.6324
   33CHL1  H21A 3601   0.499   1.402   4.740 -1.9373  3.0929  1.0578
   33CHL1  H21B 3602   0.644   1.405   4.629 -0.2397  1.4204 -1.7646
   33CHL1  H21C 3603   0.486   1.422   4.561 -0.1742 -0.7965 -1.1105
   33CHL1   C22 3604   0.598   1.682   4.543 -0.0984  0.1799 -0.2694
   33CHL1  H22A 3605   0.528   1.669   4.457 -0.2107 -1.9603  0.0821
   33CHL1  H22B 3606   0.591   1.790   4.564  2.1383  1.7423 -5.6720
   33CHL1   C23 3607   0.735   1.637   4.501 -0.3508  0.3857  0.4607
   33CHL1  H23A 3608   0.811   1.639   4.582  1.2538  0.7358 -0.9916
   33CHL1  H23B 3609   0.733   1.531   4.467  0.7124  0.6677 -0.5302
   33CHL1   C24 3610   0.783   1.713   4.380 -0.2335  0.1560 -0.8253
   33CHL1  H24A 3611   0.739   1.672   4.286  0.8412 -0.3814 -1.1134
   33CHL1  H24B 3612   0.757   1.819   4.400  0.8996  0.0278  1.6904
   33CHL1   C25 3613   0.932   1.716   4.348 -0.3408 -0.2066 -0.6306
   33CHL1   H25 3614   0.975   1.789   4.420 -2.9267 -0.8758  1.8089
   33CHL1   C26 3615   0.987   1.577   4.363 -0.3218 -0.8672  0.0926
   33CHL1  H26A 3616   0.979   1.549   4.470 -1.5413 -0.9929 -0.0205
   33CHL1  H26B 3617   0.922   1.508   4.304  1.9887 -3.1584  0.0292
   33CHL1  H26C 3618   1.095   1.573   4.335 -1.0363 -2.0455 -2.9350
   33CHL1   C27 3619   0.973   1.775   4.209  0.7863 -0.2815 -0.4692
   33CHL1  H27A 3620   0.935   1.877   4.188 -0.4280 -0.5491  0.3127
   33CHL1  H27B 3621   1.082   1.759   4.196  0.8482  0.1992 -0.5425
   33CHL1  H27C 3622   0.932   1.712   4.126 -3.0278  0.5837  0.5761
   34CHL1    C3 3623   2.781   2.786   6.096 -0.1525 -0.2041 -0.4140
   34CHL1    H3 3624   2.680   2.780   6.050 -0.4916  2.1255 -0.0921
   34CHL1    O3 3625   2.754   2.801   6.232  0.0567 -0.2396 -0.0400
   34CHL1   H3' 3626   2.831   2.843   6.272 -1.1798  1.2405  0.8702
   34CHL1    C4 3627   2.853   2.655   6.080  0.7197  0.3235  0.4559
   34CHL1   H4A 3628   2.935   2.663   6.155 -0.2152  0.8182  1.4482
   34CHL1   H4B 3629   2.786   2.572   6.111 -1.1868  1.7907  0.4419
   34CHL1    C5 3630   2.894   2.634   5.937  0.5806  0.6934 -0.6963
   34CHL1    C6 3631   2.877   2.517   5.868  0.4233  0.0969  1.3533
   34CHL1    H6 3632   2.831   2.435   5.924  1.8037 -1.4013  0.3855
   34CHL1    C7 3633   2.934   2.489   5.731 -0.6891  0.7915 -0.2595
   34CHL1   H7A 3634   2.996   2.397   5.735  0.3383  1.5044  1.1774
   34CHL1   H7B 3635   2.850   2.465   5.663  0.6838 -1.0004 -1.4075
   34CHL1    C8 3636   3.006   2.605   5.663  0.1965 -0.2934  0.6337
   34CHL1    H8 3637   3.113   2.587   5.686  0.6312 -2.2952 -2.3459
   34CHL1   C14 3638   2.991   2.597   5.508 -0.2021 -0.5939 -0.5288
   34CHL1   H14 3639   2.885   2.613   5.479 -0.7991 -0.9738  1.3120
   34CHL1   C15 3640   3.035   2.464   5.438  0.4301 -0.3276 -0.2955
   34CHL1  H15A 3641   3.113   2.418   5.502 -0.3982 -0.2774  0.7785
   34CHL1  H15B 3642   2.951   2.391   5.436  0.5389 -0.4603 -2.4170
   34CHL1   C16 3643   3.064   2.502   5.293  0.2515  0.1776  0.1915
   34CHL1  H16A 3644   3.167   2.466   5.270  0.3719  0.5643  0.1131
   34CHL1  H16B 3645   2.994   2.450   5.225  1.6226  0.3403 -1.4216
   34CHL1   C17 3646   3.057   2.663   5.291  0.4339  0.0386 -0.0756
   34CHL1   H17 3647   2.955   2.687   5.254 -0.4523 -1.3369  1.3447
   34CHL1   C13 3648   3.068   2.702   5.437 -0.2060 -0.2952  0.1802
   34CHL1   C18 3649   3.220   2.692   5.475 -0.7684  0.1647  0.1016
   34CHL1  H18A 3650   3.243   2.718   5.580 -3.0672  2.7156  0.0894
   34CHL1  H18B 3651   3.254   2.587   5.460 -0.2910  0.4004 -0.5049
   34CHL1  H18C 3652   3.289   2.759   5.418  0.1162  0.0483  1.0199
   34CHL1   C12 3653   3.009   2.843   5.477 -0.2917 -0.5505  0.2445
   34CHL1  H12A 3654   3.066   2.926   5.431  1.7664 -1.6267  0.7194
   34CHL1  H12B 3655   2.902   2.845   5.447 -0.3683 -2.2546  0.2693
   34CHL1   C11 3656   3.009   2.872   5.627 -0.3241 -0.4306 -0.6475
   34CHL1  H11A 3657   3.118   2.880   5.647 -0.5491 -0.2064  0.5574
   34CHL1  H11B 3658   2.966   2.972   5.650 -1.1900 -0.3003 -2.6892
   34CHL1    C9 3659   2.956   2.746   5.709  0.2853  0.4015  0.1066
   34CHL1    H9 3660   2.848   2.749   5.681 -0.0333  2.7505  1.3694
   34CHL1   C10 3661   2.961   2.754   5.859  0.0829  0.4018  0.0391
   34CHL1   C19 3662   3.107   2.763   5.901  0.2800 -0.1471  0.0874
   34CHL1  H19A 3663   3.109   2.755   6.012  1.7213 -1.3293  0.0118
   34CHL1  H19B 3664   3.171   2.675   5.876 -0.2562 -0.1227 -1.4654
   34CHL1  H19C 3665   3.157   2.853   5.860 -1.3564  1.1818  0.8671
   34CHL1    C1 3666   2.880   2.889   5.890  0.1954 -0.1969  0.2925
   34CHL1   H1A 3667   2.925   2.982   5.848 -1.8741  1.0681  0.6613
   34CHL1   H1B 3668   2.781   2.867   5.845 -0.0452  2.2381 -0.5268
   34CHL1    C2 3669   2.859   2.905   6.039  0.3021  0.4010  0.3430
   34CHL1   H2A 3670   2.798   2.996   6.057  0.1228 -0.1121  2.5808
   34CHL1   H2B 3671   2.951   2.918   6.100 -0.4990  2.2825  1.2303
   34CHL1   C20 3672   3.157   2.723   5.187  0.2024 -0.1104 -0.7363
   34CHL1   H20 3673   3.265   2.710   5.210 -0.1820 -3.0532 -0.2330
   34CHL1   C21 3674   3.128   2.876   5.179  0.2233  1.0926 -0.0106
   34CHL1  H21A 3675   3.158   2.915   5.079 -0.6696 -1.5625 -1.4245
   34CHL1  H21B 3676   3.184   2.914   5.267  0.8339 -0.2628  0.2127
   34CHL1  H21C 3677   3.022   2.907   5.187  0.4642  1.7900  0.6156
   34CHL1   C22 3678   3.140   2.662   5.043 -0.0061 -0.3719 -0.3262
   34CHL1  H22A 3679   3.210   2.720   4.980 -0.3755 -0.3205 -0.6961
   34CHL1  H22B 3680   3.161   2.553   5.042  1.7471 -0.0550 -0.1733
   34CHL1   C23 3681   2.997   2.672   4.991  0.5285 -0.3213  0.0473
   34CHL1  H23A 3682   2.934   2.605   5.054 -2.3840  1.2282 -1.0023
   34CHL1  H23B 3683   2.944   2.770   4.998 -0.2987 -0.5306 -2.4006
   34CHL1   C24 3684   2.993   2.630   4.847 -0.2245 -0.1491 -0.6305
   34CHL1  H24A 3685   3.027   2.718   4.788 -2.7889  1.9271  0.8036
   34CHL1  H24B 3686   3.062   2.545   4.828 -0.0972 -0.1209 -0.3048
   34CHL1   C25 3687   2.859   2.585   4.789 -0.9074  0.1517  0.5228
   34CHL1   H25 3688   2.832   2.492   4.843  0.8049 -1.1811 -0.7662
   34CHL1   C26 3689   2.730   2.673   4.808 -0.0543 -0.2435  0.6546
   34CHL1  H26A 3690   2.738   2.768   4.752 -0.9012  0.1774  1.2346
   34CHL1  H26B 3691   2.650   2.605   4.771  1.2204 -1.4813  0.0674
   34CHL1  H26C 3692   2.708   2.691   4.915  0.1616  0.0131  0.6577
   34CHL1   C27 3693   2.877   2.548   4.645  0.0477  0.2408 -0.0292
   34CHL1  H27A 3694   2.878   2.631   4.572  2.9681 -0.4993 -0.9653
   34CHL1  H27B 3695   2.970   2.496   4.615 -0.3185  1.1441 -3.0732
   34CHL1  H27C 3696   2.794   2.479   4.620 -0.2198  1.0178 -1.3555
   35CHL1    C3 3697   4.430   4.972   5.991 -1.0074 -0.1602 -0.2181
   35CHL1    H3 3698   4.541   4.962   5.987 -0.8194  1.3558  0.7057
   35CHL1    O3 3699   4.399   4.968   6.130 -0.5418 -0.6768 -0.1093
   35CHL1   H3' 3700   4.306   4.944   6.138 -1.2171  1.7083 -0.1925
   35CHL1    C4 3701   4.390   5.106   5.931 -0.1743 -0.0294  0.2100
   35CHL1   H4A 3702   4.284   5.129   5.952 -0.0289  1.0283 -0.1164
   35CHL1   H4B 3703   4.453   5.179   5.988  1.7253 -1.5610  0.1646
   35CHL1    C5 3704   4.400   5.111   5.775 -0.8440  0.1658 -0.6305
   35CHL1    C6 3705   4.464   5.213   5.719 -0.8932 -0.0103  0.0684
   35CHL1    H6 3706   4.515   5.288   5.780  0.8845  0.2876 -1.6978
   35CHL1    C7 3707   4.473   5.238   5.574  0.5006  0.6942  0.5536
   35CHL1   H7A 3708   4.451   5.345   5.553 -1.3012  0.1131 -0.8005
   35CHL1   H7B 3709   4.579   5.214   5.549  0.0668 -1.2155  0.3771
   35CHL1    C8 3710   4.382   5.152   5.493 -0.0049 -0.0191 -0.3940
   35CHL1    H8 3711   4.279   5.192   5.506  0.1503  0.1463  0.4090
   35CHL1   C14 3712   4.433   5.150   5.345  0.3186  0.3877 -0.2927
   35CHL1   H14 3713   4.529   5.096   5.341  0.3267  0.3033  0.6665
   35CHL1   C15 3714   4.461   5.281   5.274 -0.2333  0.4136  0.4078
   35CHL1  H15A 3715   4.368   5.342   5.286  1.8066  3.5857  1.4884
   35CHL1  H15B 3716   4.549   5.332   5.318  0.4452 -0.8292  0.5316
   35CHL1   C16 3717   4.466   5.249   5.125 -0.5789 -0.4522  0.1252
   35CHL1  H16A 3718   4.415   5.327   5.065 -2.5550 -2.4019 -0.8462
   35CHL1  H16B 3719   4.572   5.252   5.090 -0.5892 -0.7682  0.0629
   35CHL1   C17 3720   4.402   5.105   5.111 -0.4986  0.6540 -0.2741
   35CHL1   H17 3721   4.485   5.031   5.107 -2.3390 -1.4647 -1.3051
   35CHL1   C13 3722   4.328   5.075   5.247  0.6772 -0.2993 -0.6648
   35CHL1   C18 3723   4.182   5.132   5.231 -0.2991  0.0689 -0.1374
   35CHL1  H18A 3724   4.141   5.153   5.333  0.0096 -0.0715  0.0168
   35CHL1  H18B 3725   4.174   5.225   5.172  3.4244 -0.3322 -1.5122
   35CHL1  H18C 3726   4.126   5.049   5.184 -0.8002 -1.2866  2.6182
   35CHL1   C12 3727   4.330   4.928   5.297  0.2116  0.4916  0.5326
   35CHL1  H12A 3728   4.252   4.878   5.235 -0.9843 -0.1386  2.4434
   35CHL1  H12B 3729   4.429   4.879   5.288  0.3451  0.3045  2.5389
   35CHL1   C11 3730   4.287   4.921   5.447  0.0987 -0.1264  0.8113
   35CHL1  H11A 3731   4.177   4.939   5.448  0.0154 -0.6057  0.7552
   35CHL1  H11B 3732   4.303   4.816   5.480  0.4484 -1.0108 -1.9378
   35CHL1    C9 3733   4.373   5.008   5.543  0.3485 -0.0559 -0.3794
   35CHL1    H9 3734   4.478   4.974   5.537  0.0323 -0.9456 -0.9796
   35CHL1   C10 3735   4.333   4.995   5.697  0.2633  0.0370 -0.3730
   35CHL1   C19 3736   4.173   4.999   5.716  1.0336  0.0866 -0.2710
   35CHL1  H19A 3737   4.144   5.004   5.823  2.3781  1.1704  0.0725
   35CHL1  H19B 3738   4.125   5.090   5.674 -0.4876 -0.4543  0.2074
   35CHL1  H19C 3739   4.119   4.916   5.666 -2.3695  2.6823 -1.3302
   35CHL1    C1 3740   4.388   4.867   5.761  0.4157 -0.7833 -0.3856
   35CHL1   H1A 3741   4.322   4.788   5.718  0.7428 -2.3108  1.7538
   35CHL1   H1B 3742   4.491   4.835   5.737  0.5331 -0.0018 -0.9352
   35CHL1    C2 3743   4.364   4.860   5.914  0.9235  0.1758 -0.2854
   35CHL1   H2A 3744   4.386   4.759   5.953 -1.9915 -0.2031  0.6652
   35CHL1   H2B 3745   4.258   4.870   5.947  1.6324 -0.6712  2.5575
   35CHL1   C20 3746   4.320   5.099   4.974  0.1320 -0.8515  0.1666
   35CHL1   H20 3747   4.238   5.173   4.983  0.8158 -0.2293  1.7451
   35CHL1   C21 3748   4.254   4.959   4.956  0.7966  0.0368 -0.2681
   35CHL1  H21A 3749   4.330   4.880   4.935 -0.4703 -1.0583 -0.9121
   35CHL1  H21B 3750   4.183   4.969   4.870  0.7379  1.1952 -0.1007
   35CHL1  H21C 3751   4.193   4.935   5.045  0.3934  0.5388 -0.4060
   35CHL1   C22 3752   4.414   5.128   4.858  0.8144  0.4963  0.1447
   35CHL1  H22A 3753   4.475   5.220   4.868  1.8406 -0.0662 -0.7353
   35CHL1  H22B 3754   4.480   5.039   4.844  1.3081  0.8026  0.5271
   35CHL1   C23 3755   4.350   5.153   4.719  0.6258  0.0730 -0.6643
   35CHL1  H23A 3756   4.413   5.145   4.628  0.4693 -1.0097 -0.6925
   35CHL1  H23B 3757   4.280   5.068   4.701 -0.4218  0.4686  1.2562
   35CHL1   C24 3758   4.263   5.283   4.716 -0.0086 -0.1736 -0.1080
   35CHL1  H24A 3759   4.189   5.271   4.798  2.4993 -2.7838  1.9907
   35CHL1  H24B 3760   4.329   5.369   4.740  0.8200 -0.5732 -0.8728
   35CHL1   C25 3761   4.181   5.310   4.584 -0.2843  0.8132 -0.7691
   35CHL1   H25 3762   4.126   5.405   4.597  0.3708  0.9907  0.9464
   35CHL1   C26 3763   4.259   5.333   4.456 -0.1759 -0.4504 -0.1704
   35CHL1  H26A 3764   4.194   5.337   4.367 -0.3326 -2.3508 -0.1767
   35CHL1  H26B 3765   4.314   5.428   4.473 -0.4511  0.0279 -1.7585
   35CHL1  H26C 3766   4.331   5.253   4.432 -0.7380 -0.1431 -3.2701
   35CHL1   C27 3767   4.083   5.200   4.560  0.1960 -0.3546  0.3209
   35CHL1  H27A 3768   4.137   5.110   4.524 -0.1185 -1.5004  2.5332
   35CHL1  H27B 3769   4.031   5.180   4.656 -0.2200  1.6886  0.5752
   35CHL1  H27C 3770   4.015   5.240   4.481  3.1477  0.7964 -1.8090
   36CHL1    C3 3771   0.670   3.685   6.094 -0.4063  0.1787  0.4206
   36CHL1    H3 3772   0.727   3.599   6.054 -2.4618 -0.3087 -1.6190
   36CHL1    O3 3773   0.646   3.655   6.232 -0.3972 -0.4023  0.1341
   36CHL1   H3' 3774   0.710   3.709   6.277 -0.0232  0.8329 -1.7489
   36CHL1    C4 3775   0.761   3.810   6.081  0.2130  0.4289 -0.0795
   36CHL1   H4A 3776   0.691   3.888   6.119 -1.7138 -0.8012 -0.9555
   36CHL1   H4B 3777   0.849   3.800   6.147  1.2586 -2.8564 -1.7475
   36CHL1    C5 3778   0.794   3.840   5.932  0.2171  0.1501  0.3175
   36CHL1    C6 3779   0.919   3.849   5.880  0.2026 -0.0375  0.2908
   36CHL1    H6 3780   1.004   3.830   5.948 -0.6051 -2.0168  0.8139
   36CHL1    C7 3781   0.951   3.869   5.736  0.3137 -0.0104 -0.2182
   36CHL1   H7A 3782   1.034   3.943   5.730 -0.7759  1.2579  0.0317
   36CHL1   H7B 3783   0.983   3.766   5.711  2.0628 -0.2305  2.4614
   36CHL1    C8 3784   0.829   3.919   5.654  0.9072  0.8478  0.5832
   36CHL1    H8 3785   0.810   4.024   5.681 -0.4386  1.2169 -1.5601
   36CHL1   C14 3786   0.854   3.912   5.507  0.4442  0.7496 -0.0148
   36CHL1   H14 3787   0.861   3.803   5.490 -2.8831  0.4223  0.1057
   36CHL1   C15 3788   0.969   3.986   5.450 -0.7972  0.3452 -0.9863
   36CHL1  H15A 3789   0.964   4.094   5.477 -2.0255  0.3565 -1.2265
   36CHL1  H15B 3790   1.073   3.961   5.481 -0.9174 -1.2859 -1.8006
   36CHL1   C16 3791   0.955   3.971   5.302  0.6989 -0.8333 -0.1990
   36CHL1  H16A 3792   0.982   4.069   5.256 -2.6216  0.8171  1.0366
   36CHL1  H16B 3793   1.027   3.894   5.268  1.6989  0.0429 -0.1552
   36CHL1   C17 3794   0.810   3.921   5.282 -0.9298 -0.2019 -0.1691
   36CHL1   H17 3795   0.819   3.811   5.279  0.1624 -0.1094 -1.5169
   36CHL1   C13 3796   0.735   3.951   5.414  0.1564  0.1169 -0.0161
   36CHL1   C18 3797   0.681   4.095   5.423 -0.1613 -0.2714 -0.1690
   36CHL1  H18A 3798   0.587   4.114   5.368  0.4340  1.3129 -0.6964
   36CHL1  H18B 3799   0.675   4.120   5.532  2.1125  0.5954 -0.1958
   36CHL1  H18C 3800   0.754   4.156   5.366 -0.1152 -0.4011 -0.2460
   36CHL1   C12 3801   0.622   3.852   5.445  0.5177 -0.4550 -0.7903
   36CHL1  H12A 3802   0.532   3.871   5.382 -1.1336 -1.9067  0.9964
   36CHL1  H12B 3803   0.663   3.751   5.424 -1.2434 -0.8842 -2.5401
   36CHL1   C11 3804   0.575   3.857   5.585 -0.3458 -0.4980 -0.6645
   36CHL1  H11A 3805   0.521   3.951   5.604  0.2289 -0.2180 -0.3771
   36CHL1  H11B 3806   0.513   3.767   5.606  1.5784 -1.5817  0.7774
   36CHL1    C9 3807   0.699   3.841   5.685 -1.2283 -0.7555 -0.9626
   36CHL1    H9 3808   0.733   3.736   5.686  1.1519 -0.0498  1.3112
   36CHL1   C10 3809   0.666   3.851   5.846 -0.3094 -0.5727  0.4891
   36CHL1   C19 3810   0.593   3.983   5.871  0.6645 -0.3207 -0.3694
   36CHL1  H19A 3811   0.489   3.973   5.832 -0.2853  1.0426  1.6509
   36CHL1  H19B 3812   0.584   4.016   5.977  0.1081  0.5910 -0.6799
   36CHL1  H19C 3813   0.643   4.068   5.818  0.7730  0.9627  1.6905
   36CHL1    C1 3814   0.563   3.732   5.875 -0.3107  0.3319  0.3669
   36CHL1   H1A 3815   0.461   3.762   5.844 -0.8749 -1.8445 -0.0331
   36CHL1   H1B 3816   0.599   3.643   5.819 -3.8730  0.1100 -1.8759
   36CHL1    C2 3817   0.541   3.700   6.025 -0.5309 -0.0701 -0.3533
   36CHL1   H2A 3818   0.484   3.605   6.031  0.2215 -0.5563 -0.6967
   36CHL1   H2B 3819   0.477   3.782   6.063 -1.3214 -0.0090 -1.7569
   36CHL1   C20 3820   0.745   3.967   5.147 -0.3602  0.6000 -1.4862
   36CHL1   H20 3821   0.733   4.077   5.153 -1.8054  0.4875 -2.0782
   36CHL1   C21 3822   0.598   3.934   5.135  1.2298 -0.3762  0.0314
   36CHL1  H21A 3823   0.583   3.824   5.145 -1.3318  0.0204  1.2814
   36CHL1  H21B 3824   0.571   3.960   5.030  0.6926  1.3489  0.5622
   36CHL1  H21C 3825   0.532   3.992   5.201 -0.2521 -0.3017 -1.4590
   36CHL1   C22 3826   0.829   3.917   5.038  0.9900  0.3189  0.2880
   36CHL1  H22A 3827   0.898   3.838   5.074  0.9787 -0.4457 -1.2782
   36CHL1  H22B 3828   0.762   3.862   4.969  1.9228 -1.2995  0.6223
   36CHL1   C23 3829   0.902   4.018   4.951  0.0903 -0.4854  0.5326
   36CHL1  H23A 3830   0.840   4.109   4.933 -1.4189 -1.2259  1.7735
   36CHL1  H23B 3831   0.987   4.056   5.012  0.9289 -0.0431 -0.8545
   36CHL1   C24 3832   0.973   3.978   4.820 -0.7373  0.1030  0.5161
   36CHL1  H24A 3833   0.899   3.962   4.739  1.1797 -1.3770 -1.0317
   36CHL1  H24B 3834   1.028   4.073   4.804 -0.2395  0.2358  2.6833
   36CHL1   C25 3835   1.063   3.859   4.823 -0.1995  0.3935 -0.2503
   36CHL1   H25 3836   1.004   3.770   4.855  2.1269 -0.9556  0.4628
   36CHL1   C26 3837   1.131   3.839   4.683  0.4027 -0.5955  0.2078
   36CHL1  H26A 3838   1.190   3.745   4.675 -0.0818 -0.7885 -1.7946
   36CHL1  H26B 3839   1.053   3.817   4.606  0.2184  0.9309 -0.0795
   36CHL1  H26C 3840   1.191   3.927   4.652  1.3489 -0.8753  1.1758
   36CHL1   C27 3841   1.170   3.873   4.938 -0.2220  0.1490  0.4860
   36CHL1  H27A 3842   1.125   3.891   5.037  0.2839  0.5040  0.6583
   36CHL1  H27B 3843   1.232   3.780   4.940 -1.4371 -0.7007 -0.1984
   36CHL1  H27C 3844   1.231   3.965   4.925  0.5379 -0.6242 -2.1316
   37CHL1    C3 3845   0.824   0.431   5.791  0.7720  0.1719 -0.3659
   37CHL1    H3 3846   0.911   0.363   5.782  0.0459 -0.6563 -1.3208
   37CHL1    O3 3847   0.800   0.456   5.930  0.3003 -0.4012 -0.0607
   37CHL1   H3' 3848   0.710   0.488   5.941  1.0803  1.1626  2.6665
   37CHL1    C4 3849   0.856   0.561   5.711 -0.4934 -0.6872 -0.2226
   37CHL1   H4A 3850   0.782   0.643   5.718  0.7820  0.4920 -0.2644
   37CHL1   H4B 3851   0.949   0.603   5.754 -0.8672 -0.4400  0.3527
   37CHL1    C5 3852   0.884   0.535   5.564 -0.2363 -0.6333 -0.1356
   37CHL1    C6 3853   0.995   0.578   5.511  0.7769 -0.5762 -0.4818
   37CHL1    H6 3854   1.062   0.642   5.569  0.0298  0.8903 -1.1853
   37CHL1    C7 3855   1.038   0.549   5.376  0.3853  0.8455  0.3612
   37CHL1   H7A 3856   1.094   0.634   5.330  0.4675  0.9962  0.7376
   37CHL1   H7B 3857   1.107   0.462   5.378 -0.7936 -0.1333 -0.1728
   37CHL1    C8 3858   0.922   0.506   5.284  0.1668  0.2816  0.1095
   37CHL1    H8 3859   0.862   0.599   5.274  1.9104  1.7433  2.3279
   37CHL1   C14 3860   0.971   0.458   5.149 -0.7816  0.7458 -0.4068
   37CHL1   H14 3861   1.039   0.376   5.180  3.2805  4.6634  2.2561
   37CHL1   C15 3862   1.062   0.544   5.058 -1.0136 -0.6858 -0.5068
   37CHL1  H15A 3863   1.015   0.644   5.059 -0.8038 -0.5859 -0.6509
   37CHL1  H15B 3864   1.170   0.545   5.085 -0.5548 -0.6239 -2.2439
   37CHL1   C16 3865   1.050   0.481   4.919 -0.2559  0.4805  0.0134
   37CHL1  H16A 3866   1.002   0.561   4.858 -1.1267  0.6330  0.8711
   37CHL1  H16B 3867   1.139   0.442   4.865 -0.0304  1.3643 -0.2761
   37CHL1   C17 3868   0.955   0.362   4.933 -0.7680 -0.2369  0.1740
   37CHL1   H17 3869   1.029   0.283   4.958 -1.0885 -0.2755  1.0492
   37CHL1   C13 3870   0.868   0.401   5.057  0.6219  0.0758  0.3473
   37CHL1   C18 3871   0.761   0.500   5.012  0.6434  0.2527  0.4630
   37CHL1  H18A 3872   0.810   0.587   4.963 -2.2017  0.8634 -1.5539
   37CHL1  H18B 3873   0.673   0.466   4.954  0.7376  2.0682 -0.8419
   37CHL1  H18C 3874   0.720   0.528   5.111 -0.0225 -1.4480  0.7110
   37CHL1   C12 3875   0.807   0.283   5.131 -0.0303 -0.0536  0.3367
   37CHL1  H12A 3876   0.732   0.223   5.076  0.4329  0.2510 -0.6608
   37CHL1  H12B 3877   0.894   0.219   5.156 -0.0079  0.0844  0.6154
   37CHL1   C11 3878   0.739   0.322   5.262  0.2864 -0.5247  0.4178
   37CHL1  H11A 3879   0.647   0.381   5.239 -0.9893 -3.0561 -1.5055
   37CHL1  H11B 3880   0.693   0.233   5.311 -0.5253 -0.4468 -0.1676
   37CHL1    C9 3881   0.840   0.396   5.356 -0.0104  0.0066  0.1381
   37CHL1    H9 3882   0.914   0.315   5.372  1.5312  1.4793  0.8913
   37CHL1   C10 3883   0.787   0.439   5.491  1.0735 -0.1575 -0.3665
   37CHL1   C19 3884   0.657   0.522   5.474  0.0399 -0.3602  0.7823
   37CHL1  H19A 3885   0.612   0.573   5.562  0.1484  2.7827 -0.8096
   37CHL1  H19B 3886   0.677   0.599   5.395  1.6023 -1.4727  0.0379
   37CHL1  H19C 3887   0.577   0.460   5.428 -0.4773  0.4992  0.4864
   37CHL1    C1 3888   0.751   0.314   5.580 -0.4114  0.3827 -0.0915
   37CHL1   H1A 3889   0.662   0.258   5.544 -1.5038  2.1289 -0.2372
   37CHL1   H1B 3890   0.837   0.245   5.582 -2.1280 -1.8590  1.5403
   37CHL1    C2 3891   0.713   0.353   5.723  0.5260  0.8819 -0.3190
   37CHL1   H2A 3892   0.700   0.262   5.785  0.3028  0.5527 -0.8519
   37CHL1   H2B 3893   0.627   0.423   5.732  1.9027  3.0980 -2.8697
   37CHL1   C20 3894   0.884   0.330   4.807  0.6911  0.3941  0.0932
   37CHL1   H20 3895   0.821   0.420   4.793 -0.0451  0.1405  1.5661
   37CHL1   C21 3896   0.782   0.212   4.827 -0.0120 -0.3705 -0.3030
   37CHL1  H21A 3897   0.830   0.123   4.873  0.6249 -0.8265 -1.7556
   37CHL1  H21B 3898   0.761   0.168   4.727  1.3049 -1.4725 -0.1248
   37CHL1  H21C 3899   0.688   0.243   4.876 -0.5875  0.9950 -2.1629
   37CHL1   C22 3900   0.970   0.299   4.673 -0.1925  0.4714 -0.3486
   37CHL1  H22A 3901   0.902   0.271   4.590  0.3949  0.9292 -0.9899
   37CHL1  H22B 3902   1.022   0.393   4.644  1.4538 -0.1952  0.2990
   37CHL1   C23 3903   1.079   0.191   4.693  0.0877 -0.3317  0.6505
   37CHL1  H23A 3904   1.164   0.218   4.760  0.7386 -2.1267  0.6002
   37CHL1  H23B 3905   1.032   0.105   4.745 -1.4061  0.0752  0.0418
   37CHL1   C24 3906   1.123   0.134   4.552 -0.8871  0.0055 -0.2754
   37CHL1  H24A 3907   1.181   0.039   4.563  0.2165  0.6800 -0.1192
   37CHL1  H24B 3908   1.032   0.116   4.491 -0.5824  1.3589 -1.1643
   37CHL1   C25 3909   1.225   0.219   4.471  0.1592  0.1482 -0.6040
   37CHL1   H25 3910   1.193   0.325   4.461  0.6866  0.2989 -0.7254
   37CHL1   C26 3911   1.365   0.218   4.542 -0.3582 -0.0582  0.3667
   37CHL1  H26A 3912   1.372   0.293   4.624 -0.8479  0.5066 -0.1024
   37CHL1  H26B 3913   1.386   0.112   4.569  0.4866 -0.3392 -1.2768
   37CHL1  H26C 3914   1.437   0.254   4.466  0.9033  1.2491  2.0980
   37CHL1   C27 3915   1.233   0.148   4.335  0.3105 -0.3132  0.1501
   37CHL1  H27A 3916   1.299   0.200   4.262 -0.0087  1.6708  1.2138
   37CHL1  H27B 3917   1.286   0.050   4.343 -0.2596 -0.5026  2.2719
   37CHL1  H27C 3918   1.134   0.132   4.288 -0.8137  3.1434  1.0964
   38CHL1    C3 3919   1.558   0.966   5.991 -0.7679 -0.0825  0.1079
   38CHL1    H3 3920   1.462   0.938   5.942 -0.1959  0.0968 -1.1467
   38CHL1    O3 3921   1.548   0.918   6.122 -0.1989  0.1022 -0.1173
   38CHL1   H3' 3922   1.633   0.928   6.166 -0.0703  0.5048 -0.4509
   38CHL1    C4 3923   1.677   0.886   5.932 -0.0991  0.2354 -0.2155
   38CHL1   H4A 3924   1.766   0.899   5.997  1.1027  1.4575 -1.9890
   38CHL1   H4B 3925   1.665   0.775   5.931 -2.2967  0.4115 -2.0796
   38CHL1    C5 3926   1.714   0.937   5.797  0.0403  0.5099  0.5090
   38CHL1    C6 3927   1.709   0.853   5.691 -0.0187 -0.4090  0.0438
   38CHL1    H6 3928   1.682   0.747   5.700  1.5539 -0.8034  0.5805
   38CHL1    C7 3929   1.765   0.896   5.556  0.4163  0.7844 -0.0909
   38CHL1   H7A 3930   1.838   0.820   5.521 -0.0137 -0.3121  1.3234
   38CHL1   H7B 3931   1.678   0.907   5.488  0.8339  0.4353 -0.6869
   38CHL1    C8 3932   1.840   1.032   5.557  0.2521 -0.5537  0.1847
   38CHL1    H8 3933   1.944   1.010   5.589 -0.9432 -1.5552  3.8836
   38CHL1   C14 3934   1.837   1.082   5.411  0.4923  0.3285 -0.1432
   38CHL1   H14 3935   1.729   1.085   5.384  0.0223  0.8661  1.6733
   38CHL1   C15 3936   1.900   0.983   5.306  0.5545  0.0670 -0.8451
   38CHL1  H15A 3937   2.001   0.947   5.334  1.3628  1.5447 -1.7149
   38CHL1  H15B 3938   1.833   0.895   5.299 -0.6921  0.8523  0.7232
   38CHL1   C16 3939   1.898   1.071   5.181  0.5355 -0.0407  0.9308
   38CHL1  H16A 3940   1.976   1.053   5.104 -0.3192 -0.1580  0.0561
   38CHL1  H16B 3941   1.799   1.061   5.130  1.0394  0.9130 -0.3101
   38CHL1   C17 3942   1.887   1.221   5.229 -0.0324 -0.7796  0.2264
   38CHL1   H17 3943   1.782   1.251   5.207  1.0592  3.0426 -0.5097
   38CHL1   C13 3944   1.899   1.217   5.379  0.5597  0.0929 -0.5033
   38CHL1   C18 3945   2.048   1.200   5.425  0.2356 -0.0003  0.1444
   38CHL1  H18A 3946   2.064   1.188   5.534 -1.1109 -1.8459  0.1761
   38CHL1  H18B 3947   2.098   1.104   5.400  2.4362  1.4359 -1.3722
   38CHL1  H18C 3948   2.112   1.284   5.389 -0.0324  0.2332  0.2054
   38CHL1   C12 3949   1.820   1.321   5.463  0.7958  0.5922  0.3672
   38CHL1  H12A 3950   1.849   1.428   5.460 -0.8128  1.1498  2.2558
   38CHL1  H12B 3951   1.718   1.324   5.421  1.4534  2.8688 -1.2359
   38CHL1   C11 3952   1.808   1.286   5.619  0.2449 -0.0773  0.0641
   38CHL1  H11A 3953   1.908   1.302   5.666 -0.3738 -0.4426  1.5744
   38CHL1  H11B 3954   1.735   1.354   5.668  1.2992  1.8919 -1.0031
   38CHL1    C9 3955   1.762   1.135   5.646  0.1557  0.2102 -0.4122
   38CHL1    H9 3956   1.655   1.138   5.614  0.0946 -2.1591 -0.6520
   38CHL1   C10 3957   1.747   1.085   5.793  0.2418  1.0335  0.0405
   38CHL1   C19 3958   1.878   1.117   5.868  0.2957  0.8281  0.3808
   38CHL1  H19A 3959   1.875   1.086   5.975  2.3274  1.9302  0.7931
   38CHL1  H19B 3960   1.961   1.069   5.811 -1.1193 -1.5008  0.1326
   38CHL1  H19C 3961   1.907   1.224   5.870  0.6798  0.7216  0.5104
   38CHL1    C1 3962   1.625   1.160   5.857  0.3140  0.0306 -0.2656
   38CHL1   H1A 3963   1.646   1.269   5.858 -1.0842  0.3334  2.3321
   38CHL1   H1B 3964   1.542   1.146   5.784 -0.0115 -1.4995  0.3569
   38CHL1    C2 3965   1.579   1.115   5.994 -0.4518 -0.3937 -0.0229
   38CHL1   H2A 3966   1.486   1.168   6.022 -0.9275 -2.3888  2.5826
   38CHL1   H2B 3967   1.656   1.156   6.063 -1.7280 -1.1335  1.9122
   38CHL1   C20 3968   1.970   1.316   5.136 -0.3071  0.4401 -0.8213
   38CHL1   H20 3969   2.079   1.293   5.136 -0.6593 -1.3545 -0.9036
   38CHL1   C21 3970   1.963   1.455   5.197  0.1951 -0.4675  0.0929
   38CHL1  H21A 3971   2.033   1.456   5.283  0.5801  1.6006 -0.1983
   38CHL1  H21B 3972   1.861   1.484   5.231 -0.1163 -2.3522  0.9094
   38CHL1  H21C 3973   1.996   1.538   5.131 -3.2239  1.9298  1.1258
   38CHL1   C22 3974   1.925   1.304   4.989 -0.0070 -0.0455  0.0334
   38CHL1  H22A 3975   1.956   1.204   4.953 -1.5836  0.0771 -1.8195
   38CHL1  H22B 3976   1.815   1.315   4.975  0.2178  0.7358 -1.2749
   38CHL1   C23 3977   1.978   1.413   4.897  0.2729 -0.1298  0.7664
   38CHL1  H23A 3978   1.925   1.501   4.938 -0.0290 -0.3103  0.7653
   38CHL1  H23B 3979   2.088   1.429   4.896 -0.0861  2.8547 -0.1029
   38CHL1   C24 3980   1.938   1.392   4.749  0.8369 -0.5516 -0.0850
   38CHL1  H24A 3981   1.971   1.290   4.718 -1.3424 -1.0208 -1.0616
   38CHL1  H24B 3982   1.827   1.392   4.741  0.5530  1.3380  2.5747
   38CHL1   C25 3983   1.996   1.484   4.638 -0.2677  0.2680  0.0052
   38CHL1   H25 3984   1.950   1.584   4.652 -1.5015 -0.1678 -0.7466
   38CHL1   C26 3985   2.152   1.485   4.631 -0.2207 -0.2042  0.2875
   38CHL1  H26A 3986   2.203   1.391   4.661  2.5618  1.2364  0.4390
   38CHL1  H26B 3987   2.185   1.513   4.529 -0.5369  0.9252  0.4821
   38CHL1  H26C 3988   2.190   1.567   4.695 -0.2798 -0.0229  0.0913
   38CHL1   C27 3989   1.938   1.437   4.505  0.3098  0.0682  0.5753
   38CHL1  H27A 3990   1.970   1.493   4.414  1.1284  0.3267  1.0083
   38CHL1  H27B 3991   1.953   1.329   4.487  3.1219  0.1473  1.9020
   38CHL1  H27C 3992   1.828   1.439   4.517  0.3184 -2.7446  1.9825
   39CHL1    C3 3993   3.617   1.444   6.168 -0.5655  0.4044 -0.6748
   39CHL1    H3 3994   3.524   1.464   6.110  0.7350  0.9531 -2.7110
   39CHL1    O3 3995   3.594   1.409   6.302  0.2751 -0.1293  0.2184
   39CHL1   H3' 3996   3.674   1.368   6.334 -0.5847 -2.3472 -0.2948
   39CHL1    C4 3997   3.685   1.318   6.090  0.5102 -0.1101  0.4716
   39CHL1   H4A 3998   3.778   1.284   6.141  0.6648 -2.0736 -1.0096
   39CHL1   H4B 3999   3.611   1.238   6.111  1.7082 -1.5233 -0.4847
   39CHL1    C5 4000   3.712   1.349   5.948  0.4117  1.0483  0.1277
   39CHL1    C6 4001   3.658   1.272   5.855  0.4786  0.5480  0.7077
   39CHL1    H6 4002   3.605   1.179   5.880  2.6529 -0.8991  0.1795
   39CHL1    C7 4003   3.679   1.304   5.708 -0.7436  0.1854 -0.0749
   39CHL1   H7A 4004   3.696   1.205   5.659 -1.0915 -0.8760  1.8549
   39CHL1   H7B 4005   3.587   1.358   5.675 -1.6341  0.7440  3.0641
   39CHL1    C8 4006   3.798   1.395   5.686 -0.0654 -0.8085 -0.7042
   39CHL1    H8 4007   3.890   1.337   5.710  0.9140  1.5136  1.5783
   39CHL1   C14 4008   3.806   1.441   5.545 -0.0292  0.0278 -0.0888
   39CHL1   H14 4009   3.711   1.500   5.540  0.8628  1.8351  2.3440
   39CHL1   C15 4010   3.796   1.338   5.431 -0.2906  0.2989 -0.3421
   39CHL1  H15A 4011   3.862   1.255   5.465 -2.3657 -1.3682 -0.1441
   39CHL1  H15B 4012   3.691   1.305   5.412 -0.2122  1.8280 -4.5616
   39CHL1   C16 4013   3.860   1.411   5.315  0.2486  0.3399  0.4102
   39CHL1  H16A 4014   3.945   1.355   5.269 -0.6815  0.6441 -1.8324
   39CHL1  H16B 4015   3.786   1.419   5.232  0.9406 -0.8531 -0.3722
   39CHL1   C17 4016   3.888   1.559   5.361  0.1100 -0.1196 -0.4879
   39CHL1   H17 4017   3.790   1.611   5.353  1.0621  1.6205 -1.3105
   39CHL1   C13 4018   3.915   1.540   5.510  0.4902 -0.0523  0.3413
   39CHL1   C18 4019   4.047   1.470   5.538  0.1451  0.5006  0.0434
   39CHL1  H18A 4020   4.050   1.371   5.488  2.3220  0.2829  0.5089
   39CHL1  H18B 4021   4.135   1.526   5.500 -0.6078  1.0720 -0.9068
   39CHL1  H18C 4022   4.072   1.434   5.639  2.2611 -0.6009 -0.8128
   39CHL1   C12 4023   3.907   1.666   5.597 -0.5169  0.1994 -0.7851
   39CHL1  H12A 4024   3.996   1.731   5.588 -0.5527  0.0675 -2.5594
   39CHL1  H12B 4025   3.815   1.724   5.575 -1.1920 -0.0791  1.1347
   39CHL1   C11 4026   3.897   1.636   5.744  0.2677 -0.3499 -0.4896
   39CHL1  H11A 4027   3.999   1.604   5.775 -0.2659 -1.6981 -0.0278
   39CHL1  H11B 4028   3.875   1.731   5.797  0.4245  1.6097 -3.6654
   39CHL1    C9 4029   3.801   1.520   5.782  0.5541  0.4353  0.5133
   39CHL1    H9 4030   3.702   1.566   5.766 -0.2817 -1.1642  0.8239
   39CHL1   C10 4031   3.798   1.477   5.933 -0.8697  0.3835  0.6964
   39CHL1   C19 4032   3.942   1.442   5.980  0.2568  0.2476  0.2349
   39CHL1  H19A 4033   3.940   1.361   6.055  0.3469  0.8605  0.9143
   39CHL1  H19B 4034   3.991   1.398   5.891 -2.3231  3.3103 -3.0082
   39CHL1  H19C 4035   3.997   1.528   6.026  2.4746 -1.3103  0.6507
   39CHL1    C1 4036   3.742   1.589   6.018  0.0990  0.1692  0.0306
   39CHL1   H1A 4037   3.814   1.673   6.020  0.0554  0.2493 -1.1477
   39CHL1   H1B 4038   3.654   1.624   5.960 -1.8959 -3.7308  0.3112
   39CHL1    C2 4039   3.705   1.561   6.161  0.3723 -1.3065 -0.3409
   39CHL1   H2A 4040   3.651   1.642   6.214  0.7215 -0.8653 -0.6582
   39CHL1   H2B 4041   3.799   1.540   6.217  0.5906 -0.7728 -0.5021
   39CHL1   C20 4042   3.994   1.642   5.278 -0.5009 -0.1553  0.1303
   39CHL1   H20 4043   4.099   1.613   5.303 -0.3064  2.7328  3.5059
   39CHL1   C21 4044   3.987   1.797   5.316  0.4897 -0.6937  0.3686
   39CHL1  H21A 4045   4.040   1.826   5.409 -1.7716  0.3563  1.3917
   39CHL1  H21B 4046   3.882   1.826   5.337  0.7752  0.5941  0.0706
   39CHL1  H21C 4047   4.019   1.862   5.232  0.4672  0.8096  1.4999
   39CHL1   C22 4048   3.973   1.642   5.124 -0.7500 -0.0567 -0.0147
   39CHL1  H22A 4049   3.966   1.535   5.093  1.8409 -0.8297  1.7733
   39CHL1  H22B 4050   3.871   1.685   5.118 -0.8770 -0.3182  0.2508
   39CHL1   C23 4051   4.075   1.713   5.031  0.0494  0.0077 -0.4288
   39CHL1  H23A 4052   4.076   1.823   5.045 -1.8169 -0.0503  0.4522
   39CHL1  H23B 4053   4.179   1.677   5.043  0.2350  0.3871 -0.8582
   39CHL1   C24 4054   4.035   1.693   4.890 -0.1546 -0.1100  0.7094
   39CHL1  H24A 4055   4.049   1.584   4.876 -2.1603 -0.1181 -2.0665
   39CHL1  H24B 4056   3.925   1.704   4.885 -0.0992  1.6765  2.2706
   39CHL1   C25 4057   4.119   1.769   4.785  0.6938 -0.3608 -0.4900
   39CHL1   H25 4058   4.198   1.825   4.840  0.5775 -0.8031  0.1354
   39CHL1   C26 4059   4.181   1.679   4.684 -0.5103 -0.3559 -0.1004
   39CHL1  H26A 4060   4.100   1.657   4.611  0.8249 -1.7030 -1.2560
   39CHL1  H26B 4061   4.257   1.731   4.621 -0.2898 -2.7481 -1.9900
   39CHL1  H26C 4062   4.232   1.587   4.721 -1.8648 -1.3020 -0.4973
   39CHL1   C27 4063   4.038   1.880   4.714  0.1460 -1.0735 -0.0261
   39CHL1  H27A 4064   3.993   1.953   4.785  1.7164  0.9529 -1.0154
   39CHL1  H27B 4065   4.101   1.917   4.632  0.8395 -1.3454  0.3767
   39CHL1  H27C 4066   3.949   1.833   4.667  0.0682  0.7903 -1.8483
   40CHL1    C3 4067   3.566   4.292   6.111 -0.5677 -0.3017 -0.3845
   40CHL1    H3 4068   3.487   4.370   6.102  0.3406  0.7403  0.3740
   40CHL1    O3 4069   3.592   4.259   6.245 -0.2156 -0.1779 -0.2220
   40CHL1   H3' 4070   3.670   4.205   6.234 -0.8143 -1.2809  0.7899
   40CHL1    C4 4071   3.527   4.157   6.044  0.0452  0.3898 -0.2351
   40CHL1   H4A 4072   3.598   4.077   6.076 -0.5329  0.2219  0.6643
   40CHL1   H4B 4073   3.429   4.130   6.089  0.9775 -0.1594  1.5626
   40CHL1    C5 4074   3.522   4.165   5.899  0.4182  0.1335  0.1923
   40CHL1    C6 4075   3.417   4.121   5.827 -0.2307  0.4276  0.2118
   40CHL1    H6 4076   3.337   4.077   5.889 -2.2223  2.7753 -0.4946
   40CHL1    C7 4077   3.406   4.100   5.675 -0.0995 -0.0327 -0.3469
   40CHL1   H7A 4078   3.380   3.992   5.672 -1.6221  0.2473  1.2858
   40CHL1   H7B 4079   3.333   4.175   5.638  2.5466  3.8605  1.6086
   40CHL1    C8 4080   3.539   4.142   5.613 -0.2780 -0.6487 -0.1596
   40CHL1    H8 4081   3.611   4.057   5.611  0.3967 -0.0634 -0.9517
   40CHL1   C14 4082   3.516   4.188   5.464 -0.1381 -0.3859 -0.1918
   40CHL1   H14 4083   3.447   4.274   5.475 -0.2720 -0.5633  0.3823
   40CHL1   C15 4084   3.442   4.094   5.377  0.4451 -0.2279  0.5591
   40CHL1  H15A 4085   3.474   3.987   5.373 -1.1044 -0.7071 -1.8711
   40CHL1  H15B 4086   3.333   4.089   5.397  0.9740 -4.7775  3.9643
   40CHL1   C16 4087   3.456   4.154   5.234  0.1969  0.3230 -0.4318
   40CHL1  H16A 4088   3.489   4.075   5.163 -0.1549 -0.3138  0.1087
   40CHL1  H16B 4089   3.365   4.200   5.191 -1.9593 -1.9543  1.4232
   40CHL1   C17 4090   3.562   4.267   5.249  0.8349 -0.0001  0.4826
   40CHL1   H17 4091   3.500   4.360   5.252 -0.0573 -0.5209 -0.7565
   40CHL1   C13 4092   3.629   4.242   5.380 -0.0936 -0.2938 -1.0788
   40CHL1   C18 4093   3.738   4.137   5.368  0.3013 -0.5316 -0.6075
   40CHL1  H18A 4094   3.696   4.049   5.314 -1.1607  1.1699 -2.3981
   40CHL1  H18B 4095   3.829   4.179   5.320 -0.1655  1.3580  0.1199
   40CHL1  H18C 4096   3.761   4.100   5.470 -0.1224 -0.0758 -0.3416
   40CHL1   C12 4097   3.674   4.364   5.461 -1.1507 -0.0317  0.0865
   40CHL1  H12A 4098   3.766   4.407   5.415 -0.3292 -2.0836 -0.3169
   40CHL1  H12B 4099   3.590   4.436   5.470 -0.1119  1.0635  1.4837
   40CHL1   C11 4100   3.719   4.331   5.605  0.3285  0.0673 -0.6215
   40CHL1  H11A 4101   3.813   4.272   5.607 -0.1163 -0.6657  2.1863
   40CHL1  H11B 4102   3.741   4.429   5.652 -2.7883  0.0156  1.1971
   40CHL1    C9 4103   3.608   4.261   5.688 -0.0939  0.0076  0.0102
   40CHL1    H9 4104   3.536   4.345   5.699 -0.7162 -0.8177  3.3456
   40CHL1   C10 4105   3.643   4.227   5.831 -0.0780 -0.5616 -0.0773
   40CHL1   C19 4106   3.771   4.133   5.832  0.6467  0.2588  0.4616
   40CHL1  H19A 4107   3.796   4.088   5.930 -2.0047  1.4015  1.7519
   40CHL1  H19B 4108   3.748   4.049   5.763  0.0629  0.7460  0.0571
   40CHL1  H19C 4109   3.865   4.186   5.803  1.1053  0.7922  2.7108
   40CHL1    C1 4110   3.684   4.357   5.906  0.3117 -0.1572  0.9259
   40CHL1   H1A 4111   3.777   4.396   5.861 -0.3141  0.9960  0.5799
   40CHL1   H1B 4112   3.614   4.439   5.879  2.0284  0.7586 -1.0317
   40CHL1    C2 4113   3.696   4.350   6.054 -0.3899  0.3403  0.3427
   40CHL1   H2A 4114   3.712   4.454   6.092 -0.4898  0.7971 -0.8076
   40CHL1   H2B 4115   3.780   4.280   6.067 -1.1272 -1.2637 -2.5748
   40CHL1   C20 4116   3.654   4.285   5.126 -0.0429  0.2540  0.2680
   40CHL1   H20 4117   3.709   4.193   5.097  1.5504  1.4222 -0.6092
   40CHL1   C21 4118   3.772   4.387   5.145  0.1368  0.0300  0.1574
   40CHL1  H21A 4119   3.839   4.383   5.057  0.2423  1.3791  0.1615
   40CHL1  H21B 4120   3.834   4.374   5.236  3.0578  1.3282 -1.4989
   40CHL1  H21C 4121   3.727   4.488   5.147  2.4534  1.1216  0.2672
   40CHL1   C22 4122   3.569   4.327   5.002 -0.0053  0.0947  0.1647
   40CHL1  H22A 4123   3.490   4.249   4.992  0.0043  0.1425 -0.3419
   40CHL1  H22B 4124   3.521   4.426   5.020 -1.6172 -1.1480  3.4334
   40CHL1   C23 4125   3.654   4.345   4.873  0.4434  0.0447 -0.2283
   40CHL1  H23A 4126   3.735   4.421   4.876 -0.3848  0.9565 -0.2061
   40CHL1  H23B 4127   3.705   4.251   4.845 -1.9999 -1.0129 -1.4202
   40CHL1   C24 4128   3.561   4.377   4.752 -0.2293 -0.1275  0.0024
   40CHL1  H24A 4129   3.504   4.287   4.719 -0.6785  0.2358 -0.2304
   40CHL1  H24B 4130   3.481   4.448   4.784  2.1209  2.9264 -0.4441
   40CHL1   C25 4131   3.636   4.435   4.632 -1.1516  0.7720 -0.4208
   40CHL1   H25 4132   3.702   4.513   4.676 -0.4890 -1.2230  2.3788
   40CHL1   C26 4133   3.717   4.330   4.550  0.0076 -0.5296 -0.6071
   40CHL1  H26A 4134   3.647   4.248   4.524  0.4263 -0.9586 -0.4134
   40CHL1  H26B 4135   3.749   4.382   4.457 -2.0518  1.5561 -0.2271
   40CHL1  H26C 4136   3.791   4.279   4.616 -0.8325  0.1532  0.9077
   40CHL1   C27 4137   3.540   4.505   4.532 -0.3874  0.2616 -0.4028
   40CHL1  H27A 4138   3.457   4.439   4.498  0.7262 -0.4683 -1.8211
   40CHL1  H27B 4139   3.502   4.602   4.571  2.3384  1.0205  0.5873
   40CHL1  H27C 4140   3.587   4.545   4.439 -2.2288  1.7396 -0.7571
   41CHL1    C3 4141   0.724   4.901   5.942 -0.9195  0.7239 -0.2563
   41CHL1    H3 4142   0.622   4.939   5.965  0.3759  4.1651  0.3816
   41CHL1    O3 4143   0.783   4.855   6.066 -0.3023  0.3470  0.1480
   41CHL1   H3' 4144   0.852   4.917   6.092  0.9090 -0.7245 -0.3853
   41CHL1    C4 4145   0.729   4.790   5.838 -0.2253  0.3274  0.1461
   41CHL1   H4A 4146   0.824   4.733   5.849 -0.1898  0.5728  1.1423
   41CHL1   H4B 4147   0.656   4.717   5.878 -1.5687  0.6764 -1.5189
   41CHL1    C5 4148   0.716   4.819   5.693 -0.0129 -0.0877  0.3657
   41CHL1    C6 4149   0.627   4.752   5.622  0.7590 -0.2294 -0.1172
   41CHL1    H6 4150   0.592   4.663   5.677  0.8405 -1.0123 -1.3227
   41CHL1    C7 4151   0.611   4.783   5.484 -0.0445  0.0046  0.4255
   41CHL1   H7A 4152   0.606   4.694   5.417 -2.8477  1.5950 -1.6676
   41CHL1   H7B 4153   0.517   4.838   5.463 -0.3811 -1.0972 -1.2071
   41CHL1    C8 4154   0.727   4.868   5.420 -0.6586  0.3800 -0.2658
   41CHL1    H8 4155   0.817   4.803   5.415  0.4568  1.8679 -0.3096
   41CHL1   C14 4156   0.690   4.908   5.281  0.0338  0.2999 -0.2620
   41CHL1   H14 4157   0.595   4.965   5.288 -0.0332  0.6902 -3.2685
   41CHL1   C15 4158   0.677   4.796   5.176  0.4740 -1.0121 -0.4594
   41CHL1  H15A 4159   0.761   4.726   5.196  0.2665 -0.8275  1.2159
   41CHL1  H15B 4160   0.573   4.757   5.172 -0.1887  0.6945 -4.2690
   41CHL1   C16 4161   0.688   4.874   5.042  0.0315  0.0318  1.2879
   41CHL1  H16A 4162   0.767   4.828   4.979 -1.1969  1.0251 -1.1042
   41CHL1  H16B 4163   0.602   4.858   4.973  1.7589  1.1053 -1.2567
   41CHL1   C17 4164   0.711   5.022   5.074  0.1443  0.1208 -0.4284
   41CHL1   H17 4165   0.616   5.076   5.095  0.2271 -0.3662  1.3410
   41CHL1   C13 4166   0.783   5.009   5.212  0.6286 -0.5606  0.5920
   41CHL1   C18 4167   0.924   4.950   5.199 -0.5316 -0.3234  0.0078
   41CHL1  H18A 4168   0.935   4.862   5.132 -1.0612 -0.0411 -0.4530
   41CHL1  H18B 4169   0.992   5.030   5.162 -1.0933 -0.2991 -1.0011
   41CHL1  H18C 4170   0.958   4.914   5.299 -1.4916 -2.6504 -0.4515
   41CHL1   C12 4171   0.781   5.137   5.302  0.4700 -0.0327  0.5239
   41CHL1  H12A 4172   0.837   5.219   5.253 -0.8045 -0.3001 -1.4645
   41CHL1  H12B 4173   0.676   5.172   5.294 -0.4998 -3.0262 -1.5181
   41CHL1   C11 4174   0.829   5.100   5.444 -0.0298  0.6599  0.1151
   41CHL1  H11A 4175   0.939   5.088   5.456 -0.4191 -1.4050  2.3921
   41CHL1  H11B 4176   0.801   5.195   5.494 -0.7416  1.2307 -1.2866
   41CHL1    C9 4177   0.743   4.992   5.505  0.8683  0.6261 -0.0221
   41CHL1    H9 4178   0.649   5.049   5.518 -0.1795 -0.5727 -1.9814
   41CHL1   C10 4179   0.790   4.943   5.648 -0.2534  0.1639  0.0236
   41CHL1   C19 4180   0.939   4.905   5.639  0.2501  0.1703  0.3999
   41CHL1  H19A 4181   1.005   4.992   5.616 -1.2188  0.9748 -0.9190
   41CHL1  H19B 4182   0.983   4.861   5.732 -0.1278 -4.1609 -1.2316
   41CHL1  H19C 4183   0.950   4.829   5.559  0.4291 -2.2018  2.5301
   41CHL1    C1 4184   0.776   5.061   5.757 -0.8670  0.4395 -0.5939
   41CHL1   H1A 4185   0.838   5.148   5.725  0.5169  0.0820  0.9966
   41CHL1   H1B 4186   0.670   5.097   5.761 -1.9229 -2.4439 -0.4302
   41CHL1    C2 4187   0.809   5.024   5.904  0.4400  0.4267  0.2525
   41CHL1   H2A 4188   0.792   5.119   5.958 -0.4494  0.1086  0.5537
   41CHL1   H2B 4189   0.915   4.993   5.901  0.5729  0.9052 -2.0231
   41CHL1   C20 4190   0.791   5.106   4.968  0.7992  1.0506  0.1844
   41CHL1   H20 4191   0.902   5.101   4.977  0.9749  2.1788 -0.9872
   41CHL1   C21 4192   0.754   5.258   4.971 -0.0292  0.3494 -0.0344
   41CHL1  H21A 4193   0.734   5.293   5.075 -1.1341 -1.8144  0.5300
   41CHL1  H21B 4194   0.668   5.282   4.905  0.4657  2.2392 -0.0471
   41CHL1  H21C 4195   0.842   5.308   4.925  0.3995  0.5973  1.0218
   41CHL1   C22 4196   0.771   5.046   4.824 -0.0785  0.4351  0.1162
   41CHL1  H22A 4197   0.832   4.953   4.825 -2.8840 -1.6639  3.2918
   41CHL1  H22B 4198   0.663   5.021   4.818  0.2286 -1.3115  1.1129
   41CHL1   C23 4199   0.796   5.130   4.708  0.7553 -0.2822 -0.1844
   41CHL1  H23A 4200   0.722   5.213   4.711  0.1201 -0.8021 -0.9635
   41CHL1  H23B 4201   0.893   5.184   4.713 -0.1789  1.5266 -0.8631
   41CHL1   C24 4202   0.780   5.050   4.583  0.0692  0.0714  0.2524
   41CHL1  H24A 4203   0.833   4.952   4.590  1.1063  0.5653 -0.2880
   41CHL1  H24B 4204   0.671   5.028   4.580 -0.1324  1.0294  0.3742
   41CHL1   C25 4205   0.822   5.116   4.449  0.3063 -0.4744 -0.2432
   41CHL1   H25 4206   0.928   5.143   4.472  0.0949 -0.4266  0.7196
   41CHL1   C26 4207   0.811   5.010   4.338  0.1244 -0.7590  0.1856
   41CHL1  H26A 4208   0.803   5.064   4.241  1.1959 -1.7880 -0.5094
   41CHL1  H26B 4209   0.900   4.945   4.329  2.1947  1.5061  2.7658
   41CHL1  H26C 4210   0.722   4.943   4.345  1.2929 -2.4822 -0.8200
   41CHL1   C27 4211   0.730   5.242   4.421 -0.3775 -1.0052 -0.6511
   41CHL1  H27A 4212   0.783   5.314   4.355 -1.3428  1.8457  1.5094
   41CHL1  H27B 4213   0.625   5.237   4.385  0.2527  1.6898 -3.2751
   41CHL1  H27C 4214   0.705   5.290   4.518 -0.6609 -0.1352 -1.1434
   42CHL1    C3 4215   5.626   3.810   6.188  0.7448 -0.2468 -0.3856
   42CHL1    H3 4216   5.543   3.880   6.167  2.6425  2.3456  0.1611
   42CHL1    O3 4217   5.656   3.821   6.328 -0.1055 -0.1941  0.1276
   42CHL1   H3' 4218   5.728   3.759   6.340  0.3425 -0.2502 -2.2924
   42CHL1    C4 4219   5.603   3.662   6.145  0.0831  0.1322 -0.2306
   42CHL1   H4A 4220   5.684   3.599   6.187 -0.8927 -0.5883  0.6112
   42CHL1   H4B 4221   5.511   3.626   6.196  1.3398 -0.0269  2.0253
   42CHL1    C5 4222   5.579   3.641   5.995 -0.0921 -0.3380 -0.0084
   42CHL1    C6 4223   5.475   3.576   5.942  0.8266  0.4353  0.1486
   42CHL1    H6 4224   5.382   3.557   5.997  0.8199  1.6554  0.5935
   42CHL1    C7 4225   5.458   3.538   5.801  0.0261  0.2663 -0.7302
   42CHL1   H7A 4226   5.449   3.428   5.795 -2.0513  0.2007  1.7963
   42CHL1   H7B 4227   5.365   3.586   5.763  0.0879 -0.9613 -2.5278
   42CHL1    C8 4228   5.583   3.581   5.717  0.2926  0.7850 -0.8141
   42CHL1    H8 4229   5.653   3.495   5.727 -1.4691 -0.5296  0.9938
   42CHL1   C14 4230   5.532   3.600   5.567 -0.5516 -0.2126 -0.3516
   42CHL1   H14 4231   5.460   3.685   5.567 -1.7026 -1.1256 -2.1300
   42CHL1   C15 4232   5.445   3.495   5.498 -0.5784  0.2295 -0.0872
   42CHL1  H15A 4233   5.493   3.396   5.513 -0.8609  0.0978 -0.0537
   42CHL1  H15B 4234   5.344   3.494   5.544 -1.2064 -0.3524 -1.4392
   42CHL1   C16 4235   5.444   3.530   5.345  0.0124 -0.0265  0.4893
   42CHL1  H16A 4236   5.473   3.438   5.290  0.6305  0.4071  0.0745
   42CHL1  H16B 4237   5.341   3.559   5.316  0.5751  2.8143  0.9562
   42CHL1   C17 4238   5.556   3.644   5.330  0.3268 -0.2950  0.1487
   42CHL1   H17 4239   5.487   3.731   5.330  2.2656  1.3411 -1.0211
   42CHL1   C13 4240   5.636   3.641   5.465 -0.5787 -0.1019 -0.4946
   42CHL1   C18 4241   5.744   3.533   5.451  0.4731 -0.1745 -0.3618
   42CHL1  H18A 4242   5.825   3.555   5.378  2.4493  0.5174  1.9074
   42CHL1  H18B 4243   5.795   3.516   5.548  0.9065  2.3371 -0.0667
   42CHL1  H18C 4244   5.693   3.440   5.419  0.8549 -0.9769  1.2839
   42CHL1   C12 4245   5.700   3.776   5.520 -0.6091  0.2221  0.4686
   42CHL1  H12A 4246   5.784   3.794   5.449 -0.4108  0.8222  0.8482
   42CHL1  H12B 4247   5.622   3.854   5.522  1.0734  2.0119 -0.1160
   42CHL1   C11 4248   5.757   3.754   5.655 -0.1138 -0.0565 -1.1194
   42CHL1  H11A 4249   5.827   3.668   5.666 -1.6432 -1.1067  1.1253
   42CHL1  H11B 4250   5.802   3.847   5.698 -1.2164  0.5227 -1.1867
   42CHL1    C9 4251   5.645   3.711   5.764 -0.4439  0.8613  0.1286
   42CHL1    H9 4252   5.567   3.790   5.760 -0.5095  0.7626 -1.7335
   42CHL1   C10 4253   5.692   3.708   5.911 -0.1260  0.6195 -0.2430
   42CHL1   C19 4254   5.820   3.613   5.927  0.4243 -0.9894 -0.0497
   42CHL1  H19A 4255   5.848   3.608   6.035  0.0966  1.1421  0.1976
   42CHL1  H19B 4256   5.801   3.514   5.883  0.8423 -0.3294 -1.7855
   42CHL1  H19C 4257   5.904   3.660   5.871  0.4281  0.9537  1.4412
   42CHL1    C1 4258   5.727   3.851   5.955  0.7580  0.8583  0.9446
   42CHL1   H1A 4259   5.816   3.887   5.899  1.2238 -3.4448 -1.5597
   42CHL1   H1B 4260   5.644   3.920   5.928  2.1857  2.7411  1.1324
   42CHL1    C2 4261   5.743   3.861   6.105 -0.1358 -0.4177 -0.5332
   42CHL1   H2A 4262   5.766   3.964   6.139  1.2608 -1.0010  0.4010
   42CHL1   H2B 4263   5.837   3.802   6.119  0.3803 -0.3286 -3.1308
   42CHL1   C20 4264   5.624   3.644   5.194 -0.4780  0.5814 -0.5764
   42CHL1   H20 4265   5.689   3.554   5.196 -0.1672  0.7937 -1.0356
   42CHL1   C21 4266   5.706   3.771   5.183  0.5031  0.3235  0.1582
   42CHL1  H21A 4267   5.639   3.856   5.208  0.8201  0.4914  0.4480
   42CHL1  H21B 4268   5.749   3.793   5.083  1.3399 -2.7147 -0.2349
   42CHL1  H21C 4269   5.797   3.772   5.246 -0.0934  0.1252  1.0408
   42CHL1   C22 4270   5.518   3.629   5.079 -0.0351  0.5550 -0.5586
   42CHL1  H22A 4271   5.471   3.529   5.077 -0.1074  0.4270  2.5048
   42CHL1  H22B 4272   5.434   3.693   5.113  0.9495  0.3143  2.7420
   42CHL1   C23 4273   5.560   3.658   4.933 -0.0523 -0.0045 -0.3693
   42CHL1  H23A 4274   5.461   3.682   4.888 -0.1400  0.5977  0.1283
   42CHL1  H23B 4275   5.624   3.743   4.900  0.5037 -0.4164 -0.3595
   42CHL1   C24 4276   5.629   3.530   4.878 -0.1797 -0.5984 -0.3210
   42CHL1  H24A 4277   5.716   3.497   4.937 -1.6186 -3.1698  0.5126
   42CHL1  H24B 4278   5.566   3.439   4.871  1.0889 -1.3957 -2.3631
   42CHL1   C25 4279   5.662   3.547   4.729 -0.5064 -0.3013  0.5047
   42CHL1   H25 4280   5.718   3.641   4.714 -2.2059  0.6789  0.0408
   42CHL1   C26 4281   5.749   3.432   4.693 -0.2418 -0.0785  0.5384
   42CHL1  H26A 4282   5.763   3.417   4.584  0.1985  3.0222  0.0846
   42CHL1  H26B 4283   5.839   3.417   4.757 -1.0927 -1.4046  1.4850
   42CHL1  H26C 4284   5.697   3.335   4.711 -0.1737 -0.5509 -1.6185
   42CHL1   C27 4285   5.535   3.563   4.637  0.6174  0.8786 -0.5381
   42CHL1  H27A 4286   5.454   3.629   4.676  0.2107 -0.5642  1.2120
   42CHL1  H27B 4287   5.554   3.585   4.530  0.9421 -1.2701 -0.9786
   42CHL1  H27C 4288   5.493   3.460   4.635  2.9191 -0.1146 -0.7157
   43CHL1    C3 4289   6.408   1.964   6.141  0.8797 -0.7613 -0.2175
   43CHL1    H3 4290   6.306   1.928   6.117  0.6502 -1.0091  1.0309
   43CHL1    O3 4291   6.399   1.967   6.281  0.8094  0.8178  0.4979
   43CHL1   H3' 4292   6.492   1.972   6.307  1.2567 -0.1714 -0.8275
   43CHL1    C4 4293   6.514   1.874   6.083  0.1841 -0.0936  0.3567
   43CHL1   H4A 4294   6.617   1.897   6.117  0.9185 -0.4438 -1.4635
   43CHL1   H4B 4295   6.485   1.771   6.115  1.7207 -0.4896  0.5454
   43CHL1    C5 4296   6.518   1.869   5.930 -0.8110  0.0104 -0.1039
   43CHL1    C6 4297   6.518   1.756   5.851 -0.4811 -0.1018  0.6370
   43CHL1    H6 4298   6.515   1.656   5.896 -0.2169 -0.5463 -0.3098
   43CHL1    C7 4299   6.535   1.759   5.698  0.3434 -0.4753 -0.7193
   43CHL1   H7A 4300   6.595   1.672   5.664 -0.3559 -0.9870 -0.6618
   43CHL1   H7B 4301   6.432   1.748   5.657 -0.9241  1.1978  1.7047
   43CHL1    C8 4302   6.581   1.902   5.638 -0.0678  0.7943 -0.2399
   43CHL1    H8 4303   6.692   1.910   5.645  0.4298 -0.6110 -4.0760
   43CHL1   C14 4304   6.545   1.919   5.496 -0.8481 -0.0022  0.1002
   43CHL1   H14 4305   6.434   1.922   5.492 -0.9255  0.5524  1.6607
   43CHL1   C15 4306   6.571   1.803   5.390 -0.2396 -0.2855 -0.1213
   43CHL1  H15A 4307   6.680   1.781   5.387  1.1198  5.1529 -0.7892
   43CHL1  H15B 4308   6.505   1.718   5.418 -1.3352  1.1041  1.8492
   43CHL1   C16 4309   6.544   1.866   5.255  0.2375  0.4446 -0.5200
   43CHL1  H16A 4310   6.622   1.833   5.183  1.1030  1.8267 -0.2722
   43CHL1  H16B 4311   6.453   1.820   5.212  1.0867 -3.0430  1.0388
   43CHL1   C17 4312   6.517   2.019   5.291 -1.3907  0.2217  0.8115
   43CHL1   H17 4313   6.409   2.045   5.298 -1.5804 -0.3714  0.1311
   43CHL1   C13 4314   6.586   2.050   5.431  0.2205  0.0031 -0.1459
   43CHL1   C18 4315   6.738   2.061   5.409  0.6328 -0.0940  0.7264
   43CHL1  H18A 4316   6.781   1.985   5.340  0.0979  1.0168 -0.8941
   43CHL1  H18B 4317   6.767   2.166   5.387 -2.1733  0.4285 -1.0614
   43CHL1  H18C 4318   6.789   2.043   5.505  0.1392 -0.3149  0.9526
   43CHL1   C12 4319   6.522   2.170   5.500 -0.4087 -0.3925 -0.1319
   43CHL1  H12A 4320   6.561   2.266   5.460  0.1955  1.2923  3.9880
   43CHL1  H12B 4321   6.412   2.165   5.488 -0.6860  2.5292  0.4498
   43CHL1   C11 4322   6.546   2.155   5.653  0.5672  0.3522  0.1543
   43CHL1  H11A 4323   6.653   2.179   5.672 -0.5122  2.0684  6.0739
   43CHL1  H11B 4324   6.477   2.225   5.706 -1.0471 -0.5177 -0.7172
   43CHL1    C9 4325   6.510   2.013   5.718  0.0352 -0.3098 -0.0550
   43CHL1    H9 4326   6.403   1.990   5.702  0.3636 -0.5302 -2.2283
   43CHL1   C10 4327   6.529   2.016   5.873  0.6818 -0.3801  0.5462
   43CHL1   C19 4328   6.668   2.066   5.901  0.1217 -0.0971  0.9437
   43CHL1  H19A 4329   6.745   2.002   5.853  0.2929  1.3214 -0.7623
   43CHL1  H19B 4330   6.688   2.169   5.867  1.5046 -1.3293 -2.4236
   43CHL1  H19C 4331   6.691   2.061   6.010  3.6548 -1.3696  0.2673
   43CHL1    C1 4332   6.415   2.102   5.938 -0.9906  0.2496  0.3965
   43CHL1   H1A 4333   6.426   2.205   5.898  2.3573 -0.8850 -2.1099
   43CHL1   H1B 4334   6.315   2.076   5.899 -0.5068  1.1585 -1.5606
   43CHL1    C2 4335   6.410   2.113   6.093 -0.2926 -0.2238  1.3821
   43CHL1   H2A 4336   6.318   2.170   6.118 -0.4697  0.4166 -0.5742
   43CHL1   H2B 4337   6.508   2.158   6.121  0.9232 -1.5396 -0.5588
   43CHL1   C20 4338   6.562   2.110   5.173  0.1068  0.1418  0.1518
   43CHL1   H20 4339   6.672   2.114   5.161 -0.0255  2.8835 -1.0675
   43CHL1   C21 4340   6.511   2.258   5.188  0.1382 -0.2060 -0.8225
   43CHL1  H21A 4341   6.582   2.308   5.258  1.6869 -0.6464 -2.0144
   43CHL1  H21B 4342   6.411   2.267   5.234  1.5721  1.2727  2.3291
   43CHL1  H21C 4343   6.509   2.306   5.088  3.7918 -0.3676 -1.1121
   43CHL1   C22 4344   6.505   2.055   5.039 -0.1226 -0.8153 -0.6733
   43CHL1  H22A 4345   6.496   1.946   5.023  1.5522 -1.2500  0.9784
   43CHL1  H22B 4346   6.405   2.103   5.036 -0.3343 -1.1440  0.5257
   43CHL1   C23 4347   6.602   2.092   4.928 -0.2672 -0.7714  0.7790
   43CHL1  H23A 4348   6.650   2.192   4.938  0.0295 -0.6524 -1.3512
   43CHL1  H23B 4349   6.686   2.021   4.939  1.1966  1.0383  1.8618
   43CHL1   C24 4350   6.531   2.088   4.792  0.8738  0.1423  0.2805
   43CHL1  H24A 4351   6.490   1.987   4.772 -1.6009  1.5785 -2.8329
   43CHL1  H24B 4352   6.438   2.149   4.793 -0.0074 -1.1714  0.1836
   43CHL1   C25 4353   6.602   2.151   4.672 -0.7175  0.1642  0.2189
   43CHL1   H25 4354   6.624   2.257   4.695  0.0185  0.3435 -1.2085
   43CHL1   C26 4355   6.733   2.072   4.649  0.0376 -0.5451 -0.2148
   43CHL1  H26A 4356   6.806   2.117   4.578  0.9894 -1.7850 -0.0559
   43CHL1  H26B 4357   6.791   2.063   4.743  0.5733 -0.7127 -0.5581
   43CHL1  H26C 4358   6.720   1.966   4.619  2.7190 -1.1573  0.5327
   43CHL1   C27 4359   6.522   2.139   4.539  0.3948 -0.1985 -0.1607
   43CHL1  H27A 4360   6.560   2.207   4.460 -2.5528  0.4221 -1.1556
   43CHL1  H27B 4361   6.506   2.034   4.505  3.0585 -1.0812  1.0123
   43CHL1  H27C 4362   6.424   2.185   4.564  0.1985 -0.1126 -1.0587
   44CHL1    C3 4363   6.856   2.829   5.890  0.7001 -0.3955 -0.5081
   44CHL1    H3 4364   6.855   2.720   5.872  0.0859 -0.5525  0.3996
   44CHL1    O3 4365   6.868   2.863   6.030  0.0020  0.2133 -0.5272
   44CHL1   H3' 4366   6.962   2.860   6.048 -0.1329 -0.3096  0.1229
   44CHL1    C4 4367   6.978   2.885   5.817 -0.5124  0.1696 -0.7867
   44CHL1   H4A 4368   7.013   2.986   5.849  1.7888 -0.5503 -0.8731
   44CHL1   H4B 4369   7.065   2.828   5.857  0.1647  1.2920 -0.6191
   44CHL1    C5 4370   6.967   2.879   5.671 -0.8374  0.8010  0.1390
   44CHL1    C6 4371   7.056   2.811   5.600 -0.5530 -1.1776 -0.0130
   44CHL1    H6 4372   7.142   2.768   5.654  0.3558 -1.3550 -1.5444
   44CHL1    C7 4373   7.053   2.785   5.451 -0.0596  0.5999 -0.6738
   44CHL1   H7A 4374   7.154   2.796   5.405 -1.5171 -0.0943 -4.3646
   44CHL1   H7B 4375   7.016   2.681   5.434 -0.6101  0.7068 -0.1637
   44CHL1    C8 4376   6.957   2.884   5.382  0.0690 -0.9719 -0.3964
   44CHL1    H8 4377   6.998   2.987   5.389 -1.3933 -0.3918 -0.1930
   44CHL1   C14 4378   6.944   2.843   5.239 -0.0868  0.0184 -0.5288
   44CHL1   H14 4379   6.919   2.735   5.241  0.4537 -0.1169  2.3279
   44CHL1   C15 4380   7.071   2.841   5.154 -0.6466  0.5671 -0.2051
   44CHL1  H15A 4381   7.123   2.938   5.166  0.9332  0.4641 -4.4228
   44CHL1  H15B 4382   7.140   2.755   5.175 -2.1816 -1.0248 -1.3836
   44CHL1   C16 4383   7.015   2.838   5.009 -0.6558 -0.6268  0.3540
   44CHL1  H16A 4384   7.076   2.903   4.943 -2.3921 -0.4452 -1.1716
   44CHL1  H16B 4385   7.033   2.742   4.957  1.1539 -0.0349 -0.1916
   44CHL1   C17 4386   6.860   2.867   5.015 -0.4274  0.0219 -0.2180
   44CHL1   H17 4387   6.815   2.765   5.015 -1.8908  0.6300  0.5172
   44CHL1   C13 4388   6.839   2.922   5.156  0.0704  0.3404 -0.2032
   44CHL1   C18 4389   6.881   3.068   5.152 -0.3045  0.8310  0.2091
   44CHL1  H18A 4390   6.979   3.091   5.105 -0.5420  1.7668  0.1640
   44CHL1  H18B 4391   6.809   3.108   5.078 -0.8102 -1.5175 -0.6759
   44CHL1  H18C 4392   6.881   3.124   5.248  3.4632  0.4398  0.5957
   44CHL1   C12 4393   6.702   2.896   5.234  0.2338 -0.2948  1.0262
   44CHL1  H12A 4394   6.622   2.956   5.185 -0.3058 -1.2677  0.7050
   44CHL1  H12B 4395   6.671   2.790   5.240 -0.1867 -0.2285  0.0551
   44CHL1   C11 4396   6.712   2.945   5.380 -0.3454 -0.0924  0.3015
   44CHL1  H11A 4397   6.726   3.055   5.376  0.7515 -0.2161  0.5319
   44CHL1  H11B 4398   6.616   2.919   5.429 -1.2004  1.7272 -0.3061
   44CHL1    C9 4399   6.827   2.884   5.464  0.7376 -0.4737 -0.1430
   44CHL1    H9 4400   6.808   2.774   5.460  1.9846 -0.6914 -0.6448
   44CHL1   C10 4401   6.840   2.932   5.612  0.4290  0.5974  0.7474
   44CHL1   C19 4402   6.843   3.087   5.613 -0.3446 -0.0903  0.4330
   44CHL1  H19A 4403   6.919   3.119   5.539  0.0761  2.0010  1.6848
   44CHL1  H19B 4404   6.747   3.130   5.580  1.3385  1.9941 -2.1462
   44CHL1  H19C 4405   6.867   3.132   5.712  2.9487  0.0615 -0.3140
   44CHL1    C1 4406   6.717   2.884   5.693 -0.0669 -0.2653  0.4618
   44CHL1   H1A 4407   6.638   2.943   5.643  1.0879 -0.8082 -2.1800
   44CHL1   H1B 4408   6.699   2.776   5.670 -0.5610 -0.4716  1.7706
   44CHL1    C2 4409   6.726   2.903   5.843 -0.3917 -0.1079  0.2745
   44CHL1   H2A 4410   6.638   2.869   5.900 -1.3413  0.4980 -0.7933
   44CHL1   H2B 4411   6.737   3.012   5.859  0.3307 -0.2494  0.8321
   44CHL1   C20 4412   6.800   2.934   4.890 -0.4168 -0.0983 -0.8710
   44CHL1   H20 4413   6.836   3.039   4.879 -0.2290 -0.1165 -0.4345
   44CHL1   C21 4414   6.650   2.919   4.894 -0.7206 -0.2408 -0.7010
   44CHL1  H21A 4415   6.608   2.966   4.985  0.5910  2.7910 -1.5407
   44CHL1  H21B 4416   6.612   2.815   4.887 -1.5196  0.0437 -0.6425
   44CHL1  H21C 4417   6.602   2.974   4.811 -0.0548 -0.1820 -1.0610
   44CHL1   C22 4418   6.849   2.862   4.756 -0.2897  0.5390 -0.4306
   44CHL1  H22A 4419   6.960   2.867   4.750 -0.2573  1.6923  0.7081
   44CHL1  H22B 4420   6.824   2.754   4.749  1.3811  0.1419 -0.6904
   44CHL1   C23 4421   6.791   2.930   4.623  0.0684 -0.2987 -0.1048
   44CHL1  H23A 4422   6.809   2.860   4.539  0.3176 -0.1550 -0.1730
   44CHL1  H23B 4423   6.682   2.949   4.632  0.5286  1.9890  1.7959
   44CHL1   C24 4424   6.852   3.074   4.589 -0.6536 -0.5996  0.0900
   44CHL1  H24A 4425   6.870   3.134   4.680  1.2459 -1.3647  0.2546
   44CHL1  H24B 4426   6.953   3.058   4.545 -0.7388  0.2159 -0.4165
   44CHL1   C25 4427   6.759   3.145   4.488  0.9782  1.3164  0.3989
   44CHL1   H25 4428   6.739   3.090   4.394 -0.5811  1.7053  0.4725
   44CHL1   C26 4429   6.619   3.187   4.544  0.0301 -0.1920 -0.3597
   44CHL1  H26A 4430   6.594   3.279   4.488  0.8143 -1.0552 -2.2065
   44CHL1  H26B 4431   6.540   3.110   4.528  0.9184 -1.7692  2.2366
   44CHL1  H26C 4432   6.633   3.213   4.651  2.1771 -0.7985 -0.4515
   44CHL1   C27 4433   6.828   3.279   4.462 -0.2187 -0.1673  0.0646
   44CHL1  H27A 4434   6.854   3.335   4.554  0.5995 -2.9192  1.6196
   44CHL1  H27B 4435   6.928   3.260   4.417 -0.0577 -0.6455  0.6258
   44CHL1  H27C 4436   6.778   3.357   4.400  0.5683  0.8441  0.6541
   45CHL1    C3 4437   0.189   3.947   5.955 -0.1056  0.4741 -0.5611
   45CHL1    H3 4438   0.291   3.903   5.964 -1.3539 -2.2752  2.0355
   45CHL1    O3 4439   0.126   3.901   6.074 -0.2829 -0.2946 -0.2742
   45CHL1   H3' 4440   0.170   3.823   6.109  1.8164  1.4149  1.2064
   45CHL1    C4 4441   0.188   4.101   5.961  0.1103  0.5408 -0.2713
   45CHL1   H4A 4442   0.084   4.138   5.974  0.2849  0.9396  0.0284
   45CHL1   H4B 4443   0.237   4.129   6.056  3.5503 -0.2497 -1.6848
   45CHL1    C5 4444   0.239   4.159   5.827 -0.1348 -0.6349  0.1774
   45CHL1    C6 4445   0.329   4.256   5.826 -0.2990 -0.0157 -0.2363
   45CHL1    H6 4446   0.374   4.295   5.919  0.7701  0.4550 -0.9306
   45CHL1    C7 4447   0.380   4.327   5.706  0.1630 -0.9055  0.4721
   45CHL1   H7A 4448   0.381   4.438   5.709  2.8687 -0.8840  0.4679
   45CHL1   H7B 4449   0.487   4.300   5.698  0.2572 -0.2857 -0.5990
   45CHL1    C8 4450   0.291   4.288   5.576  1.0019  0.3082  0.8365
   45CHL1    H8 4451   0.204   4.356   5.564  1.0555 -0.0479 -2.4187
   45CHL1   C14 4452   0.368   4.319   5.447  0.1838  0.4286  0.3694
   45CHL1   H14 4453   0.454   4.250   5.446 -0.0848 -0.0086 -2.4988
   45CHL1   C15 4454   0.429   4.463   5.428 -0.2424  0.6625  0.0833
   45CHL1  H15A 4455   0.359   4.548   5.444 -0.0114  0.8115  0.2936
   45CHL1  H15B 4456   0.515   4.480   5.495  2.8530 -3.2633 -2.4179
   45CHL1   C16 4457   0.469   4.470   5.282 -0.5405  0.1338  0.7668
   45CHL1  H16A 4458   0.421   4.558   5.235 -2.7994 -2.0548 -1.2959
   45CHL1  H16B 4459   0.579   4.462   5.271 -0.8498 -0.8387 -2.8852
   45CHL1   C17 4460   0.409   4.347   5.210 -0.6410  0.2585 -0.5622
   45CHL1   H17 4461   0.489   4.270   5.205  0.3844  1.2364  0.2501
   45CHL1   C13 4462   0.297   4.291   5.310 -0.1124  1.1030  0.1690
   45CHL1   C18 4463   0.167   4.385   5.297  0.5806  0.5510 -0.1423
   45CHL1  H18A 4464   0.200   4.490   5.311  1.8520 -0.0008  1.2531
   45CHL1  H18B 4465   0.110   4.382   5.202  0.4872 -2.0408 -0.0912
   45CHL1  H18C 4466   0.091   4.371   5.377 -0.2463 -0.1878 -1.0278
   45CHL1   C12 4467   0.255   4.143   5.302 -0.3521 -0.1546  0.4514
   45CHL1  H12A 4468   0.201   4.134   5.205  1.1831 -0.8054 -0.3709
   45CHL1  H12B 4469   0.351   4.088   5.290  0.4430  0.9777  1.4166
   45CHL1   C11 4470   0.181   4.101   5.430  0.0681  0.1113  0.0167
   45CHL1  H11A 4471   0.081   4.150   5.428 -0.6242 -1.2417 -1.3297
   45CHL1  H11B 4472   0.175   3.990   5.420  0.4609 -0.1979  2.5886
   45CHL1    C9 4473   0.251   4.142   5.564  1.1415 -0.0918  0.4749
   45CHL1    H9 4474   0.348   4.088   5.558  0.2493 -1.5672 -1.6377
   45CHL1   C10 4475   0.175   4.098   5.697  0.9493 -0.5502 -0.4183
   45CHL1   C19 4476   0.029   4.143   5.685 -0.7415  0.4153 -0.6675
   45CHL1  H19A 4477  -0.032   4.119   5.775  0.4643  1.6988  0.5458
   45CHL1  H19B 4478   0.035   4.254   5.674  0.2371  0.8459  2.7971
   45CHL1  H19C 4479  -0.027   4.104   5.597 -0.7989  1.5123 -1.1344
   45CHL1    C1 4480   0.184   3.941   5.718 -0.6814 -0.3308  0.4334
   45CHL1   H1A 4481   0.140   3.891   5.630  0.5062  1.9048 -1.5641
   45CHL1   H1B 4482   0.292   3.915   5.706 -0.0109  2.3862 -0.3216
   45CHL1    C2 4483   0.116   3.882   5.837 -0.1885  0.8358  0.4853
   45CHL1   H2A 4484   0.108   3.771   5.834  0.7928  0.7585  0.3936
   45CHL1   H2B 4485   0.011   3.918   5.835 -0.9023 -1.1320 -0.5135
   45CHL1   C20 4486   0.372   4.371   5.066  0.4828 -0.0777  0.3916
   45CHL1   H20 4487   0.278   4.430   5.066 -0.0175 -0.8541  0.2887
   45CHL1   C21 4488   0.336   4.236   4.989  0.0455 -0.5830  0.4635
   45CHL1  H21A 4489   0.330   4.248   4.878 -0.5544  0.7820  0.6252
   45CHL1  H21B 4490   0.233   4.200   5.014  0.1097 -1.3614 -0.3369
   45CHL1  H21C 4491   0.405   4.151   5.005  0.6596 -0.2811 -0.4875
   45CHL1   C22 4492   0.488   4.450   4.990 -0.3219  0.4070  0.2302
   45CHL1  H22A 4493   0.519   4.542   5.044 -0.0327 -0.4210  1.5355
   45CHL1  H22B 4494   0.578   4.386   4.990 -0.0172  0.7609  2.3082
   45CHL1   C23 4495   0.459   4.479   4.848  0.2070 -0.6098  0.3244
   45CHL1  H23A 4496   0.475   4.389   4.784 -1.1237 -0.9269  0.3895
   45CHL1  H23B 4497   0.352   4.510   4.854  0.3609 -0.2851  1.4731
   45CHL1   C24 4498   0.526   4.600   4.791 -0.3697 -0.2775  0.2824
   45CHL1  H24A 4499   0.503   4.687   4.856  2.0447 -0.2277  1.2027
   45CHL1  H24B 4500   0.637   4.588   4.790 -0.1154  1.6515 -1.5852
   45CHL1   C25 4501   0.485   4.642   4.644 -0.0057  0.2467  0.0759
   45CHL1   H25 4502   0.374   4.642   4.651 -0.2156 -1.1671 -2.2617
   45CHL1   C26 4503   0.534   4.778   4.606 -0.3894  0.5321  0.1178
   45CHL1  H26A 4504   0.631   4.771   4.551 -1.0270  0.8643 -1.0779
   45CHL1  H26B 4505   0.466   4.813   4.526 -1.2817  1.9536  1.4433
   45CHL1  H26C 4506   0.545   4.850   4.690 -0.9157 -0.2183  0.8313
   45CHL1   C27 4507   0.523   4.532   4.542 -0.4313 -0.4001 -0.7344
   45CHL1  H27A 4508   0.448   4.451   4.549  1.7802 -2.6466 -1.6098
   45CHL1  H27B 4509   0.512   4.569   4.438  2.1778 -2.7731 -1.9964
   45CHL1  H27C 4510   0.629   4.502   4.559 -0.1781  0.8759  0.1732
   46CHL1    C3 4511   1.947   6.253   5.874 -0.1001 -0.4506  0.4942
   46CHL1    H3 4512   1.951   6.142   5.867 -0.4242 -0.3831 -1.2273
   46CHL1    O3 4513   1.889   6.300   5.998  0.2488  0.0100 -0.5432
   46CHL1   H3' 4514   1.896   6.395   6.010  1.7561 -0.1774  0.4023
   46CHL1    C4 4515   2.087   6.306   5.874  0.4353  1.0524  0.2816
   46CHL1   H4A 4516   2.086   6.413   5.903 -2.7949  1.0385  0.5567
   46CHL1   H4B 4517   2.152   6.248   5.943  1.4800 -0.0659 -1.5489
   46CHL1    C5 4518   2.148   6.302   5.739 -0.4896 -0.2849  0.3544
   46CHL1    C6 4519   2.274   6.253   5.723 -0.2556 -0.2074 -0.3367
   46CHL1    H6 4520   2.323   6.208   5.810 -1.4091  0.7570  0.8423
   46CHL1    C7 4521   2.345   6.262   5.592 -0.4960  0.6823 -0.0169
   46CHL1   H7A 4522   2.442   6.307   5.621  0.2896 -0.8284 -0.2033
   46CHL1   H7B 4523   2.364   6.159   5.554  2.9841  1.4205 -0.5335
   46CHL1    C8 4524   2.275   6.354   5.484  0.3164  0.1691  0.2853
   46CHL1    H8 4525   2.297   6.460   5.511  1.0605  0.0834  0.0422
   46CHL1   C14 4526   2.344   6.331   5.351  0.1247 -0.1786  0.6716
   46CHL1   H14 4527   2.329   6.224   5.324 -0.1673 -0.2581  1.1197
   46CHL1   C15 4528   2.495   6.349   5.338  0.3162  0.7160  1.5550
   46CHL1  H15A 4529   2.521   6.447   5.383  0.4427  0.0253  3.0569
   46CHL1  H15B 4530   2.553   6.261   5.375 -0.5419  0.6062  2.6783
   46CHL1   C16 4531   2.515   6.362   5.185  0.6577 -0.5801  0.1427
   46CHL1  H16A 4532   2.580   6.446   5.154  2.3685 -2.1395 -0.6500
   46CHL1  H16B 4533   2.559   6.269   5.144  1.7775 -0.3868  0.8492
   46CHL1   C17 4534   2.373   6.365   5.116 -0.1220  0.5917 -0.3550
   46CHL1   H17 4535   2.351   6.257   5.099 -0.5345  0.5464  0.3916
   46CHL1   C13 4536   2.279   6.411   5.230  0.2495  0.5545  0.0975
   46CHL1   C18 4537   2.302   6.561   5.249  0.0125 -0.4416 -0.1101
   46CHL1  H18A 4538   2.233   6.594   5.329 -1.6126  1.0825 -2.0234
   46CHL1  H18B 4539   2.409   6.588   5.261 -0.3666  2.1439 -1.7100
   46CHL1  H18C 4540   2.266   6.628   5.168 -2.4701 -1.2468  0.2447
   46CHL1   C12 4541   2.136   6.362   5.227  0.2478  0.7670 -0.0055
   46CHL1  H12A 4542   2.074   6.412   5.150 -0.8731  0.8516  0.9222
   46CHL1  H12B 4543   2.134   6.254   5.201  0.3973  1.3301 -2.6349
   46CHL1   C11 4544   2.050   6.386   5.358 -0.0259  0.3243 -0.3395
   46CHL1  H11A 4545   2.042   6.497   5.362 -0.8331  0.2259  2.5262
   46CHL1  H11B 4546   1.954   6.336   5.335  0.7226 -1.0678 -0.5450
   46CHL1    C9 4547   2.128   6.322   5.480 -1.1078  0.4739 -0.4185
   46CHL1    H9 4548   2.111   6.213   5.468  0.1738  0.2151 -0.0462
   46CHL1   C10 4549   2.070   6.357   5.617  0.7005 -0.4210 -0.3791
   46CHL1   C19 4550   2.062   6.513   5.627 -0.6347 -0.2677  0.0298
   46CHL1  H19A 4551   2.156   6.568   5.606 -1.8560  1.8322 -0.2174
   46CHL1  H19B 4552   1.975   6.547   5.566  0.6825 -2.2063 -3.1838
   46CHL1  H19C 4553   2.039   6.541   5.732  0.8335 -1.7242  0.7949
   46CHL1    C1 4554   1.922   6.302   5.627  0.0081 -0.1158 -0.8806
   46CHL1   H1A 4555   1.852   6.350   5.555 -2.3060  0.1183  1.3918
   46CHL1   H1B 4556   1.931   6.195   5.599  0.1783 -0.1110 -0.8404
   46CHL1    C2 4557   1.857   6.316   5.765 -0.1249  1.1388  0.1826
   46CHL1   H2A 4558   1.760   6.264   5.751  0.3029  0.5958 -0.8525
   46CHL1   H2B 4559   1.823   6.418   5.792 -3.4633 -0.1215  1.2652
   46CHL1   C20 4560   2.382   6.426   4.975 -0.8125  0.3079 -0.4429
   46CHL1   H20 4561   2.424   6.529   4.975  2.9034 -0.9913 -2.8126
   46CHL1   C21 4562   2.238   6.444   4.923  0.4807 -0.7370 -0.0366
   46CHL1  H21A 4563   2.246   6.491   4.822  2.2375 -1.3267 -0.2025
   46CHL1  H21B 4564   2.192   6.521   4.988  1.8242  0.1911 -0.1265
   46CHL1  H21C 4565   2.180   6.350   4.916  0.0880 -0.5262  0.3178
   46CHL1   C22 4566   2.489   6.348   4.892 -0.0523  0.3018  0.5248
   46CHL1  H22A 4567   2.588   6.369   4.939  0.4480 -1.2206  0.2093
   46CHL1  H22B 4568   2.483   6.237   4.900  0.3378  0.2307 -0.1285
   46CHL1   C23 4569   2.496   6.378   4.740 -0.1791  0.0658 -0.5532
   46CHL1  H23A 4570   2.396   6.376   4.692  0.3889 -2.0838 -1.7679
   46CHL1  H23B 4571   2.535   6.482   4.731  0.7905 -0.2014  0.3996
   46CHL1   C24 4572   2.587   6.278   4.665 -0.0560  0.2349 -0.3809
   46CHL1  H24A 4573   2.679   6.278   4.727 -1.7561  1.1973  2.2779
   46CHL1  H24B 4574   2.538   6.178   4.671 -1.7072  1.0899  1.9954
   46CHL1   C25 4575   2.608   6.307   4.521  0.5101  0.8299  0.5526
   46CHL1   H25 4576   2.640   6.413   4.509  2.7421 -0.0744 -3.2355
   46CHL1   C26 4577   2.725   6.219   4.467 -0.3793  0.0287 -0.0516
   46CHL1  H26A 4578   2.821   6.233   4.522 -0.0504 -0.1849 -0.5690
   46CHL1  H26B 4579   2.692   6.113   4.471 -0.6818  0.1500  0.8486
   46CHL1  H26C 4580   2.747   6.255   4.365  0.5914 -1.9289 -0.5885
   46CHL1   C27 4581   2.479   6.288   4.434 -0.5529  0.7749  0.3741
   46CHL1  H27A 4582   2.445   6.183   4.449  0.6610  0.1033 -1.2988
   46CHL1  H27B 4583   2.399   6.359   4.463 -1.3104 -0.4339  1.3184
   46CHL1  H27C 4584   2.485   6.294   4.323  0.0609 -0.9731  0.2878
   47CHL1    C3 4585   3.822   4.869   5.950  1.2238 -0.5418 -0.1038
   47CHL1    H3 4586   3.928   4.889   5.923  1.9434 -3.9978 -0.3895
   47CHL1    O3 4587   3.819   4.875   6.093  0.0360  0.9524 -0.0449
   47CHL1   H3' 4588   3.743   4.926   6.121  0.4981  0.7993  1.5424
   47CHL1    C4 4589   3.718   4.968   5.894  0.3057 -0.8000  0.2317
   47CHL1   H4A 4590   3.615   4.940   5.923  0.0998  0.3094  0.6354
   47CHL1   H4B 4591   3.737   5.063   5.949  0.1440 -1.7848  2.0639
   47CHL1    C5 4592   3.745   4.980   5.743  0.1270 -0.1233  0.1155
   47CHL1    C6 4593   3.792   5.092   5.689  1.1264 -0.0979 -0.2979
   47CHL1    H6 4594   3.833   5.169   5.756  0.7149 -0.6593  0.6168
   47CHL1    C7 4595   3.804   5.117   5.538  0.2688  0.0033  0.2560
   47CHL1   H7A 4596   3.751   5.208   5.502  2.2233  0.9352 -0.3904
   47CHL1   H7B 4597   3.910   5.136   5.511  0.0749  0.2293 -0.3762
   47CHL1    C8 4598   3.741   4.994   5.452  0.3294 -0.4983 -0.6397
   47CHL1    H8 4599   3.631   5.010   5.453  0.3056 -0.7120 -0.1073
   47CHL1   C14 4600   3.789   4.993   5.305 -0.8589 -0.7775 -0.9794
   47CHL1   H14 4601   3.900   4.989   5.309 -0.8421 -0.0281 -0.4991
   47CHL1   C15 4602   3.774   5.124   5.231  0.2106 -0.4400  0.3255
   47CHL1  H15A 4603   3.672   5.164   5.248  1.5855  2.6511  2.2193
   47CHL1  H15B 4604   3.843   5.207   5.256  0.4898  0.0527 -1.8521
   47CHL1   C16 4605   3.782   5.079   5.082 -0.8802 -0.3845  0.2409
   47CHL1  H16A 4606   3.697   5.120   5.024 -0.8075 -1.4525 -0.6596
   47CHL1  H16B 4607   3.883   5.118   5.057 -0.5631 -0.1605  1.7911
   47CHL1   C17 4608   3.795   4.925   5.082 -0.1150  0.1572  0.1491
   47CHL1   H17 4609   3.904   4.903   5.079 -0.4647 -1.6663 -0.7071
   47CHL1   C13 4610   3.737   4.885   5.223  0.1633  0.4949  0.7375
   47CHL1   C18 4611   3.581   4.892   5.223 -0.2318 -0.0440  0.0654
   47CHL1  H18A 4612   3.540   4.814   5.155  0.7184 -0.9155  0.4728
   47CHL1  H18B 4613   3.527   4.881   5.319 -2.4051 -2.3617 -1.2719
   47CHL1  H18C 4614   3.554   4.991   5.179  0.8194 -0.2022 -0.9997
   47CHL1   C12 4615   3.789   4.754   5.286 -0.5069 -0.4599  0.9420
   47CHL1  H12A 4616   3.764   4.664   5.225  0.5823  0.0021 -0.2252
   47CHL1  H12B 4617   3.900   4.758   5.288 -0.3528  1.2541 -3.0328
   47CHL1   C11 4618   3.740   4.733   5.428  0.0225  0.0591  0.5728
   47CHL1  H11A 4619   3.639   4.691   5.413 -0.0568 -0.0834  1.4400
   47CHL1  H11B 4620   3.792   4.646   5.475  0.3529  0.3581  0.7652
   47CHL1    C9 4621   3.769   4.856   5.515  0.8094  0.7416 -0.2206
   47CHL1    H9 4622   3.879   4.841   5.520  0.7337  0.6415  2.9752
   47CHL1   C10 4623   3.719   4.849   5.665  0.4372  0.1313 -0.1125
   47CHL1   C19 4624   3.567   4.812   5.658 -0.3028 -0.2116  0.6436
   47CHL1  H19A 4625   3.505   4.893   5.614  0.0118 -1.1521 -1.6698
   47CHL1  H19B 4626   3.543   4.725   5.593 -1.2895  1.3566 -1.1835
   47CHL1  H19C 4627   3.525   4.788   5.758 -0.7766 -0.3902  0.4052
   47CHL1    C1 4628   3.792   4.734   5.735  1.0646 -0.1118  0.0781
   47CHL1   H1A 4629   3.747   4.634   5.715 -0.1177  0.8878 -2.6688
   47CHL1   H1B 4630   3.902   4.734   5.720  1.2375 -1.2823  1.0894
   47CHL1    C2 4631   3.775   4.737   5.888 -0.1165  0.0206  0.1339
   47CHL1   H2A 4632   3.838   4.661   5.940  0.8150  1.0914  0.6110
   47CHL1   H2B 4633   3.672   4.724   5.927 -0.0047  0.3198  0.5304
   47CHL1   C20 4634   3.733   4.866   4.959 -0.1908  0.3203 -0.3511
   47CHL1   H20 4635   3.626   4.891   4.945 -0.3662  0.2635  0.8113
   47CHL1   C21 4636   3.727   4.707   4.961  0.3025  0.4741  0.5050
   47CHL1  H21A 4637   3.671   4.670   4.873 -1.7908 -1.9725  2.6732
   47CHL1  H21B 4638   3.677   4.665   5.051  2.7891 -1.4036  1.1113
   47CHL1  H21C 4639   3.826   4.659   4.944 -0.6878 -0.7851 -2.2316
   47CHL1   C22 4640   3.801   4.918   4.836  0.4295  0.3506  0.9841
   47CHL1  H22A 4641   3.765   5.021   4.818  2.2363  1.2359  2.0893
   47CHL1  H22B 4642   3.911   4.914   4.852  0.7753  2.9669 -0.1311
   47CHL1   C23 4643   3.785   4.837   4.702 -0.7286 -0.2119 -0.1827
   47CHL1  H23A 4644   3.815   4.732   4.726 -0.3032  0.0291  0.3856
   47CHL1  H23B 4645   3.685   4.843   4.655  0.0275  0.8646 -1.7585
   47CHL1   C24 4646   3.877   4.887   4.588 -0.3892 -0.1579  0.0729
   47CHL1  H24A 4647   3.879   4.998   4.579  3.5803  0.0379  1.3400
   47CHL1  H24B 4648   3.979   4.852   4.614  0.7185  2.8403  0.1542
   47CHL1   C25 4649   3.848   4.828   4.448  0.0447 -0.2370  0.4710
   47CHL1   H25 4650   3.740   4.837   4.424  0.5689  2.7021 -1.2289
   47CHL1   C26 4651   3.923   4.907   4.335  1.1597 -0.5702 -0.0108
   47CHL1  H26A 4652   3.883   4.872   4.238 -2.8354  0.4185  1.0803
   47CHL1  H26B 4653   3.894   5.014   4.332  1.3642 -0.5322 -0.7257
   47CHL1  H26C 4654   4.032   4.888   4.340  1.1751 -0.1596  1.8958
   47CHL1   C27 4655   3.872   4.679   4.445  0.7017 -0.9612  0.0074
   47CHL1  H27A 4656   3.861   4.644   4.340  0.5900 -1.4422  0.1746
   47CHL1  H27B 4657   3.978   4.661   4.473  1.4782  2.7878 -0.0775
   47CHL1  H27C 4658   3.810   4.619   4.515  2.2914 -3.1598 -0.3617
   48CHL1    C3 4659   1.558   6.055   5.940  0.0129  0.1536  0.0727
   48CHL1    H3 4660   1.569   6.152   5.886 -0.1365  0.8170  1.2002
   48CHL1    O3 4661   1.595   6.077   6.071 -0.0456 -0.1569 -0.1216
   48CHL1   H3' 4662   1.593   5.987   6.104  0.7799 -0.1767 -0.0898
   48CHL1    C4 4663   1.408   6.019   5.931  0.0639 -0.4915  1.0555
   48CHL1   H4A 4664   1.407   5.943   6.012  0.0400  0.7728  2.2906
   48CHL1   H4B 4665   1.349   6.100   5.978 -0.2471 -0.1339  0.0711
   48CHL1    C5 4666   1.352   5.998   5.792 -0.7532 -0.0351  0.8486
   48CHL1    C6 4667   1.253   6.079   5.737 -0.3808 -0.3948 -0.3448
   48CHL1    H6 4668   1.216   6.165   5.793  0.1707  0.5226 -1.3513
   48CHL1    C7 4669   1.201   6.062   5.597 -0.2733  0.4856 -0.6323
   48CHL1   H7A 4670   1.091   6.077   5.604  0.0234  2.1571  1.9432
   48CHL1   H7B 4671   1.238   6.145   5.533 -0.1112 -0.9584 -2.4975
   48CHL1    C8 4672   1.245   5.927   5.536  0.0267  0.8814  0.2232
   48CHL1    H8 4673   1.193   5.844   5.588  0.7359  0.4881  0.3103
   48CHL1   C14 4674   1.236   5.928   5.383  0.1885 -0.3526 -0.3383
   48CHL1   H14 4675   1.309   6.007   5.358  1.8703 -0.9517  2.3305
   48CHL1   C15 4676   1.093   5.982   5.331  0.2805  0.3522  0.5120
   48CHL1  H15A 4677   1.013   5.938   5.393 -0.9760  2.5862  0.5694
   48CHL1  H15B 4678   1.092   6.093   5.321 -0.4759  0.2152 -1.6276
   48CHL1   C16 4679   1.083   5.922   5.191 -0.6758 -0.4924 -0.6333
   48CHL1  H16A 4680   0.991   5.860   5.196  0.7828 -2.7770 -1.0188
   48CHL1  H16B 4681   1.071   5.995   5.107 -2.6519  1.3112  1.0799
   48CHL1   C17 4682   1.209   5.835   5.167 -0.1408 -0.3538 -0.7099
   48CHL1   H17 4683   1.285   5.910   5.136  1.2487 -2.1874 -1.9386
   48CHL1   C13 4684   1.258   5.797   5.318 -0.4313  0.6291  0.2746
   48CHL1   C18 4685   1.166   5.681   5.366  0.3768 -0.4000  0.2783
   48CHL1  H18A 4686   1.201   5.593   5.307  3.3489  0.2229  0.9671
   48CHL1  H18B 4687   1.197   5.659   5.470  2.1589 -2.3532 -0.5972
   48CHL1  H18C 4688   1.058   5.681   5.338  0.1590  0.4486  1.0777
   48CHL1   C12 4689   1.410   5.761   5.333  0.4781 -0.1336 -0.1533
   48CHL1  H12A 4690   1.428   5.660   5.291  0.2361 -0.4910  0.5991
   48CHL1  H12B 4691   1.462   5.841   5.276 -0.5793  0.2791 -0.5670
   48CHL1   C11 4692   1.455   5.766   5.481 -0.7244 -0.0957 -0.2204
   48CHL1  H11A 4693   1.422   5.672   5.532  0.2770 -1.1584 -1.4659
   48CHL1  H11B 4694   1.566   5.773   5.478 -0.5684  0.4872  3.0609
   48CHL1    C9 4695   1.395   5.892   5.563  0.4288 -0.5976 -0.7025
   48CHL1    H9 4696   1.442   5.986   5.527 -1.6914  0.8502  0.0676
   48CHL1   C10 4697   1.424   5.892   5.713 -0.8997 -0.2509  0.4981
   48CHL1   C19 4698   1.383   5.765   5.779  0.0829  0.8407  0.2993
   48CHL1  H19A 4699   1.402   5.760   5.888  1.4604 -0.9559  0.0157
   48CHL1  H19B 4700   1.277   5.741   5.754  0.4596  1.7302 -2.5996
   48CHL1  H19C 4701   1.447   5.688   5.732  0.6757  1.6897 -0.3309
   48CHL1    C1 4702   1.582   5.920   5.726 -0.0595 -0.4479 -0.0524
   48CHL1   H1A 4703   1.630   5.840   5.665  1.6045  1.6221 -1.6080
   48CHL1   H1B 4704   1.612   6.010   5.669  1.8152 -1.2319 -0.3875
   48CHL1    C2 4705   1.630   5.930   5.870 -0.3533  0.2587  0.4446
   48CHL1   H2A 4706   1.740   5.948   5.871  0.1014 -2.1459 -0.2678
   48CHL1   H2B 4707   1.611   5.839   5.930 -3.1637  0.6861  0.3088
   48CHL1   C20 4708   1.182   5.729   5.048 -0.7618 -0.4286  0.3643
   48CHL1   H20 4709   1.123   5.647   5.093 -0.0416 -0.4226  1.3608
   48CHL1   C21 4710   1.319   5.682   4.999 -0.3742  0.6109 -0.1803
   48CHL1  H21A 4711   1.306   5.585   4.947  0.6833 -0.2247  1.0341
   48CHL1  H21B 4712   1.339   5.754   4.917  3.9066  0.3853  0.4142
   48CHL1  H21C 4713   1.393   5.669   5.082 -2.7058 -1.3947  1.7481
   48CHL1   C22 4714   1.097   5.780   4.931  0.5159  0.4870  0.6598
   48CHL1  H22A 4715   1.003   5.831   4.958 -0.4485 -0.9608  0.1382
   48CHL1  H22B 4716   1.153   5.846   4.862  0.3940 -0.3069 -0.2157
   48CHL1   C23 4717   1.050   5.657   4.837  0.5009  0.4778 -0.5233
   48CHL1  H23A 4718   1.139   5.616   4.784 -0.8650  0.4930 -3.0239
   48CHL1  H23B 4719   0.998   5.578   4.895 -0.6150  0.1471 -1.9032
   48CHL1   C24 4720   0.955   5.689   4.717 -0.4388  0.2312 -0.5160
   48CHL1  H24A 4721   0.870   5.746   4.761 -1.1430 -3.2703  3.2853
   48CHL1  H24B 4722   1.009   5.744   4.638 -1.2083  0.9044 -0.5900
   48CHL1   C25 4723   0.906   5.552   4.653  0.1854 -0.0567 -0.6245
   48CHL1   H25 4724   0.859   5.490   4.733 -1.3211  2.6476  0.7109
   48CHL1   C26 4725   0.789   5.589   4.556 -0.4926  0.1285 -0.2534
   48CHL1  H26A 4726   0.834   5.637   4.467 -0.0488 -0.8583 -0.5747
   48CHL1  H26B 4727   0.734   5.500   4.517  0.6267 -0.5503 -0.3441
   48CHL1  H26C 4728   0.718   5.659   4.606 -0.3085  2.1706 -2.6693
   48CHL1   C27 4729   1.029   5.494   4.580  0.4829  0.6633 -0.4008
   48CHL1  H27A 4730   0.999   5.406   4.520  0.9662  1.1145 -1.3315
   48CHL1  H27B 4731   1.075   5.574   4.518 -0.3039  0.5800 -1.1117
   48CHL1  H27C 4732   1.106   5.463   4.654 -0.7748 -0.4301  0.4882
   49CHL1    C3 4733   4.387   4.072   2.765  0.1987 -0.0458 -0.1923
   49CHL1    H3 4734   4.444   3.983   2.800 -0.1085 -0.8089 -1.5526
   49CHL1    O3 4735   4.355   4.048   2.624  0.5020  0.0484 -0.1714
   49CHL1   H3' 4736   4.426   4.088   2.573  1.2557  2.6075  2.6364
   49CHL1    C4 4737   4.255   4.076   2.842 -0.4126  0.0387 -0.4054
   49CHL1   H4A 4738   4.189   4.155   2.800 -0.5457  0.4783  0.5888
   49CHL1   H4B 4739   4.206   3.981   2.814  2.3703 -1.3626 -0.8755
   49CHL1    C5 4740   4.278   4.102   2.987 -0.4954 -0.7947 -0.4920
   49CHL1    C6 4741   4.228   4.012   3.074  0.2016  1.0076 -0.3099
   49CHL1    H6 4742   4.171   3.925   3.039  0.6073  0.5467  0.1598
   49CHL1    C7 4743   4.276   4.021   3.220 -0.2272  0.2367  0.2745
   49CHL1   H7A 4744   4.192   3.992   3.287 -1.3497 -1.4983 -1.7668
   49CHL1   H7B 4745   4.348   3.940   3.246  2.1392  2.3164  0.5979
   49CHL1    C8 4746   4.329   4.157   3.265  0.3501 -0.0639 -0.7444
   49CHL1    H8 4747   4.241   4.225   3.264  1.8656  2.2081  2.6651
   49CHL1   C14 4748   4.388   4.159   3.413 -0.4041 -0.0793  0.0535
   49CHL1   H14 4749   4.481   4.100   3.399  0.0854  0.0545  2.3499
   49CHL1   C15 4750   4.310   4.101   3.527  0.0282  0.0461  0.0578
   49CHL1  H15A 4751   4.201   4.125   3.529 -0.2902 -1.3233  1.7805
   49CHL1  H15B 4752   4.312   3.990   3.536 -0.2093  0.0412  0.0586
   49CHL1   C16 4753   4.385   4.157   3.645  0.8018  0.3251  0.7399
   49CHL1  H16A 4754   4.311   4.206   3.713  1.1046 -3.1108  3.9185
   49CHL1  H16B 4755   4.441   4.076   3.697  1.0804 -0.5431 -0.8531
   49CHL1   C17 4756   4.494   4.255   3.593  0.3427  0.1167 -0.3137
   49CHL1   H17 4757   4.578   4.190   3.562 -0.2564  0.1915 -2.2716
   49CHL1   C13 4758   4.439   4.299   3.450  0.1000  0.3253 -0.0905
   49CHL1   C18 4759   4.321   4.401   3.464  0.8708  0.3818 -0.2692
   49CHL1  H18A 4760   4.264   4.379   3.556  0.7496  0.9416 -0.2066
   49CHL1  H18B 4761   4.368   4.502   3.469  2.2773 -0.2699  0.2029
   49CHL1  H18C 4762   4.248   4.399   3.380  0.4841  2.7447 -0.0612
   49CHL1   C12 4763   4.543   4.347   3.358 -0.6004 -0.1889 -0.5713
   49CHL1  H12A 4764   4.582   4.447   3.387 -0.1517  0.0958 -2.0527
   49CHL1  H12B 4765   4.621   4.268   3.366 -0.0276  0.2393 -1.6765
   49CHL1   C11 4766   4.491   4.351   3.214 -0.0838  0.9087  0.1056
   49CHL1  H11A 4767   4.419   4.435   3.215 -0.9663  0.2980  3.9770
   49CHL1  H11B 4768   4.575   4.375   3.145  0.6505 -0.6424  0.3983
   49CHL1    C9 4769   4.431   4.214   3.169  0.0847  0.4097 -0.4453
   49CHL1    H9 4770   4.507   4.134   3.174 -0.9300 -0.5555 -0.0926
   49CHL1   C10 4771   4.385   4.221   3.022  0.4865  0.2599  0.1366
   49CHL1   C19 4772   4.315   4.359   2.984 -0.5173 -0.3104  0.2715
   49CHL1  H19A 4773   4.263   4.366   2.886 -3.4238  0.2598  1.7395
   49CHL1  H19B 4774   4.246   4.393   3.065 -2.7608  0.9294 -2.0258
   49CHL1  H19C 4775   4.387   4.443   2.988 -0.6784 -0.1656  0.1743
   49CHL1    C1 4776   4.510   4.216   2.922  0.0795 -0.1157 -0.1899
   49CHL1   H1A 4777   4.583   4.296   2.942 -0.2599 -0.0118  0.6907
   49CHL1   H1B 4778   4.568   4.126   2.952  1.1679  1.0812  1.4906
   49CHL1    C2 4779   4.462   4.201   2.780  0.8559  0.4029  0.4335
   49CHL1   H2A 4780   4.548   4.201   2.709  0.7690  1.8614  0.2867
   49CHL1   H2B 4781   4.397   4.281   2.739  0.0252  0.1430  1.2091
   49CHL1   C20 4782   4.538   4.354   3.700  0.3273 -0.4182 -0.6780
   49CHL1   H20 4783   4.467   4.438   3.714 -1.5089 -1.6879 -1.9699
   49CHL1   C21 4784   4.681   4.404   3.663  0.0784  0.2420  0.5785
   49CHL1  H21A 4785   4.738   4.313   3.637 -1.0465 -1.2374  2.9125
   49CHL1  H21B 4786   4.729   4.459   3.747  0.4212  2.0794 -0.7399
   49CHL1  H21C 4787   4.678   4.469   3.572 -0.5322 -0.6721 -0.0702
   49CHL1   C22 4788   4.555   4.293   3.845  0.4571 -0.0098  0.0806
   49CHL1  H22A 4789   4.461   4.238   3.872  1.6255 -2.0820  0.1431
   49CHL1  H22B 4790   4.635   4.217   3.851  1.5382  1.2140  2.8594
   49CHL1   C23 4791   4.569   4.409   3.945  0.0402 -0.4427  0.0874
   49CHL1  H23A 4792   4.668   4.456   3.926 -0.2835  0.1797 -0.0559
   49CHL1  H23B 4793   4.486   4.477   3.918  0.1647 -0.5314 -0.5260
   49CHL1   C24 4794   4.576   4.354   4.087  0.4241  0.0694 -0.8730
   49CHL1  H24A 4795   4.486   4.292   4.105  0.2911  0.7739  1.1535
   49CHL1  H24B 4796   4.663   4.286   4.104 -0.7358 -1.1237  0.5821
   49CHL1   C25 4797   4.560   4.468   4.197 -0.6414  0.0181 -0.5326
   49CHL1   H25 4798   4.463   4.517   4.178 -0.1858  1.4374  0.6462
   49CHL1   C26 4799   4.555   4.409   4.339 -0.2929 -0.3527  1.1681
   49CHL1  H26A 4800   4.569   4.486   4.418  3.2309  2.2880 -1.7255
   49CHL1  H26B 4801   4.455   4.362   4.355 -0.6696 -0.1514 -0.4668
   49CHL1  H26C 4802   4.629   4.326   4.348  1.0128  0.5337 -0.9146
   49CHL1   C27 4803   4.683   4.560   4.183  0.2636  0.0319 -0.0481
   49CHL1  H27A 4804   4.679   4.612   4.085  0.4697  0.5018  0.1907
   49CHL1  H27B 4805   4.680   4.637   4.263  1.0152 -2.2855  2.3184
   49CHL1  H27C 4806   4.773   4.496   4.188 -0.8612 -1.5868  0.0209
   50CHL1    C3 4807   3.709   1.604   2.875  0.4377  0.4006 -0.1310
   50CHL1    H3 4808   3.812   1.633   2.905  1.5226 -2.9770 -0.1945
   50CHL1    O3 4809   3.707   1.619   2.738 -0.1970 -0.4339 -0.5315
   50CHL1   H3' 4810   3.630   1.571   2.707 -0.5111 -0.6189  0.4959
   50CHL1    C4 4811   3.691   1.454   2.907 -0.3904 -0.2004  1.1916
   50CHL1   H4A 4812   3.604   1.411   2.854 -0.3887  0.3891  0.7035
   50CHL1   H4B 4813   3.782   1.404   2.866  0.1105  1.5695  0.0477
   50CHL1    C5 4814   3.677   1.424   3.062 -0.3204  0.1652 -0.8455
   50CHL1    C6 4815   3.754   1.338   3.123 -0.7574  0.1541  0.7145
   50CHL1    H6 4816   3.841   1.296   3.069 -0.8386 -0.3017  0.9362
   50CHL1    C7 4817   3.744   1.291   3.269 -0.5090  0.0479  0.5759
   50CHL1   H7A 4818   3.747   1.181   3.281  1.7394 -0.6135 -3.8495
   50CHL1   H7B 4819   3.836   1.330   3.318  0.6724  0.7016 -1.9777
   50CHL1    C8 4820   3.616   1.347   3.332 -0.6757  0.2803 -0.6445
   50CHL1    H8 4821   3.532   1.276   3.314 -0.7950 -0.3763  2.0487
   50CHL1   C14 4822   3.620   1.346   3.487 -0.0746  0.6342 -0.5863
   50CHL1   H14 4823   3.699   1.422   3.504  1.5669 -0.3282 -3.3552
   50CHL1   C15 4824   3.669   1.223   3.567  0.0252  0.3305 -0.2302
   50CHL1  H15A 4825   3.619   1.129   3.537  0.2916  0.0002  0.3466
   50CHL1  H15B 4826   3.779   1.211   3.557  0.3744  1.2789  1.8301
   50CHL1   C16 4827   3.626   1.258   3.710  0.1844  0.2984  0.5791
   50CHL1  H16A 4828   3.551   1.185   3.746  1.3211 -0.9020  0.6153
   50CHL1  H16B 4829   3.707   1.244   3.786  0.5289 -1.6988 -0.0802
   50CHL1   C17 4830   3.551   1.395   3.715 -0.3852 -0.1721 -0.4637
   50CHL1   H17 4831   3.626   1.476   3.720  0.2950 -0.6975 -1.5912
   50CHL1   C13 4832   3.501   1.403   3.567 -0.4397 -0.1047  0.5452
   50CHL1   C18 4833   3.380   1.306   3.549 -0.2723  0.0562  0.8942
   50CHL1  H18A 4834   3.359   1.285   3.442  1.1720 -2.1890  0.9767
   50CHL1  H18B 4835   3.404   1.209   3.596 -2.1992 -0.6133  0.5972
   50CHL1  H18C 4836   3.287   1.349   3.592 -0.8489  0.4705 -0.6763
   50CHL1   C12 4837   3.473   1.549   3.514  0.1301  0.7925 -0.0973
   50CHL1  H12A 4838   3.377   1.594   3.548 -0.6425  0.8218 -2.1193
   50CHL1  H12B 4839   3.564   1.606   3.540  1.3946 -1.0756 -0.2759
   50CHL1   C11 4840   3.455   1.547   3.363 -0.2621 -0.3100 -0.4421
   50CHL1  H11A 4841   3.359   1.495   3.343 -0.0836 -1.4329  1.3375
   50CHL1  H11B 4842   3.449   1.653   3.333 -1.5002 -0.6189 -1.3669
   50CHL1    C9 4843   3.574   1.485   3.284 -0.4139  0.6333 -0.4633
   50CHL1    H9 4844   3.659   1.552   3.312 -1.0261  1.2810 -0.1272
   50CHL1   C10 4845   3.567   1.508   3.128  0.2316  0.0055  0.3165
   50CHL1   C19 4846   3.438   1.451   3.080  0.3598  0.0853  0.2961
   50CHL1  H19A 4847   3.437   1.340   3.084  0.9467  0.1038  0.9223
   50CHL1  H19B 4848   3.350   1.496   3.130  1.2711  0.9214  1.1836
   50CHL1  H19C 4849   3.427   1.470   2.971 -0.9314  0.1953  0.4200
   50CHL1    C1 4850   3.590   1.658   3.093  0.5365 -0.2069  0.0476
   50CHL1   H1A 4851   3.515   1.724   3.143  2.1232  0.6094  1.4390
   50CHL1   H1B 4852   3.690   1.694   3.125  0.6894 -1.4126  0.9838
   50CHL1    C2 4853   3.597   1.686   2.942 -0.3734  0.2946  0.3556
   50CHL1   H2A 4854   3.623   1.792   2.922 -0.2475  0.4296  1.1928
   50CHL1   H2B 4855   3.498   1.667   2.894  1.2714 -0.8108 -2.9319
   50CHL1   C20 4856   3.455   1.410   3.833  0.6033  0.2274 -0.2507
   50CHL1   H20 4857   3.382   1.326   3.835  1.7179 -0.7593  0.0869
   50CHL1   C21 4858   3.382   1.546   3.824  0.6430 -1.6714 -0.1079
   50CHL1  H21A 4859   3.292   1.533   3.760 -1.8276 -0.7614  2.9890
   50CHL1  H21B 4860   3.441   1.640   3.819 -0.8036 -0.5331  2.3829
   50CHL1  H21C 4861   3.335   1.559   3.923 -0.0689  0.5791 -0.6964
   50CHL1   C22 4862   3.535   1.389   3.966 -0.8001  0.1559  0.6185
   50CHL1  H22A 4863   3.601   1.302   3.983 -0.9345 -0.3572 -1.2734
   50CHL1  H22B 4864   3.582   1.486   3.994 -1.9706  0.3350  2.1068
   50CHL1   C23 4865   3.436   1.360   4.076  0.1820 -0.1571 -0.1947
   50CHL1  H23A 4866   3.484   1.398   4.169  0.0174 -1.2019  0.3329
   50CHL1  H23B 4867   3.340   1.414   4.063  0.3339  0.1201 -0.1682
   50CHL1   C24 4868   3.396   1.213   4.103 -0.0902 -0.5241 -0.2615
   50CHL1  H24A 4869   3.348   1.172   4.012 -0.6737 -0.4949  0.0333
   50CHL1  H24B 4870   3.492   1.168   4.136  0.5326  2.2472  2.1499
   50CHL1   C25 4871   3.301   1.187   4.220  0.2985  0.1305 -0.7481
   50CHL1   H25 4872   3.211   1.251   4.203 -0.1057 -0.1160  0.3979
   50CHL1   C26 4873   3.248   1.041   4.231 -0.4181 -0.3776  0.7710
   50CHL1  H26A 4874   3.207   1.027   4.129  0.1842  1.1133  0.2918
   50CHL1  H26B 4875   3.321   0.958   4.239  0.3377  0.2877  1.0329
   50CHL1  H26C 4876   3.181   1.028   4.318  0.9156  0.6109  2.0102
   50CHL1   C27 4877   3.367   1.222   4.359  0.3498 -0.0952 -0.1168
   50CHL1  H27A 4878   3.304   1.191   4.446 -0.6835  0.3013 -0.7018
   50CHL1  H27B 4879   3.468   1.175   4.363 -0.3148 -1.7678 -1.5532
   50CHL1  H27C 4880   3.376   1.332   4.372  1.2630 -0.3649  1.9560
   51CHL1    C3 4881   3.997   2.633   2.772 -0.1346 -0.1212  0.4017
   51CHL1    H3 4882   4.105   2.608   2.770 -0.0706  0.1570 -1.5802
   51CHL1    O3 4883   3.940   2.615   2.637  0.1361  0.0465 -0.6659
   51CHL1   H3' 4884   3.965   2.525   2.617  0.2839 -0.5530  1.8368
   51CHL1    C4 4885   3.929   2.543   2.880 -0.3250  0.0044  0.8167
   51CHL1   H4A 4886   3.819   2.552   2.865 -0.3207  0.9360  1.2597
   51CHL1   H4B 4887   3.956   2.438   2.859  0.5064 -0.0056  1.8585
   51CHL1    C5 4888   3.983   2.579   3.018 -0.4851  0.2848  0.2436
   51CHL1    C6 4889   4.047   2.490   3.095 -0.2636 -0.6865  0.3453
   51CHL1    H6 4890   4.048   2.383   3.070  0.0978 -0.2364 -1.7560
   51CHL1    C7 4891   4.086   2.514   3.240  0.5409  0.4986 -0.3010
   51CHL1   H7A 4892   4.048   2.429   3.300  2.6979 -0.2017  0.1694
   51CHL1   H7B 4893   4.197   2.511   3.245  0.5803 -2.2504 -0.9771
   51CHL1    C8 4894   4.035   2.655   3.286  0.3162 -0.0892  0.5805
   51CHL1    H8 4895   3.926   2.647   3.305  0.4155 -0.1410  1.1440
   51CHL1   C14 4896   4.112   2.685   3.411 -0.4284 -1.1877 -0.3585
   51CHL1   H14 4897   4.221   2.683   3.388 -0.3131  0.8980 -0.1253
   51CHL1   C15 4898   4.089   2.584   3.524  0.0643 -0.5743  0.2708
   51CHL1  H15A 4899   3.980   2.560   3.532 -0.2328 -0.5601 -2.5595
   51CHL1  H15B 4900   4.144   2.490   3.501  1.4255  0.6431 -1.8833
   51CHL1   C16 4901   4.148   2.665   3.639 -0.6811 -0.1576  0.3125
   51CHL1  H16A 4902   4.071   2.677   3.718 -0.0699  0.9601  0.7753
   51CHL1  H16B 4903   4.244   2.620   3.671 -0.5367 -0.1654 -0.1188
   51CHL1   C17 4904   4.174   2.813   3.591  0.2735  0.1774 -0.7684
   51CHL1   H17 4905   4.284   2.809   3.577  0.5872 -0.3648  1.4114
   51CHL1   C13 4906   4.084   2.827   3.465  0.2113 -0.7893 -0.3584
   51CHL1   C18 4907   3.941   2.849   3.503 -0.0272 -0.6619  0.6129
   51CHL1  H18A 4908   3.911   2.775   3.580  0.5450 -0.6838  0.8124
   51CHL1  H18B 4909   3.936   2.956   3.531 -0.6865 -0.9179  1.5056
   51CHL1  H18C 4910   3.867   2.850   3.420 -0.4048  0.9833  0.9354
   51CHL1   C12 4911   4.128   2.933   3.365 -0.5243 -0.4331  0.2412
   51CHL1  H12A 4912   4.105   3.033   3.409  0.1253  0.5153 -1.4833
   51CHL1  H12B 4913   4.236   2.924   3.343 -0.1697  1.1062  1.2096
   51CHL1   C11 4914   4.045   2.908   3.230  0.0471 -0.1111 -0.5569
   51CHL1  H11A 4915   3.942   2.939   3.256 -0.1659  0.9958 -2.5617
   51CHL1  H11B 4916   4.077   2.976   3.149 -1.3672  0.9163 -0.2871
   51CHL1    C9 4917   4.063   2.767   3.181  0.0810 -0.9799 -0.1646
   51CHL1    H9 4918   4.170   2.756   3.155  0.1899 -1.1755  0.3462
   51CHL1   C10 4919   3.983   2.732   3.056 -0.4414  0.1066 -0.8212
   51CHL1   C19 4920   3.832   2.772   3.074  0.8579 -0.1131 -0.1776
   51CHL1  H19A 4921   3.841   2.882   3.086  1.9711 -0.2536  0.4409
   51CHL1  H19B 4922   3.771   2.736   2.989  1.8193 -2.0174 -0.1083
   51CHL1  H19C 4923   3.790   2.724   3.165 -1.3629  0.5492 -0.7955
   51CHL1    C1 4924   4.042   2.821   2.938 -0.6543  0.4662  0.6955
   51CHL1   H1A 4925   4.034   2.929   2.960  2.2974  0.9311 -0.0213
   51CHL1   H1B 4926   4.152   2.803   2.940 -0.7686 -0.3227  0.1455
   51CHL1    C2 4927   3.986   2.784   2.803  0.3979  0.6775  0.6005
   51CHL1   H2A 4928   4.050   2.845   2.736 -1.0374  1.5388 -0.0234
   51CHL1   H2B 4929   3.878   2.801   2.784 -0.1486 -2.4196  0.4562
   51CHL1   C20 4930   4.154   2.911   3.711 -0.8925 -1.1775  0.4551
   51CHL1   H20 4931   4.047   2.927   3.736 -0.4018 -0.5869  2.3699
   51CHL1   C21 4932   4.200   3.056   3.669 -0.2670  0.0305  0.4946
   51CHL1  H21A 4933   4.123   3.102   3.603  1.5745  2.4034 -0.1396
   51CHL1  H21B 4934   4.294   3.048   3.611 -0.6724 -0.5742 -0.0973
   51CHL1  H21C 4935   4.215   3.116   3.761 -0.3624  0.6888  0.0828
   51CHL1   C22 4936   4.237   2.872   3.841 -0.3330 -0.2277  0.2431
   51CHL1  H22A 4937   4.238   2.763   3.858 -3.8412 -0.8152 -2.2098
   51CHL1  H22B 4938   4.343   2.906   3.841 -0.4806  0.2451  0.4972
   51CHL1   C23 4939   4.175   2.936   3.965 -0.0319 -0.1316 -0.1788
   51CHL1  H23A 4940   4.175   3.047   3.961  0.1986 -0.0761  1.0844
   51CHL1  H23B 4941   4.071   2.898   3.975 -1.3306  3.0411 -0.4430
   51CHL1   C24 4942   4.255   2.916   4.092 -0.4930 -0.2112  0.0587
   51CHL1  H24A 4943   4.278   2.812   4.123  0.6722  0.4059  1.3695
   51CHL1  H24B 4944   4.357   2.960   4.083 -0.8065  0.4091 -0.5727
   51CHL1   C25 4945   4.187   2.976   4.220  0.1004 -0.0084 -0.1885
   51CHL1   H25 4946   4.250   2.943   4.305  2.7947  1.0840 -1.6686
   51CHL1   C26 4947   4.204   3.132   4.229 -0.1922  0.5496 -0.2395
   51CHL1  H26A 4948   4.312   3.155   4.216  0.1062 -0.0080  1.0660
   51CHL1  H26B 4949   4.156   3.191   4.148 -1.5759  1.3386  1.0981
   51CHL1  H26C 4950   4.166   3.174   4.325  0.3514 -0.2374  0.3413
   51CHL1   C27 4951   4.035   2.937   4.243  0.4223 -0.3085 -0.0143
   51CHL1  H27A 4952   4.027   2.829   4.264  1.8809  0.1317  3.4981
   51CHL1  H27B 4953   3.998   2.984   4.337  1.7517 -0.7130  0.7338
   51CHL1  H27C 4954   3.968   2.966   4.159  0.6356 -0.5034 -0.2492
   52CHL1    C3 4955   3.251   3.913   2.738  0.9911  0.4250  0.3854
   52CHL1    H3 4956   3.166   3.983   2.756  0.1291 -0.5198  0.1169
   52CHL1    O3 4957   3.239   3.866   2.600 -0.7644 -0.6239  0.2071
   52CHL1   H3' 4958   3.272   3.938   2.545 -0.5850 -1.4345 -0.7926
   52CHL1    C4 4959   3.387   3.979   2.768  0.2143 -0.0032 -0.2806
   52CHL1   H4A 4960   3.465   3.902   2.754 -0.3373 -0.4504 -1.0225
   52CHL1   H4B 4961   3.404   4.063   2.697  0.1986 -2.1731 -3.0268
   52CHL1    C5 4962   3.403   4.025   2.916  0.1065 -0.4642 -0.5642
   52CHL1    C6 4963   3.428   4.154   2.951 -0.2739  0.1956  0.2342
   52CHL1    H6 4964   3.448   4.228   2.872 -2.3795  1.1659  0.5548
   52CHL1    C7 4965   3.463   4.203   3.089 -0.1833 -0.1830  0.0936
   52CHL1   H7A 4966   3.562   4.253   3.088 -0.8218  1.1017  0.2931
   52CHL1   H7B 4967   3.374   4.261   3.119 -1.7386 -1.8393 -1.0598
   52CHL1    C8 4968   3.471   4.088   3.195  0.5813  0.4002 -0.0388
   52CHL1    H8 4969   3.571   4.040   3.184  1.3124  2.2348 -2.2663
   52CHL1   C14 4970   3.462   4.141   3.337  0.2307  0.1310  0.1293
   52CHL1   H14 4971   3.369   4.199   3.354  0.7795  0.7024  1.2802
   52CHL1   C15 4972   3.569   4.236   3.393  0.1743 -0.0320 -0.5872
   52CHL1  H15A 4973   3.670   4.192   3.374  0.2812  1.1005 -2.9219
   52CHL1  H15B 4974   3.569   4.336   3.346 -0.8456  0.2410 -0.0142
   52CHL1   C16 4975   3.542   4.231   3.542  0.8643  0.2430 -0.8877
   52CHL1  H16A 4976   3.635   4.201   3.596  0.8529 -1.9367 -1.9700
   52CHL1  H16B 4977   3.506   4.326   3.586 -0.9239 -0.0642 -1.6271
   52CHL1   C17 4978   3.434   4.121   3.564  0.4793  0.6228  0.0955
   52CHL1   H17 4979   3.330   4.162   3.565 -1.0451 -2.9073 -0.5568
   52CHL1   C13 4980   3.434   4.035   3.441 -0.5788  0.1571  0.0103
   52CHL1   C18 4981   3.555   3.937   3.439  0.1470  0.5076  0.8451
   52CHL1  H18A 4982   3.555   3.868   3.526  2.1965  1.1545  1.4206
   52CHL1  H18B 4983   3.566   3.880   3.344  0.4947  4.1836 -1.5179
   52CHL1  H18C 4984   3.653   3.989   3.447 -0.0155  1.0318 -0.2900
   52CHL1   C12 4985   3.303   3.963   3.414 -0.7193  0.1019 -1.0633
   52CHL1  H12A 4986   3.293   3.875   3.481  0.7726 -0.6101 -1.7416
   52CHL1  H12B 4987   3.207   4.019   3.423 -1.5142 -1.2931 -0.3505
   52CHL1   C11 4988   3.309   3.903   3.276  0.3091 -0.9354 -0.5582
   52CHL1  H11A 4989   3.393   3.832   3.288  2.5480  1.3173 -1.9292
   52CHL1  H11B 4990   3.217   3.847   3.248  0.0803 -1.3791  0.9890
   52CHL1    C9 4991   3.348   3.996   3.162 -0.4825 -0.3099 -0.5275
   52CHL1    H9 4992   3.257   4.060   3.158  0.3539  1.0573  1.0259
   52CHL1   C10 4993   3.370   3.925   3.030  0.4852  0.2481  0.4689
   52CHL1   C19 4994   3.487   3.828   3.029  0.8181  0.4213 -0.2835
   52CHL1  H19A 4995   3.581   3.885   3.042 -0.9517  3.3427  0.7419
   52CHL1  H19B 4996   3.477   3.750   3.107  0.4273  1.0677  0.3207
   52CHL1  H19C 4997   3.493   3.763   2.939  1.0514 -1.5807  1.1281
   52CHL1    C1 4998   3.237   3.850   2.984  0.2229  0.3285 -0.0896
   52CHL1   H1A 4999   3.230   3.764   3.054 -0.0073 -0.3604 -0.9406
   52CHL1   H1B 5000   3.145   3.905   3.013  0.3925 -0.7095  2.7328
   52CHL1    C2 5001   3.224   3.795   2.841  0.1932  0.3676  0.2793
   52CHL1   H2A 5002   3.122   3.752   2.833  1.1062 -2.0368  0.8043
   52CHL1   H2B 5003   3.305   3.722   2.817 -1.0660 -1.1175  0.4225
   52CHL1   C20 5004   3.462   4.054   3.703 -0.3854 -0.1059  0.1424
   52CHL1   H20 5005   3.561   4.003   3.706 -0.0589  0.5320  0.1944
   52CHL1   C21 5006   3.356   3.941   3.726  0.5795 -1.2104  1.0838
   52CHL1  H21A 5007   3.388   3.856   3.662  1.9936 -1.1733  1.7065
   52CHL1  H21B 5008   3.258   3.981   3.692  1.2250 -0.3991  0.0970
   52CHL1  H21C 5009   3.340   3.904   3.829 -3.2212 -2.1521  0.2995
   52CHL1   C22 5010   3.456   4.161   3.820  0.0001 -0.4682  0.1145
   52CHL1  H22A 5011   3.517   4.249   3.790  0.9381 -1.0804  0.1928
   52CHL1  H22B 5012   3.353   4.204   3.828 -0.3225 -1.2640  0.2981
   52CHL1   C23 5013   3.498   4.105   3.959  0.3573  0.7441 -0.2023
   52CHL1  H23A 5014   3.411   4.044   3.991  1.9744 -0.3174  2.5838
   52CHL1  H23B 5015   3.574   4.025   3.943 -1.6945 -1.3129 -0.0624
   52CHL1   C24 5016   3.516   4.214   4.068 -0.4161  0.0044 -0.1390
   52CHL1  H24A 5017   3.423   4.274   4.058 -0.7407 -0.4886 -0.1122
   52CHL1  H24B 5018   3.534   4.165   4.166  0.8090  0.3014 -0.1984
   52CHL1   C25 5019   3.636   4.304   4.057  0.2328 -0.2567 -0.5373
   52CHL1   H25 5020   3.631   4.361   3.961  0.4207 -0.0608 -0.4311
   52CHL1   C26 5021   3.656   4.405   4.176 -0.1271  0.2905  0.7022
   52CHL1  H26A 5022   3.756   4.453   4.166 -0.4259  1.0303  1.1256
   52CHL1  H26B 5023   3.579   4.486   4.174  1.1385  1.5511  1.1147
   52CHL1  H26C 5024   3.658   4.352   4.273 -2.3261 -0.3666  0.4517
   52CHL1   C27 5025   3.765   4.225   4.048 -0.4076  0.7597  0.6210
   52CHL1  H27A 5026   3.855   4.290   4.047 -0.2414  0.5216  0.2595
   52CHL1  H27B 5027   3.763   4.149   4.129  0.8284  1.5787  1.4674
   52CHL1  H27C 5028   3.771   4.184   3.946  0.0172  0.3894  0.7935
   53CHL1    C3 5029   3.352   2.984   2.655  0.0108 -0.3268 -0.8831
   53CHL1    H3 5030   3.406   3.079   2.670 -1.1412  0.1033  0.9638
   53CHL1    O3 5031   3.358   2.955   2.515  0.2563 -0.2235 -0.7864
   53CHL1   H3' 5032   3.304   2.879   2.495 -0.0684  0.4159 -2.4570
   53CHL1    C4 5033   3.415   2.871   2.733  0.5103  0.2393 -0.3393
   53CHL1   H4A 5034   3.354   2.780   2.718  1.4262 -0.2443 -1.2528
   53CHL1   H4B 5035   3.517   2.852   2.693  0.9735  2.0096 -0.1046
   53CHL1    C5 5036   3.398   2.895   2.886  0.3802  0.5239 -0.0527
   53CHL1    C6 5037   3.511   2.895   2.959 -0.6616  0.2593  0.4301
   53CHL1    H6 5038   3.604   2.866   2.907 -1.4137  2.5628 -2.5311
   53CHL1    C7 5039   3.519   2.923   3.105 -0.6041  1.2369 -0.0482
   53CHL1   H7A 5040   3.587   2.843   3.140  0.0394  0.2425 -3.2246
   53CHL1   H7B 5041   3.564   3.024   3.114  2.1988  0.3937 -2.7588
   53CHL1    C8 5042   3.378   2.919   3.170  0.5149  0.2876 -0.3286
   53CHL1    H8 5043   3.362   2.813   3.198  0.9539  0.5605  1.0223
   53CHL1   C14 5044   3.378   2.992   3.301 -0.4715  0.7665 -0.2666
   53CHL1   H14 5045   3.409   3.097   3.288  2.0069  0.1901  0.3502
   53CHL1   C15 5046   3.493   2.939   3.397  0.2476  0.0366  0.7102
   53CHL1  H15A 5047   3.483   2.829   3.402  0.4596 -0.0699 -0.7549
   53CHL1  H15B 5048   3.592   2.961   3.350  0.4533 -1.6858  0.2865
   53CHL1   C16 5049   3.455   2.998   3.533  0.1667 -0.3944 -0.2350
   53CHL1  H16A 5050   3.455   2.914   3.607  2.9180 -0.8378 -0.6207
   53CHL1  H16B 5051   3.528   3.076   3.565  0.4661 -0.2847 -1.1629
   53CHL1   C17 5052   3.305   3.047   3.522 -0.4625  0.5040 -0.9663
   53CHL1   H17 5053   3.307   3.158   3.518  0.0336  0.6523  1.6054
   53CHL1   C13 5054   3.250   2.986   3.383  0.0128  0.4355  0.0951
   53CHL1   C18 5055   3.208   2.839   3.412  0.1968 -0.1045 -0.0664
   53CHL1  H18A 5056   3.117   2.826   3.475 -0.8960 -2.1274 -1.9377
   53CHL1  H18B 5057   3.199   2.785   3.315  0.5498 -0.1227 -0.0895
   53CHL1  H18C 5058   3.282   2.772   3.461 -0.6296 -2.1156 -1.4354
   53CHL1   C12 5059   3.144   3.059   3.306 -0.0514 -0.7580  0.1822
   53CHL1  H12A 5060   3.046   3.059   3.358 -0.4259  3.0784 -0.2010
   53CHL1  H12B 5061   3.174   3.166   3.305  0.7620 -0.9822 -0.8451
   53CHL1   C11 5062   3.126   2.998   3.167 -1.0012  0.1539 -0.0970
   53CHL1  H11A 5063   3.078   2.899   3.183 -1.4858  0.7882  2.8502
   53CHL1  H11B 5064   3.052   3.053   3.105 -1.1478 -0.3329 -0.3594
   53CHL1    C9 5065   3.267   2.988   3.092  1.1511  0.2917 -1.0960
   53CHL1    H9 5066   3.309   3.089   3.072  0.6803  0.2451 -2.4756
   53CHL1   C10 5067   3.258   2.921   2.951 -0.3901 -0.1585  0.9307
   53CHL1   C19 5068   3.169   2.796   2.959  0.4446 -0.3655 -0.3117
   53CHL1  H19A 5069   3.067   2.835   2.977  1.0485  1.6056 -0.9100
   53CHL1  H19B 5070   3.167   2.745   2.861  2.0083  1.6198 -1.4577
   53CHL1  H19C 5071   3.201   2.729   3.042 -2.2336 -1.0008  0.2935
   53CHL1    C1 5072   3.200   3.033   2.854  0.3947  0.4156 -0.2445
   53CHL1   H1A 5073   3.093   3.032   2.884  0.6150 -0.5424  0.5405
   53CHL1   H1B 5074   3.250   3.128   2.882 -1.0663  0.7418  1.3906
   53CHL1    C2 5075   3.204   3.000   2.700 -0.3891 -0.3341  0.0954
   53CHL1   H2A 5076   3.166   3.088   2.644  2.0620  0.6950 -0.1140
   53CHL1   H2B 5077   3.136   2.914   2.684  0.6078 -0.9539 -0.9804
   53CHL1   C20 5078   3.232   3.029   3.649  0.1313 -1.1686  0.4793
   53CHL1   H20 5079   3.218   2.925   3.685  0.8875 -1.5588 -0.2970
   53CHL1   C21 5080   3.084   3.090   3.635 -0.0238 -0.3091  0.6240
   53CHL1  H21A 5081   3.012   3.034   3.572 -0.5266  0.8606  0.1323
   53CHL1  H21B 5082   3.087   3.189   3.584 -0.5928 -0.1743  0.8433
   53CHL1  H21C 5083   3.044   3.126   3.732 -0.1237  3.5834 -0.6758
   53CHL1   C22 5084   3.296   3.107   3.761  0.1285  0.2052 -0.3018
   53CHL1  H22A 5085   3.400   3.072   3.779  0.0778  0.0438 -0.3222
   53CHL1  H22B 5086   3.308   3.213   3.731 -0.8251  0.2998 -0.3761
   53CHL1   C23 5087   3.229   3.095   3.904 -0.9466  0.2778  0.2583
   53CHL1  H23A 5088   3.128   3.141   3.914 -0.2532  1.4964  2.2698
   53CHL1  H23B 5089   3.210   2.987   3.920  2.1856 -0.3146  0.5091
   53CHL1   C24 5090   3.323   3.137   4.019 -0.6391  0.0027 -0.2375
   53CHL1  H24A 5091   3.395   3.053   4.029  1.9912  1.6796 -3.2248
   53CHL1  H24B 5092   3.386   3.220   3.982 -0.9882  0.4595  0.1807
   53CHL1   C25 5093   3.240   3.174   4.146 -0.4218  0.1256 -0.5465
   53CHL1   H25 5094   3.148   3.111   4.143 -0.0430 -0.3981 -2.4598
   53CHL1   C26 5095   3.333   3.138   4.271 -0.0045 -1.0488 -0.2808
   53CHL1  H26A 5096   3.433   3.164   4.229 -1.2530  2.8972 -1.1860
   53CHL1  H26B 5097   3.310   3.209   4.353 -1.0783 -1.2921 -0.3557
   53CHL1  H26C 5098   3.316   3.037   4.314  0.0697 -1.4023 -1.0627
   53CHL1   C27 5099   3.195   3.323   4.153  0.5149  0.6964  0.5956
   53CHL1  H27A 5100   3.282   3.393   4.154  0.2502  1.0699 -0.6560
   53CHL1  H27B 5101   3.133   3.348   4.064  0.7526  0.0316  0.2284
   53CHL1  H27C 5102   3.138   3.348   4.245 -2.4801 -0.8252 -0.7133
   54CHL1    C3 5103   2.660   3.029   2.969 -0.3149 -0.8962  0.1527
   54CHL1    H3 5104   2.770   3.031   2.955 -0.6248 -1.1643 -3.2812
   54CHL1    O3 5105   2.584   3.020   2.847 -0.3001 -0.2445  0.0120
   54CHL1   H3' 5106   2.600   2.929   2.822 -1.3283 -1.0174  1.9637
   54CHL1    C4 5107   2.631   2.901   3.054  0.1494  0.2422  0.2840
   54CHL1   H4A 5108   2.523   2.882   3.042 -0.4184  3.6159 -1.0072
   54CHL1   H4B 5109   2.693   2.816   3.018  0.5744  0.1502  1.2052
   54CHL1    C5 5110   2.661   2.913   3.203  0.5715 -0.5539 -0.1018
   54CHL1    C6 5111   2.738   2.825   3.264  0.0442 -0.0840 -0.8382
   54CHL1    H6 5112   2.783   2.747   3.201  2.0642  0.1990  0.1565
   54CHL1    C7 5113   2.775   2.812   3.412 -0.3690  0.0704  0.5172
   54CHL1   H7A 5114   2.753   2.713   3.457 -2.3735 -0.5296 -1.5606
   54CHL1   H7B 5115   2.882   2.837   3.425 -0.3517  0.4194 -0.2560
   54CHL1    C8 5116   2.691   2.920   3.494  0.3847  0.4884 -0.1073
   54CHL1    H8 5117   2.588   2.881   3.507  0.3447  0.7803  0.4989
   54CHL1   C14 5118   2.738   2.945   3.638  0.1048 -0.0013 -0.5443
   54CHL1   H14 5119   2.836   2.997   3.635  0.0613  0.0486 -1.0824
   54CHL1   C15 5120   2.768   2.822   3.726  0.4940 -0.2020  0.5370
   54CHL1  H15A 5121   2.698   2.738   3.708  1.2456 -0.4628 -1.4608
   54CHL1  H15B 5122   2.872   2.788   3.707 -0.4676 -3.1538  0.1205
   54CHL1   C16 5123   2.759   2.868   3.870  0.2186 -0.0040  0.2039
   54CHL1  H16A 5124   2.673   2.813   3.913  1.0124 -1.1478  0.4017
   54CHL1  H16B 5125   2.845   2.838   3.935 -0.3543  2.0765  2.0692
   54CHL1   C17 5126   2.720   3.011   3.864  0.1796  0.1598  0.6265
   54CHL1   H17 5127   2.818   3.060   3.849  0.7044 -1.2988 -1.0233
   54CHL1   C13 5128   2.649   3.032   3.723  0.2064  0.3582 -0.6883
   54CHL1   C18 5129   2.507   2.974   3.724 -0.0786  0.0217  0.1958
   54CHL1  H18A 5130   2.449   2.998   3.632 -0.8466  1.3460  0.9965
   54CHL1  H18B 5131   2.502   2.863   3.730  1.3149 -0.0084  1.0448
   54CHL1  H18C 5132   2.452   3.015   3.812 -1.1364 -1.9016  0.4938
   54CHL1   C12 5133   2.644   3.174   3.653 -0.6875  0.8296 -0.5656
   54CHL1  H12A 5134   2.568   3.241   3.699 -1.8874 -0.7368 -0.1422
   54CHL1  H12B 5135   2.748   3.211   3.649 -0.3319 -0.1345 -0.4663
   54CHL1   C11 5136   2.594   3.165   3.506 -0.0096 -0.2747 -0.0611
   54CHL1  H11A 5137   2.484   3.149   3.511  0.2427 -2.4940 -0.2411
   54CHL1  H11B 5138   2.620   3.264   3.464 -1.9591  0.2916 -0.0022
   54CHL1    C9 5139   2.667   3.056   3.420  0.0723 -0.3296 -0.8022
   54CHL1    H9 5140   2.765   3.105   3.402 -1.3457  3.5065  0.8047
   54CHL1   C10 5141   2.605   3.037   3.278  1.0200 -0.4083  0.1400
   54CHL1   C19 5142   2.455   3.020   3.284  0.3725 -0.6757  0.4400
   54CHL1  H19A 5143   2.432   2.944   3.361  1.7363 -1.0036  0.5510
   54CHL1  H19B 5144   2.405   3.118   3.301  1.5610  0.1177 -0.4139
   54CHL1  H19C 5145   2.412   2.966   3.197 -0.4009 -2.1161  1.6825
   54CHL1    C1 5146   2.640   3.160   3.189 -0.0043  0.5274  0.0170
   54CHL1   H1A 5147   2.591   3.252   3.227 -0.9062 -0.6280  1.7898
   54CHL1   H1B 5148   2.751   3.163   3.198  0.0247 -0.6591  0.2784
   54CHL1    C2 5149   2.606   3.154   3.042 -0.5971 -0.2166 -0.2546
   54CHL1   H2A 5150   2.646   3.241   2.985  2.2330 -2.3306 -1.7416
   54CHL1   H2B 5151   2.495   3.150   3.035 -0.6466  0.5349  0.0681
   54CHL1   C20 5152   2.654   3.053   3.993  0.2929  0.2942 -0.6554
   54CHL1   H20 5153   2.551   3.010   3.999  0.5861 -0.6807 -2.0269
   54CHL1   C21 5154   2.643   3.207   4.003  0.1811  0.0815  0.1661
   54CHL1  H21A 5155   2.576   3.250   3.925  0.4427 -1.7764 -1.1411
   54CHL1  H21B 5156   2.735   3.268   3.996 -0.3613  1.0081  0.8520
   54CHL1  H21C 5157   2.580   3.237   4.090 -3.8858  0.8373 -2.7523
   54CHL1   C22 5158   2.733   2.998   4.119  0.0826  0.0277 -0.0127
   54CHL1  H22A 5159   2.683   3.041   4.208  1.1538 -0.2096  0.7162
   54CHL1  H22B 5160   2.730   2.888   4.132  1.9260  0.1867  2.3681
   54CHL1   C23 5161   2.884   3.028   4.131  0.5199  0.4978 -0.1669
   54CHL1  H23A 5162   2.945   2.958   4.070 -1.8314 -0.7142 -1.2537
   54CHL1  H23B 5163   2.914   3.132   4.103 -0.9629  0.6118 -1.4662
   54CHL1   C24 5164   2.916   3.031   4.291 -0.2177 -0.2107  0.6102
   54CHL1  H24A 5165   3.012   3.084   4.310 -0.5701  0.4894  0.5004
   54CHL1  H24B 5166   2.833   3.083   4.344 -2.1572 -1.7703 -0.7378
   54CHL1   C25 5167   2.931   2.891   4.353  0.6964 -0.3369 -0.1640
   54CHL1   H25 5168   2.833   2.841   4.338 -0.4124  1.9678 -1.1517
   54CHL1   C26 5169   3.051   2.807   4.293  0.5550  0.1025  0.3868
   54CHL1  H26A 5170   3.089   2.724   4.356  2.2669 -1.4178 -2.4620
   54CHL1  H26B 5171   3.016   2.750   4.205  2.8062 -2.1416  0.8404
   54CHL1  H26C 5172   3.142   2.865   4.269 -0.3853  1.0905 -0.9615
   54CHL1   C27 5173   2.961   2.908   4.502 -0.0645  0.2971 -0.7433
   54CHL1  H27A 5174   2.879   2.964   4.553 -0.7365  1.0801 -2.5651
   54CHL1  H27B 5175   2.963   2.805   4.543 -1.4891  0.0789 -1.1313
   54CHL1  H27C 5176   3.058   2.953   4.530  0.0680 -1.1462  1.3058
   55CHL1    C3 5177   3.415   6.429   2.527  0.4207 -0.1696  0.2947
   55CHL1    H3 5178   3.307   6.409   2.542  0.1282  0.2117 -1.1297
   55CHL1    O3 5179   3.440   6.470   2.391  0.1118 -0.0751  0.2482
   55CHL1   H3' 5180   3.501   6.544   2.396 -0.2951  0.2284  0.8498
   55CHL1    C4 5181   3.470   6.540   2.615 -0.0362 -0.1751  0.3140
   55CHL1   H4A 5182   3.577   6.557   2.594  0.4456 -2.4551  0.6383
   55CHL1   H4B 5183   3.421   6.639   2.602  0.9439  0.2769 -0.0215
   55CHL1    C5 5184   3.460   6.487   2.764 -0.0226  0.1385 -1.0930
   55CHL1    C6 5185   3.393   6.549   2.852  0.8431  0.8527  0.3951
   55CHL1    H6 5186   3.345   6.644   2.823 -1.7156 -0.1955  0.9377
   55CHL1    C7 5187   3.374   6.500   2.993  0.5473 -0.0954 -0.1722
   55CHL1   H7A 5188   3.375   6.582   3.068  0.1469  0.1204 -0.4031
   55CHL1   H7B 5189   3.269   6.468   3.010  1.2515 -2.3802  0.2733
   55CHL1    C8 5190   3.468   6.391   3.046  0.0308 -0.6539  0.0155
   55CHL1    H8 5191   3.569   6.432   3.067  0.7656 -2.2658 -0.2540
   55CHL1   C14 5192   3.417   6.315   3.165 -0.2561  0.1920 -0.2422
   55CHL1   H14 5193   3.321   6.268   3.135 -0.7728 -0.5129  2.2104
   55CHL1   C15 5194   3.379   6.397   3.291 -0.3371  0.1185 -0.2197
   55CHL1  H15A 5195   3.456   6.473   3.316 -1.6657  1.0845  1.0981
   55CHL1  H15B 5196   3.285   6.452   3.270 -0.5693 -0.6795 -1.3541
   55CHL1   C16 5197   3.372   6.290   3.399 -0.1915 -0.2722  0.1075
   55CHL1  H16A 5198   3.435   6.320   3.485  1.0859 -1.5943 -0.3048
   55CHL1  H16B 5199   3.271   6.290   3.444 -0.0149 -1.1518  0.5383
   55CHL1   C17 5200   3.409   6.153   3.337 -0.4386 -0.3576  0.0688
   55CHL1   H17 5201   3.311   6.120   3.297 -0.2648 -0.5491 -0.1987
   55CHL1   C13 5202   3.493   6.190   3.212 -0.2260 -0.1630 -0.3641
   55CHL1   C18 5203   3.640   6.235   3.270  1.0100  0.4509  0.0679
   55CHL1  H18A 5204   3.684   6.296   3.188  1.2873  2.9405  1.9698
   55CHL1  H18B 5205   3.631   6.314   3.348 -0.5650  0.9539 -0.5673
   55CHL1  H18C 5206   3.702   6.150   3.304  0.5989 -0.1783 -0.7278
   55CHL1   C12 5207   3.505   6.090   3.101 -0.1394  0.5054  0.4613
   55CHL1  H12A 5208   3.572   6.008   3.134 -1.4266 -1.4087 -1.4467
   55CHL1  H12B 5209   3.407   6.041   3.082 -1.1329  2.4931  0.2392
   55CHL1   C11 5210   3.560   6.159   2.979  0.7816  0.0487  0.3573
   55CHL1  H11A 5211   3.666   6.190   2.988  1.0825 -0.8597  0.0560
   55CHL1  H11B 5212   3.554   6.073   2.909 -0.0026 -1.3436  2.0804
   55CHL1    C9 5213   3.481   6.288   2.932 -0.0892  0.3080 -0.5349
   55CHL1    H9 5214   3.380   6.247   2.912 -0.0607 -0.2961  0.4347
   55CHL1   C10 5215   3.527   6.349   2.798  0.5215  0.0186  0.1851
   55CHL1   C19 5216   3.678   6.366   2.803  0.3844  0.2008  0.4049
   55CHL1  H19A 5217   3.718   6.263   2.793 -0.4750 -0.0223 -1.0455
   55CHL1  H19B 5218   3.726   6.417   2.716 -0.2788 -0.6836 -0.5058
   55CHL1  H19C 5219   3.716   6.405   2.900  2.3381 -0.2268 -0.1466
   55CHL1    C1 5220   3.475   6.254   2.686 -0.1098 -0.6670 -0.2313
   55CHL1   H1A 5221   3.524   6.156   2.707  0.4259 -0.4488 -0.4356
   55CHL1   H1B 5222   3.366   6.240   2.701 -0.3604  1.1409 -0.1608
   55CHL1    C2 5223   3.495   6.303   2.546  0.5009  0.5363  0.4239
   55CHL1   H2A 5224   3.473   6.228   2.467  0.0772  0.9173  0.1759
   55CHL1   H2B 5225   3.603   6.325   2.538  1.0076 -1.6763  0.4468
   55CHL1   C20 5226   3.463   6.053   3.439  0.5434  0.6886  0.2226
   55CHL1   H20 5227   3.543   6.095   3.503 -0.2152 -0.0817  1.7377
   55CHL1   C21 5228   3.513   5.923   3.372 -0.0925 -0.2609 -0.1923
   55CHL1  H21A 5229   3.545   5.850   3.449 -0.6178  0.6592  0.9243
   55CHL1  H21B 5230   3.611   5.943   3.325  0.6213 -0.1466  1.2967
   55CHL1  H21C 5231   3.444   5.871   3.302 -0.7858 -0.8812  0.9113
   55CHL1   C22 5232   3.359   6.018   3.541 -0.3059  0.3732  0.1309
   55CHL1  H22A 5233   3.301   6.107   3.572 -0.2115  0.5576 -0.2096
   55CHL1  H22B 5234   3.287   5.949   3.493 -0.7141  0.3210  0.8098
   55CHL1   C23 5235   3.404   5.954   3.667  0.2352  0.0143  0.5104
   55CHL1  H23A 5236   3.446   5.855   3.639  2.2556  0.6850  0.9814
   55CHL1  H23B 5237   3.484   6.011   3.719 -0.2403  0.8354  0.3615
   55CHL1   C24 5238   3.293   5.929   3.767  0.3337 -1.1835  0.8458
   55CHL1  H24A 5239   3.250   6.026   3.797  0.3269 -0.9779  0.1895
   55CHL1  H24B 5240   3.212   5.874   3.714 -0.5784 -0.1547  1.1443
   55CHL1   C25 5241   3.346   5.860   3.892 -0.2349  0.7431  0.0648
   55CHL1   H25 5242   3.430   5.918   3.936  2.4616 -0.6766 -2.7805
   55CHL1   C26 5243   3.232   5.843   3.992  0.6510 -0.3679 -0.7244
   55CHL1  H26A 5244   3.250   5.768   4.072 -1.1219  0.1773  0.2503
   55CHL1  H26B 5245   3.197   5.941   4.032  0.6667 -0.5802 -0.1899
   55CHL1  H26C 5246   3.145   5.825   3.924 -1.2512  3.7321  0.2797
   55CHL1   C27 5247   3.403   5.721   3.857  0.3327  0.2330  0.0330
   55CHL1  H27A 5248   3.320   5.680   3.796  0.6897 -0.4301 -0.0162
   55CHL1  H27B 5249   3.490   5.733   3.789  1.5471 -1.2494  1.2364
   55CHL1  H27C 5250   3.432   5.652   3.939  0.7743 -1.9552 -1.8578
   56CHL1    C3 5251   5.885   1.473   2.910 -0.5846 -0.6208  0.0488
   56CHL1    H3 5252   5.784   1.518   2.917  0.4456  1.5746  2.9220
   56CHL1    O3 5253   5.932   1.465   2.774  0.5549 -0.3041  0.2806
   56CHL1   H3' 5254   5.853   1.489   2.726 -1.2415 -2.9950  1.6099
   56CHL1    C4 5255   5.985   1.568   2.986  0.0909  0.2858 -0.4508
   56CHL1   H4A 5256   6.084   1.517   2.994  0.3814  0.7594 -0.9393
   56CHL1   H4B 5257   6.003   1.658   2.923 -0.7523 -0.3670 -1.6551
   56CHL1    C5 5258   5.927   1.599   3.121 -0.0667  0.6973  0.8354
   56CHL1    C6 5259   5.900   1.722   3.154  0.0579  0.1553  0.5773
   56CHL1    H6 5260   5.915   1.801   3.079 -1.3501  0.6836  0.8219
   56CHL1    C7 5261   5.856   1.754   3.291 -0.3345  0.4893 -0.7699
   56CHL1   H7A 5262   5.914   1.832   3.344  0.1279 -2.1139  3.0043
   56CHL1   H7B 5263   5.745   1.768   3.289 -0.4693 -0.5777 -1.7692
   56CHL1    C8 5264   5.872   1.631   3.392  0.3491 -0.2437  0.4835
   56CHL1    H8 5265   5.980   1.618   3.413  0.3667  0.8781  1.1722
   56CHL1   C14 5266   5.785   1.663   3.512 -0.5277  0.2942 -0.0372
   56CHL1   H14 5267   5.685   1.663   3.465 -0.5617  0.8531  0.0204
   56CHL1   C15 5268   5.800   1.800   3.576  0.1001 -0.6626  0.0440
   56CHL1  H15A 5269   5.910   1.810   3.563  0.1054 -1.3478 -0.4829
   56CHL1  H15B 5270   5.749   1.883   3.521 -1.4099 -1.7617 -0.2764
   56CHL1   C16 5271   5.742   1.783   3.715 -0.0397  0.4908 -0.3048
   56CHL1  H16A 5272   5.823   1.791   3.790 -0.4761 -2.0768  0.5447
   56CHL1  H16B 5273   5.658   1.851   3.739 -0.2925 -0.5929  2.1259
   56CHL1   C17 5274   5.695   1.626   3.722  0.1024 -0.3726  0.3908
   56CHL1   H17 5275   5.592   1.613   3.682  0.4474 -1.5149 -0.1730
   56CHL1   C13 5276   5.786   1.557   3.626 -0.4207  0.3354  0.0491
   56CHL1   C18 5277   5.934   1.549   3.674 -0.2007  0.4963  0.6111
   56CHL1  H18A 5278   5.997   1.522   3.586 -0.7249 -1.1284  0.6996
   56CHL1  H18B 5279   5.968   1.645   3.719  0.4035  0.1102  0.9935
   56CHL1  H18C 5280   5.943   1.481   3.761 -1.5284 -0.4946  0.0088
   56CHL1   C12 5281   5.737   1.422   3.568 -0.1228  0.2047  0.5121
   56CHL1  H12A 5282   5.756   1.334   3.633  1.3200  0.5676  0.6026
   56CHL1  H12B 5283   5.629   1.438   3.544 -0.0541 -0.0122  0.0497
   56CHL1   C11 5284   5.813   1.394   3.435  0.1092 -0.0008  0.0747
   56CHL1  H11A 5285   5.910   1.365   3.481 -0.3006  2.5960  2.8822
   56CHL1  H11B 5286   5.765   1.304   3.390  0.2245  0.5711 -1.2448
   56CHL1    C9 5287   5.827   1.499   3.332 -0.1616 -0.4588 -0.4137
   56CHL1    H9 5288   5.722   1.528   3.307 -0.2710  2.7099  2.8772
   56CHL1   C10 5289   5.909   1.470   3.204  0.4748  1.1913  0.2141
   56CHL1   C19 5290   6.045   1.410   3.241 -0.0259  0.6480  0.2365
   56CHL1  H19A 5291   6.023   1.315   3.292 -1.6359  0.9872  0.2212
   56CHL1  H19B 5292   6.105   1.376   3.153 -0.9372 -1.2547  0.3106
   56CHL1  H19C 5293   6.100   1.482   3.306 -0.4443 -0.5922  2.0265
   56CHL1    C1 5294   5.834   1.361   3.131 -0.0977 -0.1033 -0.0386
   56CHL1   H1A 5295   5.831   1.265   3.186  0.5496 -0.1306 -0.0446
   56CHL1   H1B 5296   5.724   1.375   3.115  0.1609  0.3063 -1.7219
   56CHL1    C2 5297   5.887   1.337   2.986 -0.1900  0.7698  0.5257
   56CHL1   H2A 5298   5.837   1.266   2.917  1.8577 -1.8953  1.5798
   56CHL1   H2B 5299   5.991   1.298   2.988 -0.2778  0.5011  0.1147
   56CHL1   C20 5300   5.689   1.570   3.863  0.9429  0.7182 -0.2113
   56CHL1   H20 5301   5.702   1.461   3.849  0.3224  0.5667  0.3136
   56CHL1   C21 5302   5.544   1.610   3.913  0.0946 -0.4626  0.1138
   56CHL1  H21A 5303   5.508   1.713   3.894  0.5991 -0.6157 -1.7875
   56CHL1  H21B 5304   5.514   1.587   4.018 -2.3752  0.4702 -0.3181
   56CHL1  H21C 5305   5.473   1.540   3.864  0.5537 -1.4942  0.8689
   56CHL1   C22 5306   5.797   1.608   3.965  0.4645  0.2762  0.8146
   56CHL1  H22A 5307   5.899   1.607   3.922  1.0131  1.9791  1.9836
   56CHL1  H22B 5308   5.774   1.712   3.996 -0.3127  0.8227 -1.3738
   56CHL1   C23 5309   5.779   1.524   4.097 -0.0645 -0.3012  0.7417
   56CHL1  H23A 5310   5.679   1.543   4.141 -0.6293  1.0794 -1.0183
   56CHL1  H23B 5311   5.790   1.414   4.083 -2.1920 -0.2700 -1.9629
   56CHL1   C24 5312   5.884   1.570   4.207  0.0084  0.1971  0.5785
   56CHL1  H24A 5313   5.988   1.544   4.178  0.1736  0.1183  1.2209
   56CHL1  H24B 5314   5.870   1.677   4.234  0.0318  0.1939  0.6022
   56CHL1   C25 5315   5.870   1.482   4.335  0.7035 -0.9257 -0.4479
   56CHL1   H25 5316   5.857   1.376   4.305 -0.5418 -0.1286 -2.9289
   56CHL1   C26 5317   6.005   1.503   4.410  0.3237  0.3320 -0.4260
   56CHL1  H26A 5318   6.005   1.436   4.499 -0.6935  0.7022 -0.1378
   56CHL1  H26B 5319   6.091   1.492   4.340  0.1088 -0.0455 -0.6329
   56CHL1  H26C 5320   6.009   1.611   4.438 -2.6425  0.0388  1.5149
   56CHL1   C27 5321   5.746   1.513   4.425 -0.1028 -0.2910  0.4142
   56CHL1  H27A 5322   5.748   1.623   4.441 -0.2246 -0.4275  1.4369
   56CHL1  H27B 5323   5.661   1.482   4.361  0.0385  0.9665 -0.4058
   56CHL1  H27C 5324   5.744   1.465   4.525 -1.2565  1.9500  1.5385
   57CHL1    C3 5325   4.484   6.782   2.748  1.2063  1.0604 -0.4703
   57CHL1    H3 5326   4.390   6.838   2.768  0.0810 -1.2695  1.3813
   57CHL1    O3 5327   4.496   6.791   2.608  0.3589 -0.6042 -0.1625
   57CHL1   H3' 5328   4.492   6.703   2.570 -1.1899  0.6789 -3.3590
   57CHL1    C4 5329   4.599   6.856   2.816 -0.1982 -0.3278 -0.1801
   57CHL1   H4A 5330   4.692   6.816   2.770  0.3514  1.0487 -0.2984
   57CHL1   H4B 5331   4.592   6.965   2.801 -1.7791 -0.0997  1.7589
   57CHL1    C5 5332   4.607   6.835   2.963  0.0217  0.1783  0.5368
   57CHL1    C6 5333   4.621   6.936   3.050  0.4388 -0.8190 -1.0093
   57CHL1    H6 5334   4.637   7.037   3.010 -0.4586 -0.2540 -0.0056
   57CHL1    C7 5335   4.630   6.920   3.204 -0.2534 -0.4801 -0.8297
   57CHL1   H7A 5336   4.722   6.972   3.238 -1.0733  0.6739 -0.3016
   57CHL1   H7B 5337   4.547   6.956   3.268  0.8680 -0.2634  0.5446
   57CHL1    C8 5338   4.652   6.769   3.244  0.8231  0.3331  0.2008
   57CHL1    H8 5339   4.754   6.735   3.215  0.3491 -1.9298  0.9956
   57CHL1   C14 5340   4.640   6.749   3.396 -0.2929 -0.8403  0.3473
   57CHL1   H14 5341   4.541   6.792   3.422 -0.6186 -1.3567 -0.0453
   57CHL1   C15 5342   4.750   6.820   3.488  0.5379 -0.0656 -0.0024
   57CHL1  H15A 5343   4.846   6.788   3.442 -0.2327  0.1377 -1.8187
   57CHL1  H15B 5344   4.743   6.931   3.477 -2.4693  0.1825  2.9782
   57CHL1   C16 5345   4.724   6.757   3.621  0.3748 -0.1704  0.7314
   57CHL1  H16A 5346   4.819   6.715   3.660  1.4674  1.4915 -0.0643
   57CHL1  H16B 5347   4.687   6.838   3.688  0.4305 -0.6936  1.4023
   57CHL1   C17 5348   4.634   6.631   3.602  0.1279 -0.2395  0.0699
   57CHL1   H17 5349   4.532   6.665   3.627  0.4213  0.0177  0.9604
   57CHL1   C13 5350   4.626   6.605   3.446  0.3340 -0.3609 -0.5858
   57CHL1   C18 5351   4.756   6.526   3.412 -0.6140  0.1307 -0.2753
   57CHL1  H18A 5352   4.749   6.415   3.423 -0.0216  0.0710 -0.4536
   57CHL1  H18B 5353   4.778   6.543   3.304 -0.1450  0.2465 -0.1652
   57CHL1  H18C 5354   4.841   6.564   3.472  0.2266  0.5621 -1.6775
   57CHL1   C12 5355   4.506   6.545   3.376  0.9796 -1.0127 -0.5604
   57CHL1  H12A 5356   4.490   6.443   3.418 -1.4657 -0.5509 -0.1835
   57CHL1  H12B 5357   4.414   6.603   3.401  0.3232 -1.3789 -2.0388
   57CHL1   C11 5358   4.526   6.544   3.224 -0.1556  0.0468  0.6624
   57CHL1  H11A 5359   4.610   6.476   3.198 -0.5315  0.2122 -1.1109
   57CHL1  H11B 5360   4.438   6.500   3.172  0.6747  0.7199 -1.4330
   57CHL1    C9 5361   4.549   6.684   3.161  0.4000 -0.0037 -0.6136
   57CHL1    H9 5362   4.448   6.730   3.171  0.2519 -0.8106  3.1914
   57CHL1   C10 5363   4.587   6.686   3.015 -0.5696  0.0548  0.7289
   57CHL1   C19 5364   4.726   6.625   2.980  0.4101 -0.0209  0.2503
   57CHL1  H19A 5365   4.747   6.620   2.872  0.1801 -0.4120  0.2216
   57CHL1  H19B 5366   4.801   6.696   3.021  0.9659  0.1958 -1.1006
   57CHL1  H19C 5367   4.749   6.527   3.027 -1.9941 -0.6574  0.2446
   57CHL1    C1 5368   4.465   6.616   2.937 -0.3648  0.7135 -0.4105
   57CHL1   H1A 5369   4.476   6.507   2.957 -2.5573  0.5247  0.0172
   57CHL1   H1B 5370   4.365   6.639   2.979 -2.6422 -1.9101 -3.7653
   57CHL1    C2 5371   4.464   6.636   2.783 -0.5513 -0.5627 -0.2373
   57CHL1   H2A 5372   4.381   6.578   2.737  0.4400 -1.9887 -0.2788
   57CHL1   H2B 5373   4.552   6.582   2.743 -0.1640 -2.0273  2.3616
   57CHL1   C20 5374   4.669   6.514   3.696 -0.6334  0.2326  0.0442
   57CHL1   H20 5375   4.767   6.467   3.672 -0.0027  0.0166  2.7071
   57CHL1   C21 5376   4.553   6.408   3.691 -0.0040  0.0395  0.2396
   57CHL1  H21A 5377   4.460   6.469   3.700  0.4927  0.5840  2.1141
   57CHL1  H21B 5378   4.565   6.338   3.776  2.3054 -0.5708 -0.5333
   57CHL1  H21C 5379   4.556   6.345   3.600 -0.5785 -0.0935  0.3081
   57CHL1   C22 5380   4.694   6.563   3.840  0.3146  0.2078 -0.3875
   57CHL1  H22A 5381   4.712   6.478   3.909 -0.2135  1.3824  1.2830
   57CHL1  H22B 5382   4.778   6.636   3.840  0.0601  0.5074 -1.0872
   57CHL1   C23 5383   4.568   6.641   3.902  0.3610  0.1103  0.5718
   57CHL1  H23A 5384   4.546   6.730   3.840  0.0153 -0.1137  0.3688
   57CHL1  H23B 5385   4.481   6.573   3.907 -0.3849  0.9888 -0.1321
   57CHL1   C24 5386   4.568   6.685   4.047 -0.1097  0.1863 -0.4018
   57CHL1  H24A 5387   4.479   6.743   4.080 -1.4962 -1.7995 -0.4273
   57CHL1  H24B 5388   4.564   6.595   4.112  1.1982 -0.8953 -1.7439
   57CHL1   C25 5389   4.684   6.783   4.081 -0.1300 -0.5324 -0.4031
   57CHL1   H25 5390   4.780   6.749   4.037 -0.6096 -1.6020 -0.6365
   57CHL1   C26 5391   4.649   6.921   4.038  0.0288  0.5070 -1.0968
   57CHL1  H26A 5392   4.631   6.917   3.929 -0.4348 -1.4190 -0.9948
   57CHL1  H26B 5393   4.562   6.962   4.095 -0.3819 -0.0385 -1.3187
   57CHL1  H26C 5394   4.742   6.976   4.064  0.1666  0.0597 -0.6268
   57CHL1   C27 5395   4.705   6.778   4.234  0.2546  0.2471 -1.1382
   57CHL1  H27A 5396   4.714   6.678   4.282 -0.4162  0.7934  0.1822
   57CHL1  H27B 5397   4.798   6.837   4.249  0.9124 -0.2585 -2.9420
   57CHL1  H27C 5398   4.614   6.824   4.279 -1.0650 -0.6931 -2.7120
   58CHL1    C3 5399   4.715   0.599   2.959  0.1135 -0.0926 -0.2148
   58CHL1    H3 5400   4.774   0.687   2.992 -0.1711  0.4581 -1.1144
   58CHL1    O3 5401   4.729   0.584   2.822  0.2113 -0.2357  0.0715
   58CHL1   H3' 5402   4.669   0.513   2.799  0.3335  0.0626 -1.2268
   58CHL1    C4 5403   4.751   0.468   3.026  0.1592 -0.0760 -0.3779
   58CHL1   H4A 5404   4.690   0.387   2.981  1.2752 -1.3495  0.2910
   58CHL1   H4B 5405   4.852   0.434   2.994  0.3225 -0.4442  0.4918
   58CHL1    C5 5406   4.735   0.463   3.172  0.5565 -0.1019 -0.5364
   58CHL1    C6 5407   4.837   0.442   3.251  0.0819 -0.4815  0.0205
   58CHL1    H6 5408   4.939   0.427   3.210  0.3688 -2.1306  1.2559
   58CHL1    C7 5409   4.832   0.445   3.403  0.0955  0.0005  0.3471
   58CHL1   H7A 5410   4.899   0.366   3.443  1.3221  2.0052  2.4896
   58CHL1   H7B 5411   4.871   0.543   3.436  0.8371  0.3426 -1.4689
   58CHL1    C8 5412   4.695   0.438   3.454  0.0645  0.1123 -0.3990
   58CHL1    H8 5413   4.666   0.331   3.444  2.2674 -0.6578  0.8981
   58CHL1   C14 5414   4.702   0.469   3.604  1.1471  0.0556  0.0893
   58CHL1   H14 5415   4.748   0.570   3.606 -0.4339  0.8455 -1.4147
   58CHL1   C15 5416   4.802   0.389   3.694  0.4538  0.0635 -0.5052
   58CHL1  H15A 5417   4.780   0.284   3.667 -0.5463  0.3012 -0.6765
   58CHL1  H15B 5418   4.907   0.411   3.665  0.4297  1.0717  0.1098
   58CHL1   C16 5419   4.759   0.431   3.841  0.2618  0.6702  0.4806
   58CHL1  H16A 5420   4.759   0.334   3.896  2.2880 -1.0995 -2.3285
   58CHL1  H16B 5421   4.821   0.507   3.892  0.1034  0.5948  0.7882
   58CHL1   C17 5422   4.610   0.496   3.826 -0.5252  0.5702  0.1890
   58CHL1   H17 5423   4.621   0.606   3.843 -0.9842  0.3494  2.0623
   58CHL1   C13 5424   4.569   0.470   3.677 -0.4021  0.5140  0.0334
   58CHL1   C18 5425   4.484   0.334   3.656 -0.0569 -0.3630  0.0455
   58CHL1  H18A 5426   4.384   0.351   3.701  0.2869 -0.3040  0.7893
   58CHL1  H18B 5427   4.461   0.304   3.551 -0.0164  2.2572 -0.7877
   58CHL1  H18C 5428   4.537   0.255   3.714  0.8952  1.1329  1.2934
   58CHL1   C12 5429   4.484   0.582   3.617  0.2847 -0.3736  0.3934
   58CHL1  H12A 5430   4.384   0.572   3.664  0.7633 -0.2822  1.4430
   58CHL1  H12B 5431   4.519   0.686   3.635 -1.4414  0.3383 -0.1680
   58CHL1   C11 5432   4.471   0.563   3.464  0.2944 -0.5442 -0.7819
   58CHL1  H11A 5433   4.396   0.484   3.442 -0.4499  0.1322 -0.7388
   58CHL1  H11B 5434   4.408   0.651   3.435  0.2040  0.2632  1.6522
   58CHL1    C9 5435   4.601   0.538   3.384  0.4765  0.0677  0.4400
   58CHL1    H9 5436   4.654   0.636   3.378  1.7749 -0.6997 -2.2579
   58CHL1   C10 5437   4.587   0.501   3.228 -0.2645  0.8591  0.5150
   58CHL1   C19 5438   4.493   0.378   3.206 -0.0254  0.5255 -0.1334
   58CHL1  H19A 5439   4.393   0.419   3.229  0.1382  2.2696 -2.2082
   58CHL1  H19B 5440   4.490   0.342   3.101  0.6662  1.1509 -0.3716
   58CHL1  H19C 5441   4.517   0.291   3.271 -2.1830 -0.7351 -0.9293
   58CHL1    C1 5442   4.545   0.635   3.145  0.4627 -0.4910 -0.2536
   58CHL1   H1A 5443   4.443   0.667   3.175  1.3190  2.0691  0.1905
   58CHL1   H1B 5444   4.615   0.717   3.173 -0.5610  0.7172 -1.1178
   58CHL1    C2 5445   4.570   0.629   2.995  0.7026 -0.0210 -0.9258
   58CHL1   H2A 5446   4.529   0.728   2.968 -0.6926 -0.2604  0.1900
   58CHL1   H2B 5447   4.500   0.555   2.951  0.4859 -0.7101  0.5283
   58CHL1   C20 5448   4.525   0.458   3.943  0.2512 -0.1309 -0.2948
   58CHL1   H20 5449   4.511   0.348   3.931 -1.3153  0.2110 -2.1153
   58CHL1   C21 5450   4.390   0.539   3.942  0.2404  0.2310  0.4884
   58CHL1  H21A 5451   4.409   0.648   3.935  0.6324  0.2492  1.7020
   58CHL1  H21B 5452   4.325   0.520   4.030 -2.1610  0.0382 -1.2097
   58CHL1  H21C 5453   4.335   0.510   3.849  0.2714  2.4206 -0.2693
   58CHL1   C22 5454   4.594   0.481   4.075  0.0001  0.6757  0.0193
   58CHL1  H22A 5455   4.696   0.436   4.072 -0.9306 -1.5101 -0.4559
   58CHL1  H22B 5456   4.603   0.592   4.083 -1.1864  0.6631  2.5765
   58CHL1   C23 5457   4.524   0.431   4.200  0.0423 -0.5003  0.4668
   58CHL1  H23A 5458   4.414   0.447   4.202  0.1072  0.2585 -0.9052
   58CHL1  H23B 5459   4.517   0.320   4.195 -2.8859 -0.3738 -0.0595
   58CHL1   C24 5460   4.595   0.484   4.324  0.3143  0.1234  1.0490
   58CHL1  H24A 5461   4.704   0.465   4.319  0.0700 -1.7775  1.9705
   58CHL1  H24B 5462   4.586   0.595   4.317  1.4088  0.4014  3.3602
   58CHL1   C25 5463   4.539   0.431   4.457 -0.1442  0.0057 -0.2161
   58CHL1   H25 5464   4.429   0.441   4.451  0.1108  2.5777 -2.8453
   58CHL1   C26 5465   4.559   0.277   4.467 -0.4180 -0.5532  0.2516
   58CHL1  H26A 5466   4.667   0.251   4.471 -0.3870 -0.3568  0.8092
   58CHL1  H26B 5467   4.505   0.243   4.558 -0.4642  0.6831  0.7131
   58CHL1  H26C 5468   4.518   0.229   4.376  0.4585 -2.2893  0.7327
   58CHL1   C27 5469   4.596   0.505   4.579  0.3428 -0.5712  0.3695
   58CHL1  H27A 5470   4.694   0.464   4.610  1.5046  1.3531 -0.6093
   58CHL1  H27B 5471   4.608   0.613   4.559  1.4502 -0.0673  3.2300
   58CHL1  H27C 5472   4.530   0.482   4.665 -0.7021 -0.7459 -0.4598
   59CHL1    C3 5473   2.904   4.833   2.594  0.0618  0.4939  0.0397
   59CHL1    H3 5474   2.828   4.755   2.575 -0.4214  1.4351 -2.3891
   59CHL1    O3 5475   2.940   4.883   2.467 -0.6688 -1.4011  0.0368
   59CHL1   H3' 5476   2.997   4.956   2.490 -0.1546 -1.9370  0.5046
   59CHL1    C4 5477   2.836   4.936   2.685  0.7912  0.6335  0.1886
   59CHL1   H4A 5478   2.898   5.027   2.696  0.9894  0.4577  0.5545
   59CHL1   H4B 5479   2.748   4.970   2.626  0.0292  0.3125  1.1061
   59CHL1    C5 5480   2.780   4.872   2.812 -0.3436 -0.2040  0.2079
   59CHL1    C6 5481   2.650   4.877   2.846 -0.1513 -0.5425  0.3207
   59CHL1    H6 5482   2.588   4.929   2.772 -0.4940  0.5770  1.3513
   59CHL1    C7 5483   2.591   4.814   2.970 -0.1012  0.1408  0.7486
   59CHL1   H7A 5484   2.517   4.887   3.009  2.5958  3.1656  0.6414
   59CHL1   H7B 5485   2.536   4.721   2.944  0.7839 -0.5043  1.1163
   59CHL1    C8 5486   2.704   4.787   3.068  0.0793 -0.5816 -0.1147
   59CHL1    H8 5487   2.745   4.884   3.103  2.2670 -1.7215  0.6765
   59CHL1   C14 5488   2.656   4.696   3.183 -0.2032 -0.8106 -0.8598
   59CHL1   H14 5489   2.640   4.596   3.138  0.6803 -2.3727  2.0787
   59CHL1   C15 5490   2.519   4.741   3.241  0.0054 -0.0174  0.7429
   59CHL1  H15A 5491   2.534   4.851   3.244 -0.7368  0.1050  0.2298
   59CHL1  H15B 5492   2.444   4.708   3.166  0.8945  0.8090 -0.5384
   59CHL1   C16 5493   2.508   4.683   3.382 -0.6420 -0.2244  0.4826
   59CHL1  H16A 5494   2.505   4.770   3.450  0.0690  0.9466 -0.9104
   59CHL1  H16B 5495   2.426   4.609   3.391 -0.4172 -0.4661  0.5796
   59CHL1   C17 5496   2.647   4.602   3.399  0.2645  0.6632  0.0667
   59CHL1   H17 5497   2.620   4.506   3.350  0.3643  0.4705  0.3841
   59CHL1   C13 5498   2.746   4.673   3.301  0.8423 -0.0605 -1.0315
   59CHL1   C18 5499   2.794   4.810   3.365  0.5416  0.3164 -0.0130
   59CHL1  H18A 5500   2.850   4.880   3.300 -0.0211  0.3477 -0.4763
   59CHL1  H18B 5501   2.712   4.878   3.397 -0.4639 -0.9557  0.2222
   59CHL1  H18C 5502   2.859   4.783   3.451  1.1530  0.1416 -0.5256
   59CHL1   C12 5503   2.860   4.601   3.240 -0.2566 -0.3958  1.5033
   59CHL1  H12A 5504   2.933   4.597   3.324 -0.3050  0.6723  1.6136
   59CHL1  H12B 5505   2.834   4.497   3.212 -0.8668 -0.3475  1.8768
   59CHL1   C11 5506   2.922   4.672   3.114  0.0575 -0.3389 -0.2658
   59CHL1  H11A 5507   2.968   4.760   3.163  0.8013 -0.8197 -0.0868
   59CHL1  H11B 5508   2.998   4.611   3.060  0.5196  0.1627 -0.1897
   59CHL1    C9 5509   2.820   4.721   3.009 -0.2400  0.6322  0.4200
   59CHL1    H9 5510   2.771   4.635   2.957 -0.8097  2.1062 -1.5854
   59CHL1   C10 5511   2.887   4.801   2.892  0.4270  0.4347 -0.2753
   59CHL1   C19 5512   2.968   4.914   2.952 -0.0983  0.6702 -0.9500
   59CHL1  H19A 5513   3.010   4.979   2.872 -0.2400  1.0951 -0.6824
   59CHL1  H19B 5514   2.909   4.975   3.024  0.5713 -1.6336  1.7843
   59CHL1  H19C 5515   3.056   4.879   3.011  0.2137  2.3853 -0.3327
   59CHL1    C1 5516   2.980   4.709   2.800  0.7557 -0.3829  0.0494
   59CHL1   H1A 5517   3.066   4.676   2.863 -0.1561 -2.2967  0.3472
   59CHL1   H1B 5518   2.925   4.615   2.779  0.4397 -0.3013  0.5037
   59CHL1    C2 5519   3.027   4.775   2.662 -0.3905  0.0213  0.1733
   59CHL1   H2A 5520   3.085   4.714   2.589  0.8598  0.6273  0.6270
   59CHL1   H2B 5521   3.088   4.865   2.685 -0.9919  0.6509 -0.6527
   59CHL1   C20 5522   2.689   4.571   3.544 -0.4467  0.4279  0.0499
   59CHL1   H20 5523   2.726   4.663   3.594  1.6848 -0.7033  0.6908
   59CHL1   C21 5524   2.788   4.453   3.532 -0.3375 -0.1707  0.4913
   59CHL1  H21A 5525   2.846   4.438   3.625 -1.4447 -2.5450  0.8854
   59CHL1  H21B 5526   2.846   4.439   3.439 -0.8204 -0.0478  0.1659
   59CHL1  H21C 5527   2.724   4.362   3.535  0.3013 -0.7063 -1.1457
   59CHL1   C22 5528   2.573   4.528   3.637 -0.0837  0.0684 -0.2646
   59CHL1  H22A 5529   2.514   4.622   3.636  0.0920  0.2666  2.2860
   59CHL1  H22B 5530   2.495   4.455   3.604  1.2691 -0.8009 -1.6990
   59CHL1   C23 5531   2.601   4.507   3.787 -0.0281 -0.2242 -0.3040
   59CHL1  H23A 5532   2.667   4.418   3.792  0.2800  0.0326  0.3339
   59CHL1  H23B 5533   2.657   4.590   3.835 -0.7524 -0.4545  0.9876
   59CHL1   C24 5534   2.474   4.476   3.867 -0.0736  0.3906  0.1090
   59CHL1  H24A 5535   2.400   4.559   3.857 -0.3270  0.5073  2.3847
   59CHL1  H24B 5536   2.425   4.388   3.819  1.6456 -0.7116  0.3071
   59CHL1   C25 5537   2.495   4.440   4.010 -0.4382  1.0463 -0.0892
   59CHL1   H25 5538   2.575   4.363   4.018  0.9099  2.2061 -1.6113
   59CHL1   C26 5539   2.543   4.564   4.080  0.0396  0.2513  0.7740
   59CHL1  H26A 5540   2.639   4.599   4.037  0.6331 -2.0464  0.0677
   59CHL1  H26B 5541   2.471   4.649   4.078  0.6991  0.8248  1.0049
   59CHL1  H26C 5542   2.556   4.536   4.187 -0.9753  1.7316  1.3257
   59CHL1   C27 5543   2.370   4.377   4.071 -0.0360 -0.0987  0.1209
   59CHL1  H27A 5544   2.292   4.455   4.091  0.4667  1.5417 -3.4486
   59CHL1  H27B 5545   2.318   4.311   3.998 -0.9336  0.2970  0.3846
   59CHL1  H27C 5546   2.395   4.319   4.162  0.1132 -1.4516 -0.7524
   60CHL1    C3 5547   5.652   5.866   2.862 -0.0995  0.1050 -0.1011
   60CHL1    H3 5548   5.677   5.765   2.901 -0.2801  0.2951  0.5228
   60CHL1    O3 5549   5.652   5.855   2.727 -0.1969 -0.4239 -0.1872
   60CHL1   H3' 5550   5.642   5.946   2.697  0.1883 -0.0566  0.7530
   60CHL1    C4 5551   5.513   5.900   2.911 -0.0213 -0.1780 -0.4627
   60CHL1   H4A 5552   5.477   5.998   2.875 -0.6548  0.4069  1.6335
   60CHL1   H4B 5553   5.447   5.821   2.868 -0.0917 -0.1414 -0.4202
   60CHL1    C5 5554   5.501   5.906   3.066  0.1592  0.3061 -0.0109
   60CHL1    C6 5555   5.420   5.827   3.133 -1.0665  0.9199  0.0362
   60CHL1    H6 5556   5.353   5.763   3.074 -1.7193  2.1313 -0.5588
   60CHL1    C7 5557   5.415   5.812   3.281 -0.7732 -0.7223  0.5198
   60CHL1   H7A 5558   5.308   5.799   3.309 -0.8079 -1.4281  0.1010
   60CHL1   H7B 5559   5.477   5.721   3.299 -2.2936 -2.2877 -1.6963
   60CHL1    C8 5560   5.479   5.938   3.350  0.1497 -0.4584  0.2728
   60CHL1    H8 5561   5.403   6.018   3.339 -2.0848 -2.5738 -0.4127
   60CHL1   C14 5562   5.498   5.914   3.497  0.3464  0.0486 -0.3987
   60CHL1   H14 5563   5.568   5.829   3.509  2.0727  0.9448 -3.2938
   60CHL1   C15 5564   5.377   5.871   3.581  1.1016 -0.2385 -0.4603
   60CHL1  H15A 5565   5.286   5.922   3.543  0.2897 -1.5454 -0.3510
   60CHL1  H15B 5566   5.368   5.761   3.565  0.2529  0.0344 -2.1134
   60CHL1   C16 5567   5.420   5.905   3.728 -0.3673  1.0401 -0.0285
   60CHL1  H16A 5568   5.355   5.975   3.785 -1.5011 -0.0247  0.0245
   60CHL1  H16B 5569   5.441   5.815   3.791 -1.4077  1.7068  1.3246
   60CHL1   C17 5570   5.560   5.981   3.721 -0.1685  0.2000 -1.0662
   60CHL1   H17 5571   5.652   5.921   3.736  2.0259  2.0956 -5.1608
   60CHL1   C13 5572   5.567   6.028   3.577  0.4123 -0.0608  0.2785
   60CHL1   C18 5573   5.490   6.159   3.557 -0.4887  0.0222 -0.3171
   60CHL1  H18A 5574   5.388   6.152   3.599 -0.9905 -0.8695 -1.6095
   60CHL1  H18B 5575   5.544   6.246   3.599  1.8937 -2.1332  1.3722
   60CHL1  H18C 5576   5.475   6.186   3.450 -0.9686  0.8756 -0.0444
   60CHL1   C12 5577   5.716   6.037   3.511  0.2344  0.3993  0.6471
   60CHL1  H12A 5578   5.789   6.107   3.557  1.5624  0.6742 -1.7189
   60CHL1  H12B 5579   5.766   5.938   3.515  0.2491  0.3562 -0.4213
   60CHL1   C11 5580   5.702   6.074   3.362 -0.1382 -0.2138 -0.6398
   60CHL1  H11A 5581   5.664   6.178   3.357  2.5185  1.0255  2.0809
   60CHL1  H11B 5582   5.804   6.077   3.319 -0.6197  0.1342 -1.8014
   60CHL1    C9 5583   5.618   5.975   3.285 -0.4907  0.4843 -0.4488
   60CHL1    H9 5584   5.665   5.875   3.292  1.8447  1.5753  0.3211
   60CHL1   C10 5585   5.604   5.999   3.133 -0.8219  0.4667 -0.3396
   60CHL1   C19 5586   5.562   6.148   3.105  0.1320 -0.0614  0.4049
   60CHL1  H19A 5587   5.634   6.222   3.147 -1.0240  0.0929  2.2237
   60CHL1  H19B 5588   5.528   6.162   3.000  0.8292 -0.9325  0.0502
   60CHL1  H19C 5589   5.473   6.172   3.167  0.2271  2.5174 -0.3251
   60CHL1    C1 5590   5.744   5.962   3.068  0.8437  0.3796 -0.4791
   60CHL1   H1A 5591   5.819   6.035   3.105  2.5226 -0.6181 -1.7602
   60CHL1   H1B 5592   5.771   5.861   3.108  0.3814  0.2812 -0.4121
   60CHL1    C2 5593   5.754   5.962   2.911 -0.6233  0.6817 -0.2456
   60CHL1   H2A 5594   5.857   5.939   2.875 -0.6427  1.2302 -0.6503
   60CHL1   H2B 5595   5.733   6.063   2.873  1.4458  0.6768 -1.5436
   60CHL1   C20 5596   5.571   6.088   3.830 -0.0680  0.1056 -0.1247
   60CHL1   H20 5597   5.490   6.163   3.817  0.4786  0.8580  0.6264
   60CHL1   C21 5598   5.707   6.169   3.811  0.1958 -0.0474  0.0117
   60CHL1  H21A 5599   5.707   6.225   3.716  1.3543 -2.2415 -1.3615
   60CHL1  H21B 5600   5.785   6.091   3.799  0.0241  0.2838 -5.3449
   60CHL1  H21C 5601   5.723   6.244   3.891 -0.2981 -0.8651  0.9045
   60CHL1   C22 5602   5.561   6.029   3.972  0.4842  0.0982 -0.0910
   60CHL1  H22A 5603   5.459   5.987   3.987  0.0526  0.7172 -1.1501
   60CHL1  H22B 5604   5.636   5.948   3.984  0.6558  0.1459 -0.7649
   60CHL1   C23 5605   5.579   6.120   4.098 -0.9303 -0.1840  0.2045
   60CHL1  H23A 5606   5.680   6.167   4.101 -2.1925  2.8918 -0.8923
   60CHL1  H23B 5607   5.505   6.203   4.106 -1.2216 -0.5631  2.0548
   60CHL1   C24 5608   5.571   6.036   4.221  0.2753 -0.4639  0.4563
   60CHL1  H24A 5609   5.466   6.004   4.237 -0.3604  1.4391  0.2507
   60CHL1  H24B 5610   5.633   5.944   4.214  0.1337 -0.5648  0.5229
   60CHL1   C25 5611   5.631   6.109   4.348  0.4718  0.1919  0.1084
   60CHL1   H25 5612   5.740   6.110   4.326  0.5874 -2.7501  0.1891
   60CHL1   C26 5613   5.578   6.251   4.365  0.7827  0.1633 -0.3580
   60CHL1  H26A 5614   5.599   6.311   4.274 -3.2949 -0.5351 -1.9923
   60CHL1  H26B 5615   5.467   6.255   4.374  0.8479  1.5132  0.0147
   60CHL1  H26C 5616   5.632   6.291   4.454  0.6200  0.5628 -0.4384
   60CHL1   C27 5617   5.605   6.025   4.477  1.3883  0.1718 -0.1536
   60CHL1  H27A 5618   5.497   6.008   4.496  2.1175 -1.7203  3.1808
   60CHL1  H27B 5619   5.645   5.921   4.482 -0.5824 -0.6124 -0.0220
   60CHL1  H27C 5620   5.643   6.080   4.566  0.7056  1.7900 -0.8202
   61CHL1    C3 5621   5.646   2.381   2.997 -0.0985  0.0956 -0.0503
   61CHL1    H3 5622   5.745   2.337   3.024  0.0286 -0.9986 -2.1303
   61CHL1    O3 5623   5.650   2.411   2.860 -0.3480  0.5035  0.4482
   61CHL1   H3' 5624   5.559   2.406   2.832 -0.2635  0.9108  0.0910
   61CHL1    C4 5625   5.533   2.280   3.022  0.7650 -0.3533 -0.4324
   61CHL1   H4A 5626   5.439   2.301   2.966  0.5666  0.2619  0.1127
   61CHL1   H4B 5627   5.564   2.185   2.974 -1.7110 -0.7024 -1.5298
   61CHL1    C5 5628   5.498   2.258   3.169 -0.0339 -0.4577  0.2275
   61CHL1    C6 5629   5.485   2.140   3.221  0.3819  0.1503  0.0836
   61CHL1    H6 5630   5.501   2.053   3.156 -0.8185  0.6243 -0.8831
   61CHL1    C7 5631   5.455   2.108   3.366 -0.0282  0.3747 -0.1203
   61CHL1   H7A 5632   5.375   2.032   3.377 -2.4084  2.5723 -1.4030
   61CHL1   H7B 5633   5.547   2.060   3.406 -0.1595 -0.6042 -0.9491
   61CHL1    C8 5634   5.421   2.236   3.440 -0.5747  0.7499  0.9595
   61CHL1    H8 5635   5.315   2.249   3.411 -0.2982  0.0631 -0.4587
   61CHL1   C14 5636   5.437   2.220   3.592  0.2236  0.4066 -0.5047
   61CHL1   H14 5637   5.543   2.188   3.602  0.5095 -0.0580 -3.8892
   61CHL1   C15 5638   5.352   2.106   3.658 -0.5431 -0.3144 -0.8616
   61CHL1  H15A 5639   5.254   2.116   3.606 -0.7979  0.0178 -0.3263
   61CHL1  H15B 5640   5.400   2.009   3.631 -0.3341 -1.0708  1.9431
   61CHL1   C16 5641   5.348   2.137   3.805 -0.0840 -0.2751  0.3799
   61CHL1  H16A 5642   5.240   2.141   3.830 -0.2894  0.3910 -0.5615
   61CHL1  H16B 5643   5.401   2.055   3.859  0.1032 -0.8652 -0.6570
   61CHL1   C17 5644   5.407   2.273   3.828  0.2624  0.1154  0.6164
   61CHL1   H17 5645   5.517   2.272   3.846  0.1660  0.2142  1.2299
   61CHL1   C13 5646   5.408   2.337   3.681  0.0752  0.2710  0.2932
   61CHL1   C18 5647   5.267   2.393   3.656 -0.2104  0.1769 -0.2380
   61CHL1  H18A 5648   5.184   2.330   3.694 -1.2602  2.5086  1.5693
   61CHL1  H18B 5649   5.254   2.496   3.696  0.5959  0.3745 -0.4525
   61CHL1  H18C 5650   5.245   2.406   3.547  1.0515  1.2375 -0.3946
   61CHL1   C12 5651   5.516   2.446   3.644 -0.2861  0.5198  0.1985
   61CHL1  H12A 5652   5.506   2.535   3.709  1.5300 -1.1758  3.0308
   61CHL1  H12B 5653   5.614   2.406   3.676 -0.5669 -0.4461 -0.1103
   61CHL1   C11 5654   5.503   2.481   3.492 -0.2604  0.1101 -0.3538
   61CHL1  H11A 5655   5.405   2.531   3.478 -0.8992 -0.7586  0.8543
   61CHL1  H11B 5656   5.587   2.546   3.460 -0.8420  2.3328  2.2921
   61CHL1    C9 5657   5.511   2.356   3.397  0.2413 -0.0365 -0.2814
   61CHL1    H9 5658   5.616   2.325   3.418  0.7424  0.0479 -2.4380
   61CHL1   C10 5659   5.490   2.382   3.247  0.0089 -0.3164  0.3751
   61CHL1   C19 5660   5.352   2.437   3.221  0.2771 -0.1211  0.0171
   61CHL1  H19A 5661   5.339   2.481   3.120 -0.9071  1.2997  0.7647
   61CHL1  H19B 5662   5.279   2.357   3.244  0.9816 -0.5536  0.8321
   61CHL1  H19C 5663   5.330   2.521   3.290 -0.9044 -0.9568  0.6932
   61CHL1    C1 5664   5.607   2.482   3.210 -0.0947  0.3813 -0.3349
   61CHL1   H1A 5665   5.569   2.579   3.248 -2.2350 -0.8781  0.9954
   61CHL1   H1B 5666   5.703   2.440   3.246 -1.3153 -2.4800 -0.0582
   61CHL1    C2 5667   5.620   2.511   3.061 -0.1001  0.8818  0.1581
   61CHL1   H2A 5668   5.700   2.587   3.049  0.4264  0.5448  1.3417
   61CHL1   H2B 5669   5.531   2.566   3.023 -1.1916 -0.5189  0.5926
   61CHL1   C20 5670   5.352   2.356   3.943  0.9079 -0.4462  0.3704
   61CHL1   H20 5671   5.247   2.385   3.923  1.4234  0.3733 -1.4133
   61CHL1   C21 5672   5.438   2.485   3.970  0.2261 -0.2906  0.7640
   61CHL1  H21A 5673   5.420   2.548   3.880 -0.3713 -1.1281  0.2868
   61CHL1  H21B 5674   5.547   2.465   3.966 -0.1699 -2.6470 -2.2568
   61CHL1  H21C 5675   5.403   2.531   4.065  0.0679  1.0719  0.0676
   61CHL1   C22 5676   5.340   2.260   4.073  0.0089  0.2726  0.2306
   61CHL1  H22A 5677   5.302   2.161   4.040  1.6677 -0.6977  1.1219
   61CHL1  H22B 5678   5.441   2.240   4.114  0.4905 -0.4820 -1.2804
   61CHL1   C23 5679   5.254   2.294   4.195 -0.4714  0.6517  0.3850
   61CHL1  H23A 5680   5.293   2.387   4.243  0.3779 -1.1685  3.5142
   61CHL1  H23B 5681   5.150   2.317   4.163  0.0124  1.3576 -0.7474
   61CHL1   C24 5682   5.258   2.181   4.307 -0.3180 -0.3000  0.4372
   61CHL1  H24A 5683   5.211   2.089   4.266 -0.2562  0.4449 -1.4129
   61CHL1  H24B 5684   5.367   2.161   4.317 -0.3303 -1.4475 -1.3890
   61CHL1   C25 5685   5.200   2.229   4.436 -0.3391 -0.3805  0.3464
   61CHL1   H25 5686   5.236   2.331   4.461 -1.5014 -0.1318  1.0759
   61CHL1   C26 5687   5.046   2.230   4.420 -0.2085 -0.4775 -0.1034
   61CHL1  H26A 5688   5.014   2.125   4.402 -2.2363  0.0341  0.2951
   61CHL1  H26B 5689   5.009   2.259   4.521 -0.3793 -3.0852  0.6623
   61CHL1  H26C 5690   5.011   2.299   4.340  0.1259  0.1582  0.2943
   61CHL1   C27 5691   5.233   2.130   4.546 -0.5617 -0.2010  0.3319
   61CHL1  H27A 5692   5.176   2.155   4.638 -0.4873 -1.0536  0.6116
   61CHL1  H27B 5693   5.208   2.025   4.521  2.4074 -0.9366  0.1597
   61CHL1  H27C 5694   5.340   2.132   4.573 -1.0864  0.8661  2.5520
   62CHL1    C3 5695   1.469   0.658   2.695  0.2568  0.3568 -0.8825
   62CHL1    H3 5696   1.501   0.764   2.703  0.6917  0.2329 -0.9736
   62CHL1    O3 5697   1.449   0.621   2.563  0.5187 -0.0579 -0.2812
   62CHL1   H3' 5698   1.527   0.576   2.530 -0.3340 -2.0104  0.2623
   62CHL1    C4 5699   1.591   0.577   2.745 -0.4088 -0.3495  0.6425
   62CHL1   H4A 5700   1.578   0.469   2.721  2.3632 -0.2854 -1.5892
   62CHL1   H4B 5701   1.680   0.608   2.687  1.6499 -2.7520  2.2570
   62CHL1    C5 5702   1.622   0.593   2.893  0.2706 -0.3901 -0.1684
   62CHL1    C6 5703   1.741   0.637   2.935  0.3211 -0.4219  0.0968
   62CHL1    H6 5704   1.820   0.663   2.864 -0.5777 -0.7271 -1.0519
   62CHL1    C7 5705   1.778   0.664   3.079  0.3399  0.1202  0.0332
   62CHL1   H7A 5706   1.868   0.610   3.117 -0.6982 -0.6093  1.5384
   62CHL1   H7B 5707   1.790   0.772   3.101  2.9209  0.4478 -2.3749
   62CHL1    C8 5708   1.677   0.608   3.187  0.3587 -0.1493 -0.1794
   62CHL1    H8 5709   1.684   0.498   3.193 -0.0894 -0.2948 -1.9763
   62CHL1   C14 5710   1.700   0.681   3.323  0.4594 -0.3842  0.4349
   62CHL1   H14 5711   1.682   0.789   3.306  1.9062 -0.4396 -1.9333
   62CHL1   C15 5712   1.842   0.693   3.372  0.3645 -0.7299 -0.3493
   62CHL1  H15A 5713   1.874   0.586   3.371  0.5659 -0.7622  2.0741
   62CHL1  H15B 5714   1.908   0.762   3.316  0.5256 -0.0790  0.6082
   62CHL1   C16 5715   1.811   0.737   3.519  0.6130  0.3279  0.4390
   62CHL1  H16A 5716   1.869   0.669   3.586  2.3242  0.2065 -1.0952
   62CHL1  H16B 5717   1.856   0.837   3.533 -0.7998  0.9578  0.6980
   62CHL1   C17 5718   1.660   0.727   3.539  0.1394 -0.9450 -0.0597
   62CHL1   H17 5719   1.617   0.826   3.514  1.7957  0.0340  0.8245
   62CHL1   C13 5720   1.604   0.633   3.432 -0.3425 -0.2850  0.0242
   62CHL1   C18 5721   1.621   0.490   3.474 -0.3058  0.2018 -0.9408
   62CHL1  H18A 5722   1.562   0.467   3.565  0.9413 -2.1315 -0.6390
   62CHL1  H18B 5723   1.591   0.412   3.401  2.7476 -1.5090 -0.5359
   62CHL1  H18C 5724   1.727   0.472   3.501 -0.1923  1.8660 -0.1220
   62CHL1   C12 5725   1.455   0.660   3.384  0.1574  0.3314  0.0951
   62CHL1  H12A 5726   1.379   0.612   3.450  1.0803 -0.4528  0.6314
   62CHL1  H12B 5727   1.454   0.771   3.387  1.5197  0.3697 -0.1410
   62CHL1   C11 5728   1.433   0.596   3.241  0.0174 -0.3183  0.1412
   62CHL1  H11A 5729   1.440   0.485   3.251  0.2594 -0.1970  1.5295
   62CHL1  H11B 5730   1.328   0.617   3.210  0.1009  2.4484  1.4958
   62CHL1    C9 5731   1.534   0.639   3.136 -0.3416 -0.4545 -0.1963
   62CHL1    H9 5732   1.529   0.747   3.115 -3.0588 -0.7068 -1.2603
   62CHL1   C10 5733   1.503   0.579   2.994 -0.1776  0.1389 -0.4200
   62CHL1   C19 5734   1.466   0.431   3.006 -0.2502 -0.0240  0.1178
   62CHL1  H19A 5735   1.457   0.382   2.907  0.8557  1.2870 -0.6767
   62CHL1  H19B 5736   1.546   0.379   3.063 -1.2372  1.1438  2.7360
   62CHL1  H19C 5737   1.367   0.423   3.055 -1.4136  1.7793 -1.7475
   62CHL1    C1 5738   1.382   0.667   2.937 -0.9855 -0.3888  0.0251
   62CHL1   H1A 5739   1.292   0.664   3.002 -0.8840  0.5565  0.2121
   62CHL1   H1B 5740   1.425   0.768   2.949 -3.0585  0.6261 -0.7208
   62CHL1    C2 5741   1.344   0.637   2.790  0.4515  1.0997 -0.4903
   62CHL1   H2A 5742   1.262   0.703   2.753 -0.0367  0.4563 -0.5710
   62CHL1   H2B 5743   1.318   0.530   2.776  0.3003  1.1372 -0.4987
   62CHL1   C20 5744   1.630   0.704   3.683  0.2612  0.5115  0.0000
   62CHL1   H20 5745   1.681   0.608   3.708  1.3017  0.7121 -1.2506
   62CHL1   C21 5746   1.479   0.682   3.720  0.2489 -0.4194  0.3593
   62CHL1  H21A 5747   1.467   0.632   3.818 -0.3112  1.2578  1.1850
   62CHL1  H21B 5748   1.432   0.613   3.646  0.6476  1.4773 -1.7964
   62CHL1  H21C 5749   1.433   0.782   3.736  2.1038  0.8766 -1.7309
   62CHL1   C22 5750   1.683   0.818   3.770 -0.9527 -0.0581 -0.3592
   62CHL1  H22A 5751   1.792   0.826   3.747 -1.3607  0.6531 -2.2049
   62CHL1  H22B 5752   1.628   0.913   3.750  0.4327  0.5581 -1.4288
   62CHL1   C23 5753   1.655   0.800   3.925  0.1312  0.3442  0.1078
   62CHL1  H23A 5754   1.547   0.815   3.944 -0.6388 -2.1277 -1.8134
   62CHL1  H23B 5755   1.688   0.697   3.951 -0.1795  0.3056  0.3588
   62CHL1   C24 5756   1.752   0.880   4.016 -0.7218  0.9759  0.5974
   62CHL1  H24A 5757   1.854   0.876   3.970 -0.8767 -0.2672  0.3429
   62CHL1  H24B 5758   1.735   0.990   4.014  2.1243  1.5469  2.0914
   62CHL1   C25 5759   1.770   0.837   4.160  0.0880  0.0079 -0.5260
   62CHL1   H25 5760   1.812   0.734   4.158  0.3508  0.0775  0.5509
   62CHL1   C26 5761   1.880   0.925   4.225  0.2085  0.4866  0.3249
   62CHL1  H26A 5762   1.955   0.952   4.148 -0.9570  2.2029 -0.2386
   62CHL1  H26B 5763   1.841   1.020   4.266 -0.1045 -0.2549  1.8364
   62CHL1  H26C 5764   1.921   0.876   4.316  0.4805 -0.1453 -0.1305
   62CHL1   C27 5765   1.647   0.843   4.250 -0.6224 -0.2905  0.0047
   62CHL1  H27A 5766   1.577   0.763   4.218 -0.2151 -0.6627  0.0242
   62CHL1  H27B 5767   1.676   0.820   4.355  0.5870 -0.0907 -0.2727
   62CHL1  H27C 5768   1.592   0.939   4.241 -0.7517 -0.4720 -1.2946
   63CHL1    C3 5769   4.664   4.997   2.765  0.1155 -0.1101 -0.4572
   63CHL1    H3 5770   4.651   4.891   2.797 -1.3502  0.7225  1.9192
   63CHL1    O3 5771   4.694   5.006   2.626  0.2994  0.0025  1.2808
   63CHL1   H3' 5772   4.703   5.101   2.614 -1.2799  0.0009 -0.4020
   63CHL1    C4 5773   4.524   5.077   2.798 -0.6040  0.1056  0.1169
   63CHL1   H4A 5774   4.533   5.170   2.738 -2.0153  0.9093  1.1154
   63CHL1   H4B 5775   4.449   5.012   2.749  1.1492  0.2149 -3.0026
   63CHL1    C5 5776   4.509   5.102   2.935 -0.1799 -0.2120 -0.1341
   63CHL1    C6 5777   4.399   5.066   2.992  0.1542  0.1964  0.7096
   63CHL1    H6 5778   4.333   5.018   2.918  1.7688  1.9025 -2.0186
   63CHL1    C7 5779   4.351   5.094   3.131 -0.0273 -0.2786 -0.3706
   63CHL1   H7A 5780   4.243   5.113   3.147 -0.1284 -0.4359 -0.8334
   63CHL1   H7B 5781   4.380   5.003   3.188 -2.3021 -1.4851 -1.0028
   63CHL1    C8 5782   4.434   5.211   3.197 -0.6257  0.3247  0.3186
   63CHL1    H8 5783   4.391   5.307   3.160 -1.8490  0.0628  1.0133
   63CHL1   C14 5784   4.422   5.206   3.349 -0.4956 -0.0831 -1.0760
   63CHL1   H14 5785   4.468   5.110   3.381 -2.2347 -0.8851 -0.8636
   63CHL1   C15 5786   4.287   5.214   3.415 -0.1495 -0.4149  0.8283
   63CHL1  H15A 5787   4.228   5.298   3.372  0.7356 -0.2890 -0.1822
   63CHL1  H15B 5788   4.232   5.119   3.397 -0.8282  0.3758 -1.7100
   63CHL1   C16 5789   4.307   5.246   3.565 -0.0442 -0.1151  0.2457
   63CHL1  H16A 5790   4.225   5.315   3.594 -0.0212 -0.5360  1.3712
   63CHL1  H16B 5791   4.289   5.156   3.628  1.5011 -1.3752 -1.0320
   63CHL1   C17 5792   4.457   5.289   3.572 -0.0535 -0.7046 -0.1271
   63CHL1   H17 5793   4.528   5.217   3.619  4.8501  2.4279 -1.9336
   63CHL1   C13 5794   4.512   5.314   3.426  0.2845  0.2414  0.2112
   63CHL1   C18 5795   4.462   5.450   3.387  0.7980 -0.0336 -0.3647
   63CHL1  H18A 5796   4.354   5.459   3.408  0.7652  0.3754 -0.6885
   63CHL1  H18B 5797   4.506   5.545   3.426  0.9540  0.8722 -2.5688
   63CHL1  H18C 5798   4.466   5.460   3.276  1.7501 -0.5188 -0.3833
   63CHL1   C12 5799   4.660   5.302   3.394 -0.1564  0.8458 -0.4855
   63CHL1  H12A 5800   4.713   5.393   3.429 -0.8291  0.5696  1.3641
   63CHL1  H12B 5801   4.710   5.220   3.450 -2.2494 -1.3513 -1.6080
   63CHL1   C11 5802   4.693   5.282   3.245  0.7018  0.0518  0.2036
   63CHL1  H11A 5803   4.683   5.383   3.202 -2.5903  0.7719  2.3186
   63CHL1  H11B 5804   4.799   5.252   3.231  1.0126  1.6637 -1.1732
   63CHL1    C9 5805   4.587   5.187   3.164 -0.3256  0.5429 -0.0668
   63CHL1    H9 5806   4.616   5.089   3.208  1.6732  2.1387  2.5084
   63CHL1   C10 5807   4.624   5.177   3.006 -0.6150 -0.5312  0.6094
   63CHL1   C19 5808   4.645   5.321   2.956 -0.0873 -0.1917  0.4533
   63CHL1  H19A 5809   4.562   5.387   2.987 -0.2910 -0.0222 -0.4222
   63CHL1  H19B 5810   4.742   5.362   2.991 -0.7718  1.5492  0.3751
   63CHL1  H19C 5811   4.644   5.323   2.845 -3.6664 -0.2818  0.3638
   63CHL1    C1 5812   4.754   5.108   2.981  0.0790 -0.4501 -0.1499
   63CHL1   H1A 5813   4.841   5.155   3.032  1.5937 -2.7173 -0.4872
   63CHL1   H1B 5814   4.746   5.010   3.033 -1.0377 -0.5940 -0.5603
   63CHL1    C2 5815   4.785   5.071   2.834  0.1347  0.3089 -0.5324
   63CHL1   H2A 5816   4.880   5.013   2.842 -0.9794 -1.3450  3.0225
   63CHL1   H2B 5817   4.813   5.166   2.785  3.2803 -1.3200 -2.1760
   63CHL1   C20 5818   4.472   5.403   3.673  0.3207  0.0062 -0.5676
   63CHL1   H20 5819   4.407   5.489   3.645 -2.6172 -1.3019  1.7291
   63CHL1   C21 5820   4.615   5.453   3.681 -0.6644  0.0216  0.6242
   63CHL1  H21A 5821   4.618   5.524   3.767  0.9404  2.4925 -1.3424
   63CHL1  H21B 5822   4.634   5.517   3.592  0.0506  0.2868  0.9572
   63CHL1  H21C 5823   4.694   5.375   3.689  1.0664  1.7172  0.8163
   63CHL1   C22 5824   4.431   5.354   3.815 -0.6733  0.1891  0.4773
   63CHL1  H22A 5825   4.384   5.441   3.866 -0.1692  0.0462  1.2047
   63CHL1  H22B 5826   4.349   5.281   3.803 -0.9982  0.3557  1.5558
   63CHL1   C23 5827   4.540   5.277   3.899 -0.0768 -0.6362 -0.3230
   63CHL1  H23A 5828   4.585   5.203   3.829 -1.6702 -1.5860 -0.4155
   63CHL1  H23B 5829   4.619   5.349   3.927 -0.1086  0.6939 -3.2784
   63CHL1   C24 5830   4.490   5.211   4.035 -0.1186  0.2752 -0.0046
   63CHL1  H24A 5831   4.464   5.295   4.103  1.3202  2.8123 -2.3807
   63CHL1  H24B 5832   4.402   5.146   4.017 -0.0972  0.6220 -1.4424
   63CHL1   C25 5833   4.589   5.133   4.120  0.2060 -0.3443  0.1944
   63CHL1   H25 5834   4.688   5.185   4.119 -0.9034  1.9677  1.4691
   63CHL1   C26 5835   4.539   5.123   4.265 -0.5561  0.2590  0.0625
   63CHL1  H26A 5836   4.439   5.075   4.263  0.0838 -1.1170 -0.2719
   63CHL1  H26B 5837   4.588   5.047   4.330 -0.2297  0.7935  0.4522
   63CHL1  H26C 5838   4.530   5.221   4.316 -2.6044  0.1076  0.0526
   63CHL1   C27 5839   4.602   4.998   4.053  0.0258  0.5907  0.3872
   63CHL1  H27A 5840   4.692   4.947   4.094 -0.0416  0.2870  0.1549
   63CHL1  H27B 5841   4.507   4.942   4.060 -0.6543  1.4318 -1.5039
   63CHL1  H27C 5842   4.622   5.010   3.945  2.0636 -1.1279  0.5013
   64CHL1    C3 5843   3.039   2.307   2.924 -0.6190 -0.3016  0.2778
   64CHL1    H3 5844   3.142   2.266   2.934 -0.6155 -0.3445  0.0714
   64CHL1    O3 5845   3.012   2.320   2.781 -0.2248 -0.1112  0.1410
   64CHL1   H3' 5846   3.021   2.415   2.769 -1.4482  0.2358  1.7196
   64CHL1    C4 5847   2.932   2.226   2.996 -0.4717 -0.3080 -0.0876
   64CHL1   H4A 5848   2.838   2.280   2.976 -0.6647 -0.6019  0.0136
   64CHL1   H4B 5849   2.935   2.125   2.949  0.9029  0.2204 -1.2183
   64CHL1    C5 5850   2.965   2.225   3.144  0.2171  0.0464  0.3362
   64CHL1    C6 5851   2.997   2.111   3.212  0.0404 -0.0714  0.0541
   64CHL1    H6 5852   2.998   2.014   3.161  1.9355 -1.1478  1.9653
   64CHL1    C7 5853   3.026   2.100   3.360 -0.0695  0.3763  0.5749
   64CHL1   H7A 5854   2.959   2.024   3.407 -0.5333  0.9945  0.9357
   64CHL1   H7B 5855   3.135   2.079   3.361 -0.5206 -2.8069 -2.1288
   64CHL1    C8 5856   2.988   2.234   3.432  0.3009  0.7488 -0.1803
   64CHL1    H8 5857   2.877   2.239   3.440  0.3259 -0.9565  1.7350
   64CHL1   C14 5858   3.048   2.241   3.571  0.4318 -0.6366  0.4273
   64CHL1   H14 5859   3.158   2.241   3.558  0.3217 -0.3092 -0.5250
   64CHL1   C15 5860   3.022   2.127   3.666  0.6833 -0.1305 -0.5291
   64CHL1  H15A 5861   2.919   2.088   3.676  0.7493 -0.3321 -0.6298
   64CHL1  H15B 5862   3.085   2.036   3.655  0.2320 -0.2972 -2.0604
   64CHL1   C16 5863   3.058   2.196   3.805  0.0694 -0.6841 -0.2731
   64CHL1  H16A 5864   2.970   2.177   3.871 -1.3162  1.1160 -1.5048
   64CHL1  H16B 5865   3.147   2.149   3.852  0.0843  1.3796  1.9614
   64CHL1   C17 5866   3.072   2.348   3.792  0.0783  0.3442  0.8420
   64CHL1   H17 5867   3.183   2.361   3.793  0.1009  0.1025  1.3970
   64CHL1   C13 5868   3.020   2.375   3.648  0.2480  0.7068  0.1803
   64CHL1   C18 5869   2.864   2.401   3.660 -0.4066 -0.0803  0.4869
   64CHL1  H18A 5870   2.800   2.343   3.729 -0.9459  2.2045  2.0306
   64CHL1  H18B 5871   2.843   2.506   3.690  0.5621  0.2901 -0.0689
   64CHL1  H18C 5872   2.804   2.395   3.567  0.9033  2.7996 -0.6793
   64CHL1   C12 5873   3.096   2.483   3.573  0.3242  0.7861  0.4919
   64CHL1  H12A 5874   3.108   2.579   3.628  1.5064 -0.0670  1.8148
   64CHL1  H12B 5875   3.201   2.444   3.572 -0.3212 -1.1988  2.0047
   64CHL1   C11 5876   3.046   2.490   3.431 -0.5063 -0.2960  0.0593
   64CHL1  H11A 5877   2.937   2.512   3.434 -1.1260 -2.3523 -2.5996
   64CHL1  H11B 5878   3.106   2.575   3.392 -1.6997  1.3995  1.7434
   64CHL1    C9 5879   3.043   2.353   3.355 -1.0792  0.4534  0.0531
   64CHL1    H9 5880   3.150   2.323   3.347 -0.7197  1.6688  0.0852
   64CHL1   C10 5881   2.984   2.367   3.211  0.2628  0.0367  0.6456
   64CHL1   C19 5882   2.843   2.434   3.211 -0.6606  0.1390  0.5409
   64CHL1  H19A 5883   2.792   2.436   3.112 -0.0924  1.3455  0.2498
   64CHL1  H19B 5884   2.780   2.369   3.275  2.3481 -2.5099  1.0573
   64CHL1  H19C 5885   2.859   2.535   3.254  1.1499  0.3425 -0.5281
   64CHL1    C1 5886   3.077   2.454   3.124 -0.6826 -0.1381 -0.0912
   64CHL1   H1A 5887   3.070   2.561   3.154  0.9915  0.3355 -1.2436
   64CHL1   H1B 5888   3.181   2.420   3.139 -0.4487 -0.0917 -1.4306
   64CHL1    C2 5889   3.051   2.451   2.971 -0.1728 -0.2367 -0.6500
   64CHL1   H2A 5890   3.136   2.505   2.924 -0.7483  2.0691  0.7909
   64CHL1   H2B 5891   2.961   2.511   2.945 -0.1097  0.5767  0.8926
   64CHL1   C20 5892   3.014   2.431   3.907  0.1910 -0.3695 -0.6288
   64CHL1   H20 5893   2.907   2.461   3.909  0.3133  0.4128  3.3186
   64CHL1   C21 5894   3.094   2.565   3.903  0.2668 -0.1892 -0.1130
   64CHL1  H21A 5895   3.204   2.548   3.908  0.2986 -0.6160 -1.6336
   64CHL1  H21B 5896   3.050   2.627   3.983 -0.5062 -0.6700 -0.1513
   64CHL1  H21C 5897   3.069   2.612   3.805  0.7206 -1.3458 -0.8128
   64CHL1   C22 5898   3.022   2.372   4.047  0.3527  1.0212 -0.4913
   64CHL1  H22A 5899   2.979   2.437   4.127 -1.9466 -2.7322  1.6512
   64CHL1  H22B 5900   2.953   2.286   4.065  1.8223  0.1726  1.5164
   64CHL1   C23 5901   3.161   2.319   4.094  0.1556 -0.8383 -0.2672
   64CHL1  H23A 5902   3.206   2.239   4.031  2.3887  0.2854 -0.2295
   64CHL1  H23B 5903   3.239   2.399   4.098  0.4231 -1.1162  0.1899
   64CHL1   C24 5904   3.147   2.266   4.237  0.0728  0.3049 -0.7832
   64CHL1  H24A 5905   3.117   2.346   4.308  0.9587 -1.1436  1.3263
   64CHL1  H24B 5906   3.077   2.181   4.248  1.3899 -0.7253 -0.0128
   64CHL1   C25 5907   3.275   2.213   4.303  0.1584  0.1718 -0.4428
   64CHL1   H25 5908   3.331   2.147   4.233 -0.7620  0.2040 -1.2372
   64CHL1   C26 5909   3.372   2.329   4.340  0.0737  0.2439 -0.4720
   64CHL1  H26A 5910   3.323   2.394   4.416  1.3346  0.1807  0.4294
   64CHL1  H26B 5911   3.464   2.292   4.390  0.4294  0.8856 -0.6423
   64CHL1  H26C 5912   3.409   2.387   4.253 -0.6111  3.0437  0.9719
   64CHL1   C27 5913   3.244   2.143   4.438  0.0874 -0.2670  0.5136
   64CHL1  H27A 5914   3.184   2.209   4.505  2.2884  4.3140 -1.5538
   64CHL1  H27B 5915   3.179   2.055   4.418 -3.2819  1.9734  0.8672
   64CHL1  H27C 5916   3.341   2.111   4.482  1.6292  1.6604 -1.2677
   65CHL1    C3 5917   0.683   0.493   2.479  0.4666  0.1923 -1.2247
   65CHL1    H3 5918   0.636   0.401   2.521 -1.5590  2.5795  2.2911
   65CHL1    O3 5919   0.652   0.522   2.345  0.1129  0.0092 -0.2675
   65CHL1   H3' 5920   0.655   0.618   2.344  0.1374  0.0337  0.9086
   65CHL1    C4 5921   0.609   0.605   2.559 -0.7008 -0.5457 -0.7209
   65CHL1   H4A 5922   0.648   0.702   2.523  2.8718 -0.9525  1.5086
   65CHL1   H4B 5923   0.500   0.606   2.537 -0.6492  1.0686 -0.9841
   65CHL1    C5 5924   0.633   0.604   2.710 -0.1335 -0.6475 -0.4540
   65CHL1    C6 5925   0.541   0.587   2.805  0.1785 -0.5192  0.8710
   65CHL1    H6 5926   0.436   0.576   2.774 -0.7566  1.7207  2.8834
   65CHL1    C7 5927   0.569   0.577   2.954  1.1085 -0.0807  0.0678
   65CHL1   H7A 5928   0.491   0.628   3.015  0.4420 -0.4987 -0.4170
   65CHL1   H7B 5929   0.572   0.469   2.981  1.8095  0.1264  0.8558
   65CHL1    C8 5930   0.707   0.633   2.999 -0.2960  0.2512  0.0267
   65CHL1    H8 5931   0.701   0.744   2.989 -1.0129  0.4547  2.1803
   65CHL1   C14 5932   0.740   0.595   3.143  0.6204 -0.0288  0.6890
   65CHL1   H14 5933   0.745   0.485   3.154  3.4405 -0.1038 -0.4326
   65CHL1   C15 5934   0.642   0.649   3.252  0.1748  0.2914  0.9116
   65CHL1  H15A 5935   0.621   0.755   3.227  4.7209  1.1190 -0.3267
   65CHL1  H15B 5936   0.545   0.595   3.262  2.0695 -3.2437  1.8140
   65CHL1   C16 5937   0.721   0.639   3.378  0.6738 -0.3091  0.6150
   65CHL1  H16A 5938   0.720   0.739   3.426 -0.1588 -1.1451  2.4422
   65CHL1  H16B 5939   0.685   0.572   3.459  1.8652 -0.9137  0.6540
   65CHL1   C17 5940   0.870   0.614   3.340 -0.1304 -0.2495  0.1654
   65CHL1   H17 5941   0.886   0.505   3.344  1.4078 -0.3337 -3.8211
   65CHL1   C13 5942   0.876   0.649   3.183 -0.4036 -0.8413  0.2168
   65CHL1   C18 5943   0.881   0.808   3.173 -0.4414 -0.3971 -0.0288
   65CHL1  H18A 5944   0.803   0.857   3.234  0.9204  0.8004  0.8129
   65CHL1  H18B 5945   0.979   0.849   3.205  0.2471 -2.8330  1.1903
   65CHL1  H18C 5946   0.863   0.832   3.066 -0.3506  1.1410  0.2835
   65CHL1   C12 5947   0.983   0.580   3.101 -0.8167 -0.3310  0.5626
   65CHL1  H12A 5948   1.089   0.604   3.121 -0.4628 -1.2322 -0.1283
   65CHL1  H12B 5949   0.965   0.471   3.118  0.5851 -0.4850  1.1477
   65CHL1   C11 5950   0.961   0.612   2.949  0.4069  0.0535 -0.4295
   65CHL1  H11A 5951   0.989   0.719   2.937  0.4981  0.1211  0.2990
   65CHL1  H11B 5952   1.032   0.552   2.888  0.4039 -0.0934 -0.2916
   65CHL1    C9 5953   0.818   0.582   2.897 -0.1131 -0.5034  0.3930
   65CHL1    H9 5954   0.811   0.472   2.908 -0.3968 -0.6733 -1.2153
   65CHL1   C10 5955   0.787   0.617   2.747  0.4059 -0.5378 -0.3614
   65CHL1   C19 5956   0.845   0.755   2.707  0.4817 -0.0548 -1.1459
   65CHL1  H19A 5957   0.796   0.837   2.764  2.2840  0.8857 -0.8835
   65CHL1  H19B 5958   0.951   0.757   2.739  0.7227  0.1599 -1.9335
   65CHL1  H19C 5959   0.829   0.773   2.599  0.5091  1.6722 -0.8962
   65CHL1    C1 5960   0.865   0.518   2.654  0.5727 -0.1311 -0.2606
   65CHL1   H1A 5961   0.973   0.535   2.672  0.4741  0.6717 -0.3467
   65CHL1   H1B 5962   0.848   0.412   2.680  2.3215 -1.0399 -2.5165
   65CHL1    C2 5963   0.833   0.518   2.503  1.2955  0.1574 -0.2071
   65CHL1   H2A 5964   0.893   0.437   2.456 -0.1318 -0.1436 -1.5637
   65CHL1   H2B 5965   0.870   0.612   2.457 -0.8959  0.3411 -1.6983
   65CHL1   C20 5966   0.970   0.681   3.425 -0.6649 -0.1123 -0.1495
   65CHL1   H20 5967   0.968   0.792   3.414  2.8906  0.0702  0.0185
   65CHL1   C21 5968   1.109   0.640   3.396  0.5798 -0.5169  0.6026
   65CHL1  H21A 5969   1.179   0.686   3.469 -2.0938  1.8822  1.8468
   65CHL1  H21B 5970   1.140   0.676   3.295  3.4768 -0.3465  1.4403
   65CHL1  H21C 5971   1.109   0.529   3.391 -1.7529 -0.5147 -0.6883
   65CHL1   C22 5972   0.932   0.652   3.576 -0.5259  0.3992 -0.2089
   65CHL1  H22A 5973   0.830   0.690   3.597 -1.9964 -2.1997 -2.1433
   65CHL1  H22B 5974   0.931   0.541   3.588  1.0229  0.4102  0.3068
   65CHL1   C23 5975   1.034   0.706   3.677 -0.0662  0.5585 -0.1313
   65CHL1  H23A 5976   1.125   0.643   3.682  1.2730  2.3487 -0.9457
   65CHL1  H23B 5977   1.058   0.811   3.654 -0.9888  0.5294 -1.3268
   65CHL1   C24 5978   0.962   0.702   3.816 -0.2879  0.4335 -0.0807
   65CHL1  H24A 5979   0.860   0.745   3.810 -0.2135  0.6619  0.2960
   65CHL1  H24B 5980   0.949   0.593   3.835 -3.0886  0.6925 -0.0322
   65CHL1   C25 5981   1.040   0.768   3.925  0.2365 -0.1835 -0.2953
   65CHL1   H25 5982   1.137   0.791   3.877  0.6992 -2.4870 -0.5697
   65CHL1   C26 5983   0.967   0.895   3.961 -0.1205 -0.2649  0.6789
   65CHL1  H26A 5984   0.875   0.892   4.023 -2.2410 -0.7588 -2.2798
   65CHL1  H26B 5985   1.046   0.941   4.024  2.1052 -0.7237 -1.5768
   65CHL1  H26C 5986   0.955   0.962   3.873  0.4477 -2.3637 -1.0920
   65CHL1   C27 5987   1.060   0.682   4.049 -0.5329  0.0525 -0.2371
   65CHL1  H27A 5988   1.138   0.733   4.108 -3.1312  0.5204  3.1011
   65CHL1  H27B 5989   0.965   0.670   4.105 -1.3095  1.3211 -1.2081
   65CHL1  H27C 5990   1.098   0.581   4.024 -0.0188  0.7171 -2.3787
   66CHL1    C3 5991   4.477   1.488   2.822 -0.3023 -0.0746  0.4432
   66CHL1    H3 5992   4.430   1.387   2.818 -1.3872  0.3386  1.9344
   66CHL1    O3 5993   4.549   1.517   2.703  0.1708 -0.4302  0.3348
   66CHL1   H3' 5994   4.630   1.554   2.740 -0.9192 -0.1231  2.6034
   66CHL1    C4 5995   4.368   1.589   2.840  0.3029 -0.3272  0.3129
   66CHL1   H4A 5996   4.414   1.690   2.826 -0.6371 -0.0175 -0.7429
   66CHL1   H4B 5997   4.280   1.582   2.772 -0.3263  1.4182  0.8980
   66CHL1    C5 5998   4.299   1.587   2.975 -0.8885 -0.1818  0.2879
   66CHL1    C6 5999   4.166   1.570   2.988  0.0302  0.2431  0.2860
   66CHL1    H6 6000   4.097   1.550   2.904 -0.1726 -2.2999  0.9704
   66CHL1    C7 6001   4.105   1.550   3.125  0.1384 -0.2253  0.6001
   66CHL1   H7A 6002   4.014   1.613   3.133  0.4689  0.3204  0.1836
   66CHL1   H7B 6003   4.081   1.443   3.138 -1.2326  0.4131  4.9391
   66CHL1    C8 6004   4.193   1.603   3.241  0.5742 -0.2986  0.4036
   66CHL1    H8 6005   4.192   1.713   3.233 -1.0717 -0.1032  2.4062
   66CHL1   C14 6006   4.126   1.570   3.376  0.6735 -0.6732  0.1237
   66CHL1   H14 6007   4.115   1.459   3.375 -1.0698 -0.5227  0.2341
   66CHL1   C15 6008   3.982   1.605   3.407  0.2908 -0.2888 -0.1916
   66CHL1  H15A 6009   3.973   1.716   3.402 -2.4833 -0.4412  0.0240
   66CHL1  H15B 6010   3.901   1.552   3.352 -2.3108  2.2897  0.8486
   66CHL1   C16 6011   3.967   1.557   3.553  0.2812  0.6554  0.0145
   66CHL1  H16A 6012   3.916   1.641   3.606 -1.6858 -0.4178 -0.0903
   66CHL1  H16B 6013   3.899   1.469   3.558  0.4366  0.4779 -0.9098
   66CHL1   C17 6014   4.109   1.523   3.606  0.3523  0.0903  0.0218
   66CHL1   H17 6015   4.123   1.416   3.579  1.4581  0.3349 -0.4189
   66CHL1   C13 6016   4.207   1.596   3.507  0.3269  1.1159 -0.0453
   66CHL1   C18 6017   4.205   1.752   3.528  0.1448 -0.0659  0.7184
   66CHL1  H18A 6018   4.279   1.772   3.609  0.5966 -0.2579  0.3592
   66CHL1  H18B 6019   4.239   1.818   3.445 -0.7189  1.4172  1.4905
   66CHL1  H18C 6020   4.105   1.780   3.568 -0.0093 -1.0037  1.0058
   66CHL1   C12 6021   4.353   1.544   3.486  0.2181  0.1365 -0.1759
   66CHL1  H12A 6022   4.409   1.575   3.576 -0.1770  2.7065 -0.7462
   66CHL1  H12B 6023   4.363   1.433   3.490 -1.7859 -0.0852 -0.0531
   66CHL1   C11 6024   4.419   1.599   3.357  0.7990 -0.1465 -0.2428
   66CHL1  H11A 6025   4.407   1.709   3.367  1.3161 -0.2237  1.6193
   66CHL1  H11B 6026   4.529   1.582   3.348  0.7767 -0.6407  0.3902
   66CHL1    C9 6027   4.336   1.553   3.230 -0.1898  0.2936  0.4358
   66CHL1    H9 6028   4.320   1.443   3.231 -1.2217  0.3987  2.8360
   66CHL1   C10 6029   4.398   1.593   3.089 -0.3962  0.4434 -0.2246
   66CHL1   C19 6030   4.450   1.734   3.105 -0.0989 -0.2959  0.0264
   66CHL1  H19A 6031   4.487   1.777   3.009 -2.0486 -0.3879 -0.7993
   66CHL1  H19B 6032   4.364   1.797   3.136  0.9973  1.1433  0.2495
   66CHL1  H19C 6033   4.543   1.750   3.164  0.8783  3.0130 -2.0946
   66CHL1    C1 6034   4.510   1.485   3.073  0.1839 -0.0678 -0.3015
   66CHL1   H1A 6035   4.583   1.477   3.156 -2.3151  0.4143  2.1022
   66CHL1   H1B 6036   4.460   1.386   3.068 -0.5976  0.2943  0.1400
   66CHL1    C2 6037   4.580   1.492   2.938 -0.5044 -0.3249  0.5928
   66CHL1   H2A 6038   4.649   1.405   2.935 -2.0727 -1.5948  0.4919
   66CHL1   H2B 6039   4.641   1.585   2.927  0.3965 -0.9415  0.1913
   66CHL1   C20 6040   4.131   1.540   3.755 -0.2377  0.4296 -0.0413
   66CHL1   H20 6041   4.111   1.645   3.787  1.4871  0.2867  1.6734
   66CHL1   C21 6042   4.275   1.502   3.788 -0.0191 -0.4541 -0.5637
   66CHL1  H21A 6043   4.344   1.586   3.767 -0.4008  0.4100  1.3805
   66CHL1  H21B 6044   4.313   1.416   3.730 -0.1356 -0.6135 -0.4064
   66CHL1  H21C 6045   4.290   1.481   3.896  0.7806 -1.4757 -0.8620
   66CHL1   C22 6046   4.035   1.451   3.838 -0.2783  0.1719  0.9267
   66CHL1  H22A 6047   3.938   1.494   3.805  1.0087  2.1277 -0.5387
   66CHL1  H22B 6048   4.043   1.343   3.811  0.6310 -0.1476  2.3947
   66CHL1   C23 6049   4.036   1.472   3.991 -0.0767  0.2883 -0.1145
   66CHL1  H23A 6050   4.125   1.425   4.039 -0.2455 -1.3108 -1.2927
   66CHL1  H23B 6051   4.050   1.580   4.015  2.3596  0.2170 -0.9640
   66CHL1   C24 6052   3.915   1.407   4.065 -0.8404 -0.0882  0.6043
   66CHL1  H24A 6053   3.825   1.452   4.020  0.5107  1.7355 -0.3855
   66CHL1  H24B 6054   3.919   1.298   4.042  3.6459  0.3084 -1.5097
   66CHL1   C25 6055   3.925   1.428   4.221 -0.1075  0.0625 -0.2636
   66CHL1   H25 6056   4.022   1.390   4.260  0.5398  2.1004  0.2742
   66CHL1   C26 6057   3.908   1.576   4.259  0.4691 -0.0265  0.0918
   66CHL1  H26A 6058   3.976   1.646   4.206 -0.8617  1.9010  0.8315
   66CHL1  H26B 6059   3.805   1.615   4.242  1.3739  2.3029 -0.4191
   66CHL1  H26C 6060   3.926   1.590   4.368 -1.5455  1.2321  0.3214
   66CHL1   C27 6061   3.815   1.341   4.280  0.8568  0.1006  0.3069
   66CHL1  H27A 6062   3.820   1.349   4.391 -0.4033  0.8465  0.3290
   66CHL1  H27B 6063   3.840   1.234   4.264 -1.1768 -0.2722 -0.8048
   66CHL1  H27C 6064   3.716   1.360   4.234  0.2008  0.4707  1.8057
   67CHL1    C3 6065   4.053   6.255   2.478 -0.3177  0.5631 -0.7753
   67CHL1    H3 6066   4.053   6.354   2.529  1.6521 -0.7794  2.1434
   67CHL1    O3 6067   4.024   6.257   2.339 -0.2731 -0.3654  0.6208
   67CHL1   H3' 6068   4.042   6.347   2.312 -1.3887 -0.5010 -0.6567
   67CHL1    C4 6069   4.204   6.210   2.480  0.5358  0.3025  0.6234
   67CHL1   H4A 6070   4.208   6.114   2.424  1.3149 -0.3404  1.7472
   67CHL1   H4B 6071   4.266   6.285   2.427  0.1590 -1.1794 -2.1445
   67CHL1    C5 6072   4.251   6.176   2.618 -0.1668  0.5894  0.1854
   67CHL1    C6 6073   4.365   6.241   2.666  0.1771 -0.2179 -0.2824
   67CHL1    H6 6074   4.430   6.297   2.598  0.7388  0.0552  0.4614
   67CHL1    C7 6075   4.424   6.218   2.800  0.5787 -0.2268 -0.0038
   67CHL1   H7A 6076   4.533   6.195   2.801  1.0482  1.6986  2.8124
   67CHL1   H7B 6077   4.410   6.297   2.876 -0.8840  0.3184 -0.8027
   67CHL1    C8 6078   4.350   6.100   2.877 -0.3868  0.3264 -0.0269
   67CHL1    H8 6079   4.405   6.009   2.843  1.2928  0.9847  0.8151
   67CHL1   C14 6080   4.373   6.116   3.028 -0.1875  0.0455 -0.2830
   67CHL1   H14 6081   4.329   6.214   3.053 -0.1610  0.4646 -1.7780
   67CHL1   C15 6082   4.522   6.132   3.069  0.8911  0.0967 -0.6947
   67CHL1  H15A 6083   4.585   6.051   3.026  0.5853  0.1431 -1.2358
   67CHL1  H15B 6084   4.565   6.229   3.038 -0.4262  1.0000  0.1845
   67CHL1   C16 6085   4.517   6.131   3.225 -0.9225  0.9073  0.2838
   67CHL1  H16A 6086   4.596   6.062   3.263 -0.7870  0.8768 -0.0547
   67CHL1  H16B 6087   4.532   6.226   3.281 -0.1916  0.1088  1.5020
   67CHL1   C17 6088   4.372   6.074   3.256  0.0197  0.4273  0.2212
   67CHL1   H17 6089   4.303   6.160   3.270 -0.3401 -0.1477  2.3425
   67CHL1   C13 6090   4.320   6.011   3.120  0.2751 -0.1712 -0.0605
   67CHL1   C18 6091   4.393   5.880   3.097 -0.2238  0.9132  0.6175
   67CHL1  H18A 6092   4.498   5.876   3.133  0.3926 -0.0753 -1.1674
   67CHL1  H18B 6093   4.333   5.800   3.146  0.7471  0.1221  0.5505
   67CHL1  H18C 6094   4.393   5.846   2.991  0.2884 -2.8292  1.6653
   67CHL1   C12 6095   4.173   5.994   3.099  0.0281 -0.2895 -0.2473
   67CHL1  H12A 6096   4.143   5.897   3.145 -1.9978  0.1918 -0.4625
   67CHL1  H12B 6097   4.118   6.077   3.147  0.2139 -0.5856  0.4934
   67CHL1   C11 6098   4.135   5.982   2.946 -0.1275  0.0595 -0.5313
   67CHL1  H11A 6099   4.189   5.891   2.911 -0.4411 -0.6439  0.7444
   67CHL1  H11B 6100   4.025   5.980   2.937 -0.2165  1.3654  0.0538
   67CHL1    C9 6101   4.198   6.095   2.857  0.6673 -0.5444 -0.6845
   67CHL1    H9 6102   4.149   6.190   2.888 -0.9546 -1.6575  0.3215
   67CHL1   C10 6103   4.164   6.083   2.709  0.2300  0.5901  0.1775
   67CHL1   C19 6104   4.189   5.940   2.653  0.6941  0.6186  0.0085
   67CHL1  H19A 6105   4.129   5.862   2.706  0.0491 -1.2960 -3.3011
   67CHL1  H19B 6106   4.149   5.926   2.551 -1.5288 -0.2729  0.9228
   67CHL1  H19C 6107   4.295   5.908   2.662  0.6978  1.1453  2.6689
   67CHL1    C1 6108   4.013   6.121   2.693 -0.5719  0.0260 -0.3000
   67CHL1   H1A 6109   3.940   6.058   2.747 -0.8695  2.1710  1.9958
   67CHL1   H1B 6110   3.999   6.217   2.748  0.6420  0.6997 -1.1092
   67CHL1    C2 6111   3.966   6.149   2.545 -0.6950 -0.1682 -1.6191
   67CHL1   H2A 6112   3.865   6.195   2.547 -0.7232 -0.2166 -1.9799
   67CHL1   H2B 6113   3.961   6.059   2.481  1.4575  0.0717 -2.1863
   67CHL1   C20 6114   4.374   5.981   3.384  0.4154  0.0979  0.0378
   67CHL1   H20 6115   4.416   5.881   3.359 -2.1773 -1.4318  1.3826
   67CHL1   C21 6116   4.231   5.949   3.426 -0.5037  0.1208 -0.3219
   67CHL1  H21A 6117   4.168   5.905   3.346 -0.8232 -0.6683  0.3524
   67CHL1  H21B 6118   4.174   6.043   3.444  0.1554  0.5692 -0.5578
   67CHL1  H21C 6119   4.231   5.895   3.523  1.6002  0.9322  0.1674
   67CHL1   C22 6120   4.454   6.030   3.508  0.4115 -1.0267  0.2702
   67CHL1  H22A 6121   4.559   6.054   3.479  0.3279 -1.1580 -0.1555
   67CHL1  H22B 6122   4.403   6.117   3.555 -1.0447 -1.9367  0.4487
   67CHL1   C23 6123   4.481   5.925   3.618  0.1349 -0.6044 -0.3900
   67CHL1  H23A 6124   4.379   5.914   3.661 -0.4484  3.3304 -0.4077
   67CHL1  H23B 6125   4.530   5.834   3.576 -1.4334 -2.3021  1.2617
   67CHL1   C24 6126   4.584   5.979   3.724 -0.5010  0.2622  0.0327
   67CHL1  H24A 6127   4.682   5.990   3.673 -1.6674  0.7330 -2.2143
   67CHL1  H24B 6128   4.563   6.078   3.772 -1.6330  0.5396 -1.0122
   67CHL1   C25 6129   4.619   5.877   3.836  0.5827 -0.3660 -0.6933
   67CHL1   H25 6130   4.651   5.786   3.781 -3.0662 -1.3046 -1.5882
   67CHL1   C26 6131   4.743   5.921   3.916 -0.3204 -0.3713  0.4866
   67CHL1  H26A 6132   4.733   6.030   3.934 -0.9262  0.0353 -1.9801
   67CHL1  H26B 6133   4.756   5.864   4.011 -0.3657 -0.5617  0.3804
   67CHL1  H26C 6134   4.826   5.890   3.850 -0.6869 -2.1399  0.7981
   67CHL1   C27 6135   4.490   5.844   3.916  0.1658  0.6626 -0.4644
   67CHL1  H27A 6136   4.446   5.936   3.960  1.8091  0.1145  2.6290
   67CHL1  H27B 6137   4.412   5.804   3.848 -1.1229  1.1479  0.6959
   67CHL1  H27C 6138   4.513   5.766   3.991  0.7881 -0.2294 -1.5483
   68CHL1    C3 6139   2.238   5.123   2.644 -0.5891  0.2178  1.4199
   68CHL1    H3 6140   2.271   5.018   2.631  0.6399  0.8456 -1.3658
   68CHL1    O3 6141   2.271   5.172   2.515 -0.1833 -0.1937  0.0513
   68CHL1   H3' 6142   2.293   5.265   2.525 -2.1208  0.2244  0.8574
   68CHL1    C4 6143   2.093   5.140   2.671 -0.6693 -0.3761 -0.5635
   68CHL1   H4A 6144   2.060   5.246   2.664  0.3296  0.1511  1.7602
   68CHL1   H4B 6145   2.035   5.079   2.599 -2.0413 -0.5023  0.6123
   68CHL1    C5 6146   2.060   5.090   2.812  0.1198 -0.0798 -0.1308
   68CHL1    C6 6147   1.974   4.993   2.837 -0.9759 -1.2676  0.9348
   68CHL1    H6 6148   1.911   4.948   2.759  0.3406  0.9770 -1.5652
   68CHL1    C7 6149   1.949   4.935   2.974 -0.2620  0.0459  0.6329
   68CHL1   H7A 6150   1.840   4.928   2.989 -0.2494 -2.0763  0.0499
   68CHL1   H7B 6151   1.991   4.832   2.984  1.2714  0.6843  1.0612
   68CHL1    C8 6152   2.011   5.017   3.096 -0.2738  0.4340  0.4714
   68CHL1    H8 6153   1.938   5.100   3.104  0.4369  1.6429 -3.4238
   68CHL1   C14 6154   2.024   4.939   3.228  0.5066  0.7766 -0.0901
   68CHL1   H14 6155   2.098   4.858   3.211 -2.1037 -1.5101 -1.2246
   68CHL1   C15 6156   1.893   4.853   3.276  0.2166  0.5834 -0.6036
   68CHL1  H15A 6157   1.807   4.922   3.267 -1.5703 -1.6152 -1.1984
   68CHL1  H15B 6158   1.881   4.753   3.230  0.0834  0.6157 -0.6388
   68CHL1   C16 6159   1.923   4.837   3.426  0.1699  0.3676  0.7751
   68CHL1  H16A 6160   1.838   4.887   3.478  1.5299  1.8106  1.6963
   68CHL1  H16B 6161   1.928   4.728   3.446 -1.5160 -0.1600 -1.3661
   68CHL1   C17 6162   2.059   4.909   3.453 -0.1058 -0.5025 -0.1474
   68CHL1   H17 6163   2.140   4.832   3.449  1.5736  1.1170  1.0065
   68CHL1   C13 6164   2.076   5.013   3.343  0.0672  0.0232 -0.2194
   68CHL1   C18 6165   1.986   5.139   3.368  0.1132  0.0218 -0.2371
   68CHL1  H18A 6166   1.981   5.217   3.289 -2.8815  2.3086  1.9412
   68CHL1  H18B 6167   1.880   5.122   3.399  0.2771  0.1319  0.3998
   68CHL1  H18C 6168   2.034   5.191   3.454  2.2773 -0.5171 -1.0530
   68CHL1   C12 6169   2.221   5.040   3.310  0.2736 -0.1555 -0.4352
   68CHL1  H12A 6170   2.256   5.106   3.392 -0.8613  0.5737 -0.5214
   68CHL1  H12B 6171   2.288   4.951   3.303 -1.0361 -1.2649  0.4784
   68CHL1   C11 6172   2.236   5.116   3.175 -0.5666 -0.8003 -0.3449
   68CHL1  H11A 6173   2.206   5.219   3.203  0.7535  0.1784 -2.3492
   68CHL1  H11B 6174   2.345   5.125   3.158 -0.3637  1.5663  1.6050
   68CHL1    C9 6175   2.144   5.069   3.059 -0.3342 -0.3029 -0.8808
   68CHL1    H9 6176   2.192   4.973   3.028  1.2352 -0.3138  1.3724
   68CHL1   C10 6177   2.149   5.152   2.925 -0.8212  0.6116 -0.0104
   68CHL1   C19 6178   2.104   5.300   2.950  0.4070 -0.3118 -0.5242
   68CHL1  H19A 6179   2.118   5.371   2.866 -1.1259 -0.2392 -0.7499
   68CHL1  H19B 6180   1.995   5.297   2.975  0.5899 -1.5168  0.1722
   68CHL1  H19C 6181   2.159   5.342   3.037 -1.6007 -0.4929  0.9089
   68CHL1    C1 6182   2.297   5.150   2.887 -1.3206 -0.0315  0.7400
   68CHL1   H1A 6183   2.357   5.213   2.956 -0.7939  2.7990 -2.0614
   68CHL1   H1B 6184   2.324   5.043   2.884 -2.0219 -0.1938 -0.8184
   68CHL1    C2 6185   2.330   5.193   2.743  0.5146 -0.5254  0.1217
   68CHL1   H2A 6186   2.436   5.172   2.718  0.8478  0.7386  0.3665
   68CHL1   H2B 6187   2.315   5.303   2.734 -1.4688 -0.6118  1.5577
   68CHL1   C20 6188   2.067   4.959   3.601 -0.6403 -0.0015 -0.6343
   68CHL1   H20 6189   2.012   5.055   3.613  0.7947  0.6714  0.9468
   68CHL1   C21 6190   2.211   4.989   3.638 -0.6032 -1.0585 -0.7465
   68CHL1  H21A 6191   2.266   4.893   3.653  2.1844  0.8870  3.2786
   68CHL1  H21B 6192   2.218   5.034   3.739 -2.4123 -0.9929 -0.6169
   68CHL1  H21C 6193   2.273   5.056   3.575 -0.8643  1.3548  1.3864
   68CHL1   C22 6194   2.000   4.854   3.701 -0.3516  0.1812  0.0625
   68CHL1  H22A 6195   1.897   4.844   3.660 -0.1033  0.6956 -0.7182
   68CHL1  H22B 6196   2.060   4.760   3.694  0.0675  0.4919 -0.6260
   68CHL1   C23 6197   1.998   4.892   3.849  0.2132 -0.5673  0.2096
   68CHL1  H23A 6198   2.096   4.910   3.900  0.2681  1.4078 -0.4778
   68CHL1  H23B 6199   1.948   4.991   3.854  2.5437  0.6409  1.6754
   68CHL1   C24 6200   1.910   4.799   3.930  0.1499  0.2547  0.1134
   68CHL1  H24A 6201   1.809   4.787   3.887 -0.5885 -0.3350  1.9326
   68CHL1  H24B 6202   1.964   4.702   3.927 -0.9698 -0.4222 -3.4566
   68CHL1   C25 6203   1.893   4.841   4.077  0.0392 -0.2412  0.6254
   68CHL1   H25 6204   1.850   4.943   4.084 -1.0704 -0.7107  0.7788
   68CHL1   C26 6205   1.794   4.749   4.152 -0.0864 -0.2147 -0.4662
   68CHL1  H26A 6206   1.830   4.644   4.143  1.7399  0.2149  0.9639
   68CHL1  H26B 6207   1.790   4.782   4.258  0.4279  0.3667 -0.6197
   68CHL1  H26C 6208   1.690   4.754   4.116 -0.8392 -1.0325  1.4334
   68CHL1   C27 6209   2.031   4.840   4.158 -0.0932 -0.0682 -0.0969
   68CHL1  H27A 6210   2.100   4.910   4.107 -1.3139  1.9827  0.9358
   68CHL1  H27B 6211   2.001   4.886   4.255 -1.4156  2.0852 -1.4355
   68CHL1  H27C 6212   2.072   4.738   4.174 -0.8569 -0.4327 -0.4005
   69CHL1    C3 6213   0.918   2.843   2.658 -0.0131 -0.4401  0.2990
   69CHL1    H3 6214   0.942   2.736   2.641  4.4233  0.2438  1.1023
   69CHL1    O3 6215   0.886   2.904   2.533  0.4855  0.0934  0.2149
   69CHL1   H3' 6216   0.852   2.987   2.566  0.3355  0.1122  0.0127
   69CHL1    C4 6217   0.803   2.847   2.751  0.8759 -0.1874  0.7404
   69CHL1   H4A 6218   0.775   2.954   2.761 -0.5336 -0.5610  1.0481
   69CHL1   H4B 6219   0.726   2.787   2.698  3.2297 -3.6966  0.9875
   69CHL1    C5 6220   0.827   2.789   2.882  0.1355  0.2228  0.0520
   69CHL1    C6 6221   0.748   2.694   2.934 -0.5023 -0.3460  0.0292
   69CHL1    H6 6222   0.665   2.649   2.877  0.4183 -1.0898 -0.7728
   69CHL1    C7 6223   0.771   2.655   3.076 -0.9712  0.0063 -0.0017
   69CHL1   H7A 6224   0.673   2.657   3.130 -0.5792  1.5994  0.7034
   69CHL1   H7B 6225   0.812   2.552   3.063 -1.4687 -0.2080  0.0715
   69CHL1    C8 6226   0.857   2.746   3.163 -0.2679  0.8238 -0.2252
   69CHL1    H8 6227   0.799   2.840   3.181  1.6730  1.9090  0.6928
   69CHL1   C14 6228   0.887   2.675   3.292  0.7650  0.3934 -0.2800
   69CHL1   H14 6229   0.944   2.587   3.255  0.5023  0.2163 -0.2662
   69CHL1   C15 6230   0.772   2.601   3.376 -0.4919  0.0143 -0.8830
   69CHL1  H15A 6231   0.695   2.677   3.399  1.2814  1.0449  2.2827
   69CHL1  H15B 6232   0.736   2.504   3.335  1.1747 -0.6346 -0.8898
   69CHL1   C16 6233   0.838   2.575   3.517 -0.0172 -1.0311  0.2360
   69CHL1  H16A 6234   0.770   2.620   3.593  0.4880 -0.7185  0.5021
   69CHL1  H16B 6235   0.861   2.469   3.544  1.9744 -0.7783 -0.3239
   69CHL1   C17 6236   0.973   2.656   3.511 -0.4524 -0.1521 -0.2415
   69CHL1   H17 6237   1.051   2.583   3.478  0.7099  0.4145  1.1433
   69CHL1   C13 6238   0.971   2.754   3.392 -0.2549  0.2746 -0.6072
   69CHL1   C18 6239   0.896   2.875   3.440 -0.1504 -0.3203 -0.2746
   69CHL1  H18A 6240   0.794   2.847   3.476 -0.4233 -0.8039 -1.3544
   69CHL1  H18B 6241   0.952   2.948   3.501 -0.8674  0.0290 -0.0216
   69CHL1  H18C 6242   0.875   2.942   3.353  0.4199 -0.0534 -0.2094
   69CHL1   C12 6243   1.104   2.788   3.321  0.1199  0.2819 -0.3945
   69CHL1  H12A 6244   1.161   2.862   3.381 -0.1267  2.3341 -2.5619
   69CHL1  H12B 6245   1.157   2.692   3.302 -1.5743 -0.5415 -1.2050
   69CHL1   C11 6246   1.085   2.854   3.183 -0.3952  0.3300  0.1981
   69CHL1  H11A 6247   1.048   2.956   3.206  0.8566  0.5382  1.4087
   69CHL1  H11B 6248   1.186   2.855   3.136 -0.5421  2.6472 -0.2032
   69CHL1    C9 6249   0.986   2.776   3.085  0.1613  0.8607  0.2937
   69CHL1    H9 6250   1.030   2.675   3.065 -1.5346  0.4119 -1.4659
   69CHL1   C10 6251   0.953   2.847   2.950 -0.3010 -0.2660  0.2994
   69CHL1   C19 6252   0.921   2.995   2.978 -0.5004  0.7297 -0.0426
   69CHL1  H19A 6253   1.011   3.028   3.034 -0.4966  0.1111  0.3276
   69CHL1  H19B 6254   0.916   3.058   2.887  1.0231  3.4110  1.5862
   69CHL1  H19C 6255   0.847   3.009   3.060  3.0478 -1.5507  3.9952
   69CHL1    C1 6256   1.074   2.836   2.854  0.3827 -0.2103 -0.0127
   69CHL1   H1A 6257   1.151   2.900   2.902  2.0886 -1.0863 -1.4702
   69CHL1   H1B 6258   1.113   2.733   2.842  0.7904 -0.3215  1.8523
   69CHL1    C2 6259   1.049   2.896   2.718 -0.7792  0.3556  0.0948
   69CHL1   H2A 6260   1.129   2.873   2.643 -1.0977 -0.1168 -0.1053
   69CHL1   H2B 6261   1.056   3.006   2.729 -0.2921  0.2689  0.7300
   69CHL1   C20 6262   1.024   2.697   3.647 -0.3786 -0.6451  0.3309
   69CHL1   H20 6263   0.951   2.772   3.684 -0.3080 -1.0289  1.2787
   69CHL1   C21 6264   1.164   2.755   3.625 -0.2386  0.0978 -0.1686
   69CHL1  H21A 6265   1.228   2.702   3.552  1.0631  2.1061 -0.5786
   69CHL1  H21B 6266   1.220   2.757   3.721  0.1253 -0.4713 -0.3637
   69CHL1  H21C 6267   1.154   2.859   3.587  0.6026  0.6106  0.9430
   69CHL1   C22 6268   1.032   2.563   3.737  0.2976  0.1045  0.2284
   69CHL1  H22A 6269   0.934   2.511   3.734  0.5810 -0.3811 -0.8078
   69CHL1  H22B 6270   1.115   2.493   3.716 -0.0240 -0.4206  0.6603
   69CHL1   C23 6271   1.044   2.603   3.889  0.5971 -0.4052 -0.1108
   69CHL1  H23A 6272   1.149   2.638   3.890  0.3642  0.3482 -1.2116
   69CHL1  H23B 6273   0.978   2.692   3.902 -0.0335 -0.9544  0.6036
   69CHL1   C24 6274   1.025   2.490   3.992  0.4410  0.1702  0.0053
   69CHL1  H24A 6275   0.938   2.435   3.950  0.8915  0.7309 -1.7505
   69CHL1  H24B 6276   1.114   2.425   3.976  1.3989  2.0199 -2.9273
   69CHL1   C25 6277   0.993   2.533   4.125 -0.0104 -0.0567  0.0902
   69CHL1   H25 6278   0.909   2.606   4.127  1.5681  1.8991 -0.9630
   69CHL1   C26 6279   0.958   2.419   4.221 -0.2195  0.0277 -0.1903
   69CHL1  H26A 6280   0.872   2.361   4.180  0.2862 -0.1377 -1.0470
   69CHL1  H26B 6281   1.037   2.341   4.234 -1.0880 -1.1940 -1.8632
   69CHL1  H26C 6282   0.940   2.458   4.323 -0.8660  0.9388 -0.6383
   69CHL1   C27 6283   1.107   2.619   4.178  0.1095 -0.1180  0.1998
   69CHL1  H27A 6284   1.097   2.629   4.288  0.8238 -2.6411  0.5678
   69CHL1  H27B 6285   1.204   2.564   4.174  0.6297  0.8379 -1.0128
   69CHL1  H27C 6286   1.105   2.714   4.120 -0.0106  1.0012  1.9681
   70CHL1    C3 6287   2.585   0.568   2.478 -0.1559  0.6822  0.6667
   70CHL1    H3 6288   2.662   0.491   2.454  1.0794  2.8441 -2.9230
   70CHL1    O3 6289   2.533   0.625   2.358 -0.1766 -0.2527 -0.1241
   70CHL1   H3' 6290   2.600   0.684   2.322 -1.8997  2.0910  0.2448
   70CHL1    C4 6291   2.465   0.500   2.548  0.1728 -1.1915 -0.0532
   70CHL1   H4A 6292   2.392   0.583   2.557  1.9536  0.3330  1.4277
   70CHL1   H4B 6293   2.409   0.428   2.485  1.0638 -3.2585  1.4124
   70CHL1    C5 6294   2.492   0.444   2.684 -0.2791 -0.5849  0.5639
   70CHL1    C6 6295   2.460   0.321   2.713  0.4011  0.3219  0.4343
   70CHL1    H6 6296   2.408   0.259   2.638  0.7738 -0.5270  0.8738
   70CHL1    C7 6297   2.471   0.253   2.839 -0.2955 -0.0079  0.2771
   70CHL1   H7A 6298   2.375   0.211   2.876  0.3989 -0.0798  2.0569
   70CHL1   H7B 6299   2.547   0.174   2.822 -1.8518 -1.0012 -2.7582
   70CHL1    C8 6300   2.523   0.346   2.954 -0.1969  0.6880  0.2414
   70CHL1    H8 6301   2.427   0.397   2.982 -1.3686 -0.5823 -1.2611
   70CHL1   C14 6302   2.593   0.269   3.065 -0.7077 -0.4990 -0.7778
   70CHL1   H14 6303   2.685   0.230   3.018 -0.7175 -0.4473 -0.8395
   70CHL1   C15 6304   2.529   0.151   3.132  0.2245  0.4632 -0.0878
   70CHL1  H15A 6305   2.428   0.181   3.167  0.0285  1.9469 -1.8004
   70CHL1  H15B 6306   2.526   0.066   3.060 -0.5020  0.7228 -0.3712
   70CHL1   C16 6307   2.622   0.116   3.258 -0.1703  0.2525 -0.4431
   70CHL1  H16A 6308   2.558   0.091   3.345 -1.4959  1.9631 -0.8582
   70CHL1  H16B 6309   2.682   0.029   3.224  0.1523  0.7101 -1.0711
   70CHL1   C17 6310   2.706   0.249   3.275  0.0851  0.0696 -0.3031
   70CHL1   H17 6311   2.803   0.226   3.227 -0.9614 -1.5288 -1.8064
   70CHL1   C13 6312   2.643   0.359   3.178  0.2986  1.0898  0.0706
   70CHL1   C18 6313   2.514   0.420   3.247  0.5560  0.6878 -0.3771
   70CHL1  H18A 6314   2.551   0.491   3.324  1.9615  0.9117 -1.2178
   70CHL1  H18B 6315   2.458   0.475   3.168  0.7864  0.4296 -0.7273
   70CHL1  H18C 6316   2.437   0.347   3.279 -0.4892  1.0065 -2.0030
   70CHL1   C12 6317   2.739   0.462   3.120 -0.6279  0.7162  0.0766
   70CHL1  H12A 6318   2.785   0.532   3.192  1.2114  1.5323 -1.7616
   70CHL1  H12B 6319   2.827   0.410   3.075  0.8814  1.9658  1.4506
   70CHL1   C11 6320   2.670   0.540   3.010  0.1532 -0.2997 -0.1867
   70CHL1  H11A 6321   2.584   0.596   3.053  0.5460  0.9265 -0.9361
   70CHL1  H11B 6322   2.750   0.611   2.980 -0.6594  1.8168  2.2796
   70CHL1    C9 6323   2.620   0.456   2.897  0.3711  0.7644 -0.1939
   70CHL1    H9 6324   2.711   0.412   2.851  0.3620  0.6317 -0.0868
   70CHL1   C10 6325   2.564   0.537   2.776  0.4723  0.7846 -0.6148
   70CHL1   C19 6326   2.455   0.635   2.820 -0.1774 -0.1631 -0.1267
   70CHL1  H19A 6327   2.500   0.721   2.874  0.8853 -0.4390 -0.5530
   70CHL1  H19B 6328   2.405   0.675   2.729 -0.5061  2.0097  0.9448
   70CHL1  H19C 6329   2.384   0.598   2.897  0.6801 -1.3890  0.1080
   70CHL1    C1 6330   2.684   0.615   2.701  0.4454 -0.1410 -0.6763
   70CHL1   H1A 6331   2.727   0.687   2.774  1.3455 -1.2126 -0.1036
   70CHL1   H1B 6332   2.767   0.545   2.679  0.9822 -0.3451  1.7007
   70CHL1    C2 6333   2.643   0.680   2.564  0.2999  0.0756  0.1337
   70CHL1   H2A 6334   2.734   0.719   2.514  0.1966 -1.2337 -1.1430
   70CHL1   H2B 6335   2.563   0.756   2.574  1.0987  1.1107 -1.0625
   70CHL1   C20 6336   2.751   0.300   3.418  0.5686  0.9437  0.0122
   70CHL1   H20 6337   2.661   0.352   3.456 -0.4271  0.0005 -0.9722
   70CHL1   C21 6338   2.866   0.399   3.418 -0.0073 -0.3413  0.5751
   70CHL1  H21A 6339   2.939   0.359   3.345  0.7982  1.8454  0.1234
   70CHL1  H21B 6340   2.915   0.405   3.518 -1.0496  0.2441  1.0563
   70CHL1  H21C 6341   2.838   0.504   3.400  1.5213 -0.1523 -0.9935
   70CHL1   C22 6342   2.792   0.178   3.514 -0.7064 -0.3717  0.2056
   70CHL1  H22A 6343   2.718   0.095   3.507  0.8807 -2.1409  2.5940
   70CHL1  H22B 6344   2.880   0.121   3.476 -0.2055 -0.2000  1.0841
   70CHL1   C23 6345   2.814   0.223   3.657 -0.2273  0.0604  0.8412
   70CHL1  H23A 6346   2.912   0.276   3.658 -0.1749 -0.0120  0.1881
   70CHL1  H23B 6347   2.736   0.294   3.692 -0.4371 -0.7178  2.0168
   70CHL1   C24 6348   2.812   0.107   3.750  0.0371  0.3322  0.4988
   70CHL1  H24A 6349   2.709   0.066   3.750  0.9519 -2.2721  2.6892
   70CHL1  H24B 6350   2.869   0.016   3.721 -1.9155 -0.9458  0.4922
   70CHL1   C25 6351   2.845   0.146   3.896  0.6401  0.9395 -0.1657
   70CHL1   H25 6352   2.754   0.206   3.919  0.1063 -0.1926  0.7323
   70CHL1   C26 6353   2.848   0.023   3.989  0.5630  0.0045  0.0143
   70CHL1  H26A 6354   2.847   0.055   4.095  0.0916  0.3638 -0.0980
   70CHL1  H26B 6355   2.757  -0.039   3.974 -0.1204  0.1758  2.8473
   70CHL1  H26C 6356   2.938  -0.039   3.969  0.4771 -0.7313  1.6924
   70CHL1   C27 6357   2.966   0.238   3.915 -0.2302 -0.4798 -0.7099
   70CHL1  H27A 6358   2.938   0.342   3.943 -1.5899 -1.4633  1.8838
   70CHL1  H27B 6359   3.029   0.192   3.995  0.2811  2.1399  0.5179
   70CHL1  H27C 6360   3.025   0.241   3.821 -1.5480  0.8560 -1.5416
   71CHL1    C3 6361   6.309   5.809   2.623 -0.0623 -0.4074  0.1847
   71CHL1    H3 6362   6.221   5.747   2.652 -0.8542  1.1226  1.1948
   71CHL1    O3 6363   6.328   5.777   2.488 -0.2168  0.1468  0.2800
   71CHL1   H3' 6364   6.377   5.694   2.488  0.0923  0.3238 -0.5626
   71CHL1    C4 6365   6.274   5.962   2.635 -0.0110 -0.2313 -0.4664
   71CHL1   H4A 6366   6.352   6.023   2.585  2.1351  0.6522  3.5233
   71CHL1   H4B 6367   6.178   5.975   2.582 -0.5409  1.6284  0.8654
   71CHL1    C5 6368   6.251   5.995   2.785  0.4495  0.5750  0.2533
   71CHL1    C6 6369   6.137   6.049   2.832  0.1188  0.0213  0.4919
   71CHL1    H6 6370   6.053   6.071   2.765 -1.1920 -0.1047  2.0493
   71CHL1    C7 6371   6.108   6.087   2.969  0.1752 -0.2190  0.3330
   71CHL1   H7A 6372   6.081   6.193   2.954  1.2529  0.1866  1.1597
   71CHL1   H7B 6373   6.023   6.027   3.008 -0.1774  0.4182  0.5441
   71CHL1    C8 6374   6.233   6.080   3.053  0.0074  0.3801 -0.3846
   71CHL1    H8 6375   6.293   6.172   3.036 -1.4456  1.6811  1.2546
   71CHL1   C14 6376   6.188   6.085   3.198  0.6444  0.3950  0.5406
   71CHL1   H14 6377   6.126   5.994   3.210 -1.1057  1.6899  2.0169
   71CHL1   C15 6378   6.101   6.196   3.240  0.5242  0.1633 -0.3561
   71CHL1  H15A 6379   6.132   6.294   3.199 -3.3294  1.4206 -0.7140
   71CHL1  H15B 6380   5.995   6.183   3.209  0.3293  1.2648 -0.2030
   71CHL1   C16 6381   6.096   6.195   3.395  1.5076  0.2161  0.9157
   71CHL1  H16A 6382   6.126   6.292   3.441 -1.6073  1.1056  1.2808
   71CHL1  H16B 6383   5.994   6.171   3.431  0.6654  0.9642 -0.8414
   71CHL1   C17 6384   6.205   6.082   3.431  0.0206 -0.7817  0.3463
   71CHL1   H17 6385   6.139   5.993   3.442 -0.6356 -0.1872  1.3685
   71CHL1   C13 6386   6.294   6.066   3.307  0.2446 -0.6093  0.3731
   71CHL1   C18 6387   6.397   6.183   3.304 -0.5118 -0.5132 -0.0812
   71CHL1  H18A 6388   6.463   6.198   3.216  1.4781  2.1632  1.7249
   71CHL1  H18B 6389   6.342   6.279   3.304 -0.5591 -0.5302 -1.1133
   71CHL1  H18C 6390   6.461   6.177   3.394 -0.1601  0.8478 -0.2273
   71CHL1   C12 6391   6.367   5.930   3.279  0.0876  0.4595 -0.9221
   71CHL1  H12A 6392   6.447   5.917   3.355  0.1024  0.6661 -0.9007
   71CHL1  H12B 6393   6.296   5.846   3.295  0.4095  0.1883 -0.9265
   71CHL1   C11 6394   6.415   5.920   3.133 -1.3755  0.1401  0.0136
   71CHL1  H11A 6395   6.491   6.001   3.129  0.4082 -1.4229  0.2853
   71CHL1  H11B 6396   6.468   5.824   3.115 -0.1766  1.0830 -1.8246
   71CHL1    C9 6397   6.310   5.951   3.025  0.7683 -0.3992 -1.2820
   71CHL1    H9 6398   6.227   5.881   3.050  0.4488  0.1997 -0.6505
   71CHL1   C10 6399   6.360   5.943   2.884  0.4463  0.0090 -0.1747
   71CHL1   C19 6400   6.487   6.035   2.862  0.1899  0.5602  0.2336
   71CHL1  H19A 6401   6.524   6.035   2.757  0.0844 -0.3378  0.1878
   71CHL1  H19B 6402   6.451   6.136   2.892  1.4568  0.9159  0.5997
   71CHL1  H19C 6403   6.564   5.994   2.930  0.8597  0.4686 -0.5634
   71CHL1    C1 6404   6.400   5.795   2.855 -0.6202 -0.1815  0.6813
   71CHL1   H1A 6405   6.489   5.761   2.911 -0.5199 -0.9027  0.0925
   71CHL1   H1B 6406   6.317   5.728   2.888 -0.5093 -0.2212  0.8786
   71CHL1    C2 6407   6.430   5.775   2.701  1.1520  0.2882 -0.1651
   71CHL1   H2A 6408   6.453   5.668   2.681 -1.6038 -0.2390 -0.8468
   71CHL1   H2B 6409   6.515   5.836   2.664  0.6534 -0.0854 -2.0047
   71CHL1   C20 6410   6.275   6.099   3.566  0.4313  0.2726 -0.0447
   71CHL1   H20 6411   6.352   6.179   3.564 -0.8848  1.6415  1.2121
   71CHL1   C21 6412   6.343   5.967   3.604 -0.6792 -0.4653  0.3155
   71CHL1  H21A 6413   6.436   5.942   3.547  1.1028  1.5758  2.1661
   71CHL1  H21B 6414   6.275   5.879   3.597 -1.1922 -0.0044 -0.8108
   71CHL1  H21C 6415   6.374   5.987   3.709  2.2649 -3.1850  0.1155
   71CHL1   C22 6416   6.175   6.139   3.679  0.4564  0.6082 -0.4174
   71CHL1  H22A 6417   6.135   6.240   3.657 -0.3131  0.5926  0.7953
   71CHL1  H22B 6418   6.089   6.070   3.666  0.2132  1.1045 -1.5793
   71CHL1   C23 6419   6.226   6.140   3.832  0.3999  0.5267  0.2289
   71CHL1  H23A 6420   6.252   6.037   3.864  2.1215  1.3103  1.4991
   71CHL1  H23B 6421   6.320   6.200   3.836  0.4156  0.4659  0.7442
   71CHL1   C24 6422   6.116   6.201   3.911  0.4832  0.3182  0.2426
   71CHL1  H24A 6423   6.094   6.304   3.876  3.7702  0.1902 -2.8092
   71CHL1  H24B 6424   6.023   6.144   3.888 -0.3109  2.3374 -2.0555
   71CHL1   C25 6425   6.141   6.218   4.070  0.5465  0.4015 -0.2889
   71CHL1   H25 6426   6.179   6.118   4.099  3.1467  1.3463 -0.1516
   71CHL1   C26 6427   6.251   6.321   4.098 -1.1447 -0.2073 -0.2909
   71CHL1  H26A 6428   6.290   6.304   4.200 -0.8526 -0.8140 -0.5012
   71CHL1  H26B 6429   6.328   6.305   4.020 -2.6394  1.0466 -2.1437
   71CHL1  H26C 6430   6.202   6.421   4.096 -3.7216 -1.2718  2.4993
   71CHL1   C27 6431   6.008   6.254   4.141  0.1296 -0.2035  0.1228
   71CHL1  H27A 6432   6.013   6.259   4.252  0.7790  1.1666  0.0422
   71CHL1  H27B 6433   5.983   6.360   4.123 -2.3632 -0.8781 -0.7316
   71CHL1  H27C 6434   5.922   6.197   4.100  1.4892 -1.9659 -0.4529
   72CHL1    C3 6435   6.703   4.448   2.764  0.7557 -0.3141 -0.4901
   72CHL1    H3 6436   6.741   4.552   2.753  0.2951 -0.0871 -0.0174
   72CHL1    O3 6437   6.668   4.389   2.640 -0.5584 -0.7340 -0.4852
   72CHL1   H3' 6438   6.625   4.307   2.665 -0.3341 -0.3033  1.4619
   72CHL1    C4 6439   6.799   4.359   2.845 -0.8608  0.2557  0.7100
   72CHL1   H4A 6440   6.756   4.261   2.873 -2.2512  0.7339  0.3178
   72CHL1   H4B 6441   6.896   4.347   2.791 -1.0804 -1.1783  0.6152
   72CHL1    C5 6442   6.827   4.423   2.983 -0.4330  0.4875 -0.0645
   72CHL1    C6 6443   6.948   4.454   3.027 -0.5968 -0.2775 -0.5168
   72CHL1    H6 6444   7.033   4.432   2.960  0.8765  0.8309  0.9078
   72CHL1    C7 6445   6.980   4.501   3.174  0.1760 -0.2624  0.0357
   72CHL1   H7A 6446   7.058   4.427   3.204 -0.1968 -1.4022 -1.6523
   72CHL1   H7B 6447   7.010   4.607   3.181  0.0152 -0.2663  0.8617
   72CHL1    C8 6448   6.857   4.499   3.267  0.6634 -0.4960  0.4884
   72CHL1    H8 6449   6.832   4.393   3.288  0.7473 -1.0853 -2.1270
   72CHL1   C14 6450   6.877   4.579   3.397 -0.2830  0.7329  0.7649
   72CHL1   H14 6451   6.889   4.683   3.360 -1.1437 -0.3806 -3.0404
   72CHL1   C15 6452   7.001   4.542   3.485 -0.1033  0.5517 -0.9676
   72CHL1  H15A 6453   6.998   4.431   3.487  1.6320  0.4265 -2.4681
   72CHL1  H15B 6454   7.090   4.582   3.433  0.4472 -0.8438 -1.1524
   72CHL1   C16 6455   6.967   4.602   3.623 -0.2302 -1.0995  0.1410
   72CHL1  H16A 6456   6.974   4.534   3.711  0.4031  0.3262  1.2228
   72CHL1  H16B 6457   7.048   4.675   3.642  1.6758 -2.7983 -1.0194
   72CHL1   C17 6458   6.825   4.663   3.609  0.5787 -0.1563  0.1239
   72CHL1   H17 6459   6.835   4.768   3.577 -0.5741  0.0333  0.3465
   72CHL1   C13 6460   6.761   4.578   3.497 -0.0948 -0.6462  0.7209
   72CHL1   C18 6461   6.725   4.446   3.557 -0.6276 -0.1386  0.3889
   72CHL1  H18A 6462   6.634   4.452   3.620 -0.5920 -0.8652  0.5196
   72CHL1  H18B 6463   6.696   4.375   3.476  2.6790  2.4997 -3.5010
   72CHL1  H18C 6464   6.807   4.398   3.615 -0.2379 -0.4189 -0.3747
   72CHL1   C12 6465   6.642   4.640   3.421  0.0103  0.0894  0.4892
   72CHL1  H12A 6466   6.564   4.653   3.500 -0.9812  0.3211 -0.5123
   72CHL1  H12B 6467   6.669   4.744   3.393  0.1982 -0.1013 -0.0461
   72CHL1   C11 6468   6.597   4.568   3.292 -0.1763 -0.1014 -0.0898
   72CHL1  H11A 6469   6.568   4.465   3.323  2.3152 -1.4823 -1.9416
   72CHL1  H11B 6470   6.518   4.625   3.240  0.4139  0.7603 -0.0518
   72CHL1    C9 6471   6.724   4.549   3.198 -0.7242  0.0002  0.1069
   72CHL1    H9 6472   6.755   4.644   3.150  0.2836 -0.9269 -1.1762
   72CHL1   C10 6473   6.703   4.456   3.071 -0.1072 -0.1283 -0.3272
   72CHL1   C19 6474   6.644   4.315   3.116  0.6711  0.5999 -0.5230
   72CHL1  H19A 6475   6.608   4.257   3.028 -1.6016  1.3650 -0.1778
   72CHL1  H19B 6476   6.697   4.251   3.190  0.5816  0.0185 -0.9541
   72CHL1  H19C 6477   6.549   4.327   3.172  0.9835 -0.1621  0.1874
   72CHL1    C1 6478   6.591   4.524   2.982 -0.0297  0.2132 -0.3027
   72CHL1   H1A 6479   6.499   4.535   3.043  0.9092 -4.4285  2.4088
   72CHL1   H1B 6480   6.624   4.630   2.973  1.5894 -0.1206  1.1569
   72CHL1    C2 6481   6.572   4.462   2.847  0.4826 -0.2318 -0.2303
   72CHL1   H2A 6482   6.495   4.514   2.785  1.2332  0.5231 -0.5398
   72CHL1   H2B 6483   6.524   4.362   2.858  1.7013 -1.2193 -2.9680
   72CHL1   C20 6484   6.758   4.669   3.743  0.2210 -0.4942 -0.2927
   72CHL1   H20 6485   6.744   4.569   3.791  0.1700  0.1707  1.1322
   72CHL1   C21 6486   6.619   4.742   3.731  0.6952  0.0637 -0.2333
   72CHL1  H21A 6487   6.624   4.833   3.668 -0.1543  0.5078  0.3176
   72CHL1  H21B 6488   6.586   4.774   3.832  2.1181 -1.4520  0.7764
   72CHL1  H21C 6489   6.541   4.669   3.700 -1.3140  1.7809  0.5414
   72CHL1   C22 6490   6.844   4.749   3.854 -0.5624  0.3274 -0.3134
   72CHL1  H22A 6491   6.951   4.766   3.830  0.2016 -0.2236  2.2855
   72CHL1  H22B 6492   6.789   4.845   3.866  0.1950  0.7290  0.0266
   72CHL1   C23 6493   6.842   4.670   3.983 -0.5503 -0.9501 -0.1072
   72CHL1  H23A 6494   6.737   4.639   4.004 -1.2967  1.8070  0.7146
   72CHL1  H23B 6495   6.907   4.582   3.965  2.0150 -0.1643  3.9613
   72CHL1   C24 6496   6.903   4.740   4.108 -0.0953  0.0859  0.0784
   72CHL1  H24A 6497   7.006   4.768   4.074  0.0381 -1.0691 -0.4968
   72CHL1  H24B 6498   6.839   4.827   4.135  0.6728 -0.0154  2.3760
   72CHL1   C25 6499   6.915   4.658   4.240  0.0364 -0.1078 -0.5288
   72CHL1   H25 6500   6.992   4.577   4.237 -0.3819 -0.4972 -0.9275
   72CHL1   C26 6501   6.958   4.746   4.360  0.0000 -0.4475  0.0932
   72CHL1  H26A 6502   6.877   4.811   4.400 -0.0273 -0.9239  0.8246
   72CHL1  H26B 6503   6.990   4.690   4.450  1.0533  0.7929  0.5288
   72CHL1  H26C 6504   7.039   4.813   4.324 -0.3192 -1.0403 -1.8255
   72CHL1   C27 6505   6.788   4.572   4.272 -0.6852  0.6814 -0.0816
   72CHL1  H27A 6506   6.794   4.530   4.374 -0.9865  0.1969 -0.2647
   72CHL1  H27B 6507   6.698   4.636   4.261 -1.6880 -0.9436 -1.9005
   72CHL1  H27C 6508   6.774   4.492   4.197 -0.2892  1.7772 -1.3814
   73CHL1    C3 6509   1.251   5.358   2.570  0.3154 -0.1096 -0.5915
   73CHL1    H3 6510   1.341   5.296   2.554  0.0148 -0.5324 -0.6636
   73CHL1    O3 6511   1.201   5.384   2.439 -0.2117  0.1013  0.1337
   73CHL1   H3' 6512   1.108   5.405   2.444 -0.7811 -2.2168  0.7106
   73CHL1    C4 6513   1.140   5.278   2.646 -0.2151  0.5915  0.7065
   73CHL1   H4A 6514   1.041   5.327   2.632 -0.2856  0.1775 -0.3171
   73CHL1   H4B 6515   1.138   5.183   2.588 -0.2285  1.5384 -0.8769
   73CHL1    C5 6516   1.157   5.271   2.798 -0.5980 -0.2003 -0.3947
   73CHL1    C6 6517   1.145   5.161   2.862  0.2505  0.2826  0.0761
   73CHL1    H6 6518   1.133   5.063   2.813 -1.2585  0.6271 -0.2926
   73CHL1    C7 6519   1.136   5.158   3.011  0.6717  0.4864 -0.2888
   73CHL1   H7A 6520   1.048   5.098   3.041  0.8577 -0.4758 -1.5474
   73CHL1   H7B 6521   1.229   5.109   3.047  1.5165  2.1226 -0.1672
   73CHL1    C8 6522   1.131   5.296   3.082 -0.9896 -0.1002 -0.6687
   73CHL1    H8 6523   1.029   5.337   3.066 -0.1528  2.5657  0.2823
   73CHL1   C14 6524   1.164   5.287   3.228 -0.1233  0.2986  0.7874
   73CHL1   H14 6525   1.269   5.252   3.240  0.0965  1.0746  1.2096
   73CHL1   C15 6526   1.096   5.174   3.312  0.5682 -0.7671 -0.3156
   73CHL1  H15A 6527   0.986   5.182   3.299  0.3009  1.7157  2.3830
   73CHL1  H15B 6528   1.133   5.071   3.293 -0.4497 -1.4606  1.2586
   73CHL1   C16 6529   1.119   5.226   3.453  0.2906 -0.5550 -0.0088
   73CHL1  H16A 6530   1.029   5.214   3.516  1.2842 -0.1174  1.5545
   73CHL1  H16B 6531   1.203   5.169   3.497  0.2182  0.7785  1.9636
   73CHL1   C17 6532   1.170   5.376   3.448 -0.0650  0.2171 -0.5159
   73CHL1   H17 6533   1.279   5.378   3.473  0.3362 -2.1741 -1.7869
   73CHL1   C13 6534   1.145   5.419   3.308 -0.2398  0.3835 -0.4424
   73CHL1   C18 6535   0.992   5.458   3.286 -0.8193 -0.8337  0.7912
   73CHL1  H18A 6536   0.927   5.382   3.333  0.9792 -1.4105  2.5068
   73CHL1  H18B 6537   0.980   5.547   3.351  3.5053 -0.6825  1.6853
   73CHL1  H18C 6538   0.960   5.480   3.182  0.4085  0.6604  0.6968
   73CHL1   C12 6539   1.254   5.514   3.249 -0.3311  0.0522  1.0116
   73CHL1  H12A 6540   1.236   5.613   3.295 -1.7802  0.7948 -0.9938
   73CHL1  H12B 6541   1.355   5.478   3.275  0.0241 -1.5219 -2.0672
   73CHL1   C11 6542   1.241   5.524   3.097  0.1587 -0.1368 -0.0308
   73CHL1  H11A 6543   1.147   5.580   3.077  1.0887  2.0017  1.2774
   73CHL1  H11B 6544   1.315   5.591   3.050 -0.7933  2.6049  2.1463
   73CHL1    C9 6545   1.233   5.388   3.017 -0.3469  0.0490  0.4159
   73CHL1    H9 6546   1.330   5.336   3.012 -1.6000 -2.4669  0.6814
   73CHL1   C10 6547   1.188   5.404   2.868  0.5458  0.3804 -0.0521
   73CHL1   C19 6548   1.065   5.491   2.853  0.0914  0.1453  0.1890
   73CHL1  H19A 6549   1.082   5.593   2.894 -2.1202  0.5250  0.2761
   73CHL1  H19B 6550   1.029   5.506   2.749 -0.8021 -1.7186  0.1928
   73CHL1  H19C 6551   0.979   5.449   2.909 -0.8100 -1.7340 -2.3919
   73CHL1    C1 6552   1.309   5.475   2.792 -0.2433  0.5025  0.4353
   73CHL1   H1A 6553   1.318   5.575   2.839 -0.5619  0.0672  1.4551
   73CHL1   H1B 6554   1.403   5.417   2.796 -1.2008 -1.0768  1.1994
   73CHL1    C2 6555   1.284   5.493   2.642 -0.5689 -0.6709 -0.5702
   73CHL1   H2A 6556   1.366   5.540   2.585 -0.4554  0.1669  0.2569
   73CHL1   H2B 6557   1.194   5.553   2.617  0.3414  0.6456 -0.7843
   73CHL1   C20 6558   1.108   5.462   3.565 -0.5232  0.6185  0.4477
   73CHL1   H20 6559   1.002   5.482   3.538  0.0110 -0.9046 -3.3724
   73CHL1   C21 6560   1.185   5.601   3.581 -0.1172  0.2280 -0.2567
   73CHL1  H21A 6561   1.164   5.667   3.494 -0.1425  0.3039 -0.1930
   73CHL1  H21B 6562   1.293   5.579   3.591  0.0058  0.9133 -0.0129
   73CHL1  H21C 6563   1.132   5.662   3.657 -2.6106 -1.6377 -0.3759
   73CHL1   C22 6564   1.111   5.388   3.702 -0.0849 -0.7023  0.7180
   73CHL1  H22A 6565   1.052   5.294   3.706 -1.4617  0.0830 -0.2784
   73CHL1  H22B 6566   1.215   5.351   3.713  0.2898 -0.4139 -1.5213
   73CHL1   C23 6567   1.072   5.466   3.831  0.2401  0.0320  0.2956
   73CHL1  H23A 6568   1.147   5.546   3.852  0.3311  0.1083 -0.3139
   73CHL1  H23B 6569   0.975   5.519   3.828 -0.0171 -0.3037  1.7136
   73CHL1   C24 6570   1.073   5.366   3.949  0.0187  0.9446 -0.5734
   73CHL1  H24A 6571   0.979   5.306   3.947  0.6729 -0.4305  2.7221
   73CHL1  H24B 6572   1.161   5.298   3.937 -1.2575 -1.2425  1.5176
   73CHL1   C25 6573   1.094   5.425   4.090 -0.1517 -0.2017  0.1134
   73CHL1   H25 6574   1.187   5.486   4.086 -1.1465  1.4066  0.6989
   73CHL1   C26 6575   0.981   5.519   4.128 -0.5470  0.3353  0.1241
   73CHL1  H26A 6576   0.982   5.598   4.050 -1.1660 -0.6009 -0.8654
   73CHL1  H26B 6577   0.880   5.475   4.140  0.3189 -1.2097  2.4073
   73CHL1  H26C 6578   1.007   5.567   4.225  1.2499 -0.7389  0.2177
   73CHL1   C27 6579   1.116   5.314   4.191  0.4105  0.8192  0.2804
   73CHL1  H27A 6580   1.153   5.336   4.293  2.0124 -4.6025  1.1808
   73CHL1  H27B 6581   1.014   5.269   4.199  0.2973  1.0048 -0.0816
   73CHL1  H27C 6582   1.191   5.240   4.156 -0.2380 -0.0738  0.7205
   74CHL1    C3 6583   1.105   4.407   2.636  0.2222 -0.0352 -0.1842
   74CHL1    H3 6584   1.012   4.447   2.590  0.1963  0.3975  0.2390
   74CHL1    O3 6585   1.194   4.341   2.545 -0.3485 -0.2205 -0.7413
   74CHL1   H3' 6586   1.202   4.404   2.472 -1.2560  1.4343  0.5133
   74CHL1    C4 6587   1.195   4.504   2.711 -0.3998 -0.1089 -0.3898
   74CHL1   H4A 6588   1.286   4.450   2.745 -0.9447 -0.1881  0.9955
   74CHL1   H4B 6589   1.221   4.586   2.640 -0.4630  0.0491 -0.2333
   74CHL1    C5 6590   1.131   4.560   2.834  0.1800  0.3294  0.0517
   74CHL1    C6 6591   1.107   4.694   2.846  0.3556 -0.1809  0.1081
   74CHL1    H6 6592   1.154   4.763   2.774  1.6371 -0.7540  0.3739
   74CHL1    C7 6593   1.033   4.756   2.962  0.5088 -0.1193  0.2245
   74CHL1   H7A 6594   1.077   4.851   2.997 -1.5383  0.1677  2.2889
   74CHL1   H7B 6595   0.931   4.782   2.927 -0.1248 -0.6600  1.5666
   74CHL1    C8 6596   1.009   4.659   3.082  0.1119 -0.6689 -0.4925
   74CHL1    H8 6597   1.102   4.659   3.142  0.4576  2.5050 -0.8969
   74CHL1   C14 6598   0.897   4.715   3.174 -0.1945 -0.6862  0.2590
   74CHL1   H14 6599   0.806   4.712   3.111 -1.4554  2.5010  1.6791
   74CHL1   C15 6600   0.908   4.867   3.211  0.1015  0.3359 -0.5586
   74CHL1  H15A 6601   1.013   4.895   3.233 -0.6738  2.1746  1.1801
   74CHL1  H15B 6602   0.859   4.933   3.136 -0.6898  0.4887  0.0742
   74CHL1   C16 6603   0.826   4.863   3.349 -0.0859 -0.6517 -0.8579
   74CHL1  H16A 6604   0.909   4.868   3.423  0.2159 -0.6390 -1.1943
   74CHL1  H16B 6605   0.759   4.950   3.364 -2.3588 -2.4465 -0.0850
   74CHL1   C17 6606   0.762   4.720   3.361 -0.3105 -0.7943 -0.6608
   74CHL1   H17 6607   0.668   4.720   3.302 -0.4389 -1.2718 -0.4657
   74CHL1   C13 6608   0.865   4.628   3.291  0.3264 -0.3501  0.5154
   74CHL1   C18 6609   1.002   4.627   3.368 -0.3972  0.0386  0.1644
   74CHL1  H18A 6610   1.055   4.725   3.371  0.5712 -0.4729  0.1526
   74CHL1  H18B 6611   0.985   4.605   3.475 -4.4765  0.0595 -0.3097
   74CHL1  H18C 6612   1.064   4.547   3.322  0.0040  1.3513 -1.6802
   74CHL1   C12 6613   0.812   4.492   3.240 -0.6911  0.6212  0.2705
   74CHL1  H12A 6614   0.785   4.421   3.322  0.5666  0.9037  0.9464
   74CHL1  H12B 6615   0.714   4.490   3.188 -1.1728 -0.8358  1.1541
   74CHL1   C11 6616   0.915   4.425   3.146  0.3360  0.0869  0.8957
   74CHL1  H11A 6617   1.003   4.381   3.198  1.9864  0.0581 -1.7172
   74CHL1  H11B 6618   0.863   4.338   3.101 -1.6192  0.0845  3.0253
   74CHL1    C9 6619   0.968   4.518   3.033 -0.5061  0.7230  0.2262
   74CHL1    H9 6620   0.875   4.545   2.979 -1.9920 -0.5291  2.0929
   74CHL1   C10 6621   1.070   4.461   2.933 -0.3080  0.4799 -0.3402
   74CHL1   C19 6622   1.191   4.399   3.020  0.1042  0.1270 -0.0954
   74CHL1  H19A 6623   1.227   4.484   3.082  1.3246 -0.8439  0.5748
   74CHL1  H19B 6624   1.145   4.315   3.076  1.2646 -0.0577  0.5996
   74CHL1  H19C 6625   1.274   4.370   2.952 -0.1398  1.8343 -1.1677
   74CHL1    C1 6626   0.986   4.356   2.857  0.1354  0.7122 -0.1787
   74CHL1   H1A 6627   0.960   4.270   2.922  0.0852  3.6044  4.0796
   74CHL1   H1B 6628   0.894   4.407   2.820  0.9645  1.6088 -1.0863
   74CHL1    C2 6629   1.053   4.297   2.731 -0.2985 -0.5221  0.3955
   74CHL1   H2A 6630   0.981   4.245   2.665 -2.2653  1.6343  0.7024
   74CHL1   H2B 6631   1.136   4.231   2.765 -0.3095 -0.9924 -0.4589
   74CHL1   C20 6632   0.721   4.683   3.511 -0.2600 -0.3622  0.4252
   74CHL1   H20 6633   0.807   4.626   3.551  1.4713 -0.3713 -2.9037
   74CHL1   C21 6634   0.603   4.585   3.501 -0.0601  0.1741 -0.0610
   74CHL1  H21A 6635   0.519   4.643   3.457 -0.6914 -0.9118 -0.3264
   74CHL1  H21B 6636   0.575   4.553   3.604  2.8542  2.2427  1.5423
   74CHL1  H21C 6637   0.607   4.495   3.436 -2.6446 -0.2855  0.3049
   74CHL1   C22 6638   0.685   4.804   3.601 -0.3398  0.4349 -0.4153
   74CHL1  H22A 6639   0.775   4.870   3.602  1.1718 -1.5353 -0.0840
   74CHL1  H22B 6640   0.596   4.863   3.570  0.1036 -0.2020 -3.1385
   74CHL1   C23 6641   0.671   4.766   3.751 -0.4447  0.8153 -0.0331
   74CHL1  H23A 6642   0.586   4.695   3.764  1.9237 -2.2890 -0.2016
   74CHL1  H23B 6643   0.763   4.709   3.777 -1.0449 -2.0884 -3.4311
   74CHL1   C24 6644   0.661   4.896   3.840  0.0077 -0.2320 -0.6476
   74CHL1  H24A 6645   0.758   4.948   3.859 -0.3933  1.4907 -2.9424
   74CHL1  H24B 6646   0.601   4.971   3.786  1.7275  2.0336  0.4354
   74CHL1   C25 6647   0.590   4.857   3.978 -0.4229  0.3671  0.5359
   74CHL1   H25 6648   0.501   4.795   3.958  0.5739 -0.6451 -1.0205
   74CHL1   C26 6649   0.695   4.774   4.056 -0.1105  0.1984 -0.0883
   74CHL1  H26A 6650   0.652   4.743   4.154  1.1751  0.0190  0.4376
   74CHL1  H26B 6651   0.718   4.681   4.000  0.5023  0.0994  0.3086
   74CHL1  H26C 6652   0.795   4.822   4.068  0.0892 -0.1522 -0.3472
   74CHL1   C27 6653   0.545   4.982   4.048  0.0658  0.0820  0.0924
   74CHL1  H27A 6654   0.481   4.972   4.138 -0.5680  0.2212 -0.3365
   74CHL1  H27B 6655   0.636   5.043   4.067  2.3737 -2.0349 -3.0468
   74CHL1  H27C 6656   0.474   5.042   3.989  0.3350  0.2667 -0.0467
   75CHL1    C3 6657   1.227   3.289   2.694  0.1576  0.4299  0.5096
   75CHL1    H3 6658   1.120   3.259   2.690  0.0467  0.7499  1.0044
   75CHL1    O3 6659   1.291   3.291   2.569  0.4206 -0.4967 -0.2151
   75CHL1   H3' 6660   1.380   3.328   2.575 -0.3117  1.1780  1.3077
   75CHL1    C4 6661   1.237   3.428   2.757 -1.0234 -0.3428 -1.1721
   75CHL1   H4A 6662   1.345   3.451   2.749 -0.7768 -1.1634 -0.4171
   75CHL1   H4B 6663   1.186   3.504   2.695 -0.7523 -0.6032 -1.7255
   75CHL1    C5 6664   1.180   3.413   2.900 -0.3728 -0.5639  0.8996
   75CHL1    C6 6665   1.077   3.489   2.931 -0.2706 -0.3533  0.1361
   75CHL1    H6 6666   1.032   3.552   2.853  1.6700 -0.4277 -1.0892
   75CHL1    C7 6667   1.021   3.495   3.077  0.6925  0.6342 -0.1118
   75CHL1   H7A 6668   1.018   3.604   3.098 -0.6657  0.9072 -1.5280
   75CHL1   H7B 6669   0.925   3.441   3.066 -0.0498  1.8480  0.2451
   75CHL1    C8 6670   1.115   3.429   3.184  0.4248 -0.1752 -0.0230
   75CHL1    H8 6671   1.197   3.501   3.205 -0.6348  1.1222 -0.1410
   75CHL1   C14 6672   1.035   3.396   3.308 -0.2930 -0.4686  0.4769
   75CHL1   H14 6673   0.958   3.320   3.283 -0.2990 -1.1474  2.4395
   75CHL1   C15 6674   0.946   3.510   3.374 -0.4377 -0.0875 -0.8538
   75CHL1  H15A 6675   1.012   3.598   3.372 -1.6460  0.8398 -1.5045
   75CHL1  H15B 6676   0.854   3.523   3.312 -1.4010 -0.2373  0.5072
   75CHL1   C16 6677   0.918   3.459   3.518 -0.1134 -0.1114  0.1301
   75CHL1  H16A 6678   0.926   3.542   3.593 -1.9547  0.8317 -0.6620
   75CHL1  H16B 6679   0.811   3.430   3.520 -0.5635  1.4313  2.1858
   75CHL1   C17 6680   1.004   3.337   3.525  0.2078  0.1730 -0.7420
   75CHL1   H17 6681   0.944   3.255   3.481 -0.0443 -0.1654  0.2309
   75CHL1   C13 6682   1.111   3.340   3.418 -0.3228 -0.0987  0.0277
   75CHL1   C18 6683   1.223   3.431   3.466 -0.2030  0.4366  0.7698
   75CHL1  H18A 6684   1.291   3.371   3.530 -0.6773 -1.3621 -0.3306
   75CHL1  H18B 6685   1.289   3.469   3.385  0.0784 -1.1942  0.2079
   75CHL1  H18C 6686   1.191   3.517   3.529 -1.1834 -0.2873  1.2920
   75CHL1   C12 6687   1.171   3.202   3.374  0.0403 -0.0190  0.2621
   75CHL1  H12A 6688   1.238   3.160   3.452 -0.2640 -1.5385 -0.2760
   75CHL1  H12B 6689   1.096   3.123   3.359 -0.0940 -0.0171  0.8831
   75CHL1   C11 6690   1.247   3.213   3.243 -0.5058 -0.8415 -0.4722
   75CHL1  H11A 6691   1.334   3.276   3.270 -0.6594  0.3655 -2.5605
   75CHL1  H11B 6692   1.287   3.116   3.209 -1.9911 -0.9761 -1.9785
   75CHL1    C9 6693   1.170   3.297   3.133 -0.4227  0.0123  0.2811
   75CHL1    H9 6694   1.077   3.240   3.111 -0.6671  0.1830  0.8486
   75CHL1   C10 6695   1.247   3.314   2.996 -0.1251  0.0777  0.1418
   75CHL1   C19 6696   1.389   3.362   3.023 -0.0359 -0.1102 -0.0953
   75CHL1  H19A 6697   1.440   3.298   3.098 -1.1316 -0.9721 -0.0612
   75CHL1  H19B 6698   1.450   3.364   2.930  3.0478 -0.5257  1.7649
   75CHL1  H19C 6699   1.368   3.464   3.061 -2.5333 -0.1835 -1.0966
   75CHL1    C1 6700   1.247   3.181   2.917 -0.2681 -1.2503 -0.0191
   75CHL1   H1A 6701   1.295   3.094   2.966 -1.7453 -2.9713 -1.4522
   75CHL1   H1B 6702   1.141   3.148   2.911 -1.1242  1.1285  0.8101
   75CHL1    C2 6703   1.312   3.193   2.777  0.0270 -0.5324  0.3933
   75CHL1   H2A 6704   1.302   3.088   2.742 -1.3730  0.3459 -2.0586
   75CHL1   H2B 6705   1.416   3.231   2.784 -0.4729  0.6253  2.6168
   75CHL1   C20 6706   1.032   3.279   3.667  0.3455  0.0588 -0.4971
   75CHL1   H20 6707   1.095   3.189   3.652  1.6732  0.5919  1.4778
   75CHL1   C21 6708   0.893   3.223   3.716  0.3522 -0.5272 -0.4728
   75CHL1  H21A 6709   0.825   3.308   3.739  3.2191  2.2681 -1.4018
   75CHL1  H21B 6710   0.902   3.151   3.800  0.4221 -0.2754 -0.2612
   75CHL1  H21C 6711   0.840   3.159   3.643 -1.5330 -0.3933  0.7012
   75CHL1   C22 6712   1.100   3.382   3.760 -0.2463  0.0775 -0.4176
   75CHL1  H22A 6713   1.200   3.415   3.724 -0.3244 -0.7906 -1.4854
   75CHL1  H22B 6714   1.036   3.473   3.763 -1.6529 -0.8960  0.1731
   75CHL1   C23 6715   1.104   3.332   3.903 -0.4906  0.4571 -0.5279
   75CHL1  H23A 6716   1.145   3.412   3.969  2.0265 -0.1512 -1.2517
   75CHL1  H23B 6717   1.005   3.298   3.939  0.5880 -1.3328  0.9007
   75CHL1   C24 6718   1.195   3.206   3.913 -0.0852 -0.3342 -0.1240
   75CHL1  H24A 6719   1.165   3.130   3.837 -1.8820 -0.2980  0.5080
   75CHL1  H24B 6720   1.297   3.240   3.885 -0.1412  1.3994  1.6313
   75CHL1   C25 6721   1.204   3.150   4.057 -0.3094 -0.4233 -0.0697
   75CHL1   H25 6722   1.102   3.119   4.086 -0.6605  0.4271 -0.3540
   75CHL1   C26 6723   1.297   3.028   4.058 -0.3802 -0.2854 -0.5665
   75CHL1  H26A 6724   1.401   3.064   4.039 -0.6084  0.1356 -1.0339
   75CHL1  H26B 6725   1.293   3.001   4.166  0.4374  0.2744 -0.3764
   75CHL1  H26C 6726   1.263   2.954   3.983 -2.9988 -0.1079  0.3591
   75CHL1   C27 6727   1.254   3.245   4.167  0.2170 -0.5633  0.0300
   75CHL1  H27A 6728   1.270   3.191   4.263  2.9981  1.1783  0.6664
   75CHL1  H27B 6729   1.344   3.308   4.148  0.2963  0.9741  4.2683
   75CHL1  H27C 6730   1.175   3.320   4.189  0.1110 -0.8621  0.7038
   76CHL1    C3 6731   6.319   5.103   3.113 -0.1239  0.6676 -0.2831
   76CHL1    H3 6732   6.420   5.138   3.145 -1.2601  3.6372  0.3504
   76CHL1    O3 6733   6.331   5.083   2.975 -0.1471 -0.3040 -0.4687
   76CHL1   H3' 6734   6.249   5.050   2.939  0.4553 -1.0478 -1.1997
   76CHL1    C4 6735   6.279   4.966   3.174 -0.2512  0.5097  0.0611
   76CHL1   H4A 6736   6.183   4.927   3.133 -0.7052  0.1286  1.4266
   76CHL1   H4B 6737   6.352   4.893   3.132 -0.6980  0.0560  0.0526
   76CHL1    C5 6738   6.276   4.978   3.326  0.8604 -0.2105 -0.6003
   76CHL1    C6 6739   6.357   4.899   3.399  0.2161 -0.1279 -0.0812
   76CHL1    H6 6740   6.421   4.823   3.352 -0.0701 -0.7796  0.5483
   76CHL1    C7 6741   6.352   4.898   3.551  0.6953  0.0394 -0.3491
   76CHL1   H7A 6742   6.363   4.798   3.599  1.2774  1.2933  2.2996
   76CHL1   H7B 6743   6.438   4.953   3.593  1.6782 -1.4491 -0.3465
   76CHL1    C8 6744   6.223   4.975   3.609  0.7505 -0.3975 -0.5944
   76CHL1    H8 6745   6.136   4.906   3.607 -1.3628  2.0467  0.8774
   76CHL1   C14 6746   6.246   5.010   3.753  0.4643 -0.0388  0.0123
   76CHL1   H14 6747   6.327   5.086   3.753 -0.0121  0.5920  2.9829
   76CHL1   C15 6748   6.296   4.901   3.856 -0.0383 -0.5496 -0.1380
   76CHL1  H15A 6749   6.251   4.801   3.838  2.5956 -1.6190 -1.2526
   76CHL1  H15B 6750   6.407   4.906   3.860 -0.0649  3.3872 -0.9082
   76CHL1   C16 6751   6.249   4.949   3.995 -0.7771 -0.4625 -0.3610
   76CHL1  H16A 6752   6.174   4.883   4.044 -0.1345 -1.0783 -0.1777
   76CHL1  H16B 6753   6.328   4.969   4.070  1.3363  1.9091 -2.9956
   76CHL1   C17 6754   6.177   5.090   3.968  0.0102  0.1884 -0.5667
   76CHL1   H17 6755   6.255   5.168   3.956 -2.6148  2.7873 -2.3110
   76CHL1   C13 6756   6.131   5.081   3.825  0.4498 -0.7963  0.2238
   76CHL1   C18 6757   6.007   4.994   3.817 -0.0308  0.6048 -0.7344
   76CHL1  H18A 6758   5.963   4.991   3.715  0.2015 -0.9141 -0.8119
   76CHL1  H18B 6759   6.030   4.889   3.846  1.9060  1.3021  0.5209
   76CHL1  H18C 6760   5.922   5.040   3.873  0.1662  0.9996 -0.7502
   76CHL1   C12 6761   6.099   5.213   3.753 -0.4535 -0.0194 -0.4427
   76CHL1  H12A 6762   5.999   5.249   3.787 -0.0563  0.3678  0.3335
   76CHL1  H12B 6763   6.182   5.282   3.778  1.5125 -2.0542 -0.9697
   76CHL1   C11 6764   6.086   5.193   3.600  0.2509  0.4783 -0.1465
   76CHL1  H11A 6765   5.983   5.156   3.579 -0.2892  0.3727  2.3057
   76CHL1  H11B 6766   6.084   5.290   3.545  0.1959  1.9446  2.2903
   76CHL1    C9 6767   6.193   5.105   3.533 -0.3022  0.9941  0.0496
   76CHL1    H9 6768   6.284   5.166   3.555 -1.2343  1.4046  3.3759
   76CHL1   C10 6769   6.176   5.081   3.379 -0.5626 -0.2503 -0.7744
   76CHL1   C19 6770   6.035   5.032   3.340 -0.0328 -0.1338  0.1978
   76CHL1  H19A 6771   6.008   4.932   3.382 -1.4073 -0.3520 -1.1014
   76CHL1  H19B 6772   5.956   5.098   3.381 -1.8612 -2.4778  0.7178
   76CHL1  H19C 6773   6.024   5.015   3.231 -1.1197  0.5702  0.1857
   76CHL1    C1 6774   6.219   5.214   3.303  0.4121 -0.3212  0.2495
   76CHL1   H1A 6775   6.144   5.292   3.327 -0.7024 -1.3299  0.0899
   76CHL1   H1B 6776   6.315   5.256   3.342  1.1580 -0.7868 -1.0429
   76CHL1    C2 6777   6.220   5.210   3.150  0.6326 -0.6494 -1.1941
   76CHL1   H2A 6778   6.255   5.302   3.099 -2.0298  0.3934 -1.3210
   76CHL1   H2B 6779   6.121   5.190   3.102  0.3680  1.6127 -1.7085
   76CHL1   C20 6780   6.072   5.156   4.065  0.3895 -0.1022 -0.0171
   76CHL1   H20 6781   6.005   5.215   3.999  1.5857 -0.8622 -1.9892
   76CHL1   C21 6782   6.149   5.235   4.169  0.2506 -0.3521 -0.4377
   76CHL1  H21A 6783   6.086   5.300   4.234  1.6286  0.9063 -0.3091
   76CHL1  H21B 6784   6.226   5.299   4.120 -0.1507  0.1642 -0.4026
   76CHL1  H21C 6785   6.209   5.168   4.234  0.8407 -0.4973 -1.1180
   76CHL1   C22 6786   5.976   5.052   4.146  0.3552  0.2652  0.2109
   76CHL1  H22A 6787   5.966   4.956   4.092 -0.0529 -0.1351  0.9692
   76CHL1  H22B 6788   6.025   5.029   4.243  0.8831  1.1289  0.1550
   76CHL1   C23 6789   5.830   5.102   4.164  0.1558  0.1320  0.6791
   76CHL1  H23A 6790   5.845   5.198   4.218 -0.5852 -0.1785  1.4547
   76CHL1  H23B 6791   5.785   5.112   4.063 -2.1483 -3.5693  1.1460
   76CHL1   C24 6792   5.729   5.006   4.224 -0.1909  0.5696 -0.3019
   76CHL1  H24A 6793   5.731   4.913   4.163  0.9839 -0.7999  1.6874
   76CHL1  H24B 6794   5.756   4.954   4.318 -4.1032 -1.8627 -0.3304
   76CHL1   C25 6795   5.585   5.062   4.223 -0.2176  0.0165 -0.3668
   76CHL1   H25 6796   5.564   5.099   4.121 -0.8360 -0.9233 -0.5961
   76CHL1   C26 6797   5.491   4.955   4.254  0.2540 -0.7558 -0.5893
   76CHL1  H26A 6798   5.387   4.991   4.235 -0.6530 -2.7687  0.2352
   76CHL1  H26B 6799   5.505   4.862   4.195 -0.3492 -0.9427 -0.4475
   76CHL1  H26C 6800   5.502   4.919   4.359  0.4789 -0.3135 -0.4563
   76CHL1   C27 6801   5.571   5.181   4.321 -0.4985 -0.3205  0.1490
   76CHL1  H27A 6802   5.629   5.269   4.287 -2.8577  0.9973 -0.6703
   76CHL1  H27B 6803   5.466   5.219   4.318 -0.1360  0.6200 -1.1055
   76CHL1  H27C 6804   5.586   5.157   4.429  1.1082  2.6249  0.6909
   77SOPE     N 6805   3.577   3.653   6.834 -0.2625  0.0338 -0.6580
   77SOPE   HN1 6806   3.510   3.732   6.836  1.1445  1.3003  2.0485
   77SOPE   HN2 6807   3.622   3.649   6.928  0.4808 -1.3707 -1.0306
   77SOPE   HN3 6808   3.645   3.684   6.762 -0.3106  2.1198  0.1503
   77SOPE   C12 6809   3.515   3.518   6.797 -0.5960 -0.0950 -0.3705
   77SOPE  H12A 6810   3.421   3.510   6.855 -0.2631  0.3075  0.2406
   77SOPE  H12B 6811   3.586   3.438   6.827 -0.6192  0.6704  1.9167
   77SOPE   C11 6812   3.484   3.510   6.643  0.2271 -0.1262 -0.2913
   77SOPE  H11A 6813   3.426   3.602   6.619 -0.2403 -0.5492 -0.8249
   77SOPE  H11B 6814   3.426   3.421   6.610  1.8174 -1.2845 -0.0482
   77SOPE     P 6815   3.687   3.403   6.513 -0.3447 -0.2943  0.2801
   77SOPE   O13 6816   3.626   3.277   6.554 -1.0049 -0.1642  0.1829
   77SOPE   O14 6817   3.825   3.423   6.555 -0.1188 -0.2296  0.1615
   77SOPE   O12 6818   3.606   3.521   6.571 -0.1284  0.1480  0.8470
   77SOPE   O11 6819   3.676   3.404   6.357  0.0367 -0.1539  0.2055
   77SOPE    C1 6820   3.575   3.473   6.283 -0.2994 -0.0289 -0.0368
   77SOPE    HA 6821   3.599   3.486   6.175 -0.0304  2.3640  0.2618
   77SOPE    HB 6822   3.554   3.575   6.321 -0.5209  0.3922 -1.2203
   77SOPE    C2 6823   3.433   3.410   6.283 -0.1832  0.0931  0.2231
   77SOPE    HS 6824   3.406   3.377   6.386 -0.5275  0.2618  0.1892
   77SOPE   O21 6825   3.427   3.296   6.196 -0.1930 -0.7985 -0.2373
   77SOPE   C21 6826   3.331   3.212   6.230  0.0666  0.1189  0.9405
   77SOPE   O22 6827   3.263   3.216   6.328 -0.4061  0.2711  0.1349
   77SOPE   C22 6828   3.341   3.100   6.124 -0.4212  0.2242 -0.4586
   77SOPE   H2R 6829   3.303   3.010   6.177  2.2914 -1.0661 -0.5146
   77SOPE   H2S 6830   3.450   3.080   6.112 -0.3460  0.4192 -0.1196
   77SOPE    C3 6831   3.326   3.506   6.240  0.2173 -0.6535 -0.0602
   77SOPE    HX 6832   3.327   3.584   6.319 -1.5953  0.6227 -1.2212
   77SOPE    HY 6833   3.226   3.458   6.249  0.5603 -1.5606 -0.9446
   77SOPE   O31 6834   3.338   3.559   6.101  0.2904  0.6824 -0.6967
   77SOPE   C31 6835   3.307   3.683   6.087 -0.0144 -0.2360 -0.4901
   77SOPE   O32 6836   3.251   3.748   6.171 -0.5606  0.0064  0.3109
   77SOPE   C32 6837   3.346   3.724   5.945 -0.0372 -0.5097 -0.3691
   77SOPE   H2X 6838   3.325   3.831   5.928  0.1212  0.2115  3.2303
   77SOPE   H2Y 6839   3.285   3.658   5.879 -1.3918 -2.8783  2.9403
   77SOPE   C23 6840   3.253   3.117   5.999  0.5726  0.5232 -0.1534
   77SOPE   H3R 6841   3.150   3.143   6.033  0.7450  2.0048 -0.6826
   77SOPE   H3S 6842   3.248   3.012   5.964 -0.7126  0.1137  1.1417
   77SOPE   C24 6843   3.311   3.207   5.883 -0.4805 -0.5136  0.0283
   77SOPE   H4R 6844   3.335   3.307   5.927 -2.8752  0.5225 -0.8734
   77SOPE   H4S 6845   3.403   3.152   5.851 -1.7901 -0.6587 -4.0028
   77SOPE   C25 6846   3.218   3.229   5.754 -0.4415  0.1000  0.3243
   77SOPE   H5R 6847   3.189   3.126   5.723  0.5947  0.1056 -0.7239
   77SOPE   H5S 6848   3.120   3.276   5.778 -0.8190 -0.8205  0.6400
   77SOPE   C26 6849   3.295   3.307   5.650 -0.1958  1.6194  0.2218
   77SOPE   H6R 6850   3.323   3.408   5.687  0.7750  0.7977  1.8735
   77SOPE   H6S 6851   3.383   3.246   5.621  0.2002  1.0947  2.3091
   77SOPE   C27 6852   3.195   3.313   5.536  0.1877  0.1887  0.4509
   77SOPE   H7R 6853   3.149   3.215   5.513 -0.4681  0.6232 -0.1552
   77SOPE   H7S 6854   3.111   3.378   5.570  0.1014  0.2621  0.1057
   77SOPE   C28 6855   3.255   3.365   5.404  0.5364  0.3131 -0.0751
   77SOPE   H8R 6856   3.171   3.370   5.331  1.5240  1.9767 -1.1572
   77SOPE   H8S 6857   3.298   3.466   5.420 -1.1744  1.5475 -2.6896
   77SOPE   C29 6858   3.345   3.273   5.337 -0.1480 -0.6010 -0.2028
   77SOPE   H91 6859   3.412   3.209   5.396 -0.7047 -0.0533  1.0600
   77SOPE  C210 6860   3.356   3.259   5.204  0.3030 -0.6433 -0.0197
   77SOPE  H101 6861   3.435   3.191   5.166  1.8641  2.4427 -2.8179
   77SOPE  C211 6862   3.292   3.333   5.095  0.0603 -0.4074  0.8011
   77SOPE  H11R 6863   3.288   3.444   5.106  0.2890 -0.5191  2.1672
   77SOPE  H11S 6864   3.191   3.287   5.095  0.2455 -0.8323  0.1981
   77SOPE  C212 6865   3.349   3.283   4.956  0.6954 -0.0362  0.5709
   77SOPE  H12R 6866   3.282   3.309   4.872 -1.7236 -0.3880  2.2791
   77SOPE  H12S 6867   3.344   3.172   4.950 -1.0549 -0.0283  1.3343
   77SOPE  C213 6868   3.487   3.346   4.942 -0.1921 -0.6172  0.1490
   77SOPE  H13R 6869   3.565   3.325   5.018  0.0864  1.5657  0.5343
   77SOPE  H13S 6870   3.478   3.454   4.963 -2.1277 -0.8943  0.9061
   77SOPE  C214 6871   3.541   3.349   4.800  0.3811 -0.7621 -1.0925
   77SOPE  H14R 6872   3.638   3.402   4.803 -0.8951  1.6799  0.1364
   77SOPE  H14S 6873   3.476   3.407   4.730  1.1508  0.4841 -0.8161
   77SOPE  C215 6874   3.563   3.214   4.737  0.1060  0.1077 -0.4987
   77SOPE  H15R 6875   3.472   3.186   4.680 -0.0768 -1.3568  0.4698
   77SOPE  H15S 6876   3.593   3.153   4.825  0.3120  0.8503 -0.0442
   77SOPE  C216 6877   3.680   3.217   4.635 -0.4416  0.2938  0.2262
   77SOPE  H16R 6878   3.736   3.121   4.634 -3.3889 -1.5367  0.1954
   77SOPE  H16S 6879   3.748   3.297   4.673 -1.0261  1.5443 -1.2661
   77SOPE  C217 6880   3.631   3.243   4.490 -0.0264 -0.5920  0.1981
   77SOPE  H17R 6881   3.555   3.325   4.484  1.5913  1.0840  1.5092
   77SOPE  H17S 6882   3.568   3.155   4.464 -0.7072 -1.5010  4.2289
   77SOPE  C218 6883   3.751   3.256   4.397  0.2871 -0.0575  0.2391
   77SOPE  H18R 6884   3.813   3.340   4.434  0.4707 -1.5590  3.6982
   77SOPE  H18S 6885   3.704   3.287   4.301  1.7509  1.1339 -0.1252
   77SOPE  H18T 6886   3.800   3.157   4.381 -0.2892 -0.2012 -0.7504
   77SOPE   C33 6887   3.501   3.708   5.925  0.7769  0.8035 -0.6903
   77SOPE   H3X 6888   3.512   3.598   5.921  0.0227  0.7340 -1.1179
   77SOPE   H3Y 6889   3.554   3.749   6.013 -2.3880 -0.2182  1.8949
   77SOPE   C34 6890   3.554   3.764   5.793 -0.2820  0.3974  0.2057
   77SOPE   H4X 6891   3.662   3.737   5.789 -0.3504 -0.0803  1.1161
   77SOPE   H4Y 6892   3.541   3.874   5.784 -0.4303  0.4405  0.8592
   77SOPE   C35 6893   3.488   3.704   5.668 -0.2277 -0.0261  0.1291
   77SOPE   H5X 6894   3.385   3.741   5.647  0.2095  2.1827  1.6022
   77SOPE   H5Y 6895   3.467   3.594   5.667 -1.8859  0.2423  1.1407
   77SOPE   C36 6896   3.569   3.734   5.541  0.3992  0.3063  0.1242
   77SOPE   H6X 6897   3.663   3.675   5.547 -0.9138 -1.6996  3.9103
   77SOPE   H6Y 6898   3.595   3.842   5.544  1.7217 -0.0102  1.5326
   77SOPE   C37 6899   3.494   3.712   5.402 -0.4951  0.3414 -0.5690
   77SOPE   H7X 6900   3.414   3.789   5.397  0.7275  1.7111  0.1528
   77SOPE   H7Y 6901   3.456   3.608   5.395  2.8685 -0.9821 -0.6817
   77SOPE   C38 6902   3.589   3.730   5.291 -0.4569 -0.4138 -0.3592
   77SOPE   H8X 6903   3.677   3.665   5.311  0.2484  0.5292 -0.2765
   77SOPE   H8Y 6904   3.632   3.832   5.302  1.4536 -1.1431 -0.7160
   77SOPE   C39 6905   3.521   3.709   5.156  0.1938  0.2463 -0.2814
   77SOPE   H9X 6906   3.426   3.764   5.173  0.5954  0.7147  0.5000
   77SOPE   H9Y 6907   3.506   3.599   5.153  0.8707  0.1497 -0.2618
   77SOPE  C310 6908   3.599   3.744   5.030 -0.6764 -0.0278 -0.3027
   77SOPE  H10X 6909   3.552   3.683   4.950  1.1774 -0.8340 -0.8207
   77SOPE  H10Y 6910   3.704   3.713   5.047 -1.2340 -1.7552  0.1887
   77SOPE  C311 6911   3.597   3.898   4.994  0.1296 -0.2911 -0.0558
   77SOPE  H11X 6912   3.640   3.955   5.079  0.8548 -0.6373 -0.1746
   77SOPE  H11Y 6913   3.491   3.927   4.981  0.4314  1.1591  0.5478
   77SOPE  C312 6914   3.680   3.931   4.869  0.1816  0.3726 -0.5291
   77SOPE  H12X 6915   3.768   3.864   4.866 -1.0060 -1.2280 -1.9703
   77SOPE  H12Y 6916   3.720   4.033   4.886  0.4461  0.0858  0.6136
   77SOPE  C313 6917   3.617   3.922   4.732 -0.2438  0.2131  0.2115
   77SOPE  H13X 6918   3.517   3.970   4.728  0.3101  1.3276 -0.7221
   77SOPE  H13Y 6919   3.591   3.814   4.726  0.1299  0.2141 -2.5007
   77SOPE  C314 6920   3.709   3.951   4.611 -0.8063  0.5873 -0.8984
   77SOPE  H14X 6921   3.805   3.902   4.637 -1.3307  0.3081  0.5963
   77SOPE  H14Y 6922   3.728   4.060   4.605 -0.7327  0.6979  0.7745
   77SOPE  C315 6923   3.648   3.894   4.484 -0.8682  0.6774  0.2805
   77SOPE  H15X 6924   3.543   3.923   4.463 -1.7794 -1.6630  1.2764
   77SOPE  H15Y 6925   3.641   3.786   4.507  1.5986  0.1638 -0.9719
   77SOPE  C316 6926   3.756   3.906   4.374 -0.2107 -0.4268 -0.4867
   77SOPE  H16X 6927   3.855   3.871   4.412 -0.2654  1.4576  1.5724
   77SOPE  H16Y 6928   3.755   4.011   4.338 -0.0070  0.2696  1.4238
   77SOPE  C317 6929   3.718   3.827   4.259  0.9562  0.1530 -0.4003
   77SOPE  H17X 6930   3.629   3.866   4.206  0.4693 -0.3613  0.0296
   77SOPE  H17Y 6931   3.693   3.723   4.290  0.0990  1.0071  1.9702
   77SOPE  C318 6932   3.834   3.815   4.157 -0.0714  0.0741  0.1788
   77SOPE  H18X 6933   3.831   3.915   4.107  1.1377 -0.2809 -0.6600
   77SOPE  H18Y 6934   3.813   3.741   4.077 -1.4014  2.8906 -2.2953
   77SOPE  H18Z 6935   3.928   3.797   4.214 -0.5861  0.8881  1.3176
   78SOPE     N 6936   2.921   3.985   6.670 -0.0668 -0.2996  0.4183
   78SOPE   HN1 6937   2.997   3.962   6.737  0.9392  1.3572 -0.0917
   78SOPE   HN2 6938   2.944   3.970   6.570  1.9734  0.9970  0.6408
   78SOPE   HN3 6939   2.903   4.087   6.684  1.6016 -0.0026  0.5230
   78SOPE   C12 6940   2.795   3.917   6.714  0.4371 -0.1913 -0.1803
   78SOPE  H12A 6941   2.709   3.959   6.658 -0.7987  1.8792  2.9892
   78SOPE  H12B 6942   2.778   3.938   6.822 -0.4162 -0.8403 -0.1783
   78SOPE   C11 6943   2.791   3.765   6.686  0.5457 -1.2240  1.0095
   78SOPE  H11A 6944   2.896   3.730   6.694  1.0968  0.0975  0.0268
   78SOPE  H11B 6945   2.765   3.743   6.580 -1.1041 -0.1680  1.1539
   78SOPE     P 6946   2.561   3.692   6.775 -0.0291 -0.0250 -0.0791
   78SOPE   O13 6947   2.512   3.804   6.867 -0.1739  0.3948 -0.0141
   78SOPE   O14 6948   2.517   3.553   6.811 -0.5754 -0.0989 -0.1097
   78SOPE   O12 6949   2.716   3.686   6.779 -0.5204  0.4182  0.0841
   78SOPE   O11 6950   2.522   3.734   6.625 -0.3027  0.2118  0.4896
   78SOPE    C1 6951   2.428   3.661   6.545 -0.1323  0.1723  0.4299
   78SOPE    HA 6952   2.418   3.710   6.446  2.6911 -1.0856 -0.6064
   78SOPE    HB 6953   2.332   3.640   6.596  0.0111  0.2588  0.7344
   78SOPE    C2 6954   2.486   3.528   6.497  0.0354 -0.7342  0.5756
   78SOPE    HS 6955   2.494   3.464   6.587 -0.0642 -0.7055  0.6046
   78SOPE   O21 6956   2.614   3.555   6.430 -0.0153 -0.4610  0.1475
   78SOPE   C21 6957   2.708   3.464   6.455  0.1631  0.1211  0.0534
   78SOPE   O22 6958   2.694   3.356   6.511  0.1973  0.4852 -0.3380
   78SOPE   C22 6959   2.840   3.507   6.408  0.3435 -0.3340 -0.4079
   78SOPE   H2R 6960   2.891   3.539   6.501 -0.0682 -0.3783 -0.1661
   78SOPE   H2S 6961   2.831   3.590   6.335  2.0513  0.5990  0.3723
   78SOPE    C3 6962   2.394   3.463   6.387 -0.0521  0.8288  0.1557
   78SOPE    HX 6963   2.370   3.532   6.303  0.9258  0.1952 -0.6718
   78SOPE    HY 6964   2.293   3.445   6.429 -0.5765  3.4122  0.2030
   78SOPE   O31 6965   2.460   3.345   6.329  0.1491 -0.0914  0.2394
   78SOPE   C31 6966   2.423   3.226   6.384 -0.3044  0.6264 -0.1460
   78SOPE   O32 6967   2.359   3.207   6.483  0.1695 -0.1828  0.0825
   78SOPE   C32 6968   2.495   3.113   6.302  0.8628  0.9256  0.7322
   78SOPE   H2X 6969   2.597   3.118   6.346 -0.2628 -1.3881  4.0106
   78SOPE   H2Y 6970   2.501   3.147   6.197  0.4298 -1.0663  0.0185
   78SOPE   C23 6971   2.917   3.394   6.336  0.2245 -0.1687  0.6103
   78SOPE   H3R 6972   2.945   3.310   6.405  2.6508 -1.4322 -1.7092
   78SOPE   H3S 6973   3.013   3.444   6.311  0.9902 -1.3368  1.0695
   78SOPE   C24 6974   2.846   3.326   6.221 -0.2925  1.3086 -0.7462
   78SOPE   H4R 6975   2.907   3.247   6.172 -0.2834  2.2182 -2.2787
   78SOPE   H4S 6976   2.751   3.271   6.237  0.9743 -1.6389 -2.5047
   78SOPE   C25 6977   2.810   3.423   6.111  0.2529 -0.3044  0.5224
   78SOPE   H5R 6978   2.733   3.490   6.155 -1.7397 -1.8157 -0.4781
   78SOPE   H5S 6979   2.901   3.477   6.078 -0.5861 -0.4347 -2.2885
   78SOPE   C26 6980   2.746   3.357   5.983  0.4365 -0.5437  1.0168
   78SOPE   H6R 6981   2.653   3.309   6.019 -1.8151  1.3286 -1.8663
   78SOPE   H6S 6982   2.706   3.445   5.928  3.2080 -0.3567 -0.9074
   78SOPE   C27 6983   2.832   3.275   5.894  0.7283  0.2475 -0.1326
   78SOPE   H7R 6984   2.930   3.327   5.890  1.0259  0.0705  2.8593
   78SOPE   H7S 6985   2.849   3.180   5.949 -1.7533 -1.7040 -2.4851
   78SOPE   C28 6986   2.767   3.238   5.757  0.2286 -0.0283 -0.1093
   78SOPE   H8R 6987   2.814   3.147   5.716 -0.7777 -1.0476  0.9102
   78SOPE   H8S 6988   2.662   3.208   5.777 -0.1222  0.7160 -0.7645
   78SOPE   C29 6989   2.747   3.347   5.659 -0.5756 -0.0761 -0.0170
   78SOPE   H91 6990   2.727   3.447   5.700  0.5371 -0.2099  0.9157
   78SOPE  C210 6991   2.737   3.329   5.525 -0.0257  0.2198 -0.8326
   78SOPE  H101 6992   2.725   3.414   5.456  2.6976  1.4875  0.1262
   78SOPE  C211 6993   2.756   3.195   5.455  0.1576  0.0323  0.1833
   78SOPE  H11R 6994   2.662   3.164   5.406  0.8889 -0.7705 -0.7450
   78SOPE  H11S 6995   2.778   3.107   5.521 -0.2631 -1.2180 -1.2890
   78SOPE  C212 6996   2.865   3.190   5.348 -0.1475 -0.1720  0.0553
   78SOPE  H12R 6997   2.885   3.091   5.303 -1.3263  0.2288 -1.4404
   78SOPE  H12S 6998   2.955   3.217   5.405  0.6605 -2.1111 -0.2298
   78SOPE  C213 6999   2.828   3.285   5.233  0.2632 -0.3328  0.4406
   78SOPE  H13R 7000   2.818   3.391   5.264  0.9371  0.1986 -1.0269
   78SOPE  H13S 7001   2.738   3.242   5.185  1.0820  1.1427 -2.6903
   78SOPE  C214 7002   2.938   3.278   5.115 -0.4964  0.1819  0.0750
   78SOPE  H14R 7003   2.988   3.178   5.120  2.3989  1.4821 -1.0767
   78SOPE  H14S 7004   3.016   3.346   5.155  0.4191 -0.8907  0.2020
   78SOPE  C215 7005   2.878   3.313   4.976 -0.0326  0.0596  0.5940
   78SOPE  H15R 7006   2.966   3.334   4.913 -0.6188  3.4226  0.6840
   78SOPE  H15S 7007   2.820   3.408   4.975 -1.5476 -0.8137  1.0447
   78SOPE  C216 7008   2.806   3.201   4.893  0.4561 -0.1250 -0.2623
   78SOPE  H16R 7009   2.806   3.239   4.788  1.5340  0.6644 -0.0001
   78SOPE  H16S 7010   2.701   3.185   4.923  1.4785 -0.1360  3.9645
   78SOPE  C217 7011   2.875   3.063   4.903 -0.2728 -0.4986 -0.6226
   78SOPE  H17R 7012   2.820   3.007   4.825 -0.6644 -1.9554  0.6572
   78SOPE  H17S 7013   2.865   3.020   5.005 -0.2621  0.3631 -0.2440
   78SOPE  C218 7014   3.022   3.051   4.853  0.2088 -0.6467 -0.0269
   78SOPE  H18R 7015   3.041   2.942   4.861 -2.8967 -1.2197  0.7941
   78SOPE  H18S 7016   3.085   3.111   4.922 -0.0348 -2.2542  1.6388
   78SOPE  H18T 7017   3.039   3.086   4.748  1.5121 -0.7289  0.1384
   78SOPE   C33 7018   2.432   2.972   6.302 -0.3799  0.4013 -0.7782
   78SOPE   H3X 7019   2.407   2.949   6.407 -0.1208  1.9419 -0.3471
   78SOPE   H3Y 7020   2.496   2.892   6.259 -2.5163 -1.3557 -0.8536
   78SOPE   C34 7021   2.305   2.984   6.223 -0.0643  0.1387 -0.1410
   78SOPE   H4X 7022   2.226   3.052   6.263  0.8098  2.8204 -2.6325
   78SOPE   H4Y 7023   2.265   2.880   6.226 -1.9366  0.6890 -2.4355
   78SOPE   C35 7024   2.318   3.018   6.074  0.5460 -0.1571  0.0142
   78SOPE   H5X 7025   2.343   3.126   6.065 -0.8845  0.1826 -0.2071
   78SOPE   H5Y 7026   2.212   3.018   6.041  0.5971  0.5339 -0.1738
   78SOPE   C36 7027   2.408   2.933   5.996  0.4467  0.7234  0.3316
   78SOPE   H6X 7028   2.381   2.825   5.998  0.4973  0.7150  0.5227
   78SOPE   H6Y 7029   2.509   2.935   6.042 -0.2380 -1.6316  2.1272
   78SOPE   C37 7030   2.416   2.971   5.847 -0.8677  0.3732 -0.1771
   78SOPE   H7X 7031   2.465   3.071   5.839  0.6708 -0.3543 -0.2439
   78SOPE   H7Y 7032   2.313   2.988   5.810 -0.8609 -2.1815 -1.5706
   78SOPE   C38 7033   2.483   2.869   5.752 -0.8435  0.5555  0.1603
   78SOPE   H8X 7034   2.441   2.766   5.766 -1.6866  0.6821 -1.2439
   78SOPE   H8Y 7035   2.586   2.862   5.791 -0.6957  0.8402 -0.1806
   78SOPE   C39 7036   2.496   2.899   5.599  0.8589 -0.0173 -0.3703
   78SOPE   H9X 7037   2.571   2.980   5.582  1.4331 -0.7177 -1.2980
   78SOPE   H9Y 7038   2.396   2.914   5.554  1.0377  0.4351 -0.6301
   78SOPE  C310 7039   2.566   2.777   5.527  0.1297 -0.5485 -0.1808
   78SOPE  H10X 7040   2.493   2.693   5.521  1.0656 -1.2622 -3.4330
   78SOPE  H10Y 7041   2.649   2.735   5.588  1.3387 -0.1902 -1.5287
   78SOPE  C311 7042   2.625   2.823   5.396  0.2349 -0.1826 -0.0419
   78SOPE  H11X 7043   2.680   2.738   5.351 -2.1767 -0.4741 -2.7410
   78SOPE  H11Y 7044   2.688   2.912   5.417  0.7999  0.2109 -3.0565
   78SOPE  C312 7045   2.521   2.862   5.291  0.5189 -0.2505  0.1092
   78SOPE  H12X 7046   2.460   2.948   5.325 -1.1450 -1.1248 -0.5504
   78SOPE  H12Y 7047   2.464   2.767   5.282  1.8344 -0.8337 -3.4453
   78SOPE  C313 7048   2.590   2.886   5.159  0.0191 -0.7355  0.8169
   78SOPE  H13X 7049   2.668   2.808   5.147  2.0319  1.3099 -0.3531
   78SOPE  H13Y 7050   2.647   2.981   5.170 -0.3478 -0.3980 -0.0605
   78SOPE  C314 7051   2.495   2.880   5.033 -0.3954  0.4928 -0.3294
   78SOPE  H14X 7052   2.391   2.877   5.074 -0.7338  1.4905 -1.0881
   78SOPE  H14Y 7053   2.524   2.787   4.979  0.6511  1.6715 -1.8742
   78SOPE  C315 7054   2.505   3.002   4.941  0.3558 -0.0898 -0.4769
   78SOPE  H15X 7055   2.611   3.006   4.908  0.5719 -0.7778  0.1125
   78SOPE  H15Y 7056   2.493   3.100   4.992  2.0371  0.2878 -0.7405
   78SOPE  C316 7057   2.415   3.000   4.818 -0.0242  0.0871 -0.3069
   78SOPE  H16X 7058   2.308   3.019   4.837  0.0682 -0.7304  1.1503
   78SOPE  H16Y 7059   2.430   2.901   4.769  3.4563  0.3354 -0.0056
   78SOPE  C317 7060   2.467   3.112   4.720  0.5769 -0.2723 -0.3702
   78SOPE  H17X 7061   2.559   3.067   4.677 -0.1031 -3.2087  1.0258
   78SOPE  H17Y 7062   2.508   3.193   4.784  0.1818 -0.7113  0.4570
   78SOPE  C318 7063   2.369   3.153   4.608 -0.2208  0.0370  0.0349
   78SOPE  H18X 7064   2.351   3.063   4.547  0.4056  0.2321 -0.4544
   78SOPE  H18Y 7065   2.415   3.231   4.542 -3.3192  2.5074  0.5606
   78SOPE  H18Z 7066   2.284   3.210   4.651  1.4134  0.8884  2.3639
   79SOPE     N 7067   4.868   1.284   6.624  0.2799  0.1967 -0.6109
   79SOPE   HN1 7068   4.838   1.357   6.691 -0.6285  0.3593 -1.1883
   79SOPE   HN2 7069   4.860   1.336   6.534 -0.7503 -0.2364 -0.7895
   79SOPE   HN3 7070   4.787   1.220   6.630 -0.6305  1.3702  0.0075
   79SOPE   C12 7071   4.999   1.221   6.664 -1.2044  0.0098 -0.1571
   79SOPE  H12A 7072   5.003   1.201   6.773 -2.0261 -2.3959 -0.4941
   79SOPE  H12B 7073   5.075   1.299   6.645 -2.5266  1.5012  0.5192
   79SOPE   C11 7074   5.037   1.101   6.590  0.5731 -0.0618  0.2642
   79SOPE  H11A 7075   5.135   1.063   6.626  1.3779  1.8199  0.2149
   79SOPE  H11B 7076   5.057   1.141   6.488 -2.3122  0.3502 -0.2390
   79SOPE     P 7077   4.917   0.853   6.563  0.0390  0.4396 -0.1903
   79SOPE   O13 7078   4.823   0.809   6.665  0.2255  0.5521  0.0689
   79SOPE   O14 7079   5.060   0.801   6.586  0.5996 -0.5742 -0.5105
   79SOPE   O12 7080   4.921   1.011   6.581  0.0045 -1.2134  0.4833
   79SOPE   O11 7081   4.863   0.835   6.422  0.7324 -0.0467  0.2676
   79SOPE    C1 7082   4.725   0.865   6.385  0.3951  0.2461  0.4191
   79SOPE    HA 7083   4.691   0.961   6.431 -2.1048 -0.0575 -0.6564
   79SOPE    HB 7084   4.659   0.789   6.432 -0.3456  1.0841  0.7598
   79SOPE    C2 7085   4.704   0.878   6.227  0.4179  0.8596 -0.4204
   79SOPE    HS 7086   4.598   0.908   6.215  0.1111 -0.6508 -1.8470
   79SOPE   O21 7087   4.720   0.740   6.168 -0.2333 -0.4028  0.2362
   79SOPE   C21 7088   4.676   0.739   6.049  0.5842  0.0469  0.5432
   79SOPE   O22 7089   4.596   0.822   6.001 -0.0566 -0.8833  0.5519
   79SOPE   C22 7090   4.742   0.630   5.968 -0.3641 -0.4388  0.7071
   79SOPE   H2R 7091   4.729   0.536   6.025 -2.6662  0.0710  1.1024
   79SOPE   H2S 7092   4.848   0.661   5.961 -0.5462 -0.1347 -1.3131
   79SOPE    C3 7093   4.806   0.976   6.168  1.0519 -0.3866  0.3094
   79SOPE    HX 7094   4.910   0.936   6.178  0.9240 -1.7043 -2.5640
   79SOPE    HY 7095   4.803   1.066   6.232 -0.9383 -0.6369  0.6074
   79SOPE   O31 7096   4.779   1.015   6.033  0.4876  0.3103 -0.4461
   79SOPE   C31 7097   4.703   1.122   6.014  0.2782  0.6350 -0.1841
   79SOPE   O32 7098   4.657   1.197   6.102 -0.0317  0.3603  0.0788
   79SOPE   C32 7099   4.677   1.142   5.863  0.2485 -0.0250  0.5375
   79SOPE   H2X 7100   4.637   1.044   5.830  1.1172  0.2479 -1.5191
   79SOPE   H2Y 7101   4.781   1.160   5.828  0.2422  1.2284  1.0982
   79SOPE   C23 7102   4.692   0.608   5.822  0.1291  0.3816 -0.0821
   79SOPE   H3R 7103   4.759   0.523   5.797  0.5269  0.5760  0.3017
   79SOPE   H3S 7104   4.714   0.698   5.761 -1.7320  1.4754  0.7601
   79SOPE   C24 7105   4.540   0.588   5.797  0.0218  0.4417 -0.3884
   79SOPE   H4R 7106   4.503   0.517   5.874 -0.6924  2.2684  1.0476
   79SOPE   H4S 7107   4.481   0.676   5.830  0.1892  1.0121 -1.5609
   79SOPE   C25 7108   4.496   0.555   5.656  0.3736  0.2301 -0.0268
   79SOPE   H5R 7109   4.563   0.484   5.603  0.1949  1.8318 -2.5667
   79SOPE   H5S 7110   4.400   0.501   5.663  1.4013 -1.4407  2.2442
   79SOPE   C26 7111   4.485   0.677   5.562  1.0164 -0.6073 -0.2772
   79SOPE   H6R 7112   4.584   0.725   5.570  1.8011 -1.3399 -3.9973
   79SOPE   H6S 7113   4.475   0.652   5.454  2.5215 -0.5752 -0.4421
   79SOPE   C27 7114   4.374   0.785   5.603 -1.1432  0.7313 -0.2061
   79SOPE   H7R 7115   4.277   0.732   5.593 -1.4377  1.4479 -1.3899
   79SOPE   H7S 7116   4.386   0.805   5.711  1.1554 -0.4268 -0.1951
   79SOPE   C28 7117   4.389   0.915   5.534  0.2386  0.6320  0.0526
   79SOPE   H8R 7118   4.322   0.992   5.579 -1.1290 -0.3989 -0.1424
   79SOPE   H8S 7119   4.492   0.957   5.530  0.6439 -0.0926  1.9826
   79SOPE   C29 7120   4.341   0.905   5.393 -0.0246  0.4218 -0.4537
   79SOPE   H91 7121   4.432   0.883   5.335 -1.3902 -0.9161 -2.2252
   79SOPE  C210 7122   4.217   0.923   5.340 -0.2920 -0.0366  0.0546
   79SOPE  H101 7123   4.207   0.892   5.234  3.3777  0.4456 -0.5673
   79SOPE  C211 7124   4.092   0.967   5.412  0.3796  0.2292  0.3665
   79SOPE  H11R 7125   4.077   1.077   5.417  2.1694  0.5082  0.5552
   79SOPE  H11S 7126   4.101   0.947   5.521 -0.3553 -0.9486  0.2217
   79SOPE  C212 7127   3.961   0.919   5.354 -0.3564  0.1847 -0.0788
   79SOPE  H12R 7128   3.895   0.892   5.439  0.6999  1.4462  1.1967
   79SOPE  H12S 7129   3.976   0.824   5.298 -1.0675  0.2149 -0.3285
   79SOPE  C213 7130   3.891   1.005   5.251 -0.4784  0.4212  0.2369
   79SOPE  H13R 7131   3.951   1.011   5.158  0.3250  0.0537  0.7168
   79SOPE  H13S 7132   3.871   1.107   5.288  1.8888  2.1614 -2.8230
   79SOPE  C214 7133   3.750   0.951   5.226  0.6894  0.4101 -0.2426
   79SOPE  H14R 7134   3.706   0.938   5.327  1.3874  0.3196  0.0555
   79SOPE  H14S 7135   3.757   0.847   5.188  0.2175  0.1241  0.4506
   79SOPE  C215 7136   3.662   1.030   5.130 -0.3166 -0.0312 -0.1912
   79SOPE  H15R 7137   3.739   1.093   5.080 -0.9025  0.3554 -0.6278
   79SOPE  H15S 7138   3.594   1.095   5.189 -0.8819 -0.8064  0.0171
   79SOPE  C216 7139   3.589   0.950   5.027  0.2840  0.3125  0.2911
   79SOPE  H16R 7140   3.660   0.898   4.959  1.4486 -0.8049  2.2773
   79SOPE  H16S 7141   3.533   1.023   4.966  0.7720 -0.4446 -1.1039
   79SOPE  C217 7142   3.493   0.838   5.078  0.0578  0.2109  0.6089
   79SOPE  H17R 7143   3.549   0.760   5.133  1.2383 -1.6041 -2.8488
   79SOPE  H17S 7144   3.441   0.792   4.991 -1.4098  1.7953  0.5894
   79SOPE  C218 7145   3.387   0.888   5.177 -0.1573 -0.1544  0.1665
   79SOPE  H18R 7146   3.308   0.810   5.182 -0.2070 -0.2711 -1.6273
   79SOPE  H18S 7147   3.355   0.989   5.144  1.6005  0.0030 -1.1767
   79SOPE  H18T 7148   3.424   0.902   5.280 -0.9498 -1.1454  0.5977
   79SOPE   C33 7149   4.583   1.260   5.827 -0.6273  0.5654  0.2379
   79SOPE   H3X 7150   4.626   1.356   5.863 -0.2356 -0.2249  1.9584
   79SOPE   H3Y 7151   4.477   1.253   5.859 -0.1251  0.8035  2.0480
   79SOPE   C34 7152   4.559   1.266   5.678 -0.0098 -0.0605 -0.1397
   79SOPE   H4X 7153   4.499   1.177   5.649  1.4682 -1.3990  0.7585
   79SOPE   H4Y 7154   4.650   1.269   5.614  0.6727 -1.1460  0.7550
   79SOPE   C35 7155   4.467   1.385   5.644  0.7074 -0.3760 -0.1971
   79SOPE   H5X 7156   4.520   1.483   5.643  0.2109 -0.0889 -1.5378
   79SOPE   H5Y 7157   4.402   1.385   5.733  1.0791 -2.7159  0.1296
   79SOPE   C36 7158   4.388   1.373   5.516  0.6386 -0.5812 -0.3218
   79SOPE   H6X 7159   4.323   1.461   5.503 -1.5621 -2.2761 -1.5339
   79SOPE   H6Y 7160   4.330   1.280   5.533  0.7775 -0.6267 -0.0796
   79SOPE   C37 7161   4.475   1.354   5.389  0.6609  0.4197  0.2556
   79SOPE   H7X 7162   4.561   1.291   5.420 -1.4215 -2.4625  0.5607
   79SOPE   H7Y 7163   4.522   1.444   5.343 -1.9739  0.8932 -1.8005
   79SOPE   C38 7164   4.400   1.279   5.277 -0.5790 -0.0356  0.0340
   79SOPE   H8X 7165   4.295   1.316   5.277 -0.9819 -1.1190  1.0240
   79SOPE   H8Y 7166   4.405   1.170   5.299 -0.4031 -0.2982 -1.2274
   79SOPE   C39 7167   4.466   1.306   5.141  0.5816  0.3652  0.1457
   79SOPE   H9X 7168   4.576   1.320   5.144  1.1094 -1.1269 -4.4546
   79SOPE   H9Y 7169   4.425   1.399   5.098  2.7909  0.7604 -1.2800
   79SOPE  C310 7170   4.440   1.189   5.036  0.0916  0.5116 -0.3031
   79SOPE  H10X 7171   4.480   1.089   5.063  0.8616  0.1781 -2.5126
   79SOPE  H10Y 7172   4.486   1.222   4.941 -0.2041  1.2765 -0.1849
   79SOPE  C311 7173   4.291   1.177   5.018 -0.4913  0.0007  0.6914
   79SOPE  H11X 7174   4.261   1.283   4.999 -1.3594  0.2599  3.1487
   79SOPE  H11Y 7175   4.249   1.154   5.118 -1.2212  1.7849  0.8364
   79SOPE  C312 7176   4.233   1.084   4.906 -0.1906 -0.0288  0.3218
   79SOPE  H12X 7177   4.272   1.099   4.803 -1.2798  0.1361 -0.0856
   79SOPE  H12Y 7178   4.125   1.110   4.896  0.0829  1.1933  0.4505
   79SOPE  C313 7179   4.240   0.935   4.931 -0.6762 -0.4171 -0.1579
   79SOPE  H13X 7180   4.235   0.924   5.041  0.7926 -0.8894 -0.1094
   79SOPE  H13Y 7181   4.337   0.902   4.888 -0.9939  2.9500 -4.0386
   79SOPE  C314 7182   4.128   0.856   4.870  0.3246 -0.4704 -0.5785
   79SOPE  H14X 7183   4.119   0.903   4.770  1.3632 -1.0944 -0.9906
   79SOPE  H14Y 7184   4.040   0.860   4.937 -0.7584  0.2770 -1.9962
   79SOPE  C315 7185   4.167   0.709   4.844 -0.0959 -0.5628  0.1672
   79SOPE  H15X 7186   4.258   0.703   4.780 -1.0094  1.1653 -1.4213
   79SOPE  H15Y 7187   4.078   0.677   4.785 -0.4751 -1.1874  1.0506
   79SOPE  C316 7188   4.186   0.616   4.966 -0.5984 -0.3292  0.2382
   79SOPE  H16X 7189   4.094   0.628   5.026 -2.2602 -1.9741 -1.8427
   79SOPE  H16Y 7190   4.270   0.655   5.027  0.7346  0.6557 -2.0699
   79SOPE  C317 7191   4.179   0.468   4.929 -0.0946 -0.1647 -0.3113
   79SOPE  H17X 7192   4.075   0.456   4.890  0.0475 -1.9192 -0.2106
   79SOPE  H17Y 7193   4.182   0.394   5.011  0.1213 -0.6472 -0.7493
   79SOPE  C318 7194   4.289   0.430   4.821 -0.2504  0.7497 -0.2808
   79SOPE  H18X 7195   4.278   0.491   4.729  0.7766  0.4566 -0.6110
   79SOPE  H18Y 7196   4.284   0.322   4.798 -1.6985  0.6715  0.3108
   79SOPE  H18Z 7197   4.389   0.448   4.867 -0.2001  0.0085 -0.0904
   80SOPE     N 7198   1.785   3.608   7.095  0.1777  0.3410 -0.0384
   80SOPE   HN1 7199   1.878   3.654   7.085 -0.5786  1.9986  0.2524
   80SOPE   HN2 7200   1.720   3.659   7.033 -1.8357 -1.6795  0.2824
   80SOPE   HN3 7201   1.748   3.610   7.192  1.4964  1.3482  0.4732
   80SOPE   C12 7202   1.808   3.465   7.059  0.0217 -0.1624 -0.5034
   80SOPE  H12A 7203   1.724   3.409   7.105  0.0542 -0.5074 -0.8564
   80SOPE  H12B 7204   1.909   3.434   7.091  0.2881  2.2998  1.3336
   80SOPE   C11 7205   1.786   3.436   6.911 -0.0233 -0.9334  0.0304
   80SOPE  H11A 7206   1.805   3.328   6.892  0.2022 -1.1548  1.3798
   80SOPE  H11B 7207   1.857   3.498   6.853 -0.5583  0.0915  0.4419
   80SOPE     P 7208   1.589   3.444   6.725 -0.1141 -0.4547 -0.3296
   80SOPE   O13 7209   1.500   3.556   6.684  0.3519  0.2251  0.3742
   80SOPE   O14 7210   1.539   3.309   6.732 -0.4874  0.1904  0.0137
   80SOPE   O12 7211   1.649   3.478   6.880 -0.0078 -0.5922  0.1635
   80SOPE   O11 7212   1.710   3.456   6.625  0.0582 -0.3684 -0.3201
   80SOPE    C1 7213   1.802   3.356   6.580 -0.8655  0.2350  1.2920
   80SOPE    HA 7214   1.766   3.260   6.623 -1.0225  0.5672  1.9128
   80SOPE    HB 7215   1.910   3.363   6.607  0.0343 -2.0154 -1.2766
   80SOPE    C2 7216   1.801   3.337   6.419 -0.1724  1.0705  0.2361
   80SOPE    HS 7217   1.843   3.432   6.380  2.0670 -0.1811 -0.6110
   80SOPE   O21 7218   1.668   3.300   6.375 -0.1967  0.0925 -0.7223
   80SOPE   C21 7219   1.640   3.351   6.255  0.4554  0.3146 -0.2476
   80SOPE   O22 7220   1.695   3.442   6.196  0.3586  0.3566 -0.2059
   80SOPE   C22 7221   1.503   3.294   6.208  0.1447 -0.0629  0.2321
   80SOPE   H2R 7222   1.439   3.380   6.177 -0.5838 -1.1847 -1.5292
   80SOPE   H2S 7223   1.453   3.246   6.295 -0.6232  1.1825  0.5064
   80SOPE    C3 7224   1.895   3.219   6.365 -0.0035  0.1224 -0.0809
   80SOPE    HX 7225   1.854   3.123   6.402  1.9610 -0.6922  0.1053
   80SOPE    HY 7226   1.994   3.222   6.416  0.3442 -0.4455 -0.7088
   80SOPE   O31 7227   1.915   3.222   6.219  0.4538 -0.1152  0.1868
   80SOPE   C31 7228   1.998   3.319   6.177 -0.0543 -0.2059 -0.0212
   80SOPE   O32 7229   2.057   3.393   6.253 -0.0470  0.1218  0.3580
   80SOPE   C32 7230   2.012   3.293   6.028  0.1530 -0.2089  0.1408
   80SOPE   H2X 7231   1.907   3.274   5.995  0.5715 -1.0642 -0.7523
   80SOPE   H2Y 7232   2.060   3.193   6.022  0.1817 -0.1144 -2.5028
   80SOPE   C23 7233   1.521   3.206   6.079 -0.1227 -0.6122 -0.8620
   80SOPE   H3R 7234   1.592   3.132   6.122 -1.9456 -0.4145  2.9066
   80SOPE   H3S 7235   1.575   3.263   6.000  1.3812 -0.7428  0.0261
   80SOPE   C24 7236   1.395   3.135   6.031 -0.1186 -0.2167  0.7033
   80SOPE   H4R 7237   1.419   3.042   5.975  0.8380  0.6316 -0.3538
   80SOPE   H4S 7238   1.326   3.097   6.110 -2.7291  2.3623 -0.1828
   80SOPE   C25 7239   1.309   3.228   5.941  0.3394 -0.2998  0.0410
   80SOPE   H5R 7240   1.212   3.174   5.939  0.1516  0.0547 -1.4989
   80SOPE   H5S 7241   1.302   3.327   5.992  1.3411  1.2219 -2.6162
   80SOPE   C26 7242   1.366   3.252   5.795 -1.0265  0.2280  0.4881
   80SOPE   H6R 7243   1.317   3.341   5.749 -2.0099  0.7532  2.4381
   80SOPE   H6S 7244   1.477   3.247   5.793 -1.0798 -1.5035 -1.3542
   80SOPE   C27 7245   1.333   3.130   5.706 -0.1499 -0.2199  0.2800
   80SOPE   H7R 7246   1.371   3.037   5.752  1.1242  0.9359  1.6950
   80SOPE   H7S 7247   1.223   3.125   5.696 -0.1089  1.2728 -1.4457
   80SOPE   C28 7248   1.379   3.145   5.555  0.4659 -0.8477  0.3443
   80SOPE   H8R 7249   1.311   3.095   5.484 -0.8304  1.4181 -0.1043
   80SOPE   H8S 7250   1.372   3.254   5.536  0.4957 -1.1145 -1.3445
   80SOPE   C29 7251   1.515   3.089   5.534 -0.0277 -0.3188 -0.2614
   80SOPE   H91 7252   1.578   3.085   5.625 -0.4151  0.3059  0.0452
   80SOPE  C210 7253   1.568   3.036   5.418 -0.1464  0.8935 -0.6197
   80SOPE  H101 7254   1.672   3.000   5.419 -0.4582 -0.4609  3.7194
   80SOPE  C211 7255   1.502   3.063   5.286 -0.5727  0.4407 -0.3272
   80SOPE  H11R 7256   1.502   3.173   5.269  1.9433  0.6379  0.4957
   80SOPE  H11S 7257   1.395   3.033   5.288 -1.8440  4.1925 -1.7554
   80SOPE  C212 7258   1.562   2.975   5.165 -0.2145  0.4495 -0.8129
   80SOPE  H12R 7259   1.560   2.868   5.196  4.4683 -0.0378 -1.5220
   80SOPE  H12S 7260   1.668   3.008   5.163 -0.4082  1.0513 -1.4085
   80SOPE  C213 7261   1.501   3.000   5.029 -0.0933  0.0853  0.2541
   80SOPE  H13R 7262   1.571   2.949   4.959  2.1506  1.5231  1.3434
   80SOPE  H13S 7263   1.507   3.108   5.002 -0.2087  0.2185  0.7492
   80SOPE  C214 7264   1.364   2.943   5.029  0.0355 -0.0002 -0.1573
   80SOPE  H14R 7265   1.297   2.999   5.098  1.1586  2.0137 -0.6240
   80SOPE  H14S 7266   1.354   2.837   5.062 -1.2261 -0.5465 -2.1238
   80SOPE  C215 7267   1.313   2.950   4.882  0.2269  0.1583 -0.6624
   80SOPE  H15R 7268   1.334   3.048   4.832 -1.1536 -0.2193 -2.0737
   80SOPE  H15S 7269   1.202   2.946   4.892  0.3156 -0.0626  0.2515
   80SOPE  C216 7270   1.367   2.827   4.800  0.4540  0.4251  0.4230
   80SOPE  H16R 7271   1.326   2.727   4.828  2.2542 -1.3333 -2.6098
   80SOPE  H16S 7272   1.476   2.805   4.808  0.8538  2.0890 -0.0623
   80SOPE  C217 7273   1.339   2.846   4.646  0.2421  0.1874  0.0373
   80SOPE  H17R 7274   1.384   2.764   4.586 -1.0104 -2.3403  2.3417
   80SOPE  H17S 7275   1.379   2.943   4.607  1.8316 -1.0987 -1.7662
   80SOPE  C218 7276   1.193   2.832   4.603  0.4351  1.1414  0.3989
   80SOPE  H18R 7277   1.157   2.731   4.632  2.6883  0.0359 -0.4190
   80SOPE  H18S 7278   1.178   2.840   4.493  0.9716  1.2853  0.3357
   80SOPE  H18T 7279   1.132   2.917   4.640 -0.9548  0.5161 -0.3639
   80SOPE   C33 7280   2.086   3.400   5.956 -0.4681 -0.9198 -0.8254
   80SOPE   H3X 7281   2.048   3.504   5.964 -0.4612 -1.0478  2.1918
   80SOPE   H3Y 7282   2.080   3.372   5.849  3.1365 -2.6605 -0.7470
   80SOPE   C34 7283   2.243   3.401   5.977  0.1213  0.0001 -0.0547
   80SOPE   H4X 7284   2.271   3.300   5.941 -2.1541 -0.7451  0.0694
   80SOPE   H4Y 7285   2.265   3.386   6.085 -0.6586  0.9298  0.2500
   80SOPE   C35 7286   2.329   3.520   5.927  0.4519 -0.5996  0.4629
   80SOPE   H5X 7287   2.438   3.502   5.941  0.1554 -1.8742  1.3559
   80SOPE   H5Y 7288   2.313   3.612   5.987  2.1145 -1.0686  1.7136
   80SOPE   C36 7289   2.316   3.553   5.774 -0.2245 -0.5632 -0.5348
   80SOPE   H6X 7290   2.363   3.649   5.744 -0.5850  0.2335  1.2948
   80SOPE   H6Y 7291   2.208   3.574   5.756  0.2142  0.4382 -2.1593
   80SOPE   C37 7292   2.349   3.430   5.689  0.0684  0.1505  0.5164
   80SOPE   H7X 7293   2.293   3.339   5.720 -1.8067  1.4418  1.0654
   80SOPE   H7Y 7294   2.456   3.401   5.688 -0.5996 -2.5339 -1.2597
   80SOPE   C38 7295   2.321   3.464   5.543  0.1164 -0.3360  1.8304
   80SOPE   H8X 7296   2.281   3.568   5.548  0.0895 -0.3988  3.2983
   80SOPE   H8Y 7297   2.233   3.404   5.509  0.5508  0.1889 -0.3852
   80SOPE   C39 7298   2.428   3.441   5.439 -0.4845  0.7699 -0.1459
   80SOPE   H9X 7299   2.465   3.337   5.449 -0.3086  0.9213  0.9103
   80SOPE   H9Y 7300   2.510   3.511   5.464 -0.2568  0.8743 -1.1210
   80SOPE  C310 7301   2.405   3.463   5.289 -0.0752 -0.0257  0.0385
   80SOPE  H10X 7302   2.427   3.570   5.266 -0.8000 -0.1393 -1.3184
   80SOPE  H10Y 7303   2.298   3.450   5.260 -0.0806 -0.8902  0.4316
   80SOPE  C311 7304   2.490   3.387   5.188 -0.4767  0.6186 -0.1272
   80SOPE  H11X 7305   2.478   3.279   5.211  0.1470  0.5456 -0.1065
   80SOPE  H11Y 7306   2.598   3.415   5.191 -0.6177  1.3861  4.4009
   80SOPE  C312 7307   2.451   3.405   5.039  0.3774 -0.1110 -0.2318
   80SOPE  H12X 7308   2.343   3.389   5.020 -0.2940  0.7112  2.3618
   80SOPE  H12Y 7309   2.504   3.330   4.976  0.2969  0.0758 -0.5199
   80SOPE  C313 7310   2.497   3.546   4.988  0.3570 -0.0522 -0.8339
   80SOPE  H13X 7311   2.605   3.542   5.016  0.1644 -0.8844 -0.1474
   80SOPE  H13Y 7312   2.446   3.635   5.031 -2.2685 -2.3632  1.2706
   80SOPE  C314 7313   2.484   3.563   4.836  0.0836  0.2779 -0.0137
   80SOPE  H14X 7314   2.377   3.542   4.814  0.5254 -1.3014 -0.7715
   80SOPE  H14Y 7315   2.545   3.478   4.799 -0.2082  0.4323 -0.8803
   80SOPE  C315 7316   2.530   3.695   4.775 -0.9800 -0.1068  0.2509
   80SOPE  H15X 7317   2.511   3.786   4.836  3.1642  1.5153 -0.4940
   80SOPE  H15Y 7318   2.507   3.720   4.669  1.3754  0.7720 -0.1235
   80SOPE  C316 7319   2.685   3.689   4.772  0.2664  0.0337  0.0241
   80SOPE  H16X 7320   2.704   3.588   4.730  0.1159  0.3969 -0.9507
   80SOPE  H16Y 7321   2.721   3.703   4.876 -1.2132  1.5618  0.3738
   80SOPE  C317 7322   2.750   3.802   4.684 -0.8087  0.7322 -0.1636
   80SOPE  H17X 7323   2.707   3.823   4.584  0.0093 -1.1117 -0.9669
   80SOPE  H17Y 7324   2.856   3.772   4.666 -1.2085 -1.1762  0.4295
   80SOPE  C318 7325   2.759   3.931   4.766 -0.5892  0.6471 -0.8325
   80SOPE  H18X 7326   2.786   4.017   4.700  1.0547  1.2886  0.5911
   80SOPE  H18Y 7327   2.829   3.935   4.852 -2.4700 -1.0310  0.8468
   80SOPE  H18Z 7328   2.659   3.938   4.813 -0.2776 -0.6403  0.0496
   81SOPE     N 7329   4.616   0.126   6.509 -0.1121  0.3320  0.7706
   81SOPE   HN1 7330   4.617   0.095   6.409  2.8765 -1.6692  1.2927
   81SOPE   HN2 7331   4.627   0.036   6.560 -1.2405 -0.6464 -0.6080
   81SOPE   HN3 7332   4.529   0.174   6.539  1.1277  2.9052  0.5209
   81SOPE   C12 7333   4.730   0.221   6.551  0.0987  0.6665  0.9526
   81SOPE  H12A 7334   4.718   0.243   6.659 -0.0492 -0.4119  1.1690
   81SOPE  H12B 7335   4.708   0.309   6.488  0.4640  0.7362  0.9216
   81SOPE   C11 7336   4.867   0.153   6.528  0.0451  0.3832 -0.0446
   81SOPE  H11A 7337   4.943   0.230   6.554 -0.8713  1.5790 -0.8208
   81SOPE  H11B 7338   4.889   0.111   6.428 -0.3036 -0.3943  0.1993
   81SOPE     P 7339   4.970   0.039   6.741 -0.0247 -0.7891 -0.1142
   81SOPE   O13 7340   4.988  -0.092   6.800  0.3805  0.6248 -0.2213
   81SOPE   O14 7341   4.927   0.148   6.828 -0.0734  0.6724  0.0640
   81SOPE   O12 7342   4.879   0.035   6.611  0.3421  0.5043  0.3884
   81SOPE   O11 7343   5.104   0.089   6.674 -0.2402  0.0712  0.2309
   81SOPE    C1 7344   5.167   0.013   6.569  0.4855  0.0745  0.2547
   81SOPE    HA 7345   5.104  -0.037   6.493  1.5860  0.2138 -0.7884
   81SOPE    HB 7346   5.235  -0.066   6.607  0.8359  1.6161  3.2026
   81SOPE    C2 7347   5.260   0.108   6.489  0.3744 -0.9716  0.6303
   81SOPE    HS 7348   5.323   0.161   6.563 -1.1211  3.9941 -1.2228
   81SOPE   O21 7349   5.175   0.203   6.415  0.2733  1.1864 -0.0914
   81SOPE   C21 7350   5.209   0.327   6.421  0.2994  0.6893 -0.1159
   81SOPE   O22 7351   5.297   0.374   6.492 -0.0204 -0.0341  0.1484
   81SOPE   C22 7352   5.109   0.411   6.336  0.0188  0.3186 -0.8080
   81SOPE   H2R 7353   5.046   0.456   6.415  1.0212 -1.3912  1.0718
   81SOPE   H2S 7354   5.041   0.350   6.274 -2.4175  1.5445  0.4826
   81SOPE    C3 7355   5.338   0.036   6.387  0.3905 -0.0317  0.4995
   81SOPE    HX 7356   5.276  -0.003   6.304 -0.0544  1.5782  0.0244
   81SOPE    HY 7357   5.401  -0.045   6.428  0.8276 -0.8291 -1.6317
   81SOPE   O31 7358   5.420   0.138   6.320 -0.4733  0.5318 -0.6375
   81SOPE   C31 7359   5.542   0.095   6.279 -0.5455  0.6081  0.8561
   81SOPE   O32 7360   5.601  -0.009   6.309 -0.2396  0.1526 -0.7503
   81SOPE   C32 7361   5.598   0.198   6.178 -0.2559 -0.3539  0.3556
   81SOPE   H2X 7362   5.697   0.235   6.212 -0.5135  0.3148  0.3902
   81SOPE   H2Y 7363   5.526   0.281   6.193  0.4795 -0.1767  3.4471
   81SOPE   C23 7364   5.176   0.520   6.251 -0.1770 -0.1921 -0.0762
   81SOPE   H3R 7365   5.252   0.483   6.179  0.3697 -1.0029  0.9062
   81SOPE   H3S 7366   5.237   0.577   6.323 -0.4213  0.0179 -0.0363
   81SOPE   C24 7367   5.073   0.616   6.192  0.3757 -0.2288  0.6717
   81SOPE   H4R 7368   5.014   0.563   6.114 -0.6169 -0.1758  1.3720
   81SOPE   H4S 7369   5.001   0.656   6.267 -0.5336 -0.5465 -0.0186
   81SOPE   C25 7370   5.141   0.743   6.132  0.1078  1.2418  0.1820
   81SOPE   H5R 7371   5.143   0.825   6.208  0.1931 -1.2832  3.1011
   81SOPE   H5S 7372   5.248   0.716   6.119  0.0189  0.4434  1.0093
   81SOPE   C26 7373   5.094   0.799   5.992  0.3284  1.1906 -0.0634
   81SOPE   H6R 7374   5.102   0.714   5.922 -0.2930 -0.1264  1.4074
   81SOPE   H6S 7375   4.994   0.849   5.990 -0.4612 -0.2712  0.8643
   81SOPE   C27 7376   5.197   0.892   5.924 -0.4119  0.8385 -0.6273
   81SOPE   H7R 7377   5.288   0.835   5.895 -1.7899 -2.0677  0.3878
   81SOPE   H7S 7378   5.151   0.926   5.828 -1.7569  1.1480  0.0953
   81SOPE   C28 7379   5.247   1.006   6.012  0.1790  0.1064 -0.2427
   81SOPE   H8R 7380   5.282   0.972   6.112 -3.4236  1.0172  1.4973
   81SOPE   H8S 7381   5.336   1.055   5.967 -0.1048  0.5440 -0.3271
   81SOPE   C29 7382   5.134   1.096   6.057 -0.2460 -0.0215 -0.2370
   81SOPE   H91 7383   5.072   1.046   6.133  1.5040 -2.1826 -0.1057
   81SOPE  C210 7384   5.119   1.228   6.049  0.3056  0.2541  0.8090
   81SOPE  H101 7385   5.031   1.275   6.095  0.2173 -0.1872  1.0950
   81SOPE  C211 7386   5.201   1.323   5.964  0.2929  0.5327  0.5306
   81SOPE  H11R 7387   5.280   1.271   5.906  0.7371 -0.4772  1.9818
   81SOPE  H11S 7388   5.247   1.397   6.032  1.4808 -0.0715  0.4109
   81SOPE  C212 7389   5.115   1.415   5.866 -0.1400  0.2858  0.8255
   81SOPE  H12R 7390   5.190   1.474   5.808 -1.2363  1.3152  0.4013
   81SOPE  H12S 7391   5.057   1.498   5.912 -1.3729 -1.3012  2.2476
   81SOPE  C213 7392   5.051   1.328   5.749 -0.3077 -0.2958  0.1092
   81SOPE  H13R 7393   4.972   1.267   5.798 -1.0260  0.7054  0.2286
   81SOPE  H13S 7394   5.132   1.260   5.715  0.6685 -0.8073  3.1599
   81SOPE  C214 7395   5.002   1.412   5.634 -0.4426  0.5077  0.3477
   81SOPE  H14R 7396   5.091   1.476   5.614  0.7355 -1.3233 -0.5024
   81SOPE  H14S 7397   4.921   1.483   5.661 -0.7275  0.2560  0.1598
   81SOPE  C215 7398   4.979   1.336   5.505 -0.1843 -0.2115 -0.1796
   81SOPE  H15R 7399   4.892   1.269   5.522 -0.5048  0.3128  0.2880
   81SOPE  H15S 7400   5.066   1.276   5.474 -0.3780 -0.1066 -0.9373
   81SOPE  C216 7401   4.931   1.435   5.398 -0.1116 -0.0485 -0.3337
   81SOPE  H16R 7402   5.000   1.521   5.387  1.7945 -1.6766 -1.6587
   81SOPE  H16S 7403   4.838   1.477   5.442 -0.0136 -0.1076 -0.0698
   81SOPE  C217 7404   4.911   1.360   5.268  1.0296  0.3089  0.5033
   81SOPE  H17R 7405   4.837   1.279   5.287  1.1435  0.1833  0.4115
   81SOPE  H17S 7406   5.003   1.309   5.234  1.2899 -1.3631  3.3120
   81SOPE  C218 7407   4.840   1.459   5.167 -0.0431  0.1489  0.7305
   81SOPE  H18R 7408   4.909   1.545   5.153  0.8753 -0.8914 -1.8151
   81SOPE  H18S 7409   4.740   1.491   5.201 -0.3280 -0.6688  0.6844
   81SOPE  H18T 7410   4.827   1.409   5.068 -2.0737 -1.3521  1.6891
   81SOPE   C33 7411   5.595   0.136   6.032  0.5413  0.7090  0.3535
   81SOPE   H3X 7412   5.490   0.107   6.010  1.1192 -2.5756  1.3474
   81SOPE   H3Y 7413   5.648   0.038   6.033 -1.4224 -0.4082  0.6451
   81SOPE   C34 7414   5.653   0.227   5.929 -0.3858 -0.5183 -0.0643
   81SOPE   H4X 7415   5.763   0.236   5.942  0.2687 -1.7844 -3.5404
   81SOPE   H4Y 7416   5.611   0.330   5.933 -0.0483 -0.3482 -0.7066
   81SOPE   C35 7417   5.642   0.174   5.785  0.3608  0.6813 -0.6645
   81SOPE   H5X 7418   5.533   0.166   5.767 -0.0313  0.8751  1.3336
   81SOPE   H5Y 7419   5.692   0.075   5.779  1.5320  1.2401 -0.4742
   81SOPE   C36 7420   5.706   0.266   5.682 -0.2437  0.7663  0.0502
   81SOPE   H6X 7421   5.647   0.361   5.683  1.6261  1.9660  0.2798
   81SOPE   H6Y 7422   5.685   0.213   5.587  1.5710  0.2072 -0.0736
   81SOPE   C37 7423   5.858   0.282   5.693 -0.3609  0.7395 -0.5350
   81SOPE   H7X 7424   5.922   0.194   5.669 -0.8875  0.3495 -0.5198
   81SOPE   H7Y 7425   5.876   0.318   5.797 -0.5092  0.2510 -0.3363
   81SOPE   C38 7426   5.902   0.402   5.605  0.2194 -0.9772 -0.3986
   81SOPE   H8X 7427   5.832   0.487   5.621  0.0952 -1.3049  0.9786
   81SOPE   H8Y 7428   5.904   0.379   5.497  3.2929  0.0886 -0.6547
   81SOPE   C39 7429   6.047   0.451   5.639  0.2645 -0.4826 -0.9755
   81SOPE   H9X 7430   6.047   0.498   5.740  0.7500  0.4696 -1.4096
   81SOPE   H9Y 7431   6.069   0.531   5.565  0.6097 -1.7170 -2.2515
   81SOPE  C310 7432   6.162   0.352   5.647 -0.2265  0.0673  0.0863
   81SOPE  H10X 7433   6.136   0.260   5.705 -0.9755 -0.4663 -1.0437
   81SOPE  H10Y 7434   6.250   0.402   5.692 -0.5210 -0.9638  1.9051
   81SOPE  C311 7435   6.197   0.305   5.507 -0.3710 -0.2848 -0.5166
   81SOPE  H11X 7436   6.226   0.392   5.444 -0.4165  0.0328 -0.0988
   81SOPE  H11Y 7437   6.103   0.256   5.472 -1.7929  1.1598  1.0613
   81SOPE  C312 7438   6.332   0.216   5.507  0.6956 -0.1058 -0.5920
   81SOPE  H12X 7439   6.309   0.120   5.557  0.2269 -0.2196 -1.0102
   81SOPE  H12Y 7440   6.410   0.261   5.571 -0.7691  1.5789  0.1180
   81SOPE  C313 7441   6.391   0.187   5.368 -0.7148 -0.7274 -0.4779
   81SOPE  H13X 7442   6.485   0.132   5.390  0.5302  1.3531 -0.3398
   81SOPE  H13Y 7443   6.422   0.288   5.332  2.4118 -1.1870  0.6161
   81SOPE  C314 7444   6.295   0.124   5.274 -0.4765  0.1056  0.7245
   81SOPE  H14X 7445   6.216   0.194   5.239 -1.0151 -1.2103 -0.8598
   81SOPE  H14Y 7446   6.242   0.036   5.318 -1.0506 -1.0133 -2.0076
   81SOPE  C315 7447   6.360   0.059   5.150 -0.4817 -0.1455  0.4136
   81SOPE  H15X 7448   6.312  -0.042   5.142 -1.3558  0.3420 -0.8325
   81SOPE  H15Y 7449   6.466   0.032   5.169 -0.4810 -0.2001  0.3309
   81SOPE  C316 7450   6.346   0.125   5.016  0.7542  0.2920  0.9588
   81SOPE  H16X 7451   6.368   0.233   5.034  0.7944  0.1778  1.5953
   81SOPE  H16Y 7452   6.240   0.121   4.981  0.7435 -0.3828  1.0690
   81SOPE  C317 7453   6.430   0.061   4.906 -0.3544  0.4248 -0.7416
   81SOPE  H17X 7454   6.524   0.028   4.956 -0.2637  2.2514  0.3728
   81SOPE  H17Y 7455   6.448   0.146   4.838 -1.0193  0.6175 -0.6841
   81SOPE  C318 7456   6.363  -0.059   4.837 -1.0823 -0.0299 -0.4113
   81SOPE  H18X 7457   6.255  -0.035   4.837 -1.2003  0.7487  4.8718
   81SOPE  H18Y 7458   6.380  -0.154   4.893  1.5913 -0.2007 -1.3441
   81SOPE  H18Z 7459   6.407  -0.075   4.736 -1.6215  0.1689 -0.6782
   82SOPE     N 7460   1.942   1.272   6.334 -0.3243  0.0567  0.3133
   82SOPE   HN1 7461   1.980   1.368   6.350 -1.2720  0.7457 -1.3526
   82SOPE   HN2 7462   1.844   1.282   6.302 -0.3075  2.1004  0.7450
   82SOPE   HN3 7463   1.931   1.222   6.425 -2.2367  1.4145  0.8900
   82SOPE   C12 7464   2.004   1.182   6.234  0.0281 -0.1778  0.0094
   82SOPE  H12A 7465   2.113   1.176   6.255  0.1931  0.0135 -0.7772
   82SOPE  H12B 7466   2.014   1.240   6.140  2.2943  0.4084  0.5347
   82SOPE   C11 7467   1.932   1.046   6.234  0.1377  0.2725  0.3260
   82SOPE  H11A 7468   1.986   0.983   6.160  0.1473 -1.6202  1.8686
   82SOPE  H11B 7469   1.826   1.064   6.204 -0.0264 -1.5070 -0.2733
   82SOPE     P 7470   1.830   0.899   6.427 -0.2081 -0.2326 -0.4241
   82SOPE   O13 7471   1.746   1.010   6.491 -0.7168 -0.6200  0.5105
   82SOPE   O14 7472   1.892   0.793   6.508 -0.8601 -0.3558  0.8726
   82SOPE   O12 7473   1.946   0.987   6.358 -0.6886 -0.4730  0.1212
   82SOPE   O11 7474   1.755   0.836   6.307  0.1417  0.3174  0.1712
   82SOPE    C1 7475   1.740   0.695   6.294  0.2322  0.3908 -1.0874
   82SOPE    HA 7476   1.649   0.682   6.231 -0.5822 -0.1508  0.1487
   82SOPE    HB 7477   1.711   0.650   6.392  3.2722  0.9573  0.1840
   82SOPE    C2 7478   1.858   0.621   6.226 -0.0085 -0.2226  0.1304
   82SOPE    HS 7479   1.941   0.631   6.298 -0.7352  1.1235  0.8122
   82SOPE   O21 7480   1.893   0.683   6.098  0.5222 -0.0273  0.3721
   82SOPE   C21 7481   2.011   0.676   6.055 -0.5334  0.1629 -0.0391
   82SOPE   O22 7482   2.100   0.615   6.109 -0.7213  0.1914  0.0373
   82SOPE   C22 7483   2.026   0.751   5.922 -0.9068 -0.0539  0.4541
   82SOPE   H2R 7484   1.995   0.853   5.952  0.8560  0.3892  0.8708
   82SOPE   H2S 7485   1.962   0.700   5.847  0.7267 -0.9527 -0.3912
   82SOPE    C3 7486   1.829   0.475   6.217 -0.4947 -0.1625  0.0141
   82SOPE    HX 7487   1.831   0.439   6.322 -0.7140  2.2301  0.8936
   82SOPE    HY 7488   1.906   0.416   6.162 -0.6495 -1.0795  0.7569
   82SOPE   O31 7489   1.698   0.453   6.159  0.5545  1.0446 -0.4285
   82SOPE   C31 7490   1.677   0.327   6.135  0.6260  0.6503 -0.0027
   82SOPE   O32 7491   1.750   0.234   6.163 -0.0990  0.0592 -0.1990
   82SOPE   C32 7492   1.540   0.302   6.066  0.1578 -0.0458  0.4871
   82SOPE   H2X 7493   1.459   0.351   6.125  0.5904 -0.6274  1.6087
   82SOPE   H2Y 7494   1.507   0.196   6.076 -0.5786  0.0174 -1.0202
   82SOPE   C23 7495   2.171   0.749   5.867  0.1422  0.1835 -1.1720
   82SOPE   H3R 7496   2.191   0.641   5.851 -0.2701 -0.0654 -0.1053
   82SOPE   H3S 7497   2.245   0.778   5.946 -1.2178  2.5560 -0.6718
   82SOPE   C24 7498   2.193   0.831   5.748 -0.4401 -0.1929 -0.9110
   82SOPE   H4R 7499   2.110   0.806   5.678 -0.1711 -0.2512 -1.2159
   82SOPE   H4S 7500   2.185   0.941   5.764 -0.5318 -0.2719 -0.4169
   82SOPE   C25 7501   2.324   0.779   5.675 -0.1633 -1.0122 -0.7626
   82SOPE   H5R 7502   2.414   0.829   5.716  0.6407 -0.5871 -2.9357
   82SOPE   H5S 7503   2.333   0.669   5.693  0.5202 -0.7910  0.3352
   82SOPE   C26 7504   2.314   0.798   5.519  0.7795  0.2302 -0.7162
   82SOPE   H6R 7505   2.221   0.754   5.478  0.3784 -0.4591  0.8586
   82SOPE   H6S 7506   2.326   0.906   5.496 -0.8149  0.5777 -0.0716
   82SOPE   C27 7507   2.435   0.735   5.442  0.3605 -0.5853 -0.5049
   82SOPE   H7R 7508   2.513   0.814   5.446 -0.6043  0.3427  1.1644
   82SOPE   H7S 7509   2.462   0.642   5.497 -3.0282 -1.2226  0.3277
   82SOPE   C28 7510   2.413   0.698   5.292 -0.1555 -0.4049  1.6636
   82SOPE   H8R 7511   2.514   0.685   5.248 -1.0661 -2.0357 -0.0652
   82SOPE   H8S 7512   2.372   0.596   5.279 -0.3180 -0.0408 -1.6131
   82SOPE   C29 7513   2.345   0.798   5.206  0.5076  0.3095 -0.1936
   82SOPE   H91 7514   2.411   0.885   5.193 -0.1227  0.6439 -1.3046
   82SOPE  C210 7515   2.227   0.780   5.133 -0.1197  0.1088 -0.4339
   82SOPE  H101 7516   2.178   0.869   5.091 -1.2600 -0.2853  0.0323
   82SOPE  C211 7517   2.141   0.648   5.131  0.2833  0.3959  0.0510
   82SOPE  H11R 7518   2.140   0.607   5.234 -1.9670  1.0694  0.3586
   82SOPE  H11S 7519   2.176   0.562   5.071 -2.4279 -1.5113  0.9960
   82SOPE  C212 7520   1.993   0.670   5.102  0.1070  0.1200 -0.2518
   82SOPE  H12R 7521   1.962   0.760   5.159 -2.3527  0.2154 -1.6173
   82SOPE  H12S 7522   1.930   0.585   5.136 -1.7094  0.5393 -2.3519
   82SOPE  C213 7523   1.954   0.706   4.952 -0.3708 -0.1548 -0.7511
   82SOPE  H13R 7524   1.992   0.809   4.938 -0.3607 -0.2521 -1.4452
   82SOPE  H13S 7525   1.844   0.704   4.936 -0.5131 -1.6010  0.2021
   82SOPE  C214 7526   2.003   0.611   4.842 -0.2141  0.3706  0.5073
   82SOPE  H14R 7527   1.954   0.512   4.851  2.5026 -0.9278  2.7488
   82SOPE  H14S 7528   2.110   0.583   4.854 -0.3522 -1.2924 -1.6905
   82SOPE  C215 7529   1.997   0.666   4.697  0.1698 -0.2950 -0.1088
   82SOPE  H15R 7530   2.074   0.617   4.634 -0.7258 -0.5534 -1.0349
   82SOPE  H15S 7531   2.015   0.775   4.703  0.8164 -0.4693  2.6062
   82SOPE  C216 7532   1.862   0.632   4.632 -0.0027 -0.0293  0.5041
   82SOPE  H16R 7533   1.861   0.700   4.544 -2.3650  0.6194  0.9746
   82SOPE  H16S 7534   1.781   0.674   4.695  1.2929  2.2134  0.7889
   82SOPE  C217 7535   1.846   0.487   4.596  0.4415  0.3415  0.3196
   82SOPE  H17R 7536   1.851   0.416   4.681 -0.3712  0.9988  0.9335
   82SOPE  H17S 7537   1.929   0.460   4.527  0.5495  2.2716 -0.3673
   82SOPE  C218 7538   1.723   0.463   4.507 -0.6239 -0.1049 -0.2536
   82SOPE  H18R 7539   1.634   0.509   4.556  0.4064  1.0365  0.6098
   82SOPE  H18S 7540   1.712   0.353   4.495 -1.1796 -0.3905  2.3781
   82SOPE  H18T 7541   1.749   0.510   4.409  2.0143 -0.0651  0.3857
   82SOPE   C33 7542   1.539   0.336   5.913  0.5321 -0.1195 -0.6585
   82SOPE   H3X 7543   1.473   0.270   5.853 -1.6137  2.0007 -0.7493
   82SOPE   H3Y 7544   1.644   0.341   5.877  0.1078  0.5614 -1.8486
   82SOPE   C34 7545   1.487   0.482   5.896  0.8684  0.3812  0.2524
   82SOPE   H4X 7546   1.551   0.556   5.947  0.7701  0.2405  0.5792
   82SOPE   H4Y 7547   1.388   0.479   5.944  1.1895 -1.9816  0.8989
   82SOPE   C35 7548   1.460   0.532   5.744 -0.2405  0.0249  0.0011
   82SOPE   H5X 7549   1.412   0.447   5.691  0.8950 -1.4902  1.2776
   82SOPE   H5Y 7550   1.562   0.552   5.704 -0.7334  0.2846 -1.1351
   82SOPE   C36 7551   1.363   0.646   5.743  0.3423 -0.4184 -0.0793
   82SOPE   H6X 7552   1.405   0.727   5.806  0.9122  0.2527 -1.2782
   82SOPE   H6Y 7553   1.262   0.621   5.780  0.5523 -1.1800 -0.0146
   82SOPE   C37 7554   1.348   0.705   5.600  0.2667 -0.3309  0.1795
   82SOPE   H7X 7555   1.304   0.633   5.528  0.1363 -0.7011  0.6225
   82SOPE   H7Y 7556   1.454   0.717   5.569 -0.0477 -1.0429 -1.2387
   82SOPE   C38 7557   1.277   0.848   5.602 -0.0920  0.2037  0.1002
   82SOPE   H8X 7558   1.335   0.922   5.662 -0.8444  0.6444  0.2901
   82SOPE   H8Y 7559   1.181   0.848   5.657  0.3276  1.5050  0.8718
   82SOPE   C39 7560   1.253   0.912   5.467  0.7879 -0.0430  0.0359
   82SOPE   H9X 7561   1.164   0.978   5.475  1.1212  0.3173  0.8257
   82SOPE   H9Y 7562   1.225   0.829   5.397  0.2308  0.3962 -0.2668
   82SOPE  C310 7563   1.372   0.994   5.420  0.9480 -0.1567  0.5824
   82SOPE  H10X 7564   1.461   0.930   5.401  1.1405  0.4985 -0.8213
   82SOPE  H10Y 7565   1.407   1.056   5.505  1.4633 -0.0170  0.2700
   82SOPE  C311 7566   1.339   1.081   5.304  0.0578 -0.2460 -0.0645
   82SOPE  H11X 7567   1.243   1.131   5.325 -0.3052 -0.1315 -1.8655
   82SOPE  H11Y 7568   1.320   1.006   5.225 -2.5022 -0.6142  0.7993
   82SOPE  C312 7569   1.440   1.191   5.268  0.2135 -0.0048 -0.4058
   82SOPE  H12X 7570   1.537   1.145   5.241  1.2011  1.1393  1.0103
   82SOPE  H12Y 7571   1.454   1.249   5.362  0.6301 -1.8847  0.7254
   82SOPE  C313 7572   1.380   1.278   5.156 -0.1130 -0.1934  0.5289
   82SOPE  H13X 7573   1.446   1.364   5.130 -0.2603 -0.3893 -0.5693
   82SOPE  H13Y 7574   1.275   1.311   5.171  0.5054  1.0580  2.4149
   82SOPE  C314 7575   1.382   1.202   5.021 -0.4880  0.0232 -0.0638
   82SOPE  H14X 7576   1.344   1.267   4.940  0.2003 -2.6263 -2.6847
   82SOPE  H14Y 7577   1.317   1.112   5.028  0.5030 -0.8112 -1.2372
   82SOPE  C315 7578   1.521   1.155   4.979 -0.6538  0.5466 -0.2946
   82SOPE  H15X 7579   1.565   1.071   5.036  0.0204  1.4441  0.5237
   82SOPE  H15Y 7580   1.598   1.234   4.981 -0.0874  0.0149  2.6466
   82SOPE  C316 7581   1.522   1.105   4.831 -0.8141  0.4789  0.1978
   82SOPE  H16X 7582   1.463   1.165   4.758  0.1066  0.8943 -0.2294
   82SOPE  H16Y 7583   1.474   1.006   4.814  0.5702  0.1351 -2.2042
   82SOPE  C317 7584   1.668   1.095   4.791  0.1798  0.6121  0.2175
   82SOPE  H17X 7585   1.716   1.194   4.802  0.5356  0.3548  1.1842
   82SOPE  H17Y 7586   1.665   1.091   4.680 -1.4601  2.1274  0.1681
   82SOPE  C318 7587   1.755   0.978   4.835 -0.6381  0.0686 -0.3589
   82SOPE  H18X 7588   1.820   0.946   4.751  0.5793 -0.4754  0.7554
   82SOPE  H18Y 7589   1.682   0.899   4.863 -1.8217  0.7440 -1.4087
   82SOPE  H18Z 7590   1.806   1.015   4.927 -0.2509 -0.0401 -0.5264
   83SOPE     N 7591   1.251   2.324   1.729  0.1907 -0.5483  0.9892
   83SOPE   HN1 7592   1.167   2.299   1.784  0.8286  0.3459  2.4209
   83SOPE   HN2 7593   1.224   2.335   1.629  1.4771 -0.0378  0.6761
   83SOPE   HN3 7594   1.318   2.244   1.726 -1.2323 -1.8894 -3.2285
   83SOPE   C12 7595   1.301   2.464   1.769  0.0378  0.1242  0.3721
   83SOPE  H12A 7596   1.229   2.544   1.743  0.8783  0.6322 -0.4313
   83SOPE  H12B 7597   1.387   2.491   1.705  1.2318 -1.0832  1.4102
   83SOPE   C11 7598   1.322   2.470   1.919 -0.2476  0.5823 -0.2347
   83SOPE  H11A 7599   1.238   2.425   1.976  0.2719  1.6455  1.4343
   83SOPE  H11B 7600   1.308   2.573   1.958  0.0414  0.3824  0.4054
   83SOPE     P 7601   1.575   2.515   1.942 -0.0790 -0.0128 -0.2243
   83SOPE   O13 7602   1.565   2.603   1.827  0.1703 -0.0556  0.3617
   83SOPE   O14 7603   1.700   2.443   1.960 -0.4040 -0.0734 -0.0482
   83SOPE   O12 7604   1.448   2.415   1.949 -0.0780  0.1783  0.2192
   83SOPE   O11 7605   1.550   2.608   2.067  0.2483 -0.2959  0.1180
   83SOPE    C1 7606   1.534   2.550   2.193  0.2503  0.2584 -0.9953
   83SOPE    HA 7607   1.478   2.453   2.187  1.6719 -0.5984 -0.8016
   83SOPE    HB 7608   1.471   2.613   2.260 -0.0951 -1.3095  0.2262
   83SOPE    C2 7609   1.666   2.514   2.276 -0.0591  0.1651 -0.2033
   83SOPE    HS 7610   1.726   2.452   2.206  0.6902  3.1160 -2.4060
   83SOPE   O21 7611   1.624   2.447   2.397 -0.6078  0.0996 -0.1719
   83SOPE   C21 7612   1.710   2.349   2.426  0.1270  0.1751 -0.0998
   83SOPE   O22 7613   1.801   2.310   2.352 -0.0011 -0.5564 -0.7028
   83SOPE   C22 7614   1.679   2.300   2.572  0.1328 -0.5684  0.1574
   83SOPE   H2R 7615   1.569   2.289   2.586 -0.3456  2.3843 -0.4948
   83SOPE   H2S 7616   1.709   2.393   2.625 -1.7345  0.4831 -0.5237
   83SOPE    C3 7617   1.742   2.648   2.310  0.1501  0.7059  0.3131
   83SOPE    HX 7618   1.771   2.693   2.213  0.1508  1.8318  0.8116
   83SOPE    HY 7619   1.837   2.619   2.360  0.3428 -0.2191 -0.5594
   83SOPE   O31 7620   1.670   2.750   2.379  0.0620  0.2306 -0.7957
   83SOPE   C31 7621   1.735   2.841   2.443  0.1560 -0.3076 -1.0727
   83SOPE   O32 7622   1.856   2.839   2.454 -0.6718  0.4345  0.1708
   83SOPE   C32 7623   1.642   2.938   2.517  0.9904 -0.5213 -0.4465
   83SOPE   H2X 7624   1.550   2.879   2.536  2.0405 -2.1082 -0.1099
   83SOPE   H2Y 7625   1.622   3.019   2.443  0.5707 -0.5137 -0.3277
   83SOPE   C23 7626   1.755   2.165   2.615  0.4217  0.1697 -0.3109
   83SOPE   H3R 7627   1.862   2.171   2.584  1.6369 -0.7937  3.2197
   83SOPE   H3S 7628   1.705   2.086   2.555 -0.4384  0.9129 -0.6031
   83SOPE   C24 7629   1.733   2.128   2.763 -0.4838  0.8210 -0.6423
   83SOPE   H4R 7630   1.791   2.193   2.832 -0.3696  0.1182 -0.0595
   83SOPE   H4S 7631   1.625   2.141   2.784 -0.4209  0.3406  0.0394
   83SOPE   C25 7632   1.763   1.975   2.782  0.6576  0.7786  0.5850
   83SOPE   H5R 7633   1.705   1.904   2.719  1.7545  2.1587 -2.1654
   83SOPE   H5S 7634   1.867   1.944   2.759  1.3185  3.3567 -0.2960
   83SOPE   C26 7635   1.746   1.936   2.929  0.4797  0.4850 -0.0153
   83SOPE   H6R 7636   1.794   1.837   2.948 -0.7504 -0.0851  0.2354
   83SOPE   H6S 7637   1.793   2.019   2.986  0.5917  2.1456 -2.3678
   83SOPE   C27 7638   1.596   1.918   2.971  0.2687 -0.7569 -0.4222
   83SOPE   H7R 7639   1.547   2.015   2.948 -1.5971 -2.0782 -2.4475
   83SOPE   H7S 7640   1.554   1.841   2.902 -0.1529 -1.2495  0.3766
   83SOPE   C28 7641   1.581   1.879   3.118 -0.1206  0.1639  0.6579
   83SOPE   H8R 7642   1.626   1.777   3.124 -3.4358 -1.7991 -3.0407
   83SOPE   H8S 7643   1.632   1.967   3.163  0.5877  1.8308 -3.0985
   83SOPE   C29 7644   1.438   1.880   3.168 -0.3019 -1.1689  0.0279
   83SOPE   H91 7645   1.375   1.797   3.133 -0.0319 -2.2424  1.9535
   83SOPE  C210 7646   1.387   1.967   3.261 -0.8225 -0.1526  0.3437
   83SOPE  H101 7647   1.282   1.966   3.295 -1.6085 -2.6003 -1.8369
   83SOPE  C211 7648   1.467   2.085   3.316  0.3203  0.1730  0.8721
   83SOPE  H11R 7649   1.408   2.179   3.316  1.9732  1.2529 -0.2405
   83SOPE  H11S 7650   1.556   2.118   3.259  0.2081  1.1772  1.2603
   83SOPE  C212 7651   1.491   2.061   3.462 -0.3338  0.1539 -0.0287
   83SOPE  H12R 7652   1.401   2.018   3.511  0.4448 -0.8006  0.5979
   83SOPE  H12S 7653   1.507   2.162   3.506  0.9181  0.0396 -0.1923
   83SOPE  C213 7654   1.607   1.970   3.490  0.0305 -0.0468 -1.1061
   83SOPE  H13R 7655   1.693   2.004   3.428 -0.3555 -0.8370 -2.1217
   83SOPE  H13S 7656   1.581   1.869   3.451  0.2291 -0.6145  0.2124
   83SOPE  C214 7657   1.645   1.983   3.638  0.3500  0.2597 -0.1097
   83SOPE  H14R 7658   1.555   1.960   3.700  2.3802 -0.2174  2.9072
   83SOPE  H14S 7659   1.679   2.087   3.657  1.0899  0.2903 -1.4804
   83SOPE  C215 7660   1.764   1.903   3.692  0.2618  0.2506  0.0681
   83SOPE  H15R 7661   1.850   1.948   3.637 -1.1845  1.3022 -1.4375
   83SOPE  H15S 7662   1.757   1.797   3.660  1.5434 -0.5377  2.1996
   83SOPE  C216 7663   1.782   1.906   3.843 -0.2671  0.3430 -0.1034
   83SOPE  H16R 7664   1.695   1.855   3.890 -1.5889  0.5117 -2.2204
   83SOPE  H16S 7665   1.774   2.014   3.867 -1.7237  0.3684 -0.5538
   83SOPE  C217 7666   1.913   1.847   3.893 -0.8176 -0.7338  0.0638
   83SOPE  H17R 7667   1.945   1.898   3.986  1.6896 -1.8635 -0.1021
   83SOPE  H17S 7668   1.982   1.885   3.815  0.3302 -1.4198  0.7244
   83SOPE  C218 7669   1.914   1.694   3.912 -0.2536  0.5283 -0.4560
   83SOPE  H18R 7670   2.020   1.662   3.918  0.3850  2.3700 -1.1091
   83SOPE  H18S 7671   1.871   1.638   3.826 -0.3213  0.0723 -0.1285
   83SOPE  H18T 7672   1.859   1.658   4.001 -0.1881 -2.6101 -1.5501
   83SOPE   C33 7673   1.684   2.998   2.653 -0.2919 -0.4297  0.1866
   83SOPE   H3X 7674   1.624   3.091   2.665  0.7095  0.3283 -0.5668
   83SOPE   H3Y 7675   1.789   3.029   2.671 -0.4104  0.4908 -0.6310
   83SOPE   C34 7676   1.652   2.905   2.768  0.2198 -0.5792 -0.7791
   83SOPE   H4X 7677   1.726   2.823   2.763  1.8818  0.6423  1.6227
   83SOPE   H4Y 7678   1.556   2.851   2.756  1.4702 -2.9792 -0.6833
   83SOPE   C35 7679   1.657   2.972   2.910  0.0088 -0.1483  0.8869
   83SOPE   H5X 7680   1.603   3.068   2.897 -0.2920 -0.5093 -0.7558
   83SOPE   H5Y 7681   1.765   2.992   2.925  0.9744 -3.8053 -0.0980
   83SOPE   C36 7682   1.589   2.900   3.021 -0.0982 -0.4701  0.7157
   83SOPE   H6X 7683   1.643   2.813   3.063  0.7342  0.0025  0.6543
   83SOPE   H6Y 7684   1.490   2.862   2.989 -0.6235  1.2922  0.0843
   83SOPE   C37 7685   1.584   2.985   3.148  0.7885  0.6226 -0.2943
   83SOPE   H7X 7686   1.533   3.083   3.139  2.2544  1.5182  0.7573
   83SOPE   H7Y 7687   1.690   3.012   3.165  0.7786 -0.3630  1.5525
   83SOPE   C38 7688   1.547   2.905   3.279 -0.1289  0.4836 -0.2358
   83SOPE   H8X 7689   1.611   2.815   3.281 -0.2966  0.3310 -1.1104
   83SOPE   H8Y 7690   1.440   2.873   3.277  0.5225 -2.1113  1.4578
   83SOPE   C39 7691   1.565   2.987   3.412 -0.1442 -0.1593  1.0440
   83SOPE   H9X 7692   1.489   3.067   3.421  0.1804  0.1960  0.6813
   83SOPE   H9Y 7693   1.664   3.037   3.420  1.0949 -2.1537 -0.6522
   83SOPE  C310 7694   1.529   2.896   3.535 -0.1921 -0.6913 -0.1296
   83SOPE  H10X 7695   1.600   2.812   3.544 -0.4764 -1.0403 -1.0311
   83SOPE  H10Y 7696   1.427   2.853   3.527  0.1498 -1.2787 -1.5854
   83SOPE  C311 7697   1.530   2.973   3.668  1.0391  0.3662  0.4561
   83SOPE  H11X 7698   1.449   2.926   3.728 -0.4073  5.4549  3.1511
   83SOPE  H11Y 7699   1.506   3.081   3.659 -2.1451 -0.3325 -0.8266
   83SOPE  C312 7700   1.666   2.962   3.744  0.4117  0.9149 -0.0729
   83SOPE  H12X 7701   1.750   3.014   3.693  3.3558 -3.5707 -0.2769
   83SOPE  H12Y 7702   1.695   2.856   3.735 -0.6153  0.6951 -1.0726
   83SOPE  C313 7703   1.640   3.011   3.888  0.4601 -0.3034  0.5593
   83SOPE  H13X 7704   1.564   2.937   3.922  2.7069 -3.3261 -0.4542
   83SOPE  H13Y 7705   1.592   3.110   3.882 -1.1120 -1.0804 -0.3959
   83SOPE  C314 7706   1.757   3.004   3.979 -0.0445  0.1740  0.0232
   83SOPE  H14X 7707   1.828   3.083   3.947 -1.6284  2.4024  1.6991
   83SOPE  H14Y 7708   1.799   2.901   3.969 -1.0044 -0.0743 -1.9037
   83SOPE  C315 7709   1.719   3.019   4.124  0.2739  0.1175 -0.1223
   83SOPE  H15X 7710   1.803   2.967   4.176  2.2867  2.6849 -0.6097
   83SOPE  H15Y 7711   1.620   2.971   4.139  0.6937 -1.3029 -1.5169
   83SOPE  C316 7712   1.727   3.161   4.167 -0.2952 -0.4843 -0.3458
   83SOPE  H16X 7713   1.638   3.217   4.132  0.0674  0.3439  0.0437
   83SOPE  H16Y 7714   1.811   3.217   4.120 -3.1885  2.3734 -2.5418
   83SOPE  C317 7715   1.713   3.173   4.322  0.0298 -0.1138  0.4834
   83SOPE  H17X 7716   1.796   3.114   4.365 -1.5291 -1.9578  1.1108
   83SOPE  H17Y 7717   1.616   3.135   4.361 -0.3891  0.4853  0.0328
   83SOPE  C318 7718   1.717   3.319   4.371 -0.2122 -0.2402 -0.4521
   83SOPE  H18X 7719   1.812   3.367   4.338  1.4409 -0.7163  3.1482
   83SOPE  H18Y 7720   1.709   3.333   4.481 -0.0025 -0.0779 -0.4556
   83SOPE  H18Z 7721   1.631   3.373   4.326 -0.4180 -0.7459 -0.6618
   84SOPE     N 7722   6.838   1.118   2.416  0.5660  0.5105 -0.0067
   84SOPE   HN1 7723   6.753   1.176   2.403  1.2566  1.3865 -0.8051
   84SOPE   HN2 7724   6.808   1.018   2.412 -1.0393  0.9279 -5.0311
   84SOPE   HN3 7725   6.888   1.142   2.504  0.8380  2.2835 -0.6090
   84SOPE   C12 7726   6.927   1.121   2.294 -0.5289  0.3090  0.7789
   84SOPE  H12A 7727   6.964   1.225   2.276  0.5899 -0.4272 -1.5286
   84SOPE  H12B 7728   6.862   1.094   2.207  0.7241  0.1963 -0.1472
   84SOPE   C11 7729   7.048   1.027   2.300  0.8109  0.9044  0.3251
   84SOPE  H11A 7730   7.115   1.078   2.374  0.2474  1.6034  0.3585
   84SOPE  H11B 7731   7.098   1.018   2.202  1.8330  1.3802  0.7805
   84SOPE     P 7732   7.005   0.766   2.271  0.5660  0.0449 -0.0142
   84SOPE   O13 7733   7.132   0.730   2.208  0.2486 -0.3159  0.5791
   84SOPE   O14 7734   6.893   0.768   2.176  0.4934 -0.1099  0.3910
   84SOPE   O12 7735   7.008   0.899   2.359  0.5185  0.2938 -0.5980
   84SOPE   O11 7736   6.989   0.662   2.382  0.2461 -0.0778 -0.1844
   84SOPE    C1 7737   6.947   0.686   2.514  0.2644 -0.4120  0.2281
   84SOPE    HA 7738   6.855   0.624   2.514 -0.0879  0.0942  0.6146
   84SOPE    HB 7739   6.903   0.786   2.537 -1.8428 -0.9098 -1.2657
   84SOPE    C2 7740   7.048   0.642   2.624  0.4191  0.4491  0.1094
   84SOPE    HS 7741   6.992   0.633   2.719  2.1464 -1.2813  1.0387
   84SOPE   O21 7742   7.163   0.722   2.634 -0.1692 -0.0643 -0.7573
   84SOPE   C21 7743   7.143   0.852   2.654 -0.3878 -0.0652  0.7019
   84SOPE   O22 7744   7.047   0.911   2.704  0.1627 -0.1025 -0.1832
   84SOPE   C22 7745   7.263   0.926   2.594  0.8477  0.1765 -0.1425
   84SOPE   H2R 7746   7.256   0.924   2.483 -1.1154  2.5021 -0.1264
   84SOPE   H2S 7747   7.356   0.880   2.636  1.1453 -0.7200 -1.7101
   84SOPE    C3 7748   7.091   0.495   2.587 -0.8733 -0.7430 -0.6721
   84SOPE    HX 7749   7.185   0.504   2.528  1.7836  0.7525  3.3822
   84SOPE    HY 7750   7.008   0.444   2.534 -1.9389  2.1031 -1.9531
   84SOPE   O31 7751   7.129   0.431   2.718 -0.0486  0.7665  1.1122
   84SOPE   C31 7752   7.084   0.308   2.732 -0.3109  0.0803  0.3978
   84SOPE   O32 7753   7.058   0.231   2.646 -0.3200 -0.7781  0.5651
   84SOPE   C32 7754   7.070   0.274   2.885  0.0742 -0.0534  0.0332
   84SOPE   H2X 7755   7.153   0.207   2.914 -0.8850 -0.3701  2.2944
   84SOPE   H2Y 7756   6.979   0.211   2.891 -0.1955  0.4140  1.2599
   84SOPE   C23 7757   7.274   1.074   2.641 -0.8901 -0.0214 -0.0058
   84SOPE   H3R 7758   7.270   1.085   2.751 -1.6919  0.5230 -0.0826
   84SOPE   H3S 7759   7.183   1.125   2.604 -0.1541 -0.0526 -2.0213
   84SOPE   C24 7760   7.406   1.146   2.613  0.0757 -0.8513  0.4818
   84SOPE   H4R 7761   7.433   1.124   2.507 -1.1187  0.2527 -0.0863
   84SOPE   H4S 7762   7.399   1.256   2.621  0.4132 -0.7768 -0.1622
   84SOPE   C25 7763   7.528   1.095   2.699 -0.2636 -0.0945 -0.0153
   84SOPE   H5R 7764   7.523   0.986   2.683  1.2961  0.0766 -2.2576
   84SOPE   H5S 7765   7.622   1.130   2.651 -0.4889  0.8906  0.2362
   84SOPE   C26 7766   7.512   1.134   2.851 -0.4728  0.8551 -0.1769
   84SOPE   H6R 7767   7.485   1.242   2.844 -2.3383  0.3937 -0.5606
   84SOPE   H6S 7768   7.432   1.076   2.901  0.1617 -0.0935 -0.2275
   84SOPE   C27 7769   7.644   1.100   2.917 -0.7772 -0.0466 -0.1721
   84SOPE   H7R 7770   7.658   0.990   2.908 -0.8118 -0.0267 -0.4657
   84SOPE   H7S 7771   7.722   1.154   2.859 -4.1094  4.1984 -1.2083
   84SOPE   C28 7772   7.637   1.137   3.063 -0.0128 -0.0570 -0.3383
   84SOPE   H8R 7773   7.549   1.087   3.108 -1.0429  1.6847 -0.3310
   84SOPE   H8S 7774   7.727   1.093   3.111 -0.2920 -0.6593 -0.3705
   84SOPE   C29 7775   7.619   1.284   3.084  0.2079 -0.0873 -0.5928
   84SOPE   H91 7776   7.550   1.332   3.014 -1.6649  0.7653  1.7064
   84SOPE  C210 7777   7.687   1.352   3.180 -0.9001  0.1157 -0.2699
   84SOPE  H101 7778   7.682   1.462   3.177  1.4909  0.2859 -0.2851
   84SOPE  C211 7779   7.791   1.286   3.273 -0.6685  0.4166 -0.2154
   84SOPE  H11R 7780   7.846   1.356   3.340 -2.5398  0.2497  1.5908
   84SOPE  H11S 7781   7.858   1.225   3.208  0.1463  1.7384 -0.6607
   84SOPE  C212 7782   7.715   1.205   3.384  0.6981  0.1935 -0.1360
   84SOPE  H12R 7783   7.667   1.121   3.330 -0.1546  1.5953 -1.6482
   84SOPE  H12S 7784   7.639   1.274   3.429 -1.5111 -1.7262 -0.7506
   84SOPE  C213 7785   7.815   1.154   3.494  0.1667 -0.2704  0.4353
   84SOPE  H13R 7786   7.881   1.241   3.512 -0.2231  0.4934 -1.5876
   84SOPE  H13S 7787   7.872   1.063   3.467 -2.6428 -2.4466  1.2723
   84SOPE  C214 7788   7.747   1.128   3.633 -0.6724 -0.3804  0.2821
   84SOPE  H14R 7789   7.684   1.216   3.656  0.2037  1.2387 -2.9776
   84SOPE  H14S 7790   7.835   1.124   3.701 -0.7207 -1.5420  0.2979
   84SOPE  C215 7791   7.677   0.995   3.641 -0.0593  0.3871 -0.1358
   84SOPE  H15R 7792   7.750   0.919   3.677 -0.4564  0.1672  0.2096
   84SOPE  H15S 7793   7.650   0.969   3.536 -0.1556 -2.0658  0.4345
   84SOPE  C216 7794   7.550   1.017   3.723 -0.6170 -0.3329 -0.4345
   84SOPE  H16R 7795   7.485   1.094   3.675  1.3817  2.2171  0.6637
   84SOPE  H16S 7796   7.579   1.057   3.822 -0.2768 -0.5637 -0.4401
   84SOPE  C217 7797   7.471   0.888   3.742 -0.5241  0.2160  0.3339
   84SOPE  H17R 7798   7.529   0.821   3.808  1.3846  0.9870 -0.4939
   84SOPE  H17S 7799   7.448   0.837   3.646  0.5603 -0.0921  0.2243
   84SOPE  C218 7800   7.341   0.913   3.812 -0.6329 -0.1700 -0.7958
   84SOPE  H18R 7801   7.287   0.817   3.826  0.5526 -0.9226 -1.2349
   84SOPE  H18S 7802   7.276   0.983   3.755  0.4264  0.8624 -0.7841
   84SOPE  H18T 7803   7.355   0.950   3.916 -0.6732 -0.2736 -0.7529
   84SOPE   C33 7804   7.064   0.395   2.980 -0.0193 -0.1166  0.4407
   84SOPE   H3X 7805   6.977   0.456   2.948  0.1551 -1.0242 -1.9628
   84SOPE   H3Y 7806   7.152   0.462   2.972 -0.1279  0.1711  1.4660
   84SOPE   C34 7807   7.061   0.366   3.127  0.3304  0.2242  0.9434
   84SOPE   H4X 7808   7.162   0.324   3.149  0.9362  1.5434  0.7528
   84SOPE   H4Y 7809   6.983   0.291   3.154 -0.8443  0.6205 -1.1149
   84SOPE   C35 7810   7.032   0.487   3.205 -0.0597  0.8177  0.1156
   84SOPE   H5X 7811   6.933   0.528   3.175 -0.1335  0.2720 -0.3972
   84SOPE   H5Y 7812   7.103   0.567   3.175  0.6409 -0.2520 -1.2088
   84SOPE   C36 7813   7.037   0.470   3.355 -0.6532  0.1553  0.1604
   84SOPE   H6X 7814   7.140   0.455   3.394 -1.1706 -1.4370  1.0209
   84SOPE   H6Y 7815   6.997   0.366   3.364  2.2200 -0.9969  0.8897
   84SOPE   C37 7816   6.943   0.556   3.440  0.1914  0.4515 -0.1581
   84SOPE   H7X 7817   6.955   0.651   3.385  2.5971 -0.4545 -1.3434
   84SOPE   H7Y 7818   6.984   0.574   3.542  0.0675  1.6291 -0.3096
   84SOPE   C38 7819   6.795   0.502   3.435 -0.1981  0.2068  0.3472
   84SOPE   H8X 7820   6.802   0.398   3.471  1.1353  0.2292  0.2303
   84SOPE   H8Y 7821   6.767   0.504   3.327  2.0575  0.1461 -0.3003
   84SOPE   C39 7822   6.703   0.596   3.514  0.0588  0.5231  0.0571
   84SOPE   H9X 7823   6.729   0.700   3.540 -0.5074  0.5702  0.4581
   84SOPE   H9Y 7824   6.679   0.548   3.611 -0.0341  2.4648  1.0301
   84SOPE  C310 7825   6.563   0.601   3.444 -0.0189  0.5733 -0.6283
   84SOPE  H10X 7826   6.525   0.497   3.434  0.3869  0.5250 -1.8986
   84SOPE  H10Y 7827   6.587   0.642   3.343 -0.8520 -1.1068 -1.5548
   84SOPE  C311 7828   6.451   0.702   3.499 -0.3636  0.3443 -0.2325
   84SOPE  H11X 7829   6.368   0.689   3.427  2.2997 -0.3815 -3.4499
   84SOPE  H11Y 7830   6.479   0.808   3.485 -0.8535  0.8229  1.9519
   84SOPE  C312 7831   6.425   0.685   3.651 -0.8408  0.7880  0.2033
   84SOPE  H12X 7832   6.504   0.727   3.716 -2.0996 -0.1405  2.4523
   84SOPE  H12Y 7833   6.425   0.575   3.667 -1.0419  0.1292 -3.4114
   84SOPE  C313 7834   6.296   0.755   3.704  0.1646  0.1587 -0.2494
   84SOPE  H13X 7835   6.211   0.724   3.640  0.1297 -2.0385  0.7761
   84SOPE  H13Y 7836   6.308   0.865   3.690  1.3427  0.0042 -0.5624
   84SOPE  C314 7837   6.243   0.720   3.843  0.2348 -0.0354 -0.0143
   84SOPE  H14X 7838   6.221   0.612   3.851  1.7066 -0.3741 -0.3121
   84SOPE  H14Y 7839   6.145   0.770   3.858  0.6017  0.9165 -0.6287
   84SOPE  C315 7840   6.338   0.739   3.968  0.5440 -0.7599 -0.6086
   84SOPE  H15X 7841   6.358   0.847   3.987 -0.2125 -0.7540  0.1777
   84SOPE  H15Y 7842   6.434   0.684   3.963 -1.0403 -3.7917 -0.0691
   84SOPE  C316 7843   6.260   0.686   4.093  0.0207 -0.0673 -0.3161
   84SOPE  H16X 7844   6.218   0.585   4.077 -3.0647  1.4819 -3.7412
   84SOPE  H16Y 7845   6.168   0.748   4.098  0.6310  0.8251  0.1319
   84SOPE  C317 7846   6.343   0.683   4.221  0.5106  0.2057  1.0775
   84SOPE  H17X 7847   6.363   0.784   4.262  2.6028  0.0385  0.5753
   84SOPE  H17Y 7848   6.444   0.656   4.184 -0.0183  1.6326 -1.7395
   84SOPE  C318 7849   6.307   0.593   4.339  0.1992  0.2277 -0.4415
   84SOPE  H18X 7850   6.199   0.608   4.361  0.4522 -0.3207  1.2896
   84SOPE  H18Y 7851   6.359   0.615   4.434 -0.3391  0.8682 -0.2866
   84SOPE  H18Z 7852   6.317   0.484   4.316  0.1674  0.0355  0.4431
   85SOPE     N 7853   5.654   4.810   2.000 -0.2464 -0.0245  0.5031
   85SOPE   HN1 7854   5.658   4.749   1.916  0.5896 -0.6812  0.9938
   85SOPE   HN2 7855   5.625   4.908   1.979  0.1429  0.5587  2.4779
   85SOPE   HN3 7856   5.750   4.821   2.040 -0.1584 -2.1853  1.0110
   85SOPE   C12 7857   5.559   4.759   2.094  0.7696 -0.1182 -0.3152
   85SOPE  H12A 7858   5.470   4.720   2.041 -0.5051 -0.7644  2.1478
   85SOPE  H12B 7859   5.521   4.843   2.155 -0.2732 -0.5492 -0.3529
   85SOPE   C11 7860   5.623   4.665   2.202  0.0296  0.0252 -0.2315
   85SOPE  H11A 7861   5.549   4.623   2.273  1.4312 -2.9741 -0.3940
   85SOPE  H11B 7862   5.700   4.721   2.258  1.2321 -1.1801 -0.6186
   85SOPE     P 7863   5.611   4.422   2.112 -0.3116 -0.1391  0.3826
   85SOPE   O13 7864   5.711   4.321   2.075  0.9049 -0.0784  1.1551
   85SOPE   O14 7865   5.497   4.441   2.018 -0.2728  0.5500  0.0047
   85SOPE   O12 7866   5.688   4.562   2.132  0.0514  0.9162 -0.5452
   85SOPE   O11 7867   5.561   4.387   2.257  0.3693  0.0877  0.3970
   85SOPE    C1 7868   5.426   4.361   2.278 -0.8974  0.0557 -0.3580
   85SOPE    HA 7869   5.401   4.279   2.208  0.0465 -0.2512 -0.3425
   85SOPE    HB 7870   5.363   4.453   2.273  0.9413  1.4871  1.2761
   85SOPE    C2 7871   5.394   4.290   2.415  0.8389  0.6008  0.1154
   85SOPE    HS 7872   5.287   4.261   2.412  0.2863  1.5784  4.2294
   85SOPE   O21 7873   5.408   4.372   2.530  0.1789  0.0662 -0.4079
   85SOPE   C21 7874   5.317   4.475   2.534  0.3773 -0.0271  1.0046
   85SOPE   O22 7875   5.210   4.477   2.477  0.1784 -0.2185 -0.1477
   85SOPE   C22 7876   5.362   4.571   2.637  0.7061 -0.2946  0.1645
   85SOPE   H2R 7877   5.295   4.658   2.619 -1.5740 -2.3083 -1.8942
   85SOPE   H2S 7878   5.470   4.594   2.625  1.3082 -1.4055  2.6667
   85SOPE    C3 7879   5.475   4.158   2.420 -0.0935  0.8192  0.2283
   85SOPE    HX 7880   5.579   4.195   2.426  0.6239 -1.0988  0.3527
   85SOPE    HY 7881   5.465   4.108   2.321  1.4783  2.8465 -1.0481
   85SOPE   O31 7882   5.443   4.082   2.541  0.8343 -0.0406  0.1629
   85SOPE   C31 7883   5.394   3.963   2.516  0.7675  0.6011  0.2341
   85SOPE   O32 7884   5.377   3.909   2.407 -0.7918  0.2503  0.2487
   85SOPE   C32 7885   5.348   3.903   2.646 -0.4334  0.1871 -0.6402
   85SOPE   H2X 7886   5.257   3.959   2.676 -2.2995 -2.4224 -1.0859
   85SOPE   H2Y 7887   5.421   3.915   2.729 -0.4376 -1.5866 -0.3377
   85SOPE   C23 7888   5.351   4.516   2.780  0.3610  0.2836 -0.3750
   85SOPE   H3R 7889   5.388   4.596   2.847  0.5394  1.0494 -1.3568
   85SOPE   H3S 7890   5.409   4.424   2.803 -1.9237 -1.1885 -0.2313
   85SOPE   C24 7891   5.207   4.494   2.828  0.0593 -0.4466 -0.4218
   85SOPE   H4R 7892   5.160   4.592   2.850  1.0250 -0.1833  0.5603
   85SOPE   H4S 7893   5.149   4.436   2.753 -1.0086  0.3421 -0.2209
   85SOPE   C25 7894   5.191   4.399   2.954 -0.0783 -0.5484 -0.2687
   85SOPE   H5R 7895   5.222   4.293   2.942 -0.3191 -1.0376  2.6978
   85SOPE   H5S 7896   5.272   4.427   3.024  0.6167 -2.4648 -0.2520
   85SOPE   C26 7897   5.054   4.413   3.025 -1.3958 -0.7500  1.0080
   85SOPE   H6R 7898   5.041   4.523   3.032  0.0799 -0.3715 -1.0650
   85SOPE   H6S 7899   4.975   4.372   2.959  0.2763 -0.6463 -1.2144
   85SOPE   C27 7900   5.058   4.337   3.158  0.4602 -0.5313  0.1859
   85SOPE   H7R 7901   5.052   4.228   3.136 -1.8683 -0.6078  0.9276
   85SOPE   H7S 7902   5.163   4.355   3.189  0.6204 -2.1129  0.6497
   85SOPE   C28 7903   4.955   4.380   3.271 -0.1319  0.3732  0.5595
   85SOPE   H8R 7904   4.851   4.384   3.231  0.4451  0.8221 -0.9741
   85SOPE   H8S 7905   4.949   4.296   3.343 -1.8574  0.7998  0.9688
   85SOPE   C29 7906   4.994   4.511   3.338 -0.4155 -0.1995 -0.3139
   85SOPE   H91 7907   4.975   4.594   3.269 -2.4927  1.5765  2.1826
   85SOPE  C210 7908   5.058   4.538   3.453 -0.7429 -0.3369  0.4900
   85SOPE  H101 7909   5.075   4.643   3.478  1.9020 -0.4691 -0.3738
   85SOPE  C211 7910   5.088   4.441   3.562  0.3271 -0.1048  0.4264
   85SOPE  H11R 7911   5.065   4.337   3.528  0.4113 -0.3198  1.0204
   85SOPE  H11S 7912   5.018   4.461   3.646 -0.4066 -3.5818  0.8051
   85SOPE  C212 7913   5.229   4.461   3.624  0.4448 -0.8850  0.5845
   85SOPE  H12R 7914   5.226   4.558   3.678 -0.9643 -0.1875 -0.6760
   85SOPE  H12S 7915   5.306   4.454   3.545 -0.5322 -1.8667 -0.3205
   85SOPE  C213 7916   5.253   4.364   3.736 -0.5422  0.4816 -0.7588
   85SOPE  H13R 7917   5.252   4.256   3.710  2.2878  0.1626  0.1075
   85SOPE  H13S 7918   5.180   4.376   3.819 -0.3836 -2.2851 -0.1244
   85SOPE  C214 7919   5.393   4.370   3.793  0.5786 -1.1774  0.1184
   85SOPE  H14R 7920   5.473   4.374   3.716 -0.2061  2.6782 -0.6964
   85SOPE  H14S 7921   5.412   4.278   3.854  1.3619  0.4280  2.4698
   85SOPE  C215 7922   5.412   4.486   3.902 -0.9211  0.3770  0.6813
   85SOPE  H15R 7923   5.334   4.475   3.981 -1.8746  0.6661 -0.1898
   85SOPE  H15S 7924   5.401   4.579   3.843  0.7780 -1.1589 -2.3146
   85SOPE  C216 7925   5.547   4.488   3.971 -0.2660  0.4132 -0.6388
   85SOPE  H16R 7926   5.625   4.513   3.895  2.0253  1.1428  1.8266
   85SOPE  H16S 7927   5.572   4.390   4.016 -0.1368  1.6036  2.0648
   85SOPE  C217 7928   5.534   4.591   4.081  0.2059 -0.3599  0.3229
   85SOPE  H17R 7929   5.444   4.576   4.144  0.0034 -3.3121 -0.5238
   85SOPE  H17S 7930   5.539   4.690   4.031  1.4355 -0.6318 -0.1447
   85SOPE  C218 7931   5.657   4.601   4.178 -0.0981 -0.2567 -0.1296
   85SOPE  H18R 7932   5.741   4.644   4.121 -0.6151 -0.8579 -1.3898
   85SOPE  H18S 7933   5.697   4.502   4.209  2.4894  0.9238  0.5818
   85SOPE  H18T 7934   5.620   4.669   4.258  0.5062 -0.6656  0.5064
   85SOPE   C33 7935   5.346   3.746   2.626 -0.3500 -1.0943 -0.1456
   85SOPE   H3X 7936   5.442   3.705   2.588  0.6059  0.2973  0.6828
   85SOPE   H3Y 7937   5.266   3.713   2.555  1.1412  0.9736 -3.0211
   85SOPE   C34 7938   5.322   3.661   2.751  0.5868  0.2610  0.0069
   85SOPE   H4X 7939   5.406   3.667   2.824  1.9381  0.9733 -1.5668
   85SOPE   H4Y 7940   5.314   3.558   2.711 -0.3268 -0.1134  1.0985
   85SOPE   C35 7941   5.185   3.679   2.815 -0.6057  0.4248 -0.2854
   85SOPE   H5X 7942   5.159   3.580   2.858 -0.1147 -0.4812 -2.0141
   85SOPE   H5Y 7943   5.112   3.700   2.733  1.0188 -0.5389 -2.0561
   85SOPE   C36 7944   5.174   3.781   2.929 -0.1209 -0.4563  0.4100
   85SOPE   H6X 7945   5.068   3.803   2.953 -0.2075 -3.0517  2.9474
   85SOPE   H6Y 7946   5.225   3.874   2.895 -0.2419 -1.6798 -3.6383
   85SOPE   C37 7947   5.238   3.720   3.060  0.3624 -0.4384  0.5522
   85SOPE   H7X 7948   5.337   3.677   3.035  0.5184 -0.1493  0.6762
   85SOPE   H7Y 7949   5.177   3.629   3.082  0.3528  0.0887  3.0131
   85SOPE   C38 7950   5.246   3.805   3.184 -0.0232 -0.0057  0.0094
   85SOPE   H8X 7951   5.280   3.755   3.278  1.1839  3.1777  1.3945
   85SOPE   H8Y 7952   5.145   3.843   3.210  0.4233  0.6329  0.8685
   85SOPE   C39 7953   5.337   3.923   3.171 -0.4795  0.3671 -0.1061
   85SOPE   H9X 7954   5.317   3.972   3.073  1.4228 -1.6183 -1.5892
   85SOPE   H9Y 7955   5.438   3.877   3.175 -0.9748 -0.7634  0.0039
   85SOPE  C310 7956   5.334   4.019   3.285 -0.2214  0.4392  0.0862
   85SOPE  H10X 7957   5.239   4.076   3.296  0.5989  1.6638  1.1034
   85SOPE  H10Y 7958   5.413   4.095   3.266 -0.4172  0.3958 -0.9312
   85SOPE  C311 7959   5.378   3.965   3.427  0.6364  0.1140  0.2109
   85SOPE  H11X 7960   5.454   3.886   3.406 -0.2427 -0.6379 -0.2415
   85SOPE  H11Y 7961   5.293   3.913   3.475 -0.4940  1.5306 -0.2214
   85SOPE  C312 7962   5.430   4.069   3.531  1.3212 -0.0528  0.0506
   85SOPE  H12X 7963   5.337   4.122   3.562  1.0512 -0.0769 -0.6971
   85SOPE  H12Y 7964   5.499   4.139   3.479  1.1907 -0.4541 -0.6754
   85SOPE  C313 7965   5.502   4.018   3.654  0.6393 -0.6874 -0.1073
   85SOPE  H13X 7966   5.550   4.110   3.694 -1.2441  1.3456 -2.2353
   85SOPE  H13Y 7967   5.563   3.941   3.602 -1.4222 -1.5041 -1.4359
   85SOPE  C314 7968   5.419   3.937   3.753  1.0372  0.3323  0.3657
   85SOPE  H14X 7969   5.368   3.859   3.694  1.5247 -0.8815  1.5001
   85SOPE  H14Y 7970   5.350   4.005   3.808 -0.1834 -0.3912 -0.2547
   85SOPE  C315 7971   5.512   3.860   3.843  0.0713  0.1836  0.3902
   85SOPE  H15X 7972   5.557   3.939   3.906  0.5985  1.5133 -1.5648
   85SOPE  H15Y 7973   5.596   3.815   3.787 -0.5440 -1.1281  0.4772
   85SOPE  C316 7974   5.440   3.757   3.934 -0.2920 -0.1058  0.5122
   85SOPE  H16X 7975   5.376   3.686   3.878 -1.4207  1.0100  0.3587
   85SOPE  H16Y 7976   5.372   3.825   3.989 -2.6038 -0.4076 -1.7850
   85SOPE  C317 7977   5.540   3.672   4.015 -0.2267 -0.1879  0.7158
   85SOPE  H17X 7978   5.617   3.739   4.059  0.2328  0.9103 -1.6185
   85SOPE  H17Y 7979   5.588   3.608   3.938 -2.5666 -0.3583 -0.6827
   85SOPE  C318 7980   5.498   3.578   4.126 -0.0339  0.1582  0.0613
   85SOPE  H18X 7981   5.579   3.520   4.175  2.4464  3.7789  0.6973
   85SOPE  H18Y 7982   5.435   3.500   4.079 -1.0853  1.4517 -0.7569
   85SOPE  H18Z 7983   5.435   3.637   4.197 -1.7262  0.7446 -1.8332
   86SOPE     N 7984   5.689   1.259   2.294 -0.6066 -0.6695 -0.1720
   86SOPE   HN1 7985   5.784   1.285   2.260 -0.5763 -1.8613 -1.0656
   86SOPE   HN2 7986   5.630   1.344   2.303  1.0468  0.5037  0.0203
   86SOPE   HN3 7987   5.720   1.229   2.389  2.1470  1.2123 -0.3408
   86SOPE   C12 7988   5.640   1.142   2.217 -0.1553 -0.3382  0.1028
   86SOPE  H12A 7989   5.611   1.170   2.113 -3.5469  0.9259  1.2516
   86SOPE  H12B 7990   5.541   1.113   2.259 -0.4546 -0.1189 -0.4384
   86SOPE   C11 7991   5.747   1.033   2.216  0.1722  0.2287  0.4324
   86SOPE  H11A 7992   5.837   1.079   2.169 -0.3190 -1.0013 -1.7989
   86SOPE  H11B 7993   5.715   0.946   2.156 -0.1262 -0.0091  0.9275
   86SOPE     P 7994   5.714   0.886   2.431  0.3308 -0.5311  0.0216
   86SOPE   O13 7995   5.826   0.803   2.487  0.2535  0.0010 -0.9227
   86SOPE   O14 7996   5.612   0.817   2.348 -0.0915 -0.4172 -0.4055
   86SOPE   O12 7997   5.783   0.997   2.351  0.8270  0.1725 -0.4017
   86SOPE   O11 7998   5.652   0.974   2.553 -0.0460  0.1134 -0.5986
   86SOPE    C1 7999   5.519   1.022   2.549 -0.1346 -0.4308  0.0746
   86SOPE    HA 8000   5.475   1.021   2.447 -0.9834  1.1620  0.3999
   86SOPE    HB 8001   5.527   1.127   2.583 -0.4707  0.0269 -1.2417
   86SOPE    C2 8002   5.429   0.936   2.648  0.0958 -0.2065  0.2371
   86SOPE    HS 8003   5.330   0.986   2.649  0.3853  0.4917  3.3825
   86SOPE   O21 8004   5.485   0.929   2.777  0.4185  0.1198 -0.3152
   86SOPE   C21 8005   5.505   1.045   2.844  0.6836 -0.2781  0.2884
   86SOPE   O22 8006   5.450   1.153   2.820  0.2473 -0.3745 -0.1279
   86SOPE   C22 8007   5.608   1.020   2.965  0.0731  0.0247 -0.3705
   86SOPE   H2R 8008   5.711   1.016   2.924 -0.2490  2.5739 -1.6308
   86SOPE   H2S 8009   5.578   0.923   3.009 -0.4818 -0.1858 -1.1851
   86SOPE    C3 8010   5.401   0.790   2.605 -0.4509  0.3032 -0.0883
   86SOPE    HX 8011   5.492   0.732   2.579  0.2111  1.5525 -0.6529
   86SOPE    HY 8012   5.346   0.797   2.509 -1.2422  0.8644  0.4008
   86SOPE   O31 8013   5.327   0.719   2.699  0.6870 -0.3816 -0.6213
   86SOPE   C31 8014   5.393   0.643   2.781  0.5545 -0.4760 -0.3407
   86SOPE   O32 8015   5.511   0.624   2.786 -0.4537  0.1651 -0.0679
   86SOPE   C32 8016   5.296   0.553   2.858 -0.2061 -0.0008 -0.6169
   86SOPE   H2X 8017   5.301   0.453   2.809  1.5572 -0.2219 -0.0476
   86SOPE   H2Y 8018   5.192   0.592   2.867  0.0483  0.2355  2.4613
   86SOPE   C23 8019   5.605   1.132   3.068  0.2122  0.8992  0.3856
   86SOPE   H3R 8020   5.606   1.227   3.011 -1.8633  0.8106  0.1447
   86SOPE   H3S 8021   5.697   1.117   3.129  0.8432 -0.6481 -0.8673
   86SOPE   C24 8022   5.491   1.125   3.170  0.1264  0.9353 -0.3938
   86SOPE   H4R 8023   5.483   1.223   3.221  0.1443 -0.6345  2.9284
   86SOPE   H4S 8024   5.396   1.114   3.113 -0.4151 -1.9032  0.8758
   86SOPE   C25 8025   5.498   1.015   3.280  0.0232 -0.6855 -0.0246
   86SOPE   H5R 8026   5.390   1.006   3.307 -0.4907  0.1175 -1.6907
   86SOPE   H5S 8027   5.537   0.922   3.236 -2.7894 -1.7965 -0.3722
   86SOPE   C26 8028   5.593   1.065   3.397  0.4682  0.0465  0.8698
   86SOPE   H6R 8029   5.698   1.069   3.359  0.6954 -0.7144  1.3792
   86SOPE   H6S 8030   5.559   1.158   3.446 -1.9707 -0.1195 -0.3684
   86SOPE   C27 8031   5.592   0.954   3.509  0.4074 -0.1539  0.0904
   86SOPE   H7R 8032   5.485   0.950   3.541  0.7135  2.5821  1.7898
   86SOPE   H7S 8033   5.623   0.858   3.464  0.8682 -1.3972  2.8466
   86SOPE   C28 8034   5.674   0.992   3.635  0.0639  0.4308  0.0481
   86SOPE   H8R 8035   5.781   1.000   3.608 -0.0324  1.5279 -0.0396
   86SOPE   H8S 8036   5.637   1.090   3.672  2.1083  0.8181  1.2261
   86SOPE   C29 8037   5.657   0.909   3.757  0.0898 -0.0107 -0.1093
   86SOPE   H91 8038   5.673   0.803   3.733  2.5227  0.3485 -0.3705
   86SOPE  C210 8039   5.638   0.958   3.884  0.6501  0.2433  0.0274
   86SOPE  H101 8040   5.627   0.883   3.963 -0.4066  0.1563 -0.1838
   86SOPE  C211 8041   5.628   1.099   3.923  0.1363  0.0509 -0.5879
   86SOPE  H11R 8042   5.545   1.146   3.866  1.2924  0.8743 -1.6580
   86SOPE  H11S 8043   5.722   1.154   3.898  0.1208  1.1243  1.5245
   86SOPE  C212 8044   5.590   1.114   4.074  0.3242  0.1301  0.4914
   86SOPE  H12R 8045   5.511   1.040   4.099  1.0021 -1.1006 -0.8775
   86SOPE  H12S 8046   5.559   1.218   4.096 -2.8632 -1.0071  1.9214
   86SOPE  C213 8047   5.696   1.084   4.178 -0.5890  0.2728 -0.5976
   86SOPE  H13R 8048   5.788   1.135   4.143  0.5759 -1.6484 -0.5203
   86SOPE  H13S 8049   5.732   0.979   4.176 -0.8352  0.1348  1.1461
   86SOPE  C214 8050   5.652   1.117   4.318 -0.2765  0.1901  0.1368
   86SOPE  H14R 8051   5.556   1.064   4.336 -0.8546  1.7376  1.9195
   86SOPE  H14S 8052   5.627   1.226   4.316  0.6715  0.4165 -0.0627
   86SOPE  C215 8053   5.744   1.085   4.437  0.1902  0.4085 -0.0391
   86SOPE  H15R 8054   5.843   1.128   4.410  1.3826 -1.6735  0.7536
   86SOPE  H15S 8055   5.741   0.975   4.447 -3.1521  0.3837 -0.2801
   86SOPE  C216 8056   5.702   1.139   4.579 -0.7104  0.2171  0.2793
   86SOPE  H16R 8057   5.619   1.075   4.616 -0.3648 -0.9380 -0.8845
   86SOPE  H16S 8058   5.673   1.246   4.570 -1.2706 -0.0510 -1.5975
   86SOPE  C217 8059   5.813   1.131   4.688 -0.0849 -0.1140 -0.5338
   86SOPE  H17R 8060   5.763   1.140   4.787  2.8593  3.2641  0.8868
   86SOPE  H17S 8061   5.871   1.226   4.682  0.4677 -0.4258 -0.2780
   86SOPE  C218 8062   5.906   1.010   4.679 -0.1375 -0.0435 -0.1138
   86SOPE  H18R 8063   5.931   0.978   4.575 -0.9055  0.8117 -0.5773
   86SOPE  H18S 8064   5.874   0.925   4.743 -1.3346  1.6117  1.5723
   86SOPE  H18T 8065   5.997   1.044   4.732 -0.8631 -0.5220  1.4864
   86SOPE   C33 8066   5.341   0.519   3.005  0.7482  0.2260  0.7518
   86SOPE   H3X 8067   5.451   0.508   3.006  0.6512 -1.3457 -0.3386
   86SOPE   H3Y 8068   5.296   0.418   3.018 -2.0657  0.9054 -2.3560
   86SOPE   C34 8069   5.284   0.603   3.115  0.0269 -0.4327 -0.8098
   86SOPE   H4X 8070   5.173   0.598   3.106  0.1320 -0.4078 -2.5952
   86SOPE   H4Y 8071   5.310   0.710   3.102 -0.3889 -0.2394 -0.0786
   86SOPE   C35 8072   5.316   0.555   3.254 -0.0805  0.0311  0.2701
   86SOPE   H5X 8073   5.427   0.556   3.267 -0.2165  1.8970  1.5008
   86SOPE   H5Y 8074   5.268   0.455   3.267  0.7319 -0.5283 -0.7888
   86SOPE   C36 8075   5.265   0.647   3.363 -0.3384 -0.5965 -0.3196
   86SOPE   H6X 8076   5.159   0.668   3.337 -0.0076 -0.8428 -1.9172
   86SOPE   H6Y 8077   5.320   0.743   3.359 -1.4148  0.0577  0.0686
   86SOPE   C37 8078   5.271   0.595   3.506  0.6162 -0.3920 -0.1568
   86SOPE   H7X 8079   5.374   0.570   3.537  0.3265 -0.8988  0.4012
   86SOPE   H7Y 8080   5.204   0.507   3.514  0.3980 -0.0675  2.5674
   86SOPE   C38 8081   5.221   0.709   3.602  0.0153 -0.2143 -0.0079
   86SOPE   H8X 8082   5.117   0.734   3.575 -0.3036 -0.1162  1.2665
   86SOPE   H8Y 8083   5.291   0.795   3.604  2.7242 -2.2315  2.7347
   86SOPE   C39 8084   5.202   0.670   3.744 -0.6661  0.1495  0.0049
   86SOPE   H9X 8085   5.126   0.593   3.767 -1.1667  0.8722  0.8070
   86SOPE   H9Y 8086   5.161   0.762   3.792 -0.2291  0.8528 -0.9314
   86SOPE  C310 8087   5.335   0.626   3.808 -0.1742 -0.3939 -1.2098
   86SOPE  H10X 8088   5.409   0.709   3.812  0.1449 -0.6700  2.3071
   86SOPE  H10Y 8089   5.370   0.533   3.759 -0.2262 -2.1240  1.7603
   86SOPE  C311 8090   5.328   0.596   3.964 -0.0654  0.3501  0.5429
   86SOPE  H11X 8091   5.430   0.572   4.000  0.7673 -1.2058 -2.4848
   86SOPE  H11Y 8092   5.252   0.515   3.967 -2.1924  2.0569 -2.2351
   86SOPE  C312 8093   5.283   0.715   4.052  0.7316  0.4154  0.2915
   86SOPE  H12X 8094   5.183   0.736   4.009 -0.0623  0.4958  2.0697
   86SOPE  H12Y 8095   5.349   0.802   4.031 -1.0139  1.3246 -1.7829
   86SOPE  C313 8096   5.272   0.681   4.199  0.0967  0.0591  0.5086
   86SOPE  H13X 8097   5.219   0.584   4.211 -0.1582  0.0855 -0.3678
   86SOPE  H13Y 8098   5.215   0.759   4.253  0.9020  3.1962 -2.7979
   86SOPE  C314 8099   5.402   0.672   4.267  0.0639  0.4982 -0.2479
   86SOPE  H14X 8100   5.464   0.763   4.249  0.6347  0.1393 -0.1347
   86SOPE  H14Y 8101   5.457   0.589   4.218 -1.6469 -0.0556 -1.2925
   86SOPE  C315 8102   5.397   0.636   4.417 -0.5175 -0.4514  0.3266
   86SOPE  H15X 8103   5.494   0.597   4.456 -0.2322 -0.7455 -0.6447
   86SOPE  H15Y 8104   5.320   0.557   4.427 -1.3537 -0.0085 -1.9546
   86SOPE  C316 8105   5.355   0.762   4.498  0.5225  0.0071  0.3574
   86SOPE  H16X 8106   5.260   0.730   4.545 -0.0399 -1.1426 -1.4613
   86SOPE  H16Y 8107   5.328   0.843   4.426 -1.3464 -1.5842 -0.8614
   86SOPE  C317 8108   5.465   0.808   4.603  0.7487  0.2956 -0.1313
   86SOPE  H17X 8109   5.433   0.903   4.651 -1.1609 -0.4413  0.1365
   86SOPE  H17Y 8110   5.563   0.831   4.557  0.2426  0.8291 -0.9517
   86SOPE  C318 8111   5.483   0.710   4.722  0.0888  0.0226  0.2447
   86SOPE  H18X 8112   5.395   0.717   4.791 -0.1169  1.7454 -0.1520
   86SOPE  H18Y 8113   5.571   0.738   4.784 -0.5850  0.2018  1.1511
   86SOPE  H18Z 8114   5.499   0.604   4.691  0.8841  0.1111  0.3251
   87SOPE     N 8115   6.078   0.440   2.581 -0.2870 -1.1262  0.5274
   87SOPE   HN1 8116   6.084   0.492   2.492 -0.7659 -3.1183 -0.7144
   87SOPE   HN2 8117   6.051   0.340   2.570 -1.7585 -0.7335  0.3490
   87SOPE   HN3 8118   5.993   0.486   2.620 -0.4085 -1.3897  0.5733
   87SOPE   C12 8119   6.203   0.467   2.666 -0.4265 -0.3314  0.1041
   87SOPE  H12A 8120   6.286   0.408   2.621 -1.2855 -1.6374  0.1552
   87SOPE  H12B 8121   6.183   0.420   2.765 -0.1101 -0.7685 -0.0380
   87SOPE   C11 8122   6.232   0.614   2.687  0.2506  0.1578 -0.2004
   87SOPE  H11A 8123   6.310   0.636   2.764 -0.3549  2.5659 -0.1744
   87SOPE  H11B 8124   6.134   0.649   2.725 -0.0863  0.2449 -1.1247
   87SOPE     P 8125   6.395   0.647   2.486 -0.1107  0.4090 -0.1958
   87SOPE   O13 8126   6.426   0.762   2.401 -0.0241 -0.1129  0.1555
   87SOPE   O14 8127   6.380   0.521   2.409  0.2682  0.2448  0.1740
   87SOPE   O12 8128   6.257   0.666   2.560  0.2001 -0.0738 -0.0443
   87SOPE   O11 8129   6.507   0.632   2.597  0.4447  0.4115 -0.2552
   87SOPE    C1 8130   6.596   0.521   2.603 -0.1065 -0.0640 -0.8291
   87SOPE    HA 8131   6.675   0.549   2.531 -1.9187  0.1764 -2.8437
   87SOPE    HB 8132   6.562   0.431   2.547 -0.4088 -0.8572  0.5672
   87SOPE    C2 8133   6.637   0.485   2.748  0.2614 -0.3948  0.2877
   87SOPE    HS 8134   6.545   0.483   2.810  1.1399 -1.3331  1.6074
   87SOPE   O21 8135   6.732   0.587   2.794  0.1686  0.2030 -0.5714
   87SOPE   C21 8136   6.718   0.623   2.924 -0.0742  0.5662  1.1157
   87SOPE   O22 8137   6.636   0.570   3.001 -0.4983 -0.0472 -0.5204
   87SOPE   C22 8138   6.829   0.718   2.952 -0.0081 -0.0493 -0.6821
   87SOPE   H2R 8139   6.836   0.782   2.862 -0.4639 -0.2987 -0.9003
   87SOPE   H2S 8140   6.922   0.659   2.968  0.1256  0.8423  2.6944
   87SOPE    C3 8141   6.711   0.359   2.750  0.6107  0.2352 -0.3036
   87SOPE    HX 8142   6.796   0.374   2.680  0.0655 -1.1855 -1.3334
   87SOPE    HY 8143   6.642   0.287   2.700  0.7205 -1.3748  1.7344
   87SOPE   O31 8144   6.750   0.316   2.886  0.3831  0.3494  0.3217
   87SOPE   C31 8145   6.656   0.260   2.957 -0.3734  0.1096 -0.0733
   87SOPE   O32 8146   6.536   0.254   2.936 -0.1285  0.2902  0.0256
   87SOPE   C32 8147   6.725   0.206   3.086  0.1153  0.0008  0.6643
   87SOPE   H2X 8148   6.766   0.290   3.146  0.4149 -1.1636  2.1510
   87SOPE   H2Y 8149   6.809   0.144   3.047 -0.1468  0.1512 -0.1645
   87SOPE   C23 8150   6.808   0.802   3.080 -1.1755  0.6321  0.1881
   87SOPE   H3R 8151   6.901   0.862   3.090 -0.2290  0.2942 -4.4317
   87SOPE   H3S 8152   6.793   0.729   3.163  0.8800 -0.7576 -0.5844
   87SOPE   C24 8153   6.674   0.885   3.072  0.3453 -0.6373  0.0676
   87SOPE   H4R 8154   6.685   0.971   3.002 -1.0107  0.5836  1.2684
   87SOPE   H4S 8155   6.591   0.817   3.044 -0.0967  0.1336 -0.5302
   87SOPE   C25 8156   6.641   0.952   3.207 -0.3574 -0.2360 -1.0195
   87SOPE   H5R 8157   6.663   0.887   3.295  1.2903 -0.5612 -1.6282
   87SOPE   H5S 8158   6.702   1.044   3.208 -0.7247  0.0457 -2.6106
   87SOPE   C26 8159   6.496   0.999   3.220 -0.1830 -0.2756  0.3309
   87SOPE   H6R 8160   6.484   1.059   3.127  0.0149 -0.9507 -0.1376
   87SOPE   H6S 8161   6.424   0.915   3.209 -0.6359 -0.2866  2.8287
   87SOPE   C27 8162   6.466   1.073   3.346  0.1978 -0.9380  0.3331
   87SOPE   H7R 8163   6.502   1.012   3.431 -0.5948 -1.7319  0.1190
   87SOPE   H7S 8164   6.520   1.169   3.336  1.6148 -1.7012  0.3873
   87SOPE   C28 8165   6.323   1.112   3.378  0.4568 -0.5006 -0.7454
   87SOPE   H8R 8166   6.322   1.175   3.469  0.6387 -1.0136 -0.3821
   87SOPE   H8S 8167   6.275   1.156   3.288 -0.3433 -0.0167 -0.0891
   87SOPE   C29 8168   6.252   0.983   3.407 -0.6854 -0.3140  0.5702
   87SOPE   H91 8169   6.286   0.897   3.347  0.6637 -1.1199  2.4004
   87SOPE  C210 8170   6.153   0.965   3.493 -0.4459 -0.4700 -0.1433
   87SOPE  H101 8171   6.117   0.861   3.496 -1.1244 -0.2684 -0.9040
   87SOPE  C211 8172   6.091   1.071   3.579 -0.0173  0.4366  0.0484
   87SOPE  H11R 8173   5.982   1.049   3.586 -0.0386  0.8572  1.2026
   87SOPE  H11S 8174   6.088   1.164   3.518  0.2511  0.2684 -0.2228
   87SOPE  C212 8175   6.143   1.080   3.719 -0.0115 -0.0386  0.4891
   87SOPE  H12R 8176   6.248   1.116   3.721  1.3971 -3.7749  1.1662
   87SOPE  H12S 8177   6.141   0.983   3.773  0.8596  0.6061  1.7353
   87SOPE  C213 8178   6.070   1.181   3.800 -0.4046  0.7461 -0.0122
   87SOPE  H13R 8179   5.971   1.134   3.820  1.0593 -2.8915 -0.4518
   87SOPE  H13S 8180   6.065   1.271   3.736 -0.2636  1.9018  1.5259
   87SOPE  C214 8181   6.135   1.206   3.937  0.1234 -0.7503 -0.7595
   87SOPE  H14R 8182   6.084   1.296   3.978 -1.0870 -0.6346 -2.4125
   87SOPE  H14S 8183   6.245   1.222   3.931 -0.0143 -0.3297 -3.2408
   87SOPE  C215 8184   6.122   1.086   4.025  0.2848  0.0101  0.4089
   87SOPE  H15R 8185   6.213   1.027   4.002  1.0704  1.9851 -2.0397
   87SOPE  H15S 8186   6.037   1.021   3.996  1.1855 -0.7917 -0.4857
   87SOPE  C216 8187   6.125   1.122   4.174 -0.0459  0.0435 -0.7968
   87SOPE  H16R 8188   6.063   1.045   4.224  1.0399 -1.5872 -1.8627
   87SOPE  H16S 8189   6.072   1.218   4.189  1.2059  0.6620 -0.1584
   87SOPE  C217 8190   6.261   1.109   4.246  0.8652 -0.7776  0.5138
   87SOPE  H17R 8191   6.335   1.180   4.203  0.7881  0.8849  2.9322
   87SOPE  H17S 8192   6.309   1.010   4.229 -0.2561 -1.0032 -1.6655
   87SOPE  C218 8193   6.240   1.134   4.399  0.2529 -0.2415 -0.0710
   87SOPE  H18R 8194   6.305   1.074   4.467  2.0288  0.3563 -1.1878
   87SOPE  H18S 8195   6.141   1.093   4.430  0.7617  0.5808  3.0382
   87SOPE  H18T 8196   6.244   1.240   4.432 -1.1024 -0.5943  1.3761
   87SOPE   C33 8197   6.632   0.126   3.177  0.1956  0.3184  0.1400
   87SOPE   H3X 8198   6.579   0.051   3.115 -0.5163  0.5790  0.4224
   87SOPE   H3Y 8199   6.559   0.201   3.214  0.4718  0.8839 -0.4401
   87SOPE   C34 8200   6.706   0.058   3.293  0.6499  0.4074 -0.8979
   87SOPE   H4X 8201   6.797   0.114   3.324 -0.1532  1.9986 -1.2845
   87SOPE   H4Y 8202   6.742  -0.043   3.266 -1.1866 -1.6727  3.5371
   87SOPE   C35 8203   6.606   0.044   3.409  0.4749 -0.1719 -0.0709
   87SOPE   H5X 8204   6.518  -0.015   3.376 -0.5762  0.8297  0.8204
   87SOPE   H5Y 8205   6.559   0.143   3.428 -0.9798 -1.0763  1.3409
   87SOPE   C36 8206   6.658  -0.005   3.546  0.7229  0.1255 -0.3231
   87SOPE   H6X 8207   6.711  -0.102   3.531  1.8683  0.3305  2.0370
   87SOPE   H6Y 8208   6.568  -0.015   3.610  0.8960 -1.5324 -0.2913
   87SOPE   C37 8209   6.752   0.099   3.624 -0.5435  0.3060  0.0440
   87SOPE   H7X 8210   6.722   0.204   3.603  2.3237  1.2173  0.1379
   87SOPE   H7Y 8211   6.853   0.089   3.579 -1.0364 -1.6426 -0.7652
   87SOPE   C38 8212   6.760   0.074   3.772  0.1972  0.4506  0.6891
   87SOPE   H8X 8213   6.832   0.146   3.817  1.4866 -0.3319 -0.0569
   87SOPE   H8Y 8214   6.796  -0.030   3.785 -2.8962 -0.8445 -0.2528
   87SOPE   C39 8215   6.629   0.106   3.848 -0.1244  0.2156  0.0419
   87SOPE   H9X 8216   6.649   0.102   3.957 -0.7994  1.6296  0.2369
   87SOPE   H9Y 8217   6.561   0.021   3.828 -0.0436  0.5592 -1.8948
   87SOPE  C310 8218   6.555   0.230   3.800 -0.0945 -0.2378  0.1458
   87SOPE  H10X 8219   6.458   0.241   3.852 -0.7349 -0.4232 -0.9699
   87SOPE  H10Y 8220   6.535   0.214   3.692 -1.0697 -2.3731  0.5902
   87SOPE  C311 8221   6.635   0.360   3.815  0.7008  0.6748  0.2363
   87SOPE  H11X 8222   6.586   0.432   3.746  0.4452  1.3215  1.0744
   87SOPE  H11Y 8223   6.739   0.342   3.781  1.2710  0.9814  1.7218
   87SOPE  C312 8224   6.635   0.423   3.957  0.1210 -0.4595 -0.2033
   87SOPE  H12X 8225   6.663   0.344   4.030 -2.3794 -1.9923 -0.7981
   87SOPE  H12Y 8226   6.533   0.447   3.992  1.1498  0.3422  2.5226
   87SOPE  C313 8227   6.712   0.553   3.968  0.8921  0.7583 -0.5658
   87SOPE  H13X 8228   6.686   0.602   4.065  0.2471 -2.1120  0.8322
   87SOPE  H13Y 8229   6.683   0.626   3.890 -3.9605 -0.2255  0.0186
   87SOPE  C314 8230   6.857   0.515   3.964  0.8208  0.6550 -0.7311
   87SOPE  H14X 8231   6.889   0.479   3.864  0.1946  0.4299 -0.8593
   87SOPE  H14Y 8232   6.860   0.429   4.034 -1.4225  2.4205  1.7397
   87SOPE  C315 8233   6.959   0.618   4.024  0.4695  0.2817  0.4636
   87SOPE  H15X 8234   7.055   0.566   4.005  0.9041  1.6265 -1.3019
   87SOPE  H15Y 8235   6.936   0.622   4.133 -0.1546  1.2729  0.3073
   87SOPE  C316 8236   6.968   0.757   3.970  0.1106 -0.0047 -0.3837
   87SOPE  H16X 8237   6.871   0.795   4.009 -0.5617 -1.3796 -0.6459
   87SOPE  H16Y 8238   6.974   0.764   3.859  0.2769  0.6183 -0.3336
   87SOPE  C317 8239   7.066   0.840   4.046 -0.0214 -0.2276 -0.1142
   87SOPE  H17X 8240   7.170   0.809   4.025  0.3200  0.2698  0.7623
   87SOPE  H17Y 8241   7.046   0.830   4.155  0.5601  3.3229  0.4679
   87SOPE  C318 8242   7.059   0.989   4.021  0.2513 -0.4004 -0.1155
   87SOPE  H18X 8243   6.965   1.032   4.061 -1.3369 -3.6265 -0.0744
   87SOPE  H18Y 8244   7.065   1.004   3.911  0.2207 -3.2054 -0.5760
   87SOPE  H18Z 8245   7.149   1.044   4.057  0.9435  0.3235 -2.7504
   88SOPE     N 8246   0.749   6.193   1.863 -0.4274 -0.6304 -0.2686
   88SOPE   HN1 8247   0.836   6.243   1.890 -0.1959  0.1152 -2.2282
   88SOPE   HN2 8248   0.734   6.217   1.763  2.4712  3.3584  0.0457
   88SOPE   HN3 8249   0.668   6.226   1.919  1.5477  2.0363  1.2039
   88SOPE   C12 8250   0.775   6.046   1.896  0.2271 -0.0711  0.2435
   88SOPE  H12A 8251   0.866   6.017   1.839 -0.5836  0.0574 -1.1781
   88SOPE  H12B 8252   0.686   5.987   1.865  0.6335 -0.0530 -1.0373
   88SOPE   C11 8253   0.810   6.040   2.041  0.6132 -0.0609  0.3060
   88SOPE  H11A 8254   0.809   5.930   2.057 -1.3584  0.1500  2.1646
   88SOPE  H11B 8255   0.726   6.070   2.108 -0.2843 -2.2713  0.2538
   88SOPE     P 8256   1.070   6.056   2.098 -0.4414  0.3017 -0.1048
   88SOPE   O13 8257   1.159   6.168   2.102  0.0431  0.1133 -0.3349
   88SOPE   O14 8258   1.097   5.952   1.988 -0.8070  0.5508 -0.1394
   88SOPE   O12 8259   0.923   6.111   2.080 -0.4175 -0.2133  0.3470
   88SOPE   O11 8260   1.055   5.984   2.238  0.2500  0.4372  0.2823
   88SOPE    C1 8261   1.053   6.054   2.368 -0.3693  0.1586  0.1183
   88SOPE    HA 8262   0.952   6.078   2.407 -0.0877 -1.8092  2.2076
   88SOPE    HB 8263   1.099   6.154   2.351 -1.4734  0.5343 -0.7961
   88SOPE    C2 8264   1.126   5.976   2.481 -0.8215 -0.7240 -0.3010
   88SOPE    HS 8265   1.088   5.873   2.497 -2.8376 -0.1196 -0.9410
   88SOPE   O21 8266   1.111   6.041   2.608  0.3852  0.4730 -0.0664
   88SOPE   C21 8267   0.986   6.029   2.663 -1.0358  0.0756 -0.5690
   88SOPE   O22 8268   0.900   5.950   2.625  0.1258 -0.4137  0.7081
   88SOPE   C22 8269   0.978   6.121   2.785  0.0765  0.0476  0.0561
   88SOPE   H2R 8270   0.882   6.176   2.788 -0.0913 -0.1213 -1.2928
   88SOPE   H2S 8271   1.047   6.205   2.761 -0.2136  0.6178  1.1616
   88SOPE    C3 8272   1.273   5.972   2.437  0.2332  0.3869  0.0696
   88SOPE    HX 8273   1.307   6.078   2.441  0.6013  0.3035 -0.6708
   88SOPE    HY 8274   1.287   5.935   2.333  1.9142 -1.2318  0.8015
   88SOPE   O31 8275   1.351   5.883   2.524  0.6059 -0.0970  0.9964
   88SOPE   C31 8276   1.455   5.945   2.586  0.2404 -0.1462 -0.1988
   88SOPE   O32 8277   1.510   6.045   2.541 -0.2084 -0.2790 -0.1405
   88SOPE   C32 8278   1.498   5.878   2.713  0.0314  0.1838 -0.0230
   88SOPE   H2X 8279   1.599   5.918   2.735 -0.6505  1.3114  1.2093
   88SOPE   H2Y 8280   1.494   5.767   2.702 -1.0899 -0.0564  2.2045
   88SOPE   C23 8281   1.021   6.040   2.911 -0.3358 -0.0832 -0.1877
   88SOPE   H3R 8282   1.026   6.108   2.999  0.1849 -2.4000  1.6745
   88SOPE   H3S 8283   1.118   5.986   2.906 -0.9514 -1.3577  1.0251
   88SOPE   C24 8284   0.917   5.939   2.947 -0.4216  0.1225  0.4630
   88SOPE   H4R 8285   0.820   5.987   2.972 -0.2530 -0.8171  3.2505
   88SOPE   H4S 8286   0.874   5.893   2.855 -0.8433 -0.2817  0.8535
   88SOPE   C25 8287   0.958   5.842   3.054 -0.9945  0.2196  0.0096
   88SOPE   H5R 8288   0.895   5.751   3.062  0.1367 -1.0664 -3.6538
   88SOPE   H5S 8289   1.063   5.814   3.032 -1.0255  0.3310 -0.2852
   88SOPE   C26 8290   0.960   5.919   3.187  0.6799 -0.3407 -0.5120
   88SOPE   H6R 8291   1.048   5.987   3.186  0.6533 -0.2735  0.4988
   88SOPE   H6S 8292   0.871   5.985   3.189  1.0428  0.1473  0.1201
   88SOPE   C27 8293   0.974   5.836   3.318  0.0106 -0.3004 -0.7611
   88SOPE   H7R 8294   0.896   5.758   3.303  1.4392 -1.6900 -1.3798
   88SOPE   H7S 8295   1.072   5.783   3.327  0.0677 -0.3011 -1.3159
   88SOPE   C28 8296   0.952   5.919   3.442 -0.2356  0.0574 -0.4529
   88SOPE   H8R 8297   1.044   5.978   3.464  0.4864 -1.2433  0.1734
   88SOPE   H8S 8298   0.874   5.997   3.428  1.1758  1.9231  1.3831
   88SOPE   C29 8299   0.914   5.821   3.549  0.1553  0.3345  0.2395
   88SOPE   H91 8300   0.859   5.733   3.514  1.2573 -0.4529  0.4314
   88SOPE  C210 8301   0.939   5.854   3.679 -0.4565 -1.1769  0.6389
   88SOPE  H101 8302   0.911   5.787   3.762 -0.0501  0.8165  2.4595
   88SOPE  C211 8303   0.999   5.988   3.735  0.1146  0.3467 -0.1248
   88SOPE  H11R 8304   0.917   6.063   3.739 -1.6409 -1.5234  1.4151
   88SOPE  H11S 8305   1.077   6.024   3.665  0.5661  1.0599  0.7341
   88SOPE  C212 8306   1.056   5.966   3.881  0.4482  0.5991  0.2525
   88SOPE  H12R 8307   1.089   6.065   3.919  0.2027  0.2728  1.3276
   88SOPE  H12S 8308   1.145   5.900   3.876 -0.3936 -0.6730  1.3403
   88SOPE  C213 8309   0.958   5.905   3.990 -0.1615 -0.1057 -0.4720
   88SOPE  H13R 8310   0.932   5.800   3.962 -1.8751  0.2935 -0.5020
   88SOPE  H13S 8311   0.864   5.964   3.995 -2.0371 -2.9301  0.3301
   88SOPE  C214 8312   1.026   5.911   4.129 -0.2893  1.0238 -0.3833
   88SOPE  H14R 8313   0.951   5.869   4.200 -0.8719  1.5693 -0.6716
   88SOPE  H14S 8314   1.040   6.018   4.153  0.4740  0.5643  1.3859
   88SOPE  C215 8315   1.158   5.832   4.139  0.0712 -0.0559  0.3723
   88SOPE  H15R 8316   1.241   5.874   4.079  1.1328 -0.0319  1.8122
   88SOPE  H15S 8317   1.158   5.732   4.089 -0.0881  0.6462 -1.0905
   88SOPE  C216 8318   1.206   5.817   4.281  0.3011  0.5396 -0.3390
   88SOPE  H16R 8319   1.142   5.743   4.334 -0.0568  0.3825 -0.9824
   88SOPE  H16S 8320   1.202   5.912   4.340 -0.3633 -0.9791  2.2273
   88SOPE  C217 8321   1.353   5.788   4.289 -0.1449 -0.2383  0.2790
   88SOPE  H17R 8322   1.411   5.859   4.227 -0.7171 -0.3526 -0.4023
   88SOPE  H17S 8323   1.369   5.687   4.245  1.2691  0.5777 -1.2056
   88SOPE  C218 8324   1.415   5.793   4.433 -0.1539 -0.2258 -0.1180
   88SOPE  H18R 8325   1.373   5.705   4.486 -1.3570 -1.2808 -2.7075
   88SOPE  H18S 8326   1.382   5.888   4.480  2.0379  1.0802 -1.0625
   88SOPE  H18T 8327   1.526   5.789   4.425 -0.0310 -0.7550  1.5132
   88SOPE   C33 8328   1.414   5.927   2.841 -0.2130  0.0204 -0.2693
   88SOPE   H3X 8329   1.310   5.890   2.837 -0.1290 -0.1852 -0.5558
   88SOPE   H3Y 8330   1.421   6.038   2.837  0.2766  0.0355  0.6268
   88SOPE   C34 8331   1.475   5.894   2.977 -0.3931  1.0930  0.1565
   88SOPE   H4X 8332   1.576   5.937   2.989  0.4227 -0.8170  0.4050
   88SOPE   H4Y 8333   1.491   5.784   2.978 -2.6213  0.7083  0.1030
   88SOPE   C35 8334   1.394   5.940   3.101 -0.5271  0.0084  0.4569
   88SOPE   H5X 8335   1.289   5.913   3.080  0.1952 -1.3509 -1.6837
   88SOPE   H5Y 8336   1.423   6.048   3.102  1.6562 -0.5221  0.4894
   88SOPE   C36 8337   1.440   5.877   3.236  0.2558 -0.1293 -0.4386
   88SOPE   H6X 8338   1.551   5.870   3.236  0.1917 -4.2018  0.7256
   88SOPE   H6Y 8339   1.407   5.771   3.236  0.1217 -0.0951  0.7863
   88SOPE   C37 8340   1.379   5.939   3.364 -0.0092  0.1474 -0.1951
   88SOPE   H7X 8341   1.270   5.921   3.360 -0.0033 -0.7646  2.0992
   88SOPE   H7Y 8342   1.403   6.047   3.371  1.0567 -0.0432 -0.6057
   88SOPE   C38 8343   1.432   5.867   3.485  0.2184 -0.4303 -0.0060
   88SOPE   H8X 8344   1.543   5.875   3.486  0.0801  2.4567  0.0522
   88SOPE   H8Y 8345   1.407   5.759   3.475 -0.8375 -0.3796  1.7487
   88SOPE   C39 8346   1.366   5.906   3.625  0.1004 -0.5900  1.1832
   88SOPE   H9X 8347   1.262   5.866   3.616  0.6961 -1.9680  0.0169
   88SOPE   H9Y 8348   1.356   6.016   3.621  0.0866 -0.5743 -2.8829
   88SOPE  C310 8349   1.448   5.879   3.748 -0.1062  0.1343 -0.3095
   88SOPE  H10X 8350   1.403   5.929   3.836  0.7071 -2.0075  1.3972
   88SOPE  H10Y 8351   1.550   5.923   3.740  0.5615 -0.6797  2.6282
   88SOPE  C311 8352   1.474   5.731   3.776 -0.0421 -0.4300  0.1906
   88SOPE  H11X 8353   1.543   5.684   3.703  0.5425  0.7079  0.0045
   88SOPE  H11Y 8354   1.376   5.677   3.782 -0.5890  0.6819  2.1239
   88SOPE  C312 8355   1.545   5.730   3.910  0.2660  0.4356 -0.1097
   88SOPE  H12X 8356   1.497   5.798   3.984  0.9707  0.2973  0.4867
   88SOPE  H12Y 8357   1.651   5.761   3.891  0.8153  0.1052  2.1404
   88SOPE  C313 8358   1.532   5.589   3.962 -0.4919 -0.0995  0.0712
   88SOPE  H13X 8359   1.571   5.512   3.893 -2.6180 -1.1199 -0.0936
   88SOPE  H13Y 8360   1.423   5.577   3.982 -0.3947  1.1387  1.5804
   88SOPE  C314 8361   1.612   5.564   4.091  0.6945  1.1717 -0.6204
   88SOPE  H14X 8362   1.566   5.611   4.180  3.3784  0.8016  1.0597
   88SOPE  H14Y 8363   1.713   5.604   4.071  2.5052 -2.6482 -0.0158
   88SOPE  C315 8364   1.623   5.411   4.126 -0.0029 -0.1006  0.3788
   88SOPE  H15X 8365   1.661   5.400   4.230 -0.3064 -2.5745  0.2925
   88SOPE  H15Y 8366   1.697   5.365   4.056  0.4922  1.7834 -0.3830
   88SOPE  C316 8367   1.500   5.322   4.119  0.3209  0.4905 -0.5162
   88SOPE  H16X 8368   1.449   5.318   4.021 -0.0295 -1.8584 -0.3008
   88SOPE  H16Y 8369   1.418   5.348   4.190  0.3732 -1.8621  0.5105
   88SOPE  C317 8370   1.548   5.177   4.153 -0.3019 -0.1940  0.1221
   88SOPE  H17X 8371   1.614   5.193   4.241  0.8273  0.7839 -0.8713
   88SOPE  H17Y 8372   1.596   5.132   4.064 -2.7247  0.3698 -1.5737
   88SOPE  C318 8373   1.425   5.080   4.178 -0.3295 -0.0291 -0.3346
   88SOPE  H18X 8374   1.371   5.068   4.082  2.2101 -1.7413 -1.6900
   88SOPE  H18Y 8375   1.352   5.122   4.249  0.5875  2.4619 -0.7655
   88SOPE  H18Z 8376   1.461   4.978   4.205  0.7797  1.0503  2.6535
   89SAPC     N 8377   4.614   3.872   6.884  0.8476 -0.2875 -0.1868
   89SAPC   C12 8378   4.594   3.846   6.735 -0.6323 -0.2522  0.3528
   89SAPC  H12A 8379   4.687   3.808   6.693 -0.8152 -0.1734 -0.1252
   89SAPC  H12B 8380   4.583   3.939   6.682  1.6892  0.1754  0.5063
   89SAPC   C13 8381   4.752   3.938   6.900  0.3210  0.1281 -0.2120
   89SAPC  H13A 8382   4.758   4.027   6.840  1.9905 -0.6885 -1.3251
   89SAPC  H13B 8383   4.776   3.957   7.003 -3.2013  1.2562  0.5399
   89SAPC  H13C 8384   4.828   3.876   6.855  0.5311  1.5789 -1.9831
   89SAPC   C14 8385   4.504   3.964   6.928 -0.2227 -0.4434 -0.7458
   89SAPC  H14A 8386   4.408   3.915   6.933  0.2130 -1.2034  2.2277
   89SAPC  H14B 8387   4.524   4.000   7.028  0.1668  1.4057 -1.4406
   89SAPC  H14C 8388   4.495   4.054   6.868  1.2563  1.1849  1.3175
   89SAPC   C15 8389   4.612   3.753   6.966 -0.5223 -0.1586 -0.1281
   89SAPC  H15A 8390   4.598   3.776   7.071 -1.4549 -0.1716 -0.2375
   89SAPC  H15B 8391   4.534   3.683   6.941 -1.4336  0.0070  2.0682
   89SAPC  H15C 8392   4.702   3.694   6.960  1.4716  2.8567 -3.1434
   89SAPC   C11 8393   4.475   3.748   6.696 -0.3854 -0.1590  0.6753
   89SAPC  H11A 8394   4.442   3.768   6.592 -1.9192  0.0769  1.1836
   89SAPC  H11B 8395   4.382   3.749   6.757  0.4001  1.1802  1.9226
   89SAPC     P 8396   4.632   3.550   6.619 -0.2218 -0.2721  0.1031
   89SAPC   O13 8397   4.749   3.643   6.609  0.0872 -0.0130 -0.1809
   89SAPC   O14 8398   4.656   3.413   6.671 -0.5872  0.5592  0.0830
   89SAPC   O12 8399   4.518   3.611   6.705 -0.1059  0.5196 -0.4747
   89SAPC   O11 8400   4.561   3.539   6.474 -0.1143  0.3152  0.3461
   89SAPC    C1 8401   4.433   3.474   6.467 -0.1289 -0.0727 -0.5973
   89SAPC    HA 8402   4.431   3.374   6.516  0.7141  2.1522  4.7281
   89SAPC    HB 8403   4.349   3.527   6.518  0.7270  0.2633  0.5186
   89SAPC    C2 8404   4.401   3.448   6.318 -0.1678 -0.2528 -0.3425
   89SAPC    HS 8405   4.320   3.371   6.309  1.0656 -1.6495  0.0948
   89SAPC   O21 8406   4.519   3.409   6.249 -0.6495  0.7378 -0.3654
   89SAPC   C21 8407   4.560   3.285   6.275 -0.4301  0.0684  0.2559
   89SAPC   O22 8408   4.503   3.204   6.346 -0.4295 -0.5592  0.3809
   89SAPC   C22 8409   4.687   3.273   6.198 -0.8934  0.5616 -0.0681
   89SAPC   H2R 8410   4.671   3.293   6.090 -0.7879 -1.0514 -0.4122
   89SAPC   H2S 8411   4.760   3.344   6.242  0.1094 -0.6274  0.2422
   89SAPC    C3 8412   4.346   3.574   6.249 -0.1815 -0.1706 -0.4012
   89SAPC    HX 8413   4.407   3.666   6.263  0.0516 -0.0611 -2.0349
   89SAPC    HY 8414   4.246   3.590   6.294 -0.2512  0.2731 -0.7095
   89SAPC   O31 8415   4.322   3.553   6.105 -0.3318 -0.3671  0.1100
   89SAPC   C31 8416   4.422   3.591   6.026 -0.2766 -0.2700 -0.1859
   89SAPC   O32 8417   4.531   3.643   6.052 -0.2115  0.4559  0.0438
   89SAPC   C32 8418   4.365   3.576   5.878  0.3942  0.2076 -0.2655
   89SAPC   H2X 8419   4.313   3.667   5.841  0.1555 -0.0865 -0.6693
   89SAPC   H2Y 8420   4.299   3.487   5.884  1.5931 -0.6249  3.5651
   89SAPC   C23 8421   4.755   3.130   6.216 -0.1743 -0.0053  0.3297
   89SAPC   H3R 8422   4.731   3.092   6.317 -0.9403  2.2767  1.0872
   89SAPC   H3S 8423   4.865   3.141   6.208 -0.1348 -0.5808  0.0651
   89SAPC   C24 8424   4.704   3.035   6.107 -0.6445 -0.0630 -0.1270
   89SAPC   H4R 8425   4.725   3.085   6.010 -0.1426 -0.0836 -0.0304
   89SAPC   H4S 8426   4.594   3.029   6.122 -0.4651 -1.6628  0.8028
   89SAPC   C25 8427   4.763   2.896   6.124 -0.1169  0.0182  0.1216
   89SAPC   H5R 8428   4.764   2.855   6.226 -2.4813  0.0265  0.2125
   89SAPC   C26 8429   4.813   2.812   6.029  0.6968  0.4464  0.0954
   89SAPC   H6R 8430   4.848   2.711   6.054 -0.2989  0.2213  0.6153
   89SAPC   C27 8431   4.831   2.866   5.894 -0.7712  0.0728 -0.0655
   89SAPC   H7R 8432   4.861   2.973   5.898 -0.4862 -0.0104  0.1233
   89SAPC   H7S 8433   4.730   2.884   5.853  0.2564  1.4881 -2.1255
   89SAPC   C28 8434   4.915   2.782   5.801 -0.1771  0.1091 -0.4655
   89SAPC   H8R 8435   5.013   2.765   5.846 -0.4899 -0.0777  0.1615
   89SAPC   C29 8436   4.887   2.720   5.685 -0.1822  0.0340  0.0866
   89SAPC   H9R 8437   4.974   2.681   5.631 -0.4110 -0.6671  0.2146
   89SAPC  C210 8438   4.773   2.728   5.589  0.5461 -0.0091  0.1539
   89SAPC  H10R 8439   4.783   2.824   5.535 -1.3319  0.4411  0.5525
   89SAPC  H10S 8440   4.680   2.737   5.648  1.2889 -0.5286  1.4527
   89SAPC  C211 8441   4.761   2.615   5.492 -0.1417 -0.4736  1.3990
   89SAPC  H11R 8442   4.753   2.515   5.536  0.9956 -1.1039  0.2630
   89SAPC  C212 8443   4.773   2.627   5.353 -0.6966  0.1996  0.3735
   89SAPC  H12R 8444   4.784   2.533   5.297  1.6692 -0.2118  1.4251
   89SAPC  C213 8445   4.789   2.757   5.283  0.1300 -0.5446  0.1589
   89SAPC  H13R 8446   4.731   2.829   5.344  1.4220  0.1079  0.6620
   89SAPC  H13S 8447   4.738   2.769   5.185 -0.9699  0.9684  0.8661
   89SAPC  C214 8448   4.931   2.808   5.287 -0.6862 -0.9523  0.0177
   89SAPC  H14R 8449   4.998   2.763   5.361  0.0485  0.5183  0.2774
   89SAPC  C215 8450   4.985   2.899   5.204  0.5400 -0.3134  0.1364
   89SAPC  H15R 8451   5.095   2.906   5.203  0.5323 -0.1928 -0.0821
   89SAPC  C216 8452   4.922   2.966   5.082 -0.3943 -1.0292 -0.6332
   89SAPC  H16R 8453   4.813   2.946   5.071 -1.3822  1.7088  2.4193
   89SAPC  H16S 8454   4.979   2.945   4.989 -0.0923 -1.2457 -0.4004
   89SAPC  C217 8455   4.913   3.124   5.108 -0.2232 -0.4629  0.0481
   89SAPC  H17R 8456   5.017   3.162   5.120 -0.4872  2.0136 -3.7426
   89SAPC  H17S 8457   4.855   3.147   5.200  0.5008  0.7777  0.2257
   89SAPC  C218 8458   4.875   3.204   4.982 -0.0935 -0.7545 -0.5711
   89SAPC  H18R 8459   4.958   3.192   4.909  0.4745  2.1357 -0.5355
   89SAPC  H18S 8460   4.872   3.311   5.013  3.1721 -0.9649  0.8526
   89SAPC  C219 8461   4.736   3.166   4.919  0.5760  0.2623  0.0776
   89SAPC  H19R 8462   4.751   3.069   4.867  0.3690  1.2718 -1.9741
   89SAPC  H19S 8463   4.709   3.244   4.845  0.3496 -0.8430 -1.0270
   89SAPC  C220 8464   4.620   3.154   5.018  0.4592 -0.4976  0.3282
   89SAPC  H20R 8465   4.636   3.068   5.086  2.3380  1.3939  2.4187
   89SAPC  H20S 8466   4.522   3.131   4.970 -1.0237  1.6448  2.1126
   89SAPC  H20T 8467   4.606   3.242   5.083  1.6846 -0.9541  1.2371
   89SAPC   C33 8468   4.479   3.544   5.770  0.6475 -0.2489 -0.3871
   89SAPC   H3X 8469   4.539   3.459   5.809 -1.3017 -0.8257  1.5760
   89SAPC   H3Y 8470   4.549   3.630   5.766  2.1008 -1.3820 -0.2131
   89SAPC   C34 8471   4.430   3.512   5.623  0.1496  0.1363  0.0980
   89SAPC   H4X 8472   4.364   3.423   5.635 -1.1301  0.7573 -1.8366
   89SAPC   H4Y 8473   4.521   3.482   5.567  1.0486 -1.4705  2.2783
   89SAPC   C35 8474   4.363   3.630   5.551 -0.3022 -0.3270 -0.1586
   89SAPC   H5X 8475   4.416   3.726   5.568  0.6152 -1.3152  3.1588
   89SAPC   H5Y 8476   4.267   3.654   5.601 -0.0119 -0.5932  0.5301
   89SAPC   C36 8477   4.360   3.610   5.395  0.1012  0.1418 -0.5219
   89SAPC   H6X 8478   4.312   3.700   5.351 -0.1033  0.7369  0.8424
   89SAPC   H6Y 8479   4.308   3.514   5.375  2.6701 -1.5507  0.3483
   89SAPC   C37 8480   4.499   3.618   5.331 -0.2190 -0.3886  0.2567
   89SAPC   H7X 8481   4.563   3.529   5.354 -0.2328 -0.6157 -0.5415
   89SAPC   H7Y 8482   4.544   3.707   5.380 -3.2745  2.3627 -1.5439
   89SAPC   C38 8483   4.494   3.654   5.180 -0.7553  0.0398 -0.7976
   89SAPC   H8X 8484   4.578   3.721   5.148 -0.2595 -0.9255 -1.5622
   89SAPC   H8Y 8485   4.404   3.715   5.158 -1.4847 -0.8571 -0.3543
   89SAPC   C39 8486   4.500   3.525   5.092 -0.3597  0.3567 -0.5983
   89SAPC   H9X 8487   4.435   3.453   5.145  2.2272 -1.4204  0.3147
   89SAPC   H9Y 8488   4.596   3.470   5.096  0.3301  1.5927  1.8129
   89SAPC  C310 8489   4.456   3.552   4.946  0.3082  0.1545  0.1304
   89SAPC  H10X 8490   4.356   3.599   4.958  1.0165  1.4581  1.2507
   89SAPC  H10Y 8491   4.431   3.455   4.897  0.3308 -1.1070  2.4605
   89SAPC  C311 8492   4.546   3.641   4.861 -0.0701  0.3264 -0.0489
   89SAPC  H11X 8493   4.624   3.698   4.917  0.8106  1.9428 -2.7244
   89SAPC  H11Y 8494   4.498   3.727   4.809 -1.3526 -0.8723 -0.8964
   89SAPC  C312 8495   4.621   3.564   4.752  0.8028 -0.4246  0.7520
   89SAPC  H12X 8496   4.547   3.563   4.669  0.8667 -0.4177  0.6951
   89SAPC  H12Y 8497   4.643   3.458   4.779 -1.0015 -0.8464  0.6891
   89SAPC  C313 8498   4.744   3.635   4.699  0.1748  0.3355 -0.4400
   89SAPC  H13X 8499   4.817   3.649   4.782  0.8729 -3.2497 -0.3120
   89SAPC  H13Y 8500   4.715   3.738   4.667  1.6119  0.4677 -1.3726
   89SAPC  C314 8501   4.809   3.561   4.584 -0.3738  0.4143 -0.2563
   89SAPC  H14X 8502   4.738   3.538   4.501 -0.6954 -1.2074  0.4330
   89SAPC  H14Y 8503   4.865   3.467   4.607  3.0076  2.4150  0.4503
   89SAPC  C315 8504   4.911   3.655   4.521 -0.1228  0.2301 -0.6236
   89SAPC  H15X 8505   4.986   3.694   4.594  0.3243 -0.3590 -0.7607
   89SAPC  H15Y 8506   4.869   3.746   4.473  0.1503  0.4784 -0.3915
   89SAPC  C316 8507   4.988   3.566   4.414  0.2724 -0.0441 -0.9126
   89SAPC  H16X 8508   4.904   3.532   4.349 -3.2125  1.4217  2.4248
   89SAPC  H16Y 8509   5.040   3.473   4.445  1.3004  1.6122  2.8113
   89SAPC  C317 8510   5.082   3.652   4.337 -0.2628  0.2055  0.0353
   89SAPC  H17X 8511   5.037   3.746   4.298 -0.3321  0.8812  1.6422
   89SAPC  H17Y 8512   5.103   3.599   4.242  0.8950  0.0684  0.3478
   89SAPC  C318 8513   5.208   3.679   4.417 -0.7860  0.2668 -0.2601
   89SAPC  H18X 8514   5.263   3.763   4.370  0.1662  0.4014  1.0670
   89SAPC  H18Y 8515   5.270   3.587   4.423  0.5809  1.2204  0.6828
   89SAPC  H18Z 8516   5.181   3.691   4.524 -3.0246  0.7353 -0.8307
   90SAPC     N 8517   3.268   6.384   6.846 -0.5541 -0.0360 -0.2342
   90SAPC   C12 8518   3.185   6.407   6.724  0.6293  0.2056  0.6094
   90SAPC  H12A 8519   3.131   6.500   6.737  1.6374  0.7432  0.9997
   90SAPC  H12B 8520   3.115   6.325   6.711 -0.2818  1.3266 -2.5845
   90SAPC   C13 8521   3.179   6.353   6.961 -0.3759 -0.0479  0.1571
   90SAPC  H13A 8522   3.105   6.430   6.975 -0.5012 -0.1078 -0.1547
   90SAPC  H13B 8523   3.129   6.258   6.967 -0.3775 -0.0601 -0.0436
   90SAPC  H13C 8524   3.235   6.363   7.052  1.9046 -2.1929 -0.8842
   90SAPC   C14 8525   3.356   6.269   6.837  0.4181 -0.4831 -0.8347
   90SAPC  H14A 8526   3.305   6.174   6.823  0.3923 -0.8488  1.4021
   90SAPC  H14B 8527   3.425   6.288   6.755 -3.4755  0.8457 -4.1107
   90SAPC  H14C 8528   3.413   6.260   6.928  0.9686 -0.0970 -1.1374
   90SAPC   C15 8529   3.361   6.500   6.881 -0.0040 -0.5035  0.1272
   90SAPC  H15A 8530   3.306   6.590   6.904  1.1981 -0.1036  1.5663
   90SAPC  H15B 8531   3.425   6.483   6.966  0.1535  2.0681  0.5929
   90SAPC  H15C 8532   3.422   6.522   6.795 -1.9932 -0.4082 -1.3274
   90SAPC   C11 8533   3.261   6.420   6.585 -0.8880  0.0847 -0.2882
   90SAPC  H11A 8534   3.342   6.496   6.592  0.8034 -1.6854  0.3131
   90SAPC  H11B 8535   3.194   6.452   6.503 -0.4259 -0.7343 -1.0133
   90SAPC     P 8536   3.417   6.300   6.419  0.2352  0.2059 -0.1111
   90SAPC   O13 8537   3.489   6.428   6.421  0.5401  0.6199  0.3282
   90SAPC   O14 8538   3.500   6.179   6.414 -0.3689 -0.0962 -0.2943
   90SAPC   O12 8539   3.321   6.293   6.548  0.3166 -0.0448  0.3406
   90SAPC   O11 8540   3.326   6.300   6.288  0.3325  0.1276 -0.3945
   90SAPC    C1 8541   3.229   6.194   6.269 -0.2227 -0.3298 -0.3624
   90SAPC    HA 8542   3.220   6.138   6.364  1.8486 -0.7721 -0.3797
   90SAPC    HB 8543   3.127   6.221   6.235 -1.1814 -2.5372  0.5947
   90SAPC    C2 8544   3.294   6.089   6.170  0.0887  0.3998  0.0100
   90SAPC    HS 8545   3.387   6.058   6.222 -0.9469 -4.2099 -0.4412
   90SAPC   O21 8546   3.306   6.164   6.054  0.2058  0.5651 -0.2072
   90SAPC   C21 8547   3.428   6.155   5.984 -0.1809 -0.0148  0.3587
   90SAPC   O22 8548   3.523   6.085   6.022 -0.7200 -0.3801 -0.0243
   90SAPC   C22 8549   3.415   6.249   5.860 -0.2254 -0.0394  0.1939
   90SAPC   H2R 8550   3.320   6.226   5.807  0.1365  1.3303 -1.1052
   90SAPC   H2S 8551   3.389   6.350   5.899 -0.6589 -0.2424  0.4416
   90SAPC    C3 8552   3.211   5.959   6.138 -0.2024 -0.0198  0.5435
   90SAPC    HX 8553   3.124   5.994   6.079  2.1358  1.4847 -2.2737
   90SAPC    HY 8554   3.177   5.907   6.230  1.4983 -2.5345 -0.1212
   90SAPC   O31 8555   3.290   5.872   6.054 -0.1708 -0.4560 -0.1535
   90SAPC   C31 8556   3.407   5.813   6.098 -0.0824 -0.0649 -0.0392
   90SAPC   O32 8557   3.440   5.823   6.215  0.2153  0.1814  0.5170
   90SAPC   C32 8558   3.493   5.750   5.989 -0.3288  0.4770 -0.3460
   90SAPC   H2X 8559   3.467   5.643   5.980 -3.1545  1.1239 -0.5897
   90SAPC   H2Y 8560   3.600   5.761   6.017 -0.6385  1.6087  0.4578
   90SAPC   C23 8561   3.543   6.229   5.773 -0.4526 -0.2204  0.3021
   90SAPC   H3R 8562   3.624   6.177   5.828  1.1899  0.1534 -1.6390
   90SAPC   H3S 8563   3.582   6.328   5.739 -0.9047  0.3237  1.3036
   90SAPC   C24 8564   3.525   6.159   5.633 -0.0236 -0.0612 -0.2109
   90SAPC   H4R 8565   3.493   6.058   5.666  1.6855  0.1650  2.4488
   90SAPC   H4S 8566   3.624   6.132   5.591  0.1666 -0.8587  0.7243
   90SAPC   C25 8567   3.427   6.230   5.539 -0.1952  0.7614  0.9569
   90SAPC   H5R 8568   3.320   6.213   5.556  0.0986 -3.2739 -0.3113
   90SAPC   C26 8569   3.472   6.295   5.427 -0.3271 -0.6178 -0.7902
   90SAPC   H6R 8570   3.391   6.344   5.369  0.4696  0.7921 -0.7557
   90SAPC   C27 8571   3.611   6.339   5.387  0.2072  0.1349 -0.5729
   90SAPC   H7R 8572   3.635   6.297   5.287  1.5522  1.5452 -0.8808
   90SAPC   H7S 8573   3.677   6.288   5.460 -1.3982  0.8788  1.4906
   90SAPC   C28 8574   3.638   6.484   5.401 -0.4717  0.2313 -0.1184
   90SAPC   H8R 8575   3.619   6.519   5.503  0.9656  0.3334  0.1242
   90SAPC   C29 8576   3.688   6.558   5.301 -0.5754  0.0082 -0.5393
   90SAPC   H9R 8577   3.703   6.665   5.319 -1.6473  0.1640 -0.5258
   90SAPC  C210 8578   3.730   6.526   5.163  0.1525  0.3741  0.2883
   90SAPC  H10R 8579   3.673   6.584   5.086  0.0618 -1.1225 -0.8202
   90SAPC  H10S 8580   3.716   6.419   5.135 -1.5157  0.5682  0.2791
   90SAPC  C211 8581   3.876   6.551   5.153 -0.8158  0.1726 -0.3621
   90SAPC  H11R 8582   3.935   6.497   5.227  1.2761 -0.3100 -2.2699
   90SAPC  C212 8583   3.949   6.637   5.072 -0.0223 -0.1837  0.4875
   90SAPC  H12R 8584   4.057   6.638   5.091 -0.2819 -0.9087  2.1774
   90SAPC  C213 8585   3.897   6.724   4.951  0.1197 -0.5867 -0.6940
   90SAPC  H13R 8586   3.916   6.824   4.996 -0.2587 -1.4068  1.4143
   90SAPC  H13S 8587   3.787   6.721   4.937  0.1285  1.2881 -1.3937
   90SAPC  C214 8588   3.963   6.669   4.830 -0.0124  0.5225  0.3819
   90SAPC  H14R 8589   3.927   6.568   4.806  1.8660 -0.2911  0.7812
   90SAPC  C215 8590   4.040   6.739   4.742 -0.2436 -0.4976 -0.1037
   90SAPC  H15R 8591   4.076   6.698   4.646 -0.8432 -2.0076  0.2870
   90SAPC  C216 8592   4.079   6.885   4.766 -0.1366  0.3034 -0.0742
   90SAPC  H16R 8593   4.177   6.883   4.818  0.4886 -2.4050 -1.1865
   90SAPC  H16S 8594   4.007   6.926   4.840  1.6233  0.2667  1.7575
   90SAPC  C217 8595   4.097   6.981   4.648 -0.2250 -0.6651 -0.2404
   90SAPC  H17R 8596   4.161   6.938   4.568 -0.1862 -0.6311 -0.2280
   90SAPC  H17S 8597   4.143   7.075   4.685 -2.4957  0.1746  0.5858
   90SAPC  C218 8598   3.966   7.028   4.584 -0.2040  0.1240 -0.2814
   90SAPC  H18R 8599   3.892   7.071   4.654 -0.5428 -1.0415  0.0999
   90SAPC  H18S 8600   3.917   6.935   4.547 -0.3284 -0.2895  0.8887
   90SAPC  C219 8601   3.985   7.100   4.448  0.4549 -0.0736  0.0248
   90SAPC  H19R 8602   4.078   7.160   4.466  1.5747 -1.0347 -2.1658
   90SAPC  H19S 8603   3.900   7.165   4.417 -1.3661 -2.0672  0.6179
   90SAPC  C220 8604   3.994   7.005   4.333 -0.1676  0.5478  0.2214
   90SAPC  H20R 8605   3.908   6.935   4.330  1.0410 -1.0711  1.6066
   90SAPC  H20S 8606   4.084   6.940   4.336  0.2438  1.1183  0.3385
   90SAPC  H20T 8607   3.990   7.059   4.235  1.3925  0.2728 -0.0193
   90SAPC   C33 8608   3.470   5.815   5.852 -0.0807  0.4452  0.0468
   90SAPC   H3X 8609   3.508   5.920   5.844 -0.6219  0.7877  1.5936
   90SAPC   H3Y 8610   3.362   5.806   5.829  0.2820  1.1022 -2.2248
   90SAPC   C34 8611   3.539   5.735   5.736  0.0047  0.1636 -0.3017
   90SAPC   H4X 8612   3.619   5.670   5.778 -0.3937 -0.5241 -0.5894
   90SAPC   H4Y 8613   3.580   5.807   5.662 -1.0902  2.6393  1.3665
   90SAPC   C35 8614   3.438   5.642   5.660  0.2105  0.6423  0.2015
   90SAPC   H5X 8615   3.350   5.696   5.621 -0.6441 -0.1237  1.0244
   90SAPC   H5Y 8616   3.403   5.576   5.743 -2.2612  2.1686  0.4613
   90SAPC   C36 8617   3.511   5.571   5.551 -0.4935  0.2163  0.5235
   90SAPC   H6X 8618   3.608   5.524   5.579 -1.0861 -0.5604  1.3469
   90SAPC   H6Y 8619   3.530   5.648   5.474 -0.0862  0.9087  1.3060
   90SAPC   C37 8620   3.429   5.451   5.496  1.0020  0.0990 -0.6265
   90SAPC   H7X 8621   3.335   5.502   5.466  1.2578  0.6871 -0.4565
   90SAPC   H7Y 8622   3.411   5.386   5.584 -1.9955  1.6953  0.0731
   90SAPC   C38 8623   3.501   5.373   5.382  0.3371  0.0296  0.3381
   90SAPC   H8X 8624   3.451   5.276   5.359  0.1578  0.0479  0.6333
   90SAPC   H8Y 8625   3.596   5.346   5.433 -0.8503 -0.4891  2.4296
   90SAPC   C39 8626   3.513   5.445   5.250  0.1163  0.0573  0.6296
   90SAPC   H9X 8627   3.588   5.394   5.186 -1.0233 -2.8374  1.4352
   90SAPC   H9Y 8628   3.565   5.542   5.265  0.2077  0.4372 -1.7500
   90SAPC  C310 8629   3.387   5.463   5.163 -0.1324 -0.3509  0.2817
   90SAPC  H10X 8630   3.334   5.557   5.187 -0.8985 -1.2437  2.3400
   90SAPC  H10Y 8631   3.317   5.377   5.178  0.8122 -1.3443 -0.7909
   90SAPC  C311 8632   3.420   5.474   5.014  0.4637 -0.1906  0.6194
   90SAPC  H11X 8633   3.467   5.383   4.973  1.4096  1.2512 -1.6746
   90SAPC  H11Y 8634   3.491   5.557   4.995  0.6734 -0.5177 -0.0262
   90SAPC  C312 8635   3.290   5.502   4.936 -0.5781 -0.4570  0.8425
   90SAPC  H12X 8636   3.249   5.598   4.973 -2.5046 -1.2676  0.8976
   90SAPC  H12Y 8637   3.214   5.426   4.966 -1.2381  0.4947  1.6331
   90SAPC  C313 8638   3.310   5.509   4.789  0.8979  0.3831  0.6908
   90SAPC  H13X 8639   3.347   5.412   4.751 -1.1444 -0.3796  0.5385
   90SAPC  H13Y 8640   3.372   5.599   4.766 -0.3219  1.3748  1.1230
   90SAPC  C314 8641   3.175   5.523   4.714  0.5931  0.0592 -0.3688
   90SAPC  H14X 8642   3.117   5.609   4.754  1.4272  0.8234 -0.7719
   90SAPC  H14Y 8643   3.115   5.434   4.743  3.2517 -1.1369  1.9771
   90SAPC  C315 8644   3.178   5.556   4.562 -0.3214 -0.0061 -0.0277
   90SAPC  H15X 8645   3.210   5.661   4.547  1.1614 -0.5047 -0.5119
   90SAPC  H15Y 8646   3.073   5.540   4.530 -0.2427 -2.0014  0.5726
   90SAPC  C316 8647   3.262   5.459   4.484  0.1064  0.1648 -0.0744
   90SAPC  H16X 8648   3.227   5.356   4.502 -1.1851  0.5940 -0.0367
   90SAPC  H16Y 8649   3.370   5.471   4.508  0.5440  0.4161 -1.9815
   90SAPC  C317 8650   3.247   5.487   4.331 -0.0233  0.3199 -0.2333
   90SAPC  H17X 8651   3.334   5.433   4.289 -0.3005 -2.3211  2.2897
   90SAPC  H17Y 8652   3.255   5.598   4.318 -2.5194  0.5160 -0.7089
   90SAPC  C318 8653   3.124   5.446   4.252 -0.1508  0.0631  0.1439
   90SAPC  H18X 8654   3.139   5.446   4.142  1.3848 -0.9266  0.3326
   90SAPC  H18Y 8655   3.045   5.521   4.274  0.1950  0.2432  0.7964
   90SAPC  H18Z 8656   3.082   5.348   4.283 -2.3016  1.1992  1.0835
   91SAPC     N 8657   1.052   5.693   7.035  0.0860  0.0254 -0.3610
   91SAPC   C12 8658   1.130   5.703   6.907 -0.6577 -0.7187 -0.2953
   91SAPC  H12A 8659   1.229   5.660   6.920 -0.5159 -0.3183 -0.0426
   91SAPC  H12B 8660   1.156   5.807   6.893 -2.7151 -0.4312 -2.6829
   91SAPC   C13 8661   0.993   5.556   7.060  0.2831 -0.0181  0.3448
   91SAPC  H13A 8662   1.052   5.470   7.034  0.9724  0.9750 -1.4793
   91SAPC  H13B 8663   0.957   5.546   7.162  0.9436  2.3638  0.8709
   91SAPC  H13C 8664   0.895   5.560   7.015 -1.3693 -0.2652  3.5796
   91SAPC   C14 8665   1.141   5.733   7.150  0.4372  0.3370 -0.3706
   91SAPC  H14A 8666   1.086   5.721   7.243 -0.7856 -2.2143 -1.3128
   91SAPC  H14B 8667   1.227   5.670   7.161  0.5282  0.7202  1.5027
   91SAPC  H14C 8668   1.183   5.831   7.135  1.9934 -0.1826  0.4262
   91SAPC   C15 8669   0.937   5.787   7.034 -0.1020  0.1796 -0.0725
   91SAPC  H15A 8670   0.883   5.791   7.127 -2.6078  2.0748 -1.4830
   91SAPC  H15B 8671   0.966   5.885   6.998 -0.8734 -0.3212 -2.2502
   91SAPC  H15C 8672   0.879   5.755   6.948 -0.3697  0.7576 -0.1118
   91SAPC   C11 8673   1.071   5.650   6.781 -0.2135 -0.9689 -0.3350
   91SAPC  H11A 8674   1.051   5.541   6.785 -3.6497 -0.4159  0.3260
   91SAPC  H11B 8675   1.150   5.657   6.702  1.5539  3.1909  1.4670
   91SAPC     P 8676   0.947   5.836   6.652  0.4330  0.1350 -0.0844
   91SAPC   O13 8677   0.812   5.877   6.632 -0.1695 -0.2553  0.1599
   91SAPC   O14 8678   1.040   5.937   6.703  0.1937 -0.1762 -0.4147
   91SAPC   O12 8679   0.946   5.717   6.753  0.6832 -0.1900  0.1346
   91SAPC   O11 8680   1.002   5.778   6.521 -0.7541 -0.3249  0.5662
   91SAPC    C1 8681   0.951   5.662   6.459 -0.3174  0.2221 -0.1509
   91SAPC    HA 8682   1.040   5.620   6.408 -1.8007 -0.5697 -2.2091
   91SAPC    HB 8683   0.931   5.575   6.524  2.8541 -1.3068 -1.0424
   91SAPC    C2 8684   0.851   5.686   6.336 -0.6269  0.3082 -1.1592
   91SAPC    HS 8685   0.858   5.594   6.275 -0.5628 -1.2962  1.1425
   91SAPC   O21 8686   0.890   5.807   6.269 -0.1592  0.2790  0.3985
   91SAPC   C21 8687   0.999   5.799   6.185 -0.2660 -0.0519 -0.3973
   91SAPC   O22 8688   1.063   5.702   6.157  0.2045  0.1701  0.4212
   91SAPC   C22 8689   1.047   5.939   6.153 -0.1158 -0.6410  0.0822
   91SAPC   H2R 8690   0.985   6.014   6.207  1.0053 -1.0748  2.0665
   91SAPC   H2S 8691   1.153   5.950   6.186  0.0246  1.9111 -0.9953
   91SAPC    C3 8692   0.704   5.715   6.379  0.8961 -0.1820  0.3115
   91SAPC    HX 8693   0.714   5.815   6.426  0.4153  0.1526 -0.3016
   91SAPC    HY 8694   0.680   5.648   6.465 -0.1554  0.2298  0.3496
   91SAPC   O31 8695   0.609   5.710   6.270 -0.2875  0.1969 -0.0562
   91SAPC   C31 8696   0.567   5.591   6.245 -0.5778  0.9410  0.0312
   91SAPC   O32 8697   0.589   5.485   6.304  0.8120 -0.4394  0.4446
   91SAPC   C32 8698   0.493   5.591   6.110  0.8200  0.5427  0.6771
   91SAPC   H2X 8699   0.407   5.656   6.138  0.7771 -0.0454  1.9785
   91SAPC   H2Y 8700   0.471   5.486   6.083 -0.2354  0.8451  0.3257
   91SAPC   C23 8701   1.046   5.944   5.998  0.1677 -0.5577  0.5381
   91SAPC   H3R 8702   1.124   5.875   5.960  1.2507  0.1490  1.4140
   91SAPC   H3S 8703   1.083   6.046   5.974 -0.6505  1.1897  5.4241
   91SAPC   C24 8704   0.906   5.926   5.947 -0.2257  0.1626  0.1480
   91SAPC   H4R 8705   0.857   5.831   5.976 -1.4386  0.6970 -0.0772
   91SAPC   H4S 8706   0.925   5.924   5.838 -0.7392 -0.8635  0.0724
   91SAPC   C25 8707   0.819   6.040   5.984  0.4680  0.0332 -0.0507
   91SAPC   H5R 8708   0.752   6.024   6.069 -0.7300  0.0637 -0.9745
   91SAPC   C26 8709   0.793   6.156   5.914  0.5999  0.6198 -0.2267
   91SAPC   H6R 8710   0.721   6.227   5.955  0.1247 -0.7965  1.5225
   91SAPC   C27 8711   0.842   6.197   5.776  0.0230  0.2302 -0.9191
   91SAPC   H7R 8712   0.908   6.121   5.730  1.5648  1.1893 -0.3971
   91SAPC   H7S 8713   0.898   6.293   5.782 -0.4677  0.6111 -2.2609
   91SAPC   C28 8714   0.729   6.214   5.669  0.0128  0.3858 -0.0182
   91SAPC   H8R 8715   0.626   6.189   5.698  0.2661  0.3439  0.8804
   91SAPC   C29 8716   0.750   6.267   5.544  0.0408 -0.1803 -0.4078
   91SAPC   H9R 8717   0.662   6.261   5.479  1.9729 -1.1613 -3.1053
   91SAPC  C210 8718   0.881   6.309   5.482 -0.2982 -0.0256  0.1531
   91SAPC  H10R 8719   0.866   6.332   5.374  0.1239  1.2911  0.3557
   91SAPC  H10S 8720   0.957   6.228   5.481  0.8609  0.9521  1.8818
   91SAPC  C211 8721   0.942   6.431   5.539  0.5108 -0.1464  0.6052
   91SAPC  H11R 8722   0.892   6.487   5.619  1.8168 -0.0690  1.3977
   91SAPC  C212 8723   1.058   6.483   5.497  0.0998  0.3814 -0.5223
   91SAPC  H12R 8724   1.110   6.561   5.554 -0.4886 -0.2360  0.9125
   91SAPC  C213 8725   1.142   6.427   5.388 -0.0975 -0.7314 -0.9194
   91SAPC  H13R 8726   1.083   6.378   5.309 -0.5120 -3.3708  0.8901
   91SAPC  H13S 8727   1.204   6.346   5.432 -0.0749  0.6134  1.7805
   91SAPC  C214 8728   1.219   6.536   5.316  0.1725  0.2952  0.3886
   91SAPC  H14R 8729   1.218   6.634   5.366  0.2972 -0.0768  1.1274
   91SAPC  C215 8730   1.301   6.511   5.204  0.2466 -0.1070  0.2450
   91SAPC  H15R 8731   1.349   6.598   5.156  1.3171  0.8133  2.7777
   91SAPC  C216 8732   1.312   6.382   5.130 -0.9861 -0.5621  0.0041
   91SAPC  H16R 8733   1.302   6.298   5.202 -0.8106  0.2874  1.0437
   91SAPC  H16S 8734   1.416   6.372   5.092 -0.5675 -0.3981  1.0749
   91SAPC  C217 8735   1.213   6.345   5.018 -0.2880 -0.3755  0.3301
   91SAPC  H17R 8736   1.221   6.430   4.947  2.6255 -0.0221  0.9422
   91SAPC  H17S 8737   1.109   6.329   5.053  0.6660 -1.1395  3.0905
   91SAPC  C218 8738   1.257   6.214   4.947  0.3778 -0.5309 -0.2924
   91SAPC  H18R 8739   1.170   6.170   4.892 -0.8250 -1.5048  2.2343
   91SAPC  H18S 8740   1.282   6.142   5.027 -0.6396 -0.6581 -0.0673
   91SAPC  C219 8741   1.379   6.221   4.848 -0.1815  0.2672  0.6792
   91SAPC  H19R 8742   1.463   6.235   4.919 -0.8729 -2.4195  2.1495
   91SAPC  H19S 8743   1.392   6.307   4.778  0.3757  0.0593  0.5190
   91SAPC  C220 8744   1.394   6.078   4.782 -0.9810  1.2967  0.4825
   91SAPC  H20R 8745   1.485   6.083   4.719  0.4031  1.9690  2.4583
   91SAPC  H20S 8746   1.306   6.041   4.725  0.0625 -0.1783 -0.2240
   91SAPC  H20T 8747   1.419   6.002   4.859 -0.0863 -0.0081 -1.0364
   91SAPC   C33 8748   0.576   5.656   5.995 -0.9392 -0.0244 -0.1214
   91SAPC   H3X 8749   0.604   5.758   6.027 -0.6963 -0.3755  0.8032
   91SAPC   H3Y 8750   0.509   5.668   5.907 -1.9209  1.5013  0.8007
   91SAPC   C34 8751   0.708   5.585   5.952 -0.4117 -0.7786 -0.1417
   91SAPC   H4X 8752   0.772   5.579   6.043 -2.3961  1.6158  1.5640
   91SAPC   H4Y 8753   0.762   5.638   5.871 -2.2204 -0.1691 -1.0116
   91SAPC   C35 8754   0.686   5.442   5.899  0.6021 -0.0122 -0.1885
   91SAPC   H5X 8755   0.612   5.388   5.961  4.5003 -1.4040  3.8087
   91SAPC   H5Y 8756   0.782   5.386   5.908  0.4481 -0.1994  0.3018
   91SAPC   C36 8757   0.636   5.436   5.752  0.3751 -0.3069 -0.2093
   91SAPC   H6X 8758   0.549   5.504   5.741 -0.1650 -0.0423  3.9647
   91SAPC   H6Y 8759   0.596   5.335   5.732 -1.8863  0.3567  0.7135
   91SAPC   C37 8760   0.737   5.477   5.648 -0.8334  0.0045  0.2574
   91SAPC   H7X 8761   0.821   5.404   5.650 -1.1934 -0.4217 -0.0887
   91SAPC   H7Y 8762   0.783   5.576   5.669  1.6180 -1.2421  1.1970
   91SAPC   C38 8763   0.671   5.478   5.506 -0.5412  0.2047  0.2867
   91SAPC   H8X 8764   0.592   5.555   5.500 -0.2197  0.4376 -1.7152
   91SAPC   H8Y 8765   0.617   5.384   5.484 -1.2157  0.8356 -0.8864
   91SAPC   C39 8766   0.767   5.524   5.393  0.2814  0.0565 -0.0085
   91SAPC   H9X 8767   0.847   5.450   5.374  1.9703  1.5018  1.1773
   91SAPC   H9Y 8768   0.822   5.618   5.412 -0.5303  1.3968 -3.5100
   91SAPC  C310 8769   0.689   5.555   5.267  0.0230 -0.0157 -0.5659
   91SAPC  H10X 8770   0.609   5.628   5.291  0.3489 -0.5591  2.5768
   91SAPC  H10Y 8771   0.645   5.460   5.230 -0.9372 -0.0493  0.6012
   91SAPC  C311 8772   0.780   5.611   5.153 -0.5177  0.2293  0.5225
   91SAPC  H11X 8773   0.870   5.548   5.137 -0.4249  0.6577 -0.7026
   91SAPC  H11Y 8774   0.815   5.711   5.187  1.4180 -0.6701  1.3019
   91SAPC  C312 8775   0.690   5.624   5.022 -0.2433 -0.5324 -0.5931
   91SAPC  H12X 8776   0.663   5.524   4.983 -1.1724 -0.1977 -0.8268
   91SAPC  H12Y 8777   0.752   5.677   4.946 -2.8689 -0.8086 -3.0672
   91SAPC  C313 8778   0.561   5.711   5.040  0.4196 -0.0756 -0.1023
   91SAPC  H13X 8779   0.596   5.803   5.091  0.0676  0.5992 -1.0449
   91SAPC  H13Y 8780   0.472   5.657   5.081  0.1426 -0.4134 -1.1222
   91SAPC  C314 8781   0.526   5.755   4.899  1.3085  0.6455  0.0903
   91SAPC  H14X 8782   0.606   5.731   4.825  0.6156  2.7638 -1.4532
   91SAPC  H14Y 8783   0.507   5.865   4.900  2.3151  0.8652 -1.2935
   91SAPC  C315 8784   0.392   5.693   4.848  0.0640  0.6527  0.1610
   91SAPC  H15X 8785   0.305   5.760   4.867 -1.3552 -0.4462 -2.0717
   91SAPC  H15Y 8786   0.382   5.594   4.896  2.4742  1.4080  2.5257
   91SAPC  C316 8787   0.389   5.689   4.693 -0.1867 -0.0794  0.4096
   91SAPC  H16X 8788   0.298   5.642   4.651 -0.0837 -0.7417  0.9184
   91SAPC  H16Y 8789   0.475   5.627   4.661  0.1845  0.3294  0.5902
   91SAPC  C317 8790   0.394   5.829   4.630 -0.0864  0.8411  0.0925
   91SAPC  H17X 8791   0.488   5.876   4.667  0.7526 -0.5347 -0.1799
   91SAPC  H17Y 8792   0.306   5.895   4.641 -0.7264  0.2298 -1.0967
   91SAPC  C318 8793   0.410   5.821   4.470 -0.4652 -0.0807 -0.1851
   91SAPC  H18X 8794   0.413   5.921   4.422 -1.8123  0.8808  1.6243
   91SAPC  H18Y 8795   0.317   5.774   4.430 -0.5590 -1.7805  1.8642
   91SAPC  H18Z 8796   0.499   5.758   4.450 -1.6637 -1.8504 -0.2500
   92SAPC     N 8797   6.227   5.459   6.965 -0.2258  0.3404 -0.7339
   92SAPC   C12 8798   6.118   5.526   6.885 -0.0883 -0.1398 -0.2502
   92SAPC  H12A 8799   6.165   5.596   6.817 -2.4424  0.3768 -1.4428
   92SAPC  H12B 8800   6.082   5.601   6.954  0.7819 -1.4107  1.6887
   92SAPC   C13 8801   6.314   5.359   6.890  0.4323  0.4019 -0.3602
   92SAPC  H13A 8802   6.350   5.391   6.793  0.0205  1.0948 -0.2926
   92SAPC  H13B 8803   6.387   5.313   6.954 -0.8750 -1.9257 -0.4447
   92SAPC  H13C 8804   6.244   5.280   6.866 -0.8980  0.4503  2.8283
   92SAPC   C14 8805   6.324   5.561   7.002  0.7965  0.4006 -0.0382
   92SAPC  H14A 8806   6.362   5.619   6.920 -1.1314  0.6262 -0.8261
   92SAPC  H14B 8807   6.283   5.638   7.067  3.4684  2.1819 -0.3260
   92SAPC  H14C 8808   6.399   5.503   7.054 -1.0819 -1.9904  0.1853
   92SAPC   C15 8809   6.170   5.393   7.090  0.1005 -0.4853 -0.8287
   92SAPC  H15A 8810   6.097   5.315   7.074 -1.7890  1.1992 -0.8070
   92SAPC  H15B 8811   6.237   5.368   7.172 -0.9164 -1.5030 -0.2826
   92SAPC  H15C 8812   6.118   5.473   7.141  3.4206  0.6069  1.2517
   92SAPC   C11 8813   6.001   5.446   6.815  0.6782  0.2710 -0.6725
   92SAPC  H11A 8814   5.932   5.525   6.779  1.2652  1.6323  1.0241
   92SAPC  H11B 8815   5.950   5.395   6.900  2.5067  0.8101  0.8078
   92SAPC     P 8816   6.016   5.215   6.713 -0.0634 -0.2497  0.0670
   92SAPC   O13 8817   6.081   5.147   6.824 -0.5585  0.6280  0.6472
   92SAPC   O14 8818   5.868   5.214   6.720 -0.0694  0.2376 -0.4415
   92SAPC   O12 8819   6.053   5.367   6.715  0.1781 -0.4528 -0.6744
   92SAPC   O11 8820   6.068   5.154   6.568  0.6855  0.2132 -0.4718
   92SAPC    C1 8821   6.199   5.177   6.514  0.0364 -0.0750 -0.6477
   92SAPC    HA 8822   6.260   5.240   6.582 -0.3302  2.4102 -2.4832
   92SAPC    HB 8823   6.250   5.079   6.502  1.1679  0.6096 -1.7216
   92SAPC    C2 8824   6.181   5.249   6.380 -0.3025  0.3371 -0.1987
   92SAPC    HS 8825   6.117   5.339   6.389 -0.5107  0.3126 -1.3161
   92SAPC   O21 8826   6.114   5.152   6.295 -0.2705  0.1478 -0.2254
   92SAPC   C21 8827   6.045   5.206   6.202  0.0200  0.2741  0.2496
   92SAPC   O22 8828   6.040   5.326   6.173 -0.0381 -0.3603 -0.3177
   92SAPC   C22 8829   5.975   5.095   6.119  0.0734 -0.8558  0.1717
   92SAPC   H2R 8830   6.048   5.011   6.117  0.7335 -0.2865 -0.3540
   92SAPC   H2S 8831   5.890   5.056   6.179  0.2324 -0.4251  0.6959
   92SAPC    C3 8832   6.320   5.281   6.319 -0.1301  0.0304  0.2159
   92SAPC    HX 8833   6.354   5.369   6.378 -0.3214  0.3902 -0.2089
   92SAPC    HY 8834   6.293   5.314   6.217 -0.3631 -3.6592 -1.0422
   92SAPC   O31 8835   6.419   5.172   6.316 -0.1110 -0.3606 -0.2649
   92SAPC   C31 8836   6.439   5.109   6.202 -0.1854  0.2185 -0.0118
   92SAPC   O32 8837   6.363   5.108   6.110 -0.1164 -0.5033 -0.0900
   92SAPC   C32 8838   6.563   5.021   6.212  0.2676  0.2270  0.2195
   92SAPC   H2X 8839   6.531   4.937   6.277 -0.2664 -0.4611 -0.8989
   92SAPC   H2Y 8840   6.647   5.080   6.254  0.7225 -0.5160  0.3743
   92SAPC   C23 8841   5.942   5.141   5.978 -0.0400  0.1257 -0.3727
   92SAPC   H3R 8842   5.873   5.227   5.995 -2.4137 -2.1266  2.4628
   92SAPC   H3S 8843   5.869   5.070   5.934 -0.5351 -0.9647  2.0741
   92SAPC   C24 8844   6.062   5.171   5.889 -0.4415  0.7182  0.0780
   92SAPC   H4R 8845   6.136   5.231   5.946  1.1485 -1.8311  0.8215
   92SAPC   H4S 8846   6.043   5.237   5.801  0.0299  0.4046 -0.2621
   92SAPC   C25 8847   6.137   5.050   5.844 -0.4675  0.1521  0.5855
   92SAPC   H5R 8848   6.211   5.006   5.912  1.1624  0.4720 -0.9119
   92SAPC   C26 8849   6.134   4.989   5.722 -0.4811 -0.1632  0.3111
   92SAPC   H6R 8850   6.214   4.916   5.705  0.5685  1.2852 -1.2655
   92SAPC   C27 8851   6.056   5.029   5.594 -0.3610  0.0482 -0.0054
   92SAPC   H7R 8852   6.094   5.128   5.560  0.0557 -0.2977 -0.5620
   92SAPC   H7S 8853   5.950   5.056   5.614 -0.9562  0.9761 -3.5870
   92SAPC   C28 8854   6.058   4.928   5.488  0.7413  0.0532  0.3321
   92SAPC   H8R 8855   5.973   4.860   5.502 -0.5675  0.8925 -2.7078
   92SAPC   C29 8856   6.143   4.929   5.381 -0.2226 -0.0634  1.2873
   92SAPC   H9R 8857   6.119   4.847   5.311  0.7762 -1.4469  2.5000
   92SAPC  C210 8858   6.263   5.015   5.363 -0.4055 -1.2684 -0.2269
   92SAPC  H10R 8859   6.354   4.951   5.368  2.1591  1.8994 -2.5130
   92SAPC  H10S 8860   6.273   5.091   5.443  1.9428  0.1695 -1.7721
   92SAPC  C211 8861   6.268   5.092   5.233  0.1880  0.8513  0.8945
   92SAPC  H11R 8862   6.268   5.200   5.250 -0.7120  0.8539  0.9158
   92SAPC  C212 8863   6.268   5.046   5.110 -0.0278 -0.4297 -0.0087
   92SAPC  H12R 8864   6.263   5.122   5.031 -0.0322 -0.8457 -0.4146
   92SAPC  C213 8865   6.273   4.907   5.065 -0.7779 -0.0360  0.2957
   92SAPC  H13R 8866   6.285   4.834   5.149 -0.7845 -1.4280 -0.8729
   92SAPC  H13S 8867   6.361   4.887   5.000 -1.2308 -1.0354 -0.0354
   92SAPC  C214 8868   6.152   4.867   4.986 -0.0338 -0.2038 -0.0227
   92SAPC  H14R 8869   6.077   4.810   5.042  0.9915 -0.2426  1.3461
   92SAPC  C215 8870   6.129   4.896   4.851 -0.8382  0.1991 -0.1602
   92SAPC  H15R 8871   6.040   4.848   4.808 -1.9144  1.3696  0.6954
   92SAPC  C216 8872   6.211   4.974   4.747  0.3651  0.7441 -0.6024
   92SAPC  H16R 8873   6.195   4.929   4.647 -0.1478 -1.2939  0.3620
   92SAPC  H16S 8874   6.318   4.962   4.773  0.1488 -0.6866 -0.3064
   92SAPC  C217 8875   6.179   5.126   4.723  0.0030 -0.5749 -0.2895
   92SAPC  H17R 8876   6.264   5.181   4.677 -0.5695  1.4147  0.9186
   92SAPC  H17S 8877   6.167   5.169   4.825 -1.3725  1.6860 -1.3507
   92SAPC  C218 8878   6.048   5.141   4.655 -0.5008 -0.4228  0.0529
   92SAPC  H18R 8879   5.975   5.070   4.699 -2.4315  0.5195 -1.4345
   92SAPC  H18S 8880   6.068   5.121   4.548  1.0778  1.6159 -0.1108
   92SAPC  C219 8881   5.999   5.285   4.652 -0.7212  0.3852 -0.1056
   92SAPC  H19R 8882   6.082   5.356   4.636  2.6484 -3.2062 -0.0640
   92SAPC  H19S 8883   5.956   5.306   4.752  2.7114 -3.0399  2.4169
   92SAPC  C220 8884   5.879   5.304   4.560  0.2308  0.2302 -0.6865
   92SAPC  H20R 8885   5.832   5.404   4.577  0.9837  0.4251  0.2893
   92SAPC  H20S 8886   5.806   5.220   4.558  0.2388  0.2218 -0.6181
   92SAPC  H20T 8887   5.908   5.313   4.453  0.9849  0.0838 -0.4980
   92SAPC   C33 8888   6.603   4.960   6.076 -0.0661  0.1980  0.8755
   92SAPC   H3X 8889   6.518   4.901   6.033  0.8567 -0.2001 -0.4709
   92SAPC   H3Y 8890   6.666   4.870   6.092 -0.6014 -0.5797 -1.0235
   92SAPC   C34 8891   6.650   5.054   5.961 -0.5443  0.0281  0.1535
   92SAPC   H4X 8892   6.757   5.075   5.981 -0.5465  3.1441 -2.3137
   92SAPC   H4Y 8893   6.585   5.143   5.949 -0.5056  0.0117 -0.1892
   92SAPC   C35 8894   6.659   4.963   5.841  0.3691  0.2715 -0.8414
   92SAPC   H5X 8895   6.557   4.930   5.815 -0.0096  0.1196  0.7583
   92SAPC   H5Y 8896   6.715   4.871   5.866 -0.7653  0.3931  2.5524
   92SAPC   C36 8897   6.706   5.041   5.715  0.1813  0.0123 -0.3645
   92SAPC   H6X 8898   6.814   5.060   5.731  0.2902 -1.2954  0.6077
   92SAPC   H6Y 8899   6.647   5.135   5.708  0.9684  0.5245 -0.2590
   92SAPC   C37 8900   6.677   4.974   5.583  0.0175  0.2432  0.4669
   92SAPC   H7X 8901   6.567   4.965   5.566  0.1807  0.8086 -1.1376
   92SAPC   H7Y 8902   6.718   4.871   5.570 -0.8243 -0.5270  3.3076
   92SAPC   C38 8903   6.734   5.057   5.463 -0.2482  0.4605  0.5314
   92SAPC   H8X 8904   6.835   5.015   5.441 -0.1470 -0.8042  3.0760
   92SAPC   H8Y 8905   6.734   5.165   5.488 -1.5334  0.2135  1.7051
   92SAPC   C39 8906   6.650   5.043   5.332  0.0064  0.3840 -1.0767
   92SAPC   H9X 8907   6.558   5.100   5.354  0.8370  0.8702  1.4379
   92SAPC   H9Y 8908   6.617   4.937   5.326 -1.9040  0.9065 -0.4277
   92SAPC  C310 8909   6.733   5.082   5.212  0.5128  0.2379  0.6046
   92SAPC  H10X 8910   6.794   4.996   5.177 -2.6379 -2.1400  0.5151
   92SAPC  H10Y 8911   6.798   5.171   5.228  0.3820  0.0421  2.3376
   92SAPC  C311 8912   6.637   5.116   5.091 -0.2483  0.6929 -0.3604
   92SAPC  H11X 8913   6.553   5.179   5.127 -0.3248  0.1872  0.3749
   92SAPC  H11Y 8914   6.602   5.017   5.055  0.9795 -0.8932  2.4624
   92SAPC  C312 8915   6.713   5.198   4.985  0.1174  0.5649 -0.3339
   92SAPC  H12X 8916   6.815   5.229   5.015  0.6565  0.1697 -1.6545
   92SAPC  H12Y 8917   6.659   5.293   4.965 -1.3195 -0.2355 -0.3553
   92SAPC  C313 8918   6.727   5.131   4.846 -0.3667  0.3173  0.5964
   92SAPC  H13X 8919   6.760   5.026   4.861  1.3073  0.8807  0.9931
   92SAPC  H13Y 8920   6.813   5.174   4.792 -1.0151  0.1927 -0.5834
   92SAPC  C314 8921   6.602   5.135   4.761  0.4386  0.0452 -0.0636
   92SAPC  H14X 8922   6.566   5.240   4.752 -2.1807 -0.6533  1.1420
   92SAPC  H14Y 8923   6.521   5.086   4.818 -0.0963 -0.4493 -1.2101
   92SAPC  C315 8924   6.610   5.074   4.618  0.7182  0.7275 -0.0923
   92SAPC  H15X 8925   6.692   5.125   4.563 -0.4413  0.7623 -1.8551
   92SAPC  H15Y 8926   6.516   5.111   4.572  0.3544 -0.9023 -0.7134
   92SAPC  C316 8927   6.622   4.919   4.625  1.1507 -0.1409 -0.0602
   92SAPC  H16X 8928   6.546   4.884   4.698  0.5385  2.8178  0.8863
   92SAPC  H16Y 8929   6.728   4.900   4.653  1.7052 -0.7900 -2.4272
   92SAPC  C317 8930   6.592   4.853   4.490  0.1476 -0.0053 -0.2909
   92SAPC  H17X 8931   6.640   4.752   4.491  3.0871  1.2919  1.0745
   92SAPC  H17Y 8932   6.651   4.905   4.411 -1.1288 -0.4975 -1.6200
   92SAPC  C318 8933   6.454   4.848   4.440  0.6965  0.0559  0.4542
   92SAPC  H18X 8934   6.399   4.944   4.430 -0.1818 -0.5916 -1.6824
   92SAPC  H18Y 8935   6.401   4.789   4.518 -2.3338  0.6629 -0.9988
   92SAPC  H18Z 8936   6.440   4.790   4.346  2.3462 -0.2418  0.3629
   93SAPC     N 8937   1.420   6.406   6.646 -0.1077  0.7443 -0.0026
   93SAPC   C12 8938   1.378   6.456   6.777  0.2075 -0.1654  0.3497
   93SAPC  H12A 8939   1.337   6.556   6.773  0.9898  0.1248 -1.3473
   93SAPC  H12B 8940   1.462   6.455   6.844  0.5008  1.0485  0.0364
   93SAPC   C13 8941   1.459   6.260   6.655 -0.4952  0.1527  0.3490
   93SAPC  H13A 8942   1.376   6.212   6.705  0.9473  0.4388  3.2460
   93SAPC  H13B 8943   1.477   6.215   6.559  0.0142  0.3968  0.3271
   93SAPC  H13C 8944   1.539   6.246   6.726  2.0055  0.4389 -2.2186
   93SAPC   C14 8945   1.322   6.413   6.538 -0.5639 -0.9258  0.1398
   93SAPC  H14A 8946   1.226   6.371   6.565 -0.9626 -0.4495 -0.5039
   93SAPC  H14B 8947   1.308   6.518   6.520 -1.5532 -0.4213  3.2455
   93SAPC  H14C 8948   1.354   6.361   6.449  0.0443  1.7757 -1.3354
   93SAPC   C15 8949   1.541   6.491   6.600  0.0724  0.0541 -0.7171
   93SAPC  H15A 8950   1.500   6.587   6.573 -0.6434 -0.2518 -0.7419
   93SAPC  H15B 8951   1.615   6.506   6.677 -0.2462 -1.0485 -0.1779
   93SAPC  H15C 8952   1.589   6.447   6.514 -1.1395  0.5192 -1.6565
   93SAPC   C11 8953   1.260   6.368   6.840  0.0408  0.1038  0.2533
   93SAPC  H11A 8954   1.229   6.419   6.934  1.6344 -0.3315  1.0524
   93SAPC  H11B 8955   1.307   6.270   6.862 -0.1161 -0.2329 -0.8641
   93SAPC     P 8956   1.038   6.454   6.737  0.3603  0.6486 -0.6420
   93SAPC   O13 8957   0.905   6.390   6.747 -0.0338  0.7609  0.1044
   93SAPC   O14 8958   1.060   6.568   6.835  0.8567  0.5880 -0.0053
   93SAPC   O12 8959   1.151   6.341   6.752  0.7823  0.6237  0.1157
   93SAPC   O11 8960   1.068   6.504   6.587 -0.2549  0.2224  0.2332
   93SAPC    C1 8961   0.978   6.453   6.486  0.3369  0.2730 -0.2872
   93SAPC    HA 8962   0.970   6.343   6.495  0.7942  0.2292 -0.3573
   93SAPC    HB 8963   0.875   6.493   6.490  0.2357  0.2118 -1.6940
   93SAPC    C2 8964   1.038   6.481   6.342  0.2339  0.4140  0.3806
   93SAPC    HS 8965   1.133   6.423   6.336  0.1443  0.3543 -0.6155
   93SAPC   O21 8966   1.045   6.622   6.329  0.1113 -0.8334 -0.6028
   93SAPC   C21 8967   1.154   6.670   6.259 -0.2288  0.6454 -0.1852
   93SAPC   O22 8968   1.247   6.600   6.218 -0.2727  0.1694  0.3751
   93SAPC   C22 8969   1.142   6.818   6.225  0.2528 -0.3486 -0.7931
   93SAPC   H2R 8970   1.034   6.831   6.203  0.0110  0.6972  0.7688
   93SAPC   H2S 8971   1.174   6.876   6.314 -2.4997  0.0115  0.0762
   93SAPC    C3 8972   0.944   6.413   6.240  0.3081 -0.0637  0.2276
   93SAPC    HX 8973   0.844   6.460   6.252  0.1786 -0.6239  1.4935
   93SAPC    HY 8974   0.924   6.308   6.271 -0.9134  0.4709  1.3438
   93SAPC   O31 8975   0.984   6.422   6.103 -0.1989  0.0065  0.3918
   93SAPC   C31 8976   1.100   6.353   6.074 -0.1595 -0.2445  0.1911
   93SAPC   O32 8977   1.148   6.255   6.130 -0.2621 -0.4686  0.0703
   93SAPC   C32 8978   1.147   6.406   5.937  0.4463 -0.2926  0.2720
   93SAPC   H2X 8979   1.113   6.511   5.932 -1.4987 -0.8841 -0.0336
   93SAPC   H2Y 8980   1.103   6.358   5.847  0.2416  1.2953 -0.5007
   93SAPC   C23 8981   1.223   6.848   6.098  0.3282 -0.2256  0.8835
   93SAPC   H3R 8982   1.177   6.787   6.017 -3.3203  1.4788  1.4935
   93SAPC   H3S 8983   1.331   6.821   6.107  0.6700  0.6607 -0.3784
   93SAPC   C24 8984   1.214   6.995   6.042 -0.0285  0.0802 -0.0764
   93SAPC   H4R 8985   1.293   6.999   5.963 -1.9805  1.3823 -2.1018
   93SAPC   H4S 8986   1.249   7.058   6.126 -1.0585 -0.1258  0.5160
   93SAPC   C25 8987   1.075   7.017   5.994 -0.0235 -0.3601  0.1970
   93SAPC   H5R 8988   1.008   7.039   6.079  0.4081  0.4114  0.3498
   93SAPC   C26 8989   1.026   7.018   5.869  0.1034 -0.0682  0.1749
   93SAPC   H6R 8990   0.917   7.008   5.852  0.2095  0.5966 -0.9555
   93SAPC   C27 8991   1.103   7.007   5.741 -1.0096 -0.0753 -0.2067
   93SAPC   H7R 8992   1.037   6.972   5.659  0.3522 -0.6798 -1.0914
   93SAPC   H7S 8993   1.186   6.935   5.757 -2.0858 -1.5175 -0.9100
   93SAPC   C28 8994   1.174   7.128   5.686 -0.3032  0.0741 -0.1064
   93SAPC   H8R 8995   1.200   7.206   5.759  1.8765  0.7702 -1.5322
   93SAPC   C29 8996   1.213   7.143   5.560 -0.5126 -0.4540  0.4655
   93SAPC   H9R 8997   1.276   7.230   5.533 -2.1384  0.2808 -1.1258
   93SAPC  C210 8998   1.194   7.064   5.436 -0.1143  1.0595  0.2539
   93SAPC  H10R 8999   1.086   7.039   5.422 -0.3700  1.9242  0.6216
   93SAPC  H10S 9000   1.233   6.962   5.458  0.2465  1.1343 -0.0388
   93SAPC  C211 9001   1.262   7.114   5.310  0.6907 -0.2367  0.3400
   93SAPC  H11R 9002   1.275   7.223   5.307 -0.7194 -0.0496 -2.4473
   93SAPC  C212 9003   1.290   7.043   5.199  0.1506  0.0043  0.2205
   93SAPC  H12R 9004   1.339   7.091   5.113 -0.5676 -0.5790 -0.5295
   93SAPC  C213 9005   1.244   6.903   5.172 -0.1858 -0.1797 -0.4180
   93SAPC  H13R 9006   1.203   6.873   5.270  4.4810  1.0371  2.1928
   93SAPC  H13S 9007   1.332   6.836   5.163 -0.2691 -0.3856  0.2950
   93SAPC  C214 9008   1.146   6.892   5.055  0.2749 -0.3725 -1.4560
   93SAPC  H14R 9009   1.054   6.950   5.070  0.3118  0.1541 -3.0098
   93SAPC  C215 9010   1.170   6.818   4.947  0.2517  0.3346  0.5341
   93SAPC  H15R 9011   1.089   6.802   4.874  0.3490 -0.4985  0.5961
   93SAPC  C216 9012   1.290   6.747   4.898 -0.5530  0.3363 -0.8102
   93SAPC  H16R 9013   1.274   6.647   4.944  0.6969  0.0984 -0.8728
   93SAPC  H16S 9014   1.383   6.783   4.947 -1.8453 -1.4184  3.4372
   93SAPC  C217 9015   1.329   6.756   4.752  0.5756 -0.3789 -0.6390
   93SAPC  H17R 9016   1.357   6.863   4.737 -1.8325  1.0894  3.5335
   93SAPC  H17S 9017   1.250   6.735   4.677  0.1357 -3.1339  0.4755
   93SAPC  C218 9018   1.452   6.673   4.723  0.2421  0.5415  0.2721
   93SAPC  H18R 9019   1.430   6.564   4.733  0.9933  0.2686 -0.8809
   93SAPC  H18S 9020   1.527   6.703   4.800 -0.4173 -0.0408  1.1703
   93SAPC  C219 9021   1.513   6.696   4.586 -0.5385  0.2658 -0.0953
   93SAPC  H19R 9022   1.624   6.687   4.593 -0.4661  1.0690 -0.1447
   93SAPC  H19S 9023   1.508   6.803   4.557  1.4337  0.2749 -0.5362
   93SAPC  C220 9024   1.469   6.609   4.474  0.3393 -0.0149  0.4177
   93SAPC  H20R 9025   1.364   6.638   4.449  0.2513 -1.9449 -1.7852
   93SAPC  H20S 9026   1.468   6.502   4.505  0.8009 -0.1703 -0.1035
   93SAPC  H20T 9027   1.525   6.618   4.379 -0.2869 -1.6126 -0.1383
   93SAPC   C33 9028   1.298   6.426   5.919  0.1149 -0.6332 -0.0065
   93SAPC   H3X 9029   1.353   6.343   5.968 -1.2153 -3.0610 -2.4022
   93SAPC   H3Y 9030   1.323   6.523   5.968  0.2841 -0.2783 -0.7702
   93SAPC   C34 9031   1.340   6.433   5.773 -0.3368  0.0455  0.3308
   93SAPC   H4X 9032   1.303   6.533   5.740 -1.4593 -0.5744 -0.3182
   93SAPC   H4Y 9033   1.299   6.350   5.713  2.1053 -1.1786  0.2299
   93SAPC   C35 9034   1.498   6.428   5.762  0.4313  0.0935 -0.0464
   93SAPC   H5X 9035   1.520   6.333   5.816  0.2198  0.5449  0.8469
   93SAPC   H5Y 9036   1.536   6.505   5.831 -1.9942 -0.0794  1.5988
   93SAPC   C36 9037   1.546   6.430   5.620 -0.6048 -0.4984  0.1593
   93SAPC   H6X 9038   1.656   6.448   5.617 -0.9470  1.8086 -0.8392
   93SAPC   H6Y 9039   1.490   6.511   5.570 -3.5582 -1.7241  1.2685
   93SAPC   C37 9040   1.520   6.311   5.534  0.0505  0.4958  0.2872
   93SAPC   H7X 9041   1.411   6.297   5.518  0.2460  0.9922 -1.7292
   93SAPC   H7Y 9042   1.561   6.222   5.586  0.1393  0.7780  0.7107
   93SAPC   C38 9043   1.593   6.316   5.399 -0.1514  0.0421 -0.0902
   93SAPC   H8X 9044   1.700   6.348   5.402  0.5616 -2.0913 -0.9061
   93SAPC   H8Y 9045   1.549   6.393   5.331 -0.6686 -1.4320 -1.4876
   93SAPC   C39 9046   1.596   6.174   5.333 -0.9966  0.5312 -0.3372
   93SAPC   H9X 9047   1.490   6.151   5.308 -0.7113  0.3322 -1.3872
   93SAPC   H9Y 9048   1.632   6.095   5.403  0.5019 -0.8731 -2.5640
   93SAPC  C310 9049   1.685   6.167   5.208  0.7193  0.1179  0.1208
   93SAPC  H10X 9050   1.788   6.203   5.228  1.1960 -0.7884 -0.5895
   93SAPC  H10Y 9051   1.634   6.222   5.127 -0.2448  1.4829  1.5929
   93SAPC  C311 9052   1.711   6.025   5.157  0.8680 -0.6494  0.7717
   93SAPC  H11X 9053   1.618   5.965   5.174 -0.9461  1.8218  0.1870
   93SAPC  H11Y 9054   1.790   5.981   5.220 -0.6693  1.8994  4.8887
   93SAPC  C312 9055   1.726   6.023   5.009  0.8401 -0.3912  0.5585
   93SAPC  H12X 9056   1.818   6.076   4.976 -0.0298 -0.2614 -1.8132
   93SAPC  H12Y 9057   1.650   6.085   4.956  2.5423  0.7761 -0.6090
   93SAPC  C313 9058   1.718   5.880   4.941 -0.8487 -0.4009 -0.8750
   93SAPC  H13X 9059   1.617   5.835   4.942 -1.2369  0.4504  0.7521
   93SAPC  H13Y 9060   1.784   5.807   4.994 -2.0182 -0.7063  0.2074
   93SAPC  C314 9061   1.778   5.877   4.798 -0.9513 -0.6089 -0.6164
   93SAPC  H14X 9062   1.868   5.942   4.790 -1.9730  0.7572 -1.4744
   93SAPC  H14Y 9063   1.700   5.933   4.741 -2.3954 -0.2082  1.6152
   93SAPC  C315 9064   1.789   5.738   4.741 -0.2141  0.0059  0.7186
   93SAPC  H15X 9065   1.690   5.687   4.752  0.7689 -2.5058 -1.0541
   93SAPC  H15Y 9066   1.860   5.680   4.804  0.6471  0.1281 -0.1256
   93SAPC  C316 9067   1.832   5.722   4.592 -0.4476  0.1906 -0.3871
   93SAPC  H16X 9068   1.937   5.758   4.583  0.4123 -1.6378  1.4784
   93SAPC  H16Y 9069   1.770   5.782   4.522 -0.5243 -1.6301 -1.9820
   93SAPC  C317 9070   1.831   5.578   4.538 -0.3047 -0.3263 -0.1928
   93SAPC  H17X 9071   1.722   5.554   4.540 -1.0744  2.7431  0.9397
   93SAPC  H17Y 9072   1.899   5.522   4.605  3.3781  0.4962 -2.9560
   93SAPC  C318 9073   1.883   5.567   4.398 -0.1630  0.2917  0.4058
   93SAPC  H18X 9074   1.993   5.584   4.395  0.0130 -0.6639  0.9351
   93SAPC  H18Y 9075   1.828   5.629   4.324  2.7350  0.4993 -1.7549
   93SAPC  H18Z 9076   1.864   5.467   4.354 -4.5691  1.6386 -1.3460
   94SAPC     N 9077   0.437   4.452   6.726 -0.0352 -0.4976  0.3099
   94SAPC   C12 9078   0.442   4.576   6.637 -0.1269 -0.1174 -0.3514
   94SAPC  H12A 9079   0.522   4.568   6.565  0.0455 -1.2317 -0.0544
   94SAPC  H12B 9080   0.463   4.664   6.695 -0.3527  0.1337 -0.6431
   94SAPC   C13 9081   0.402   4.343   6.642  0.7017  0.3839 -0.4279
   94SAPC  H13A 9082   0.419   4.255   6.703  1.1995  0.7599 -0.0202
   94SAPC  H13B 9083   0.297   4.336   6.621  0.4019 -0.0629  1.1057
   94SAPC  H13C 9084   0.464   4.342   6.553  1.3580  1.5820 -0.0033
   94SAPC   C14 9085   0.570   4.430   6.779  0.4944 -0.5819 -0.8130
   94SAPC  H14A 9086   0.653   4.409   6.714  1.7200  1.1815  0.1022
   94SAPC  H14B 9087   0.597   4.520   6.833 -1.1154 -0.2888 -0.4546
   94SAPC  H14C 9088   0.568   4.348   6.850  3.1284  0.3771  0.5148
   94SAPC   C15 9089   0.340   4.466   6.839  0.3021  0.0867  0.0090
   94SAPC  H15A 9090   0.251   4.515   6.801  0.5646  2.0639  1.7715
   94SAPC  H15B 9091   0.316   4.368   6.877 -0.1314 -0.6599 -2.0762
   94SAPC  H15C 9092   0.382   4.529   6.916  3.2949 -2.5106  0.6876
   94SAPC   C11 9093   0.318   4.615   6.547 -0.3065  0.1712 -0.1550
   94SAPC  H11A 9094   0.291   4.539   6.470 -0.4739  0.0039  0.0662
   94SAPC  H11B 9095   0.349   4.706   6.492  1.3970  0.4387  1.1650
   94SAPC     P 9096   0.145   4.776   6.670 -0.2316  0.4186  0.3566
   94SAPC   O13 9097   0.050   4.743   6.785  0.3643 -0.2025  0.7525
   94SAPC   O14 9098   0.252   4.873   6.696  0.2025 -0.1931 -0.5495
   94SAPC   O12 9099   0.200   4.637   6.626 -0.1927  0.5561 -0.0437
   94SAPC   O11 9100   0.068   4.822   6.536 -0.3582  0.1002 -0.0049
   94SAPC    C1 9101  -0.027   4.746   6.464  0.3216 -0.0927  0.2248
   94SAPC    HA 9102  -0.065   4.658   6.519  0.1298 -0.7291 -0.8885
   94SAPC    HB 9103  -0.116   4.807   6.441  0.7374  1.2553  1.9763
   94SAPC    C2 9104   0.016   4.710   6.321  0.7000  0.1502  0.4964
   94SAPC    HS 9105   0.115   4.660   6.329  1.3740  1.3387 -0.0873
   94SAPC   O21 9106   0.018   4.829   6.233 -0.3395 -0.0059 -0.3821
   94SAPC   C21 9107   0.122   4.908   6.236 -0.0618  0.5925 -0.2154
   94SAPC   O22 9108   0.218   4.903   6.313  0.8540 -0.4336 -0.0770
   94SAPC   C22 9109   0.098   5.028   6.143 -0.8304 -0.3833  0.3864
   94SAPC   H2R 9110   0.119   5.004   6.037 -1.6765  0.4032  0.0244
   94SAPC   H2S 9111  -0.008   5.059   6.149 -0.6041  0.4241  0.3151
   94SAPC    C3 9112  -0.091   4.605   6.267 -0.1335  0.0786  0.2359
   94SAPC    HX 9113  -0.192   4.635   6.303 -0.2901 -2.3123  2.0363
   94SAPC    HY 9114  -0.081   4.509   6.322 -1.1093 -1.2013 -1.6778
   94SAPC   O31 9115  -0.086   4.594   6.123 -0.2938 -0.0130 -0.3863
   94SAPC   C31 9116  -0.017   4.502   6.064 -0.3190  0.1270 -0.7881
   94SAPC   O32 9117   0.063   4.428   6.120 -0.0046  0.3164 -0.7191
   94SAPC   C32 9118  -0.057   4.490   5.921  0.2063 -0.6929  0.3886
   94SAPC   H2X 9119   0.019   4.441   5.857 -0.2280  0.5878 -1.2097
   94SAPC   H2Y 9120  -0.067   4.593   5.878 -0.2191 -0.2237  1.5596
   94SAPC   C23 9121   0.187   5.147   6.180  0.4637  0.3987 -0.0148
   94SAPC   H3R 9122   0.270   5.117   6.248  0.5996 -2.1344 -1.2113
   94SAPC   H3S 9123   0.117   5.211   6.238 -0.5103 -2.3077  2.0205
   94SAPC   C24 9124   0.246   5.217   6.067 -0.4628  0.4064  0.7738
   94SAPC   H4R 9125   0.292   5.312   6.103 -0.3775 -0.0115  1.8280
   94SAPC   H4S 9126   0.170   5.250   5.994  1.7420 -0.5352 -2.1347
   94SAPC   C25 9127   0.353   5.130   5.999  0.4082  0.2691  0.0089
   94SAPC   H5R 9128   0.422   5.083   6.071  1.3177 -0.7601 -1.4720
   94SAPC   C26 9129   0.373   5.110   5.864  0.4658 -0.1819 -0.4104
   94SAPC   H6R 9130   0.446   5.034   5.833 -0.0078 -0.2001 -1.5223
   94SAPC   C27 9131   0.281   5.169   5.760 -0.1008  0.1635  0.3948
   94SAPC   H7R 9132   0.289   5.280   5.752  2.1932  0.0413  0.2256
   94SAPC   H7S 9133   0.177   5.155   5.796  0.4945 -0.8023  1.8272
   94SAPC   C28 9134   0.304   5.105   5.630 -0.0415 -0.3871  1.3669
   94SAPC   H8R 9135   0.333   4.999   5.636  2.0567  0.0250 -0.1773
   94SAPC   C29 9136   0.285   5.153   5.502  0.6528 -0.0906 -0.0513
   94SAPC   H9R 9137   0.311   5.093   5.414  1.2137  0.1074 -0.0238
   94SAPC  C210 9138   0.236   5.296   5.466  0.1256  0.2698  0.4862
   94SAPC  H10R 9139   0.224   5.370   5.548  1.0489  2.7806 -1.5236
   94SAPC  H10S 9140   0.139   5.281   5.414  1.1217 -0.7778 -1.1702
   94SAPC  C211 9141   0.336   5.363   5.379 -0.0373  0.2733 -0.0363
   94SAPC  H11R 9142   0.411   5.427   5.430  0.8612 -1.4010  0.8382
   94SAPC  C212 9143   0.345   5.367   5.249  0.7604  0.3265  0.2380
   94SAPC  H12R 9144   0.434   5.419   5.209  1.5201 -0.6925  0.5663
   94SAPC  C213 9145   0.272   5.285   5.154 -0.1264  1.3827 -0.0639
   94SAPC  H13R 9146   0.173   5.255   5.195 -0.1404 -0.5920 -1.3928
   94SAPC  H13S 9147   0.333   5.195   5.131  1.5466  1.1658  4.3011
   94SAPC  C214 9148   0.241   5.352   5.022 -0.0198  0.4212  0.1730
   94SAPC  H14R 9149   0.156   5.421   5.026  0.1141  0.5759  0.3755
   94SAPC  C215 9150   0.295   5.317   4.900 -0.3120 -0.3893  0.7307
   94SAPC  H15R 9151   0.245   5.375   4.821  0.7988  0.7930  0.8595
   94SAPC  C216 9152   0.393   5.202   4.855  0.1352  0.1974  0.0892
   94SAPC  H16R 9153   0.416   5.133   4.939  0.6439  0.4235  0.1377
   94SAPC  H16S 9154   0.489   5.251   4.827 -0.4128  0.6808 -1.0046
   94SAPC  C217 9155   0.330   5.107   4.751  0.9275 -0.1974  0.0868
   94SAPC  H17R 9156   0.230   5.068   4.780  1.0392 -0.7757 -0.2939
   94SAPC  H17S 9157   0.402   5.027   4.722 -1.4014 -1.4731 -2.6504
   94SAPC  C218 9158   0.298   5.168   4.612 -0.2145 -1.0240  0.6267
   94SAPC  H18R 9159   0.390   5.191   4.555 -1.1126  0.9193 -0.1348
   94SAPC  H18S 9160   0.265   5.272   4.633  0.5759 -0.3244 -1.4134
   94SAPC  C219 9161   0.194   5.086   4.534 -0.1004  0.4056  0.4867
   94SAPC  H19R 9162   0.093   5.080   4.581 -1.7069  0.9686 -2.6124
   94SAPC  H19S 9163   0.247   4.989   4.521 -1.3730 -0.4299  1.3591
   94SAPC  C220 9164   0.165   5.144   4.392 -0.3368  0.1301 -0.0932
   94SAPC  H20R 9165   0.096   5.068   4.349 -3.3121  2.4267  0.3044
   94SAPC  H20S 9166   0.256   5.148   4.329 -1.2024 -0.6964 -1.4463
   94SAPC  H20T 9167   0.123   5.247   4.398 -2.4437 -0.7445  3.5359
   94SAPC   C33 9168  -0.203   4.445   5.903 -0.1213  0.6899  0.0368
   94SAPC   H3X 9169  -0.275   4.493   5.973 -1.9933 -1.3709 -0.3720
   94SAPC   H3Y 9170  -0.187   4.336   5.918  2.1685  1.0763  0.8299
   94SAPC   C34 9171  -0.244   4.467   5.761 -0.3857 -0.7076 -0.0163
   94SAPC   H4X 9172  -0.317   4.393   5.723  0.8712 -1.3200 -1.3496
   94SAPC   H4Y 9173  -0.158   4.451   5.692 -0.1429  0.8197 -0.0972
   94SAPC   C35 9174  -0.309   4.603   5.731  0.3540 -0.1510  0.1635
   94SAPC   H5X 9175  -0.236   4.686   5.730  0.4524 -0.2440 -0.7347
   94SAPC   H5Y 9176  -0.387   4.631   5.806 -0.1757  0.0257 -0.4470
   94SAPC   C36 9177  -0.381   4.607   5.589  0.3906 -0.2772  0.3872
   94SAPC   H6X 9178  -0.446   4.696   5.583 -0.4037 -0.8302  0.5860
   94SAPC   H6Y 9179  -0.446   4.518   5.577  0.4459 -0.1036 -1.4230
   94SAPC   C37 9180  -0.292   4.609   5.460  0.3812  0.4112  0.2925
   94SAPC   H7X 9181  -0.237   4.513   5.457 -0.4753 -0.0624 -1.1774
   94SAPC   H7Y 9182  -0.208   4.678   5.485  0.1031  0.8901 -0.0738
   94SAPC   C38 9183  -0.370   4.649   5.334  0.2134  1.6341  0.3247
   94SAPC   H8X 9184  -0.383   4.760   5.335  0.9115  1.7571 -1.1616
   94SAPC   H8Y 9185  -0.460   4.585   5.327  1.3199 -0.0976  1.2925
   94SAPC   C39 9186  -0.287   4.636   5.207  0.6825  0.0820  0.3277
   94SAPC   H9X 9187  -0.251   4.532   5.190 -1.1885 -0.7100  0.9640
   94SAPC   H9Y 9188  -0.193   4.691   5.226  1.1831 -0.5273 -0.3540
   94SAPC  C310 9189  -0.350   4.697   5.080 -0.0416 -0.1249  0.6461
   94SAPC  H10X 9190  -0.265   4.696   5.008 -0.6957  1.3695 -0.1998
   94SAPC  H10Y 9191  -0.373   4.804   5.097 -0.6011 -0.1840  0.2861
   94SAPC  C311 9192  -0.460   4.610   5.021  0.2400  0.1173  0.4740
   94SAPC  H11X 9193  -0.557   4.618   5.075  0.3795  2.9825  0.4495
   94SAPC  H11Y 9194  -0.429   4.505   5.038  0.4388  0.2224  0.7592
   94SAPC  C312 9195  -0.479   4.620   4.868  0.6506 -0.4746 -0.2227
   94SAPC  H12X 9196  -0.383   4.594   4.819 -0.0725 -2.4718 -0.6914
   94SAPC  H12Y 9197  -0.501   4.725   4.839  1.8407  0.1176  0.9335
   94SAPC  C313 9198  -0.592   4.524   4.818  0.8695  0.3754 -0.3363
   94SAPC  H13X 9199  -0.690   4.570   4.843  1.3434  0.6460  1.1261
   94SAPC  H13Y 9200  -0.566   4.425   4.862  2.8975  1.3836  0.8797
   94SAPC  C314 9201  -0.595   4.519   4.661  0.3187 -0.1018  0.6611
   94SAPC  H14X 9202  -0.600   4.623   4.622  2.8545  0.2710  1.1417
   94SAPC  H14Y 9203  -0.692   4.472   4.634  1.2960 -2.4733  1.0625
   94SAPC  C315 9204  -0.478   4.438   4.601  0.0956  0.3442 -0.2018
   94SAPC  H15X 9205  -0.472   4.336   4.644  1.3711  1.1059  1.5505
   94SAPC  H15Y 9206  -0.381   4.485   4.630  0.2073  0.5827 -0.9441
   94SAPC  C316 9207  -0.479   4.436   4.439  0.3112 -0.1690 -0.3370
   94SAPC  H16X 9208  -0.469   4.541   4.403 -1.8276 -0.6021 -2.4632
   94SAPC  H16Y 9209  -0.585   4.409   4.422 -0.2862  0.8126  1.5305
   94SAPC  C317 9210  -0.383   4.354   4.361 -0.4950  0.6536  0.3258
   94SAPC  H17X 9211  -0.371   4.256   4.411 -0.0486  0.9953  0.9112
   94SAPC  H17Y 9212  -0.288   4.412   4.361 -1.6666  2.7093  1.2395
   94SAPC  C318 9213  -0.416   4.332   4.208  0.2061 -0.0726 -0.6087
   94SAPC  H18X 9214  -0.421   4.432   4.161  3.0672  1.7570  2.4747
   94SAPC  H18Y 9215  -0.510   4.275   4.194 -1.3238  2.0838  0.3405
   94SAPC  H18Z 9216  -0.331   4.275   4.164  0.8265  0.5765 -0.2640
   95SAPC     N 9217   3.725   5.854   1.982  0.0404  0.3663 -0.3401
   95SAPC   C12 9218   3.708   5.953   1.861  0.0598 -0.0881 -0.4827
   95SAPC  H12A 9219   3.731   5.909   1.765  0.3819  1.3566 -1.1022
   95SAPC  H12B 9220   3.785   6.027   1.876  0.4108 -0.6353  0.5109
   95SAPC   C13 9221   3.628   5.738   1.967 -0.3935  0.1845 -0.3016
   95SAPC  H13A 9222   3.529   5.778   1.983 -0.2885 -0.5541  2.7244
   95SAPC  H13B 9223   3.624   5.686   1.872  0.5505 -1.8369  0.6932
   95SAPC  H13C 9224   3.659   5.661   2.036 -0.5864  1.7995  1.6822
   95SAPC   C14 9225   3.863   5.800   1.977 -0.1005  0.1030 -0.2685
   95SAPC  H14A 9226   3.943   5.871   1.988  0.2691 -0.5135  1.2451
   95SAPC  H14B 9227   3.867   5.734   2.062 -0.4280  0.6018  0.1460
   95SAPC  H14C 9228   3.890   5.731   1.900  1.6928  0.8264 -0.3249
   95SAPC   C15 9229   3.696   5.918   2.122  0.5878 -0.3183 -0.0805
   95SAPC  H15A 9230   3.714   5.837   2.190 -0.7745 -1.0760 -0.5914
   95SAPC  H15B 9231   3.758   6.005   2.135  0.1521 -0.1064  0.6484
   95SAPC  H15C 9232   3.595   5.955   2.121  2.0637  4.3446 -0.2480
   95SAPC   C11 9233   3.566   6.018   1.844 -0.3076 -0.3339  0.5616
   95SAPC  H11A 9234   3.493   5.950   1.796 -0.5691  0.3159  0.0158
   95SAPC  H11B 9235   3.581   6.089   1.760  0.1790 -0.1999  0.7573
   95SAPC     P 9236   3.378   6.139   1.961  0.2856 -0.1074  0.0504
   95SAPC   O13 9237   3.379   6.272   1.893 -0.0366  0.3018 -0.4210
   95SAPC   O14 9238   3.286   6.036   1.903  0.4894 -0.2315  0.5079
   95SAPC   O12 9239   3.519   6.075   1.966  0.6772 -0.1820  0.7999
   95SAPC   O11 9240   3.335   6.151   2.109 -0.2428 -0.7101 -0.0909
   95SAPC    C1 9241   3.340   6.044   2.209 -0.2871 -0.5741  0.3382
   95SAPC    HA 9242   3.364   5.944   2.165 -1.7420 -0.7224 -0.1511
   95SAPC    HB 9243   3.415   6.067   2.288  1.4222  1.2753 -1.6829
   95SAPC    C2 9244   3.202   6.022   2.266 -0.1343 -0.8605  0.0500
   95SAPC    HS 9245   3.126   6.015   2.186 -1.1340  1.3352  0.7399
   95SAPC   O21 9246   3.165   6.135   2.353 -0.3754  0.4440 -0.0966
   95SAPC   C21 9247   3.041   6.169   2.363 -0.1507  0.5969 -0.7256
   95SAPC   O22 9248   2.942   6.112   2.314 -0.0875 -0.1315 -0.5492
   95SAPC   C22 9249   3.046   6.271   2.471 -0.5497 -0.1711 -0.2263
   95SAPC   H2R 9250   3.104   6.226   2.554  1.6392  0.0534 -1.5647
   95SAPC   H2S 9251   3.102   6.358   2.431 -1.3155 -0.0907 -1.1666
   95SAPC    C3 9252   3.186   5.895   2.356 -0.1341 -0.1481  0.6134
   95SAPC    HX 9253   3.187   5.804   2.292 -1.1526 -0.6401  1.2683
   95SAPC    HY 9254   3.083   5.903   2.398 -0.6429 -0.5819 -0.5137
   95SAPC   O31 9255   3.276   5.891   2.468  0.4052 -0.0742  0.1216
   95SAPC   C31 9256   3.378   5.812   2.452  0.2119  0.0701 -0.7451
   95SAPC   O32 9257   3.405   5.747   2.352  0.1367  0.5364 -0.3057
   95SAPC   C32 9258   3.447   5.799   2.590  0.1900  0.2530  0.6170
   95SAPC   H2X 9259   3.418   5.697   2.624 -1.7081  1.1293  1.8458
   95SAPC   H2Y 9260   3.398   5.876   2.654 -1.9448  1.8072 -2.6017
   95SAPC   C23 9261   2.903   6.319   2.505 -0.3632  0.0265 -0.4374
   95SAPC   H3R 9262   2.915   6.352   2.611 -0.2427 -0.7668 -0.1952
   95SAPC   H3S 9263   2.826   6.239   2.511 -1.3249  0.9903  0.3007
   95SAPC   C24 9264   2.856   6.444   2.425 -0.4199 -0.3711 -0.2275
   95SAPC   H4R 9265   2.899   6.451   2.322  0.1257  1.6490  0.1065
   95SAPC   H4S 9266   2.891   6.536   2.475 -1.9364 -1.1339  2.4627
   95SAPC   C25 9267   2.705   6.455   2.419 -0.5523 -0.2203  0.0003
   95SAPC   H5R 9268   2.673   6.463   2.314 -1.0878 -1.1315  0.0791
   95SAPC   C26 9269   2.608   6.447   2.508 -0.1607  0.0093 -0.5058
   95SAPC   H6R 9270   2.507   6.464   2.469 -1.1883 -0.3178  1.8552
   95SAPC   C27 9271   2.621   6.431   2.659  0.2595 -0.4341  0.2368
   95SAPC   H7R 9272   2.571   6.518   2.707  0.4362  1.0443 -2.0664
   95SAPC   H7S 9273   2.722   6.446   2.703  0.2876 -0.0876  0.0574
   95SAPC   C28 9274   2.552   6.310   2.715 -0.3332 -0.5698  0.4340
   95SAPC   H8R 9275   2.536   6.224   2.648  0.1879 -0.1284 -0.2700
   95SAPC   C29 9276   2.507   6.296   2.837  0.2920  0.0232 -0.6272
   95SAPC   H9R 9277   2.463   6.202   2.873 -0.0426  0.7761  1.0440
   95SAPC  C210 9278   2.530   6.386   2.950  0.2492  0.1315  0.0629
   95SAPC  H10R 9279   2.618   6.451   2.934  0.4301 -0.3015 -0.7669
   95SAPC  H10S 9280   2.547   6.318   3.036  1.4484 -0.6158 -0.7242
   95SAPC  C211 9281   2.409   6.474   2.987  0.6586  0.8797 -0.1151
   95SAPC  H11R 9282   2.346   6.505   2.902 -0.1237  5.1158  1.7809
   95SAPC  C212 9283   2.400   6.549   3.098  0.6457  0.1661  0.1272
   95SAPC  H12R 9284   2.306   6.606   3.106  0.1177 -0.6472 -0.0877
   95SAPC  C213 9285   2.499   6.543   3.209  0.4527 -0.4696 -0.6480
   95SAPC  H13R 9286   2.536   6.648   3.211  1.0692 -0.6811 -0.8195
   95SAPC  H13S 9287   2.579   6.468   3.199  0.5819 -0.9851  3.0246
   95SAPC  C214 9288   2.444   6.518   3.346  0.5601  0.5675  0.3470
   95SAPC  H14R 9289   2.355   6.454   3.338 -0.2649  1.5022  1.6663
   95SAPC  C215 9290   2.483   6.568   3.461  0.0221  0.1078  0.2927
   95SAPC  H15R 9291   2.423   6.535   3.548  0.6567  0.3593  0.8302
   95SAPC  C216 9292   2.603   6.650   3.491  0.2791 -0.7574 -0.3044
   95SAPC  H16R 9293   2.575   6.748   3.535 -0.1835 -1.1590  0.3116
   95SAPC  H16S 9294   2.666   6.666   3.401  2.3543 -3.3295  0.5874
   95SAPC  C217 9295   2.693   6.579   3.593 -0.1676 -0.7363  0.0448
   95SAPC  H17R 9296   2.777   6.647   3.619  0.7522 -1.1780 -1.5932
   95SAPC  H17S 9297   2.737   6.485   3.551 -0.1121 -1.1747  1.0391
   95SAPC  C218 9298   2.620   6.526   3.719 -0.1590 -0.0834 -0.7349
   95SAPC  H18R 9299   2.569   6.432   3.688 -0.1294 -0.3108 -0.1164
   95SAPC  H18S 9300   2.537   6.599   3.732  0.5264  0.9193 -1.7940
   95SAPC  C219 9301   2.705   6.496   3.836  0.1000 -0.4429 -0.0596
   95SAPC  H19R 9302   2.759   6.587   3.870 -0.0550 -0.1181 -0.6830
   95SAPC  H19S 9303   2.769   6.406   3.820  0.1694 -1.6224  4.9488
   95SAPC  C220 9304   2.612   6.462   3.958  0.0923 -0.6023  0.0450
   95SAPC  H20R 9305   2.664   6.437   4.053 -1.3488  1.0951  1.3400
   95SAPC  H20S 9306   2.545   6.375   3.941 -0.8450  0.3903 -1.5569
   95SAPC  H20T 9307   2.543   6.543   3.988  0.4124 -1.0645  2.2180
   95SAPC   C33 9308   3.593   5.830   2.582 -0.2865 -0.1143 -0.0225
   95SAPC   H3X 9309   3.616   5.928   2.536 -1.2930 -0.2307 -0.8239
   95SAPC   H3Y 9310   3.634   5.746   2.521 -1.7592 -0.8951 -0.0075
   95SAPC   C34 9311   3.678   5.848   2.708 -0.4032  0.1379  0.2833
   95SAPC   H4X 9312   3.675   5.954   2.739  1.8675  0.7241 -1.3002
   95SAPC   H4Y 9313   3.781   5.831   2.671 -0.8736  0.0935 -1.0570
   95SAPC   C35 9314   3.642   5.750   2.822  0.5781 -0.5623  0.0881
   95SAPC   H5X 9315   3.638   5.646   2.784 -0.1123 -1.0405  1.4399
   95SAPC   H5Y 9316   3.538   5.773   2.853  0.8527 -1.4666  1.7836
   95SAPC   C36 9317   3.736   5.777   2.946 -0.1630  0.5133  0.2931
   95SAPC   H6X 9318   3.767   5.883   2.959  1.0397  0.2034  0.1330
   95SAPC   H6Y 9319   3.832   5.726   2.921 -1.3573 -1.5124 -0.3671
   95SAPC   C37 9320   3.687   5.720   3.079  0.7683  0.2673  0.6942
   95SAPC   H7X 9321   3.587   5.764   3.101 -0.0646  0.2113 -2.5165
   95SAPC   H7Y 9322   3.752   5.751   3.163  1.1917  1.6584 -0.1317
   95SAPC   C38 9323   3.689   5.565   3.078  0.0840  0.6561  1.0691
   95SAPC   H8X 9324   3.784   5.530   3.033 -0.6550  1.4843 -1.2922
   95SAPC   H8Y 9325   3.606   5.549   3.005 -0.3269  0.5390  1.5595
   95SAPC   C39 9326   3.654   5.500   3.208  0.2109  0.0722  0.3030
   95SAPC   H9X 9327   3.728   5.532   3.285  0.7246 -0.7649  0.1732
   95SAPC   H9Y 9328   3.661   5.389   3.198  2.8501  0.1562  0.5034
   95SAPC  C310 9329   3.517   5.536   3.263  0.1316 -0.3717  0.0578
   95SAPC  H10X 9330   3.439   5.516   3.186  1.3097 -0.5343 -1.1270
   95SAPC  H10Y 9331   3.511   5.643   3.290 -1.9633 -0.7327  1.2566
   95SAPC  C311 9332   3.479   5.451   3.383 -0.1276  0.1700  0.8181
   95SAPC  H11X 9333   3.491   5.345   3.353 -0.5334  0.3268  0.0565
   95SAPC  H11Y 9334   3.370   5.463   3.401 -0.4993  1.1607 -1.6237
   95SAPC  C312 9335   3.574   5.461   3.504 -0.4116 -0.3300  0.6821
   95SAPC  H12X 9336   3.565   5.560   3.554  0.2066  0.8770 -1.4619
   95SAPC  H12Y 9337   3.678   5.453   3.465 -0.0293 -0.4588  1.6931
   95SAPC  C313 9338   3.563   5.348   3.598 -0.3826  0.2242 -0.2993
   95SAPC  H13X 9339   3.662   5.329   3.645  0.1480  1.2419 -0.9627
   95SAPC  H13Y 9340   3.524   5.259   3.545 -1.6320  0.6921 -0.2027
   95SAPC  C314 9341   3.458   5.384   3.701 -0.7003  0.2698  0.0960
   95SAPC  H14X 9342   3.364   5.420   3.654 -1.1781 -2.0297 -0.8660
   95SAPC  H14Y 9343   3.499   5.458   3.773  0.0304 -1.9070  2.0636
   95SAPC  C315 9344   3.437   5.245   3.776 -0.0591 -0.3381 -0.4789
   95SAPC  H15X 9345   3.543   5.219   3.799  1.1468  1.9889 -2.8911
   95SAPC  H15Y 9346   3.396   5.161   3.716  2.5736 -1.2468 -1.1435
   95SAPC  C316 9347   3.355   5.273   3.901 -0.3018 -0.1889 -0.6865
   95SAPC  H16X 9348   3.268   5.338   3.878 -0.1165 -0.4512 -2.2056
   95SAPC  H16Y 9349   3.414   5.325   3.980 -1.6316  0.1513  0.1222
   95SAPC  C317 9350   3.312   5.134   3.962 -0.2213  0.1362 -0.0300
   95SAPC  H17X 9351   3.399   5.065   3.974 -1.0966 -0.6244  2.5118
   95SAPC  H17Y 9352   3.237   5.094   3.891 -0.3623  0.5806 -0.1367
   95SAPC  C318 9353   3.254   5.150   4.105 -0.8516 -0.0666  0.2159
   95SAPC  H18X 9354   3.229   5.052   4.152  0.9688 -1.9023 -2.3950
   95SAPC  H18Y 9355   3.162   5.213   4.103 -0.2800  0.7963  0.8508
   95SAPC  H18Z 9356   3.333   5.197   4.166 -0.1769 -0.2027 -0.5471
   96SAPC     N 9357   4.559   2.055   2.130 -0.3169 -0.0107  0.7686
   96SAPC   C12 9358   4.562   1.914   2.188 -0.2364 -0.1809  0.0645
   96SAPC  H12A 9359   4.624   1.905   2.276 -1.3669 -2.2888  0.7304
   96SAPC  H12B 9360   4.612   1.850   2.116 -0.8834 -2.1235  1.2482
   96SAPC   C13 9361   4.524   2.153   2.232  0.5201  0.0174  0.3036
   96SAPC  H13A 9362   4.431   2.141   2.287  1.5455 -0.3905  2.0191
   96SAPC  H13B 9363   4.602   2.158   2.306 -1.2582 -1.0416  2.3805
   96SAPC  H13C 9364   4.524   2.252   2.189  0.1374 -0.5116 -0.9497
   96SAPC   C14 9365   4.698   2.092   2.076 -0.1019 -0.1873 -0.2345
   96SAPC  H14A 9366   4.712   2.196   2.053 -2.3912  0.2896  0.2472
   96SAPC  H14B 9367   4.770   2.077   2.154 -0.8297 -1.9191  0.1656
   96SAPC  H14C 9368   4.728   2.032   1.991  1.3139  0.7867 -0.4592
   96SAPC   C15 9369   4.466   2.076   2.006  0.6686  0.0061 -0.3121
   96SAPC  H15A 9370   4.486   2.018   1.917  3.6437  0.5341 -0.0684
   96SAPC  H15B 9371   4.365   2.049   2.034  1.6540 -3.5901  0.2244
   96SAPC  H15C 9372   4.467   2.180   1.976  1.1368  0.0571 -0.1169
   96SAPC   C11 9373   4.431   1.837   2.234 -0.1657  0.7024 -0.4428
   96SAPC  H11A 9374   4.391   1.893   2.321  1.2142  0.4582  0.3808
   96SAPC  H11B 9375   4.466   1.736   2.266 -2.0105  0.3802  0.6784
   96SAPC     P 9376   4.207   1.746   2.163 -0.0182  0.5978  0.1825
   96SAPC   O13 9377   4.112   1.778   2.054 -0.7030 -0.1216  0.3721
   96SAPC   O14 9378   4.244   1.607   2.185 -0.0256  0.1170  0.1685
   96SAPC   O12 9379   4.337   1.831   2.130 -0.3426  0.7225 -0.6099
   96SAPC   O11 9380   4.153   1.810   2.291  0.2050 -0.0932 -0.0982
   96SAPC    C1 9381   4.110   1.941   2.309  0.4351 -0.5441  0.2168
   96SAPC    HA 9382   4.191   2.003   2.352  2.2083 -1.9940 -0.8477
   96SAPC    HB 9383   4.089   1.990   2.211 -2.0024  0.1914  1.0242
   96SAPC    C2 9384   3.976   1.952   2.398 -0.3547  0.2545  0.1170
   96SAPC    HS 9385   3.957   2.060   2.416  1.8671  0.7444 -0.1650
   96SAPC   O21 9386   3.991   1.882   2.520  0.0752 -0.1865 -0.9341
   96SAPC   C21 9387   4.043   1.948   2.617 -0.0114  0.8740  0.0696
   96SAPC   O22 9388   4.067   2.069   2.621  0.1994 -0.0249 -0.2017
   96SAPC   C22 9389   4.104   1.858   2.722  0.4841  0.3938  0.9172
   96SAPC   H2R 9390   4.025   1.783   2.743 -2.0766  2.7477  0.1794
   96SAPC   H2S 9391   4.198   1.817   2.679 -0.1684  0.1351 -0.3054
   96SAPC    C3 9392   3.857   1.884   2.328 -0.8947 -0.1736 -0.0920
   96SAPC    HX 9393   3.891   1.779   2.329  3.9106  1.0891  2.0663
   96SAPC    HY 9394   3.859   1.917   2.222  0.9355  0.5761  0.1289
   96SAPC   O31 9395   3.728   1.897   2.395 -0.6313  0.0678 -0.3372
   96SAPC   C31 9396   3.661   2.008   2.359  0.4927 -0.6781  0.1865
   96SAPC   O32 9397   3.687   2.076   2.263 -0.6936  0.4871  0.1696
   96SAPC   C32 9398   3.541   2.041   2.457 -0.2889  0.1863  0.2257
   96SAPC   H2X 9399   3.494   1.944   2.483  0.0608 -0.4537 -1.4258
   96SAPC   H2Y 9400   3.462   2.093   2.398 -0.3803 -1.8308 -1.5308
   96SAPC   C23 9401   4.123   1.946   2.848 -0.7392 -0.2777 -0.4619
   96SAPC   H3R 9402   4.169   2.043   2.820  0.4823 -0.7229 -0.0921
   96SAPC   H3S 9403   4.190   1.895   2.921 -1.7668  0.4006  0.9972
   96SAPC   C24 9404   4.001   1.993   2.922 -0.1715  0.0140 -0.3542
   96SAPC   H4R 9405   3.949   1.899   2.950 -1.1630 -0.0192 -2.2124
   96SAPC   H4S 9406   3.934   2.051   2.855  2.2577  3.6319  0.0046
   96SAPC   C25 9407   4.029   2.087   3.036  0.6555  0.0398 -0.8866
   96SAPC   H5R 9408   4.085   2.179   3.013  0.3477  0.4616  0.0010
   96SAPC   C26 9409   4.014   2.058   3.168  0.2953  0.4843 -0.5136
   96SAPC   H6R 9410   4.023   2.142   3.239 -0.6267  0.3527 -0.2198
   96SAPC   C27 9411   3.957   1.938   3.241  0.3260  0.5937 -0.0720
   96SAPC   H7R 9412   4.042   1.891   3.294  0.1930 -1.4083 -1.5107
   96SAPC   H7S 9413   3.932   1.853   3.174 -0.0284 -0.9779  1.9532
   96SAPC   C28 9414   3.833   1.964   3.329  0.4580  0.6736  0.0953
   96SAPC   H8R 9415   3.741   1.939   3.275  1.9846 -2.4255 -1.3588
   96SAPC   C29 9416   3.829   2.027   3.446  0.1384  0.3958 -0.2263
   96SAPC   H9R 9417   3.735   2.027   3.502  0.6691  0.6878  0.6822
   96SAPC  C210 9418   3.953   2.075   3.517  0.0574  0.1758 -0.8496
   96SAPC  H10R 9419   3.982   2.161   3.452 -3.3124 -0.4529 -3.4575
   96SAPC  H10S 9420   4.033   1.998   3.512 -0.9631 -1.2663  2.3814
   96SAPC  C211 9421   3.949   2.119   3.658  0.6576 -0.5645 -0.6275
   96SAPC  H11R 9422   3.960   2.228   3.673  2.8587 -0.4478 -2.6630
   96SAPC  C212 9423   3.938   2.048   3.768 -0.6332 -0.1520 -0.2727
   96SAPC  H12R 9424   3.945   2.105   3.862  2.5672 -1.7777  0.6364
   96SAPC  C213 9425   3.916   1.899   3.775  0.0579 -0.7914  0.1171
   96SAPC  H13R 9426   4.018   1.855   3.771  0.1663 -0.5772  0.4823
   96SAPC  H13S 9427   3.849   1.862   3.694 -0.1350  2.2005 -1.2437
   96SAPC  C214 9428   3.852   1.866   3.910  0.3230 -0.0434 -0.5404
   96SAPC  H14R 9429   3.745   1.840   3.915  0.9608 -2.6658  2.6224
   96SAPC  C215 9430   3.906   1.882   4.031  0.0437  0.0809  0.3101
   96SAPC  H15R 9431   3.849   1.862   4.123  0.5524 -0.0125  0.6062
   96SAPC  C216 9432   4.045   1.920   4.069  1.0611 -0.3929  0.0944
   96SAPC  H16R 9433   4.092   1.966   3.978 -0.9224 -0.1195 -0.8368
   96SAPC  H16S 9434   4.100   1.827   4.095  0.2428 -1.2036 -0.9985
   96SAPC  C217 9435   4.066   2.024   4.180  0.3601 -0.4189  0.2643
   96SAPC  H17R 9436   4.018   2.119   4.149  0.6928 -1.0140 -2.2968
   96SAPC  H17S 9437   4.177   2.030   4.186  0.5685 -1.9470 -1.3846
   96SAPC  C218 9438   4.023   2.004   4.323 -0.5030  0.1834 -0.9533
   96SAPC  H18R 9439   4.036   1.901   4.360 -3.0879  0.9499  2.5674
   96SAPC  H18S 9440   3.913   2.018   4.323 -0.4767  0.4130 -0.7572
   96SAPC  C219 9441   4.091   2.089   4.436  0.1395  0.2737  0.3637
   96SAPC  H19R 9442   4.187   2.042   4.466  0.0765 -1.6946 -2.1422
   96SAPC  H19S 9443   4.027   2.081   4.526 -3.2188  2.5435 -1.5805
   96SAPC  C220 9444   4.094   2.240   4.418  0.2958 -0.6039 -0.2794
   96SAPC  H20R 9445   3.997   2.295   4.423  0.2796 -0.5289 -1.2117
   96SAPC  H20S 9446   4.155   2.268   4.330  0.6568 -2.2065 -0.5580
   96SAPC  H20T 9447   4.147   2.273   4.510 -0.8008 -0.6716  0.3981
   96SAPC   C33 9448   3.591   2.130   2.574 -0.3087 -0.0090  0.2204
   96SAPC   H3X 9449   3.499   2.146   2.633 -0.9855 -1.3405 -0.4377
   96SAPC   H3Y 9450   3.634   2.222   2.528 -1.4595  1.1531  1.3985
   96SAPC   C34 9451   3.695   2.067   2.673  0.5441 -0.5931 -0.7968
   96SAPC   H4X 9452   3.772   2.145   2.692 -0.0745 -0.0883 -0.3037
   96SAPC   H4Y 9453   3.755   1.993   2.616  1.3893  0.3595 -1.1621
   96SAPC   C35 9454   3.648   2.009   2.801  0.5391 -0.2128 -0.3251
   96SAPC   H5X 9455   3.733   1.957   2.852  0.1949  0.2574  0.7717
   96SAPC   H5Y 9456   3.555   1.949   2.794  0.6878 -0.4609 -0.2021
   96SAPC   C36 9457   3.600   2.118   2.901  0.1985  0.1605 -0.1675
   96SAPC   H6X 9458   3.506   2.168   2.869 -0.9502 -2.1317 -0.5531
   96SAPC   H6Y 9459   3.679   2.195   2.909  2.1910 -1.7614 -0.4661
   96SAPC   C37 9460   3.572   2.071   3.047  1.2060 -0.5597  0.2092
   96SAPC   H7X 9461   3.677   2.065   3.081  0.7794  0.0372  1.7346
   96SAPC   H7Y 9462   3.529   1.969   3.038  1.3446 -0.5354 -0.7356
   96SAPC   C38 9463   3.484   2.164   3.135 -0.0814 -0.0110 -0.5602
   96SAPC   H8X 9464   3.384   2.177   3.089 -1.0929 -0.5670  1.3387
   96SAPC   H8Y 9465   3.531   2.264   3.133 -1.7517  0.8245 -0.0411
   96SAPC   C39 9466   3.479   2.108   3.284 -0.4384 -0.5267  0.1494
   96SAPC   H9X 9467   3.428   2.177   3.355  1.9645  0.6920  0.7688
   96SAPC   H9Y 9468   3.585   2.101   3.316 -0.5126  0.2659  0.6070
   96SAPC  C310 9469   3.410   1.967   3.301 -0.4483 -0.2807 -0.3716
   96SAPC  H10X 9470   3.476   1.895   3.248  0.1268  0.7832 -1.1428
   96SAPC  H10Y 9471   3.310   1.980   3.255 -0.6636  0.5429  0.2861
   96SAPC  C311 9472   3.407   1.913   3.447  0.1764 -0.1491 -0.2978
   96SAPC  H11X 9473   3.511   1.883   3.468  0.8064  0.6633 -2.0524
   96SAPC  H11Y 9474   3.327   1.835   3.444  0.3280 -0.3261  0.1683
   96SAPC  C312 9475   3.367   2.018   3.556  0.2734  0.2609  0.6621
   96SAPC  H12X 9476   3.266   2.049   3.521  1.2019  1.6172 -0.9698
   96SAPC  H12Y 9477   3.435   2.106   3.547 -0.3298  0.8742  1.8654
   96SAPC  C313 9478   3.375   1.960   3.699 -0.2389  0.1151  0.7752
   96SAPC  H13X 9479   3.345   1.853   3.689 -0.1846  0.0329  1.4821
   96SAPC  H13Y 9480   3.308   2.001   3.778  0.4613 -1.2570  2.1216
   96SAPC  C314 9481   3.513   1.966   3.755  0.0081  0.1035 -0.2742
   96SAPC  H14X 9482   3.579   1.922   3.677 -2.7748  0.5835 -3.1001
   96SAPC  H14Y 9483   3.521   1.894   3.839  1.3705 -1.2986 -1.5337
   96SAPC  C315 9484   3.570   2.098   3.801 -1.4322  0.0799  0.2495
   96SAPC  H15X 9485   3.589   2.150   3.705 -0.4902 -2.1993 -0.8763
   96SAPC  H15Y 9486   3.672   2.082   3.842 -1.2391  1.0568  0.1767
   96SAPC  C316 9487   3.485   2.177   3.897 -0.3414 -0.5228  0.7737
   96SAPC  H16X 9488   3.438   2.103   3.964  0.5094 -1.3521  0.4709
   96SAPC  H16Y 9489   3.407   2.241   3.851  1.1482 -0.5590 -2.0191
   96SAPC  C317 9490   3.569   2.273   3.985 -0.4903 -0.6175  0.0703
   96SAPC  H17X 9491   3.502   2.335   4.049 -0.1329  0.6993 -0.7987
   96SAPC  H17Y 9492   3.629   2.345   3.925 -1.4401  1.1833  1.1993
   96SAPC  C318 9493   3.666   2.192   4.077 -0.0174  0.2108 -0.3908
   96SAPC  H18X 9494   3.619   2.104   4.125 -1.1450  0.9314 -0.1249
   96SAPC  H18Y 9495   3.697   2.260   4.158  1.5137  0.1529 -0.9098
   96SAPC  H18Z 9496   3.759   2.163   4.025  0.2735 -0.2823  0.3913
   97SAPC     N 9497   3.155   0.034   1.945  0.2608  0.2813  0.1267
   97SAPC   C12 9498   3.128   0.152   2.041 -0.2581 -0.5329  0.6939
   97SAPC  H12A 9499   3.027   0.144   2.079  0.2981 -0.7113  2.2075
   97SAPC  H12B 9500   3.140   0.244   1.985  0.8757  0.5711  2.6060
   97SAPC   C13 9501   3.307   0.018   1.912 -0.2539 -0.0882  0.0857
   97SAPC  H13A 9502   3.363   0.108   1.936  0.6933 -1.2437  2.5859
   97SAPC  H13B 9503   3.355  -0.063   1.963 -1.1710 -1.0298 -0.5159
   97SAPC  H13C 9504   3.310  -0.002   1.806 -3.3065  0.0264 -0.0899
   97SAPC   C14 9505   3.123  -0.092   2.010  0.2921 -0.0086  0.0367
   97SAPC  H14A 9506   3.187  -0.115   2.093 -0.8139 -2.4655  0.2944
   97SAPC  H14B 9507   3.021  -0.090   2.046  0.2267 -1.2747 -0.0450
   97SAPC  H14C 9508   3.125  -0.177   1.944 -2.1918 -0.4478  0.4267
   97SAPC   C15 9509   3.072   0.026   1.820 -0.2317  0.2741  0.3635
   97SAPC  H15A 9510   3.075   0.116   1.761 -1.8041 -0.1427 -0.3893
   97SAPC  H15B 9511   3.091  -0.056   1.753  1.1569  1.9341 -1.3935
   97SAPC  H15C 9512   2.970   0.016   1.852 -0.3165 -0.0541 -0.0090
   97SAPC   C11 9513   3.226   0.175   2.156 -0.0448  0.3338 -0.6317
   97SAPC  H11A 9514   3.244   0.082   2.214  0.0822  0.6967 -0.0761
   97SAPC  H11B 9515   3.178   0.237   2.235 -2.8525 -2.0128 -0.2929
   97SAPC     P 9516   3.369   0.380   2.110  0.0095 -0.1274  0.4314
   97SAPC   O13 9517   3.490   0.401   2.033  0.1320  0.1084  0.1113
   97SAPC   O14 9518   3.251   0.442   2.055 -0.2456 -1.2094 -0.4429
   97SAPC   O12 9519   3.356   0.225   2.113 -0.3247  0.3684 -0.1831
   97SAPC   O11 9520   3.390   0.417   2.263  0.2214  0.1248 -0.2320
   97SAPC    C1 9521   3.450   0.335   2.362 -0.0273 -0.3525 -0.3526
   97SAPC    HA 9522   3.403   0.235   2.352 -2.7798  0.6688  1.2768
   97SAPC    HB 9523   3.559   0.319   2.345  0.2724  0.1821  0.9592
   97SAPC    C2 9524   3.421   0.394   2.501  0.8423 -0.0790 -0.4163
   97SAPC    HS 9525   3.458   0.336   2.588 -2.0233  2.2420  2.5852
   97SAPC   O21 9526   3.272   0.412   2.519 -0.3878  0.7544 -0.4981
   97SAPC   C21 9527   3.207   0.300   2.573  0.7194  0.1624 -0.0535
   97SAPC   O22 9528   3.265   0.196   2.602  0.8312 -0.4077 -0.4378
   97SAPC   C22 9529   3.062   0.330   2.595  0.5003 -0.1058  0.3500
   97SAPC   H2R 9530   3.047   0.379   2.694 -0.5586 -0.1229  0.2136
   97SAPC   H2S 9531   3.034   0.396   2.510 -0.1041  0.0353  0.6515
   97SAPC    C3 9532   3.484   0.533   2.506 -0.3533 -0.3858 -0.4219
   97SAPC    HX 9533   3.439   0.602   2.432 -0.9518 -0.5218 -0.1911
   97SAPC    HY 9534   3.586   0.513   2.466 -0.5869 -0.9159 -0.7636
   97SAPC   O31 9535   3.477   0.592   2.638  0.1768 -0.1756  0.2174
   97SAPC   C31 9536   3.593   0.566   2.714  0.8507  0.0838 -0.5917
   97SAPC   O32 9537   3.698   0.528   2.668 -0.3630 -0.3999  0.1595
   97SAPC   C32 9538   3.560   0.576   2.861 -0.2096 -0.7368 -0.4989
   97SAPC   H2X 9539   3.468   0.514   2.865 -1.7505  1.3044 -2.1127
   97SAPC   H2Y 9540   3.537   0.684   2.875  1.9579 -0.4049  1.1362
   97SAPC   C23 9541   2.969   0.212   2.610  0.5686 -0.1429 -0.1637
   97SAPC   H3R 9542   2.965   0.151   2.517  1.6665 -1.1297  0.4139
   97SAPC   H3S 9543   2.867   0.255   2.620  0.7528  0.0839  0.8054
   97SAPC   C24 9544   3.000   0.136   2.743 -0.2546 -0.3977  0.9380
   97SAPC   H4R 9545   3.103   0.095   2.735  1.2880  3.1775  0.7201
   97SAPC   H4S 9546   2.930   0.049   2.745  0.4296 -1.0384 -1.1292
   97SAPC   C25 9547   2.970   0.210   2.874 -0.0455 -0.4352 -0.4640
   97SAPC   H5R 9548   2.868   0.220   2.914  1.1262  1.5132  2.3569
   97SAPC   C26 9549   3.060   0.265   2.958 -0.2851  0.7686 -0.0234
   97SAPC   H6R 9550   3.015   0.325   3.038 -0.3851  0.4302  0.1749
   97SAPC   C27 9551   3.207   0.266   2.951 -0.5393 -0.1289  0.3034
   97SAPC   H7R 9552   3.262   0.339   3.013  2.1800 -0.0312 -2.0269
   97SAPC   H7S 9553   3.235   0.309   2.853 -0.1763 -0.8480  0.0861
   97SAPC   C28 9554   3.280   0.131   2.973 -0.2675 -0.3534 -0.0757
   97SAPC   H8R 9555   3.329   0.092   2.883 -1.4073 -0.2792 -0.7525
   97SAPC   C29 9556   3.300   0.067   3.090  0.2464 -0.0697  0.9647
   97SAPC   H9R 9557   3.362  -0.023   3.089  0.9696  0.4268 -0.1422
   97SAPC  C210 9558   3.231   0.102   3.221 -0.2881 -0.0439  0.3796
   97SAPC  H10R 9559   3.152   0.178   3.210 -0.8737 -1.0143 -4.2028
   97SAPC  H10S 9560   3.308   0.139   3.292 -2.1486 -0.6644  2.8651
   97SAPC  C211 9561   3.188  -0.022   3.288  0.7893  0.4532 -0.7990
   97SAPC  H11R 9562   3.137  -0.102   3.232  1.5422  0.4832 -1.5462
   97SAPC  C212 9563   3.175  -0.035   3.425  0.0020 -0.0821 -0.4763
   97SAPC  H12R 9564   3.132  -0.126   3.469 -1.2138  0.8436  0.3101
   97SAPC  C213 9565   3.215   0.068   3.534 -0.4397  0.4941  0.0428
   97SAPC  H13R 9566   3.128   0.080   3.603  1.0062 -0.0436  2.0542
   97SAPC  H13S 9567   3.228   0.169   3.489 -1.4254  0.7441  0.2834
   97SAPC  C214 9568   3.334   0.032   3.619  0.3139  0.0038  0.1092
   97SAPC  H14R 9569   3.428   0.033   3.562 -0.3262 -1.6762 -1.0590
   97SAPC  C215 9570   3.342   0.002   3.750  0.1691  0.1499  0.0498
   97SAPC  H15R 9571   3.446  -0.013   3.783  0.1091 -2.5630 -0.7624
   97SAPC  C216 9572   3.230  -0.008   3.851  0.2695  0.3024  0.3630
   97SAPC  H16R 9573   3.136   0.029   3.804  1.2609  1.0812 -1.0721
   97SAPC  H16S 9574   3.251   0.063   3.934  0.2570  0.9944 -0.2264
   97SAPC  C217 9575   3.216  -0.150   3.890  0.4739  0.6011  0.0214
   97SAPC  H17R 9576   3.128  -0.156   3.958 -1.0432 -1.6731 -1.9681
   97SAPC  H17S 9577   3.302  -0.200   3.938  0.2324  0.8972  0.7801
   97SAPC  C218 9578   3.180  -0.239   3.769 -0.2296  0.4410 -0.1406
   97SAPC  H18R 9579   3.271  -0.269   3.714 -0.6798 -1.9995  0.3269
   97SAPC  H18S 9580   3.113  -0.169   3.714 -1.1322 -0.7090 -0.5379
   97SAPC  C219 9581   3.103  -0.364   3.797  0.5431  0.0151  0.5400
   97SAPC  H19R 9582   2.998  -0.339   3.770  1.0753  0.7587 -0.9139
   97SAPC  H19S 9583   3.118  -0.381   3.906  0.9507 -0.1439  0.4603
   97SAPC  C220 9584   3.141  -0.476   3.700 -0.1675  0.1147  0.2402
   97SAPC  H20R 9585   3.105  -0.447   3.599  2.7239  1.7486 -0.4543
   97SAPC  H20S 9586   3.096  -0.572   3.732  1.5590 -1.3292 -1.3949
   97SAPC  H20T 9587   3.252  -0.477   3.698 -0.1771 -0.5051 -0.0642
   97SAPC   C33 9588   3.666   0.532   2.959  0.3966 -0.3138 -0.1774
   97SAPC   H3X 9589   3.739   0.614   2.974  0.2391 -0.2470  0.2394
   97SAPC   H3Y 9590   3.719   0.448   2.909  0.8379  0.2503 -0.6732
   97SAPC   C34 9591   3.599   0.488   3.094 -0.2451  0.7095 -0.4241
   97SAPC   H4X 9592   3.504   0.432   3.082  1.6660 -2.8300 -0.1589
   97SAPC   H4Y 9593   3.593   0.580   3.157  0.6110  0.5014 -0.0305
   97SAPC   C35 9594   3.693   0.379   3.165  0.1733  0.0043 -0.1479
   97SAPC   H5X 9595   3.795   0.423   3.166 -0.2754  1.0600  0.2457
   97SAPC   H5Y 9596   3.687   0.291   3.098  1.9865 -0.1902 -0.1158
   97SAPC   C36 9597   3.641   0.350   3.309  0.3824 -0.5427  0.0936
   97SAPC   H6X 9598   3.543   0.300   3.296  0.4907 -0.0887 -3.5175
   97SAPC   H6Y 9599   3.608   0.440   3.364 -1.1053 -2.4290  2.4840
   97SAPC   C37 9600   3.732   0.267   3.394 -0.9043  0.2926  0.2190
   97SAPC   H7X 9601   3.841   0.290   3.393 -0.7618 -0.3699 -0.3122
   97SAPC   H7Y 9602   3.718   0.163   3.357 -0.6417  0.9178 -1.7234
   97SAPC   C38 9603   3.682   0.260   3.542  0.2789 -1.0379 -0.2802
   97SAPC   H8X 9604   3.571   0.250   3.542  0.1095  0.0226 -3.1088
   97SAPC   H8Y 9605   3.693   0.360   3.590 -2.3527 -0.3511 -0.9511
   97SAPC   C39 9606   3.735   0.145   3.629  0.0950  0.0147 -0.5464
   97SAPC   H9X 9607   3.844   0.152   3.612  0.0140  3.0043 -0.4426
   97SAPC   H9Y 9608   3.695   0.048   3.596 -1.2733  0.7360 -1.0787
   97SAPC  C310 9609   3.711   0.151   3.782  0.2761 -0.2167  0.6310
   97SAPC  H10X 9610   3.604   0.133   3.803  0.4051 -1.9444 -0.0309
   97SAPC  H10Y 9611   3.748   0.252   3.811  2.7967 -0.8942  0.0804
   97SAPC  C311 9612   3.788   0.054   3.861  0.5373 -0.0904  0.1469
   97SAPC  H11X 9613   3.895   0.043   3.833 -0.0824 -2.3715 -1.6330
   97SAPC  H11Y 9614   3.737  -0.044   3.854  1.5910 -0.5374 -3.3728
   97SAPC  C312 9615   3.785   0.079   4.016  0.7134  0.2494 -0.4278
   97SAPC  H12X 9616   3.814   0.184   4.040  0.5470 -0.2599  2.2177
   97SAPC  H12Y 9617   3.841  -0.006   4.060 -2.1923  0.5967  4.6256
   97SAPC  C313 9618   3.634   0.056   4.070 -0.0791 -0.7084  0.2922
   97SAPC  H13X 9619   3.603  -0.045   4.034  1.9888 -1.7550  1.2600
   97SAPC  H13Y 9620   3.573   0.139   4.028 -0.5637 -0.8670  0.6732
   97SAPC  C314 9621   3.623   0.065   4.221  0.2283 -0.5152 -0.0455
   97SAPC  H14X 9622   3.675   0.155   4.262  0.8177 -1.3672  1.1368
   97SAPC  H14Y 9623   3.672  -0.023   4.268 -0.3655 -0.7725  0.0978
   97SAPC  C315 9624   3.479   0.071   4.273 -0.0702 -0.3416 -0.1946
   97SAPC  H15X 9625   3.435   0.172   4.262 -1.3047 -0.8481 -0.1201
   97SAPC  H15Y 9626   3.491   0.069   4.384 -2.5562 -2.4591  0.1297
   97SAPC  C316 9627   3.374  -0.031   4.229  0.0596 -0.2425 -0.0009
   97SAPC  H16X 9628   3.410  -0.135   4.215  0.7133 -0.0341  0.0889
   97SAPC  H16Y 9629   3.326  -0.005   4.132 -2.3387 -3.3343  0.2082
   97SAPC  C317 9630   3.251  -0.030   4.328  0.3144 -0.3531 -0.1134
   97SAPC  H17X 9631   3.299  -0.011   4.426  1.1436 -1.0186 -0.3774
   97SAPC  H17Y 9632   3.196  -0.127   4.323  0.0763 -0.1547 -2.6214
   97SAPC  C318 9633   3.152   0.090   4.312  0.6954  0.0292 -0.0956
   97SAPC  H18X 9634   3.198   0.181   4.267 -0.4984 -0.6099 -2.8156
   97SAPC  H18Y 9635   3.110   0.124   4.410 -1.9550 -0.6182 -0.9186
   97SAPC  H18Z 9636   3.068   0.065   4.243 -0.8724  4.7707 -0.2517
   98SAPC     N 9637   6.140   1.012   2.395  0.6856  0.1289 -0.0353
   98SAPC   C12 9638   6.295   1.024   2.394  0.6329  0.0312 -0.1908
   98SAPC  H12A 9639   6.322   0.920   2.388 -1.7458 -0.6889  0.4015
   98SAPC  H12B 9640   6.336   1.080   2.476 -1.1434  0.3238  0.5336
   98SAPC   C13 9641   6.088   0.935   2.282  0.3154  0.4481  0.5833
   98SAPC  H13A 9642   5.986   0.900   2.286  0.4531 -0.0846 -0.2466
   98SAPC  H13B 9643   6.106   0.987   2.189 -0.9640 -0.5378 -0.2630
   98SAPC  H13C 9644   6.136   0.839   2.277  1.0504  0.7526  1.5999
   98SAPC   C14 9645   6.105   0.945   2.526  0.5180  0.4781 -0.8300
   98SAPC  H14A 9646   6.138   0.843   2.541 -2.5889 -0.4896  0.1160
   98SAPC  H14B 9647   6.150   1.003   2.606  1.8111 -2.4579  0.7215
   98SAPC  H14C 9648   5.998   0.940   2.539  0.6540 -2.2634 -0.0683
   98SAPC   C15 9649   6.071   1.147   2.399 -0.2083  0.4210 -0.0969
   98SAPC  H15A 9650   6.065   1.182   2.297 -1.2016 -0.4307 -0.3496
   98SAPC  H15B 9651   5.965   1.130   2.407 -0.2004  0.4136 -0.0099
   98SAPC  H15C 9652   6.100   1.217   2.476  1.5874 -1.7152  1.2887
   98SAPC   C11 9653   6.347   1.093   2.268  0.3467 -0.5359  0.9132
   98SAPC  H11A 9654   6.280   1.167   2.219  0.5543 -2.4448 -2.6019
   98SAPC  H11B 9655   6.361   1.019   2.187  0.3796  3.1797 -2.7852
   98SAPC     P 9656   6.500   1.276   2.370  0.2338  0.1594  0.9322
   98SAPC   O13 9657   6.646   1.288   2.374 -0.2876 -0.0074  0.2849
   98SAPC   O14 9658   6.429   1.388   2.307 -0.2855  0.1442  0.0285
   98SAPC   O12 9659   6.473   1.140   2.300 -0.2233 -0.9042  0.4250
   98SAPC   O11 9660   6.457   1.252   2.520  0.3858 -0.6095  0.0575
   98SAPC    C1 9661   6.514   1.152   2.603 -0.3324  0.4928  0.3820
   98SAPC    HA 9662   6.525   1.056   2.550  1.1973 -0.7365  2.7294
   98SAPC    HB 9663   6.617   1.172   2.640  0.3003  1.3908 -1.7514
   98SAPC    C2 9664   6.434   1.127   2.743 -0.0859 -0.0575  0.5880
   98SAPC    HS 9665   6.326   1.123   2.717  0.0830 -0.1950 -0.0997
   98SAPC   O21 9666   6.470   1.232   2.835  0.6559  0.5728 -0.3114
   98SAPC   C21 9667   6.371   1.287   2.891  0.0003 -0.2288  0.8198
   98SAPC   O22 9668   6.253   1.281   2.873 -0.4957 -0.5424 -0.3059
   98SAPC   C22 9669   6.429   1.368   3.008 -0.8596  0.0814 -0.4678
   98SAPC   H2R 9670   6.373   1.335   3.097  0.0741 -0.0513  0.0846
   98SAPC   H2S 9671   6.537   1.345   3.021 -0.7299  0.2496 -1.1859
   98SAPC    C3 9672   6.449   0.990   2.800 -0.1301  0.6093  0.5395
   98SAPC    HX 9673   6.555   0.969   2.827  0.4153 -0.9817 -2.3305
   98SAPC    HY 9674   6.434   0.916   2.719  1.8630  1.2459 -0.4958
   98SAPC   O31 9675   6.369   0.972   2.919 -0.2193  0.1046  0.7986
   98SAPC   C31 9676   6.239   0.940   2.900  0.5595  0.0329 -0.2088
   98SAPC   O32 9677   6.194   0.899   2.796  0.6029 -0.2753 -0.4642
   98SAPC   C32 9678   6.167   0.938   3.037  0.2499  0.3342  0.9729
   98SAPC   H2X 9679   6.191   1.023   3.104  1.2530 -0.1983  1.3074
   98SAPC   H2Y 9680   6.212   0.852   3.091  0.1816 -1.0819 -1.0881
   98SAPC   C23 9681   6.420   1.521   2.995 -0.1520 -0.7398 -0.6195
   98SAPC   H3R 9682   6.310   1.539   2.989 -0.0938 -0.1100  0.1306
   98SAPC   H3S 9683   6.465   1.550   2.897 -0.1806  0.9277 -0.1620
   98SAPC   C24 9684   6.496   1.607   3.102 -0.4378 -0.0678  0.1929
   98SAPC   H4R 9685   6.450   1.574   3.198  1.4419 -1.8064  0.5800
   98SAPC   H4S 9686   6.474   1.716   3.099  1.6833  0.3972 -0.5937
   98SAPC   C25 9687   6.646   1.593   3.095  0.0760 -0.4801 -0.0464
   98SAPC   H5R 9688   6.694   1.616   2.998  1.1206  1.3130  0.8343
   98SAPC   C26 9689   6.724   1.546   3.193 -0.5024  0.5839 -0.3054
   98SAPC   H6R 9690   6.830   1.540   3.166 -0.5158  2.5590 -0.9431
   98SAPC   C27 9691   6.675   1.482   3.324  0.1524 -0.3468 -0.3205
   98SAPC   H7R 9692   6.600   1.405   3.295  0.7375 -1.1170  0.1688
   98SAPC   H7S 9693   6.609   1.546   3.387 -1.2027 -0.6318 -1.3987
   98SAPC   C28 9694   6.783   1.414   3.402  0.0260 -0.3335  0.1069
   98SAPC   H8R 9695   6.820   1.330   3.340  1.0014  0.5340 -0.5259
   98SAPC   C29 9696   6.833   1.457   3.518  0.3308  0.1080 -0.4322
   98SAPC   H9R 9697   6.913   1.398   3.565 -1.5331 -1.9466  0.3963
   98SAPC  C210 9698   6.777   1.566   3.614 -1.3832  0.2618 -0.2151
   98SAPC  H10R 9699   6.722   1.646   3.560 -2.2791  0.9918  1.6596
   98SAPC  H10S 9700   6.864   1.623   3.653  0.2778 -2.5451  0.4861
   98SAPC  C211 9701   6.695   1.520   3.730  0.2272 -0.5202 -0.1722
   98SAPC  H11R 9702   6.588   1.502   3.711 -0.1261  2.5586 -1.7678
   98SAPC  C212 9703   6.729   1.500   3.857  0.2786 -0.4485  0.0062
   98SAPC  H12R 9704   6.650   1.501   3.933 -0.8834 -0.4883 -1.1720
   98SAPC  C213 9705   6.867   1.521   3.919  0.2553  0.3386 -0.4394
   98SAPC  H13R 9706   6.863   1.613   3.981  0.8815  0.4021 -0.4904
   98SAPC  H13S 9707   6.946   1.540   3.843  1.3137 -0.2023  0.4983
   98SAPC  C214 9708   6.896   1.407   4.014  0.2964 -0.9009  0.4269
   98SAPC  H14R 9709   6.913   1.310   3.966 -0.4929 -1.0824  0.4973
   98SAPC  C215 9710   6.893   1.410   4.148  0.4265 -0.3719 -0.0030
   98SAPC  H15R 9711   6.917   1.316   4.199  1.7399  1.1148  2.3108
   98SAPC  C216 9712   6.864   1.521   4.248 -0.2043  0.2650  0.0070
   98SAPC  H16R 9713   6.766   1.505   4.298 -0.0995  1.3173  0.5733
   98SAPC  H16S 9714   6.856   1.615   4.189  1.6264  1.0695  0.9605
   98SAPC  C217 9715   6.972   1.525   4.354  0.3077  0.2934 -0.3350
   98SAPC  H17R 9716   7.069   1.543   4.303 -0.1458  4.3938 -0.0853
   98SAPC  H17S 9717   6.980   1.433   4.417 -0.4044  1.6802  1.8765
   98SAPC  C218 9718   6.957   1.646   4.440 -0.3943  0.5423  0.2378
   98SAPC  H18R 9719   6.867   1.636   4.505 -0.5878 -1.8338 -0.2977
   98SAPC  H18S 9720   6.933   1.726   4.367 -1.3600  1.2429  1.2950
   98SAPC  C219 9721   7.082   1.684   4.525 -0.0971  0.5656 -1.1489
   98SAPC  H19R 9722   7.176   1.687   4.466  1.4746  1.7539  1.2536
   98SAPC  H19S 9723   7.087   1.607   4.605  0.0107  2.6981  1.0070
   98SAPC  C220 9724   7.066   1.820   4.591  0.4452 -0.6470  0.4661
   98SAPC  H20R 9725   6.969   1.830   4.644 -0.2319  0.8463 -0.9514
   98SAPC  H20S 9726   7.074   1.905   4.520  0.5033 -0.2452  0.9457
   98SAPC  H20T 9727   7.144   1.830   4.670  0.1046  0.6339  0.6759
   98SAPC   C33 9728   6.016   0.917   3.016 -0.2610 -0.7038 -0.2999
   98SAPC   H3X 9729   5.998   0.831   2.947  0.2206 -0.6612 -0.4843
   98SAPC   H3Y 9730   5.971   1.007   2.969 -1.5044 -0.4966  1.2201
   98SAPC   C34 9731   5.943   0.887   3.157 -0.0309 -0.5680  0.3370
   98SAPC   H4X 9732   5.833   0.889   3.143 -0.2162  1.4453  1.6545
   98SAPC   H4Y 9733   5.965   0.963   3.236  1.5845 -0.7042  0.0529
   98SAPC   C35 9734   5.976   0.750   3.212 -1.1834 -0.0898 -0.4328
   98SAPC   H5X 9735   6.083   0.720   3.216 -1.3679 -1.1940 -2.2883
   98SAPC   H5Y 9736   5.945   0.671   3.140 -0.2951  0.3071 -1.2798
   98SAPC   C36 9737   5.917   0.718   3.347  0.4155 -0.8052 -0.1232
   98SAPC   H6X 9738   5.806   0.727   3.345  0.4751  0.0003  0.0920
   98SAPC   H6Y 9739   5.952   0.791   3.423 -0.2856 -1.6015  0.9897
   98SAPC   C37 9740   5.947   0.581   3.399 -0.3333  0.0685  0.1032
   98SAPC   H7X 9741   6.056   0.564   3.415 -0.4470 -1.5906 -0.6836
   98SAPC   H7Y 9742   5.914   0.515   3.316 -0.5491  1.8760 -1.3237
   98SAPC   C38 9743   5.863   0.547   3.525  0.0587  0.2297  1.1817
   98SAPC   H8X 9744   5.852   0.437   3.522 -0.7573  0.3270 -0.0572
   98SAPC   H8Y 9745   5.764   0.594   3.509 -0.0576  0.5091  2.6027
   98SAPC   C39 9746   5.927   0.597   3.650 -0.2526  0.1346 -0.0474
   98SAPC   H9X 9747   5.951   0.705   3.635  2.4534  0.0860  2.8909
   98SAPC   H9Y 9748   6.031   0.561   3.664 -0.6122  0.0205  2.7774
   98SAPC  C310 9749   5.834   0.569   3.761  0.8567  0.0925 -0.7465
   98SAPC  H10X 9750   5.826   0.459   3.775 -1.7465  0.2729 -0.2030
   98SAPC  H10Y 9751   5.733   0.610   3.736  1.3514  1.7004 -0.2387
   98SAPC  C311 9752   5.879   0.636   3.891  0.4249  0.5729 -0.2116
   98SAPC  H11X 9753   5.889   0.746   3.879 -0.4561  0.7248  0.3239
   98SAPC  H11Y 9754   5.982   0.599   3.905  0.9284  2.3900  1.2764
   98SAPC  C312 9755   5.788   0.628   4.019 -0.3165  0.4784  0.4267
   98SAPC  H12X 9756   5.737   0.529   4.021 -1.8442  1.2347  0.4538
   98SAPC  H12Y 9757   5.704   0.699   4.006 -1.0142 -0.5803 -1.2335
   98SAPC  C313 9758   5.868   0.647   4.148 -0.4460  0.4075  0.1172
   98SAPC  H13X 9759   5.900   0.753   4.155 -2.9542  1.1778  0.8937
   98SAPC  H13Y 9760   5.957   0.580   4.147 -0.2939  0.5956  0.6021
   98SAPC  C314 9761   5.789   0.605   4.277  0.1805  1.0804 -0.1840
   98SAPC  H14X 9762   5.748   0.502   4.265 -0.2707  1.3496 -1.0123
   98SAPC  H14Y 9763   5.704   0.675   4.287 -0.1932  0.6184 -0.0958
   98SAPC  C315 9764   5.869   0.611   4.408 -1.2579 -0.5871 -0.2615
   98SAPC  H15X 9765   5.921   0.709   4.406 -0.7070 -0.7952  1.8569
   98SAPC  H15Y 9766   5.943   0.531   4.391 -1.3807 -0.5302 -1.1253
   98SAPC  C316 9767   5.789   0.585   4.533 -0.6308  0.2723  0.7618
   98SAPC  H16X 9768   5.747   0.483   4.518 -0.2113  0.2697 -0.6119
   98SAPC  H16Y 9769   5.705   0.656   4.547  1.0022  2.4426  0.1864
   98SAPC  C317 9770   5.875   0.581   4.655 -0.3897 -1.2751 -0.5976
   98SAPC  H17X 9771   5.905   0.686   4.672  2.2198 -2.0896  0.3682
   98SAPC  H17Y 9772   5.971   0.526   4.645  1.4375  1.0118  2.4418
   98SAPC  C318 9773   5.803   0.532   4.777 -0.0372 -0.1044 -0.3418
   98SAPC  H18X 9774   5.879   0.520   4.858  0.2992 -0.2633 -0.6739
   98SAPC  H18Y 9775   5.758   0.431   4.760  2.1861 -0.8288 -2.6634
   98SAPC  H18Z 9776   5.738   0.606   4.827  1.4741 -0.3976  2.2494
   99SAPC     N 9777   3.328   4.940   1.740  0.0533  0.4117  0.2757
   99SAPC   C12 9778   3.366   4.827   1.835  0.2368 -0.5020  0.4678
   99SAPC  H12A 9779   3.465   4.807   1.798  0.6658  2.1986 -0.0913
   99SAPC  H12B 9780   3.295   4.746   1.827 -1.5295  0.8513  1.5107
   99SAPC   C13 9781   3.419   5.059   1.739 -0.5226 -0.8260  0.3183
   99SAPC  H13A 9782   3.513   5.025   1.698 -0.9620 -0.2245 -1.2463
   99SAPC  H13B 9783   3.390   5.140   1.674  2.8099  0.8002  0.6496
   99SAPC  H13C 9784   3.440   5.101   1.836  2.6116 -2.4625  0.4951
   99SAPC   C14 9785   3.332   4.883   1.598 -0.3481 -0.2837 -0.3681
   99SAPC  H14A 9786   3.433   4.884   1.562  0.1455 -1.8485  0.9034
   99SAPC  H14B 9787   3.294   4.783   1.605  2.7671 -1.4555  4.7993
   99SAPC  H14C 9788   3.284   4.953   1.530  2.2052  1.0940 -0.8648
   99SAPC   C15 9789   3.192   4.989   1.771  0.9408  0.4751  0.3562
   99SAPC  H15A 9790   3.117   4.914   1.751 -0.4464  1.4991  1.4763
   99SAPC  H15B 9791   3.175   5.004   1.877 -1.5383  1.2422 -0.0979
   99SAPC  H15C 9792   3.170   5.074   1.709  0.0663 -1.3020 -1.9005
   99SAPC   C11 9793   3.373   4.860   1.987  0.0040 -0.1553 -0.1360
   99SAPC  H11A 9794   3.431   4.777   2.033  1.6346  2.5751  3.1879
   99SAPC  H11B 9795   3.280   4.858   2.048 -0.5409 -3.8230 -0.8366
   99SAPC     P 9796   3.581   4.975   2.089  0.1162  0.0536 -0.3548
   99SAPC   O13 9797   3.643   4.838   2.085 -0.4945 -0.6441 -0.0210
   99SAPC   O14 9798   3.677   5.078   2.049  0.3353  0.0359  0.1685
   99SAPC   O12 9799   3.446   4.978   2.012  0.5880 -0.0035 -0.8032
   99SAPC   O11 9800   3.536   5.004   2.237  1.0180  0.0772  0.0702
   99SAPC    C1 9801   3.415   4.971   2.299  0.1557  0.2954  0.0064
   99SAPC    HA 9802   3.338   5.050   2.283  0.5675  0.9379  1.1223
   99SAPC    HB 9803   3.383   4.873   2.257  1.0237  1.1389 -2.8641
   99SAPC    C2 9804   3.425   4.949   2.457  0.7258 -0.0552  0.3589
   99SAPC    HS 9805   3.322   4.934   2.496  1.4891  0.9217  2.9560
   99SAPC   O21 9806   3.487   5.058   2.521  0.0575  0.1348  0.1338
   99SAPC   C21 9807   3.449   5.184   2.504 -0.1462 -0.0552  0.7501
   99SAPC   O22 9808   3.348   5.224   2.449  0.3777  0.1525  0.1694
   99SAPC   C22 9809   3.554   5.269   2.565  0.5318 -0.2786  0.1035
   99SAPC   H2R 9810   3.597   5.216   2.653  2.7995  1.4291  0.0988
   99SAPC   H2S 9811   3.632   5.273   2.486 -0.4659 -0.1612 -0.9125
   99SAPC    C3 9812   3.503   4.821   2.488 -0.0095  0.3466 -0.0350
   99SAPC    HX 9813   3.603   4.828   2.441  0.2475  0.6375  0.5419
   99SAPC    HY 9814   3.453   4.734   2.440  3.5251 -1.7731 -0.2354
   99SAPC   O31 9815   3.516   4.792   2.628 -0.5491  0.4615  0.3198
   99SAPC   C31 9816   3.574   4.680   2.661  0.0536  1.3770  0.2799
   99SAPC   O32 9817   3.591   4.579   2.590  0.7063  0.2394  0.0617
   99SAPC   C32 9818   3.626   4.689   2.803  0.3479  0.6365 -0.1108
   99SAPC   H2X 9819   3.649   4.793   2.834 -3.1242  1.2962  0.7084
   99SAPC   H2Y 9820   3.724   4.639   2.820  0.5804  1.1439  0.0523
   99SAPC   C23 9821   3.516   5.414   2.612  0.0788 -0.3143 -0.1487
   99SAPC   H3R 9822   3.464   5.477   2.537  1.6636  1.3560  0.0763
   99SAPC   H3S 9823   3.617   5.461   2.614 -1.3188  2.9904  0.0583
   99SAPC   C24 9824   3.439   5.433   2.745  0.6490 -0.2032  0.1512
   99SAPC   H4R 9825   3.429   5.540   2.774  0.1815 -0.3603  0.5887
   99SAPC   H4S 9826   3.492   5.370   2.819  1.4767 -0.0007 -0.2542
   99SAPC   C25 9827   3.294   5.376   2.738  0.2409 -0.0748  0.3702
   99SAPC   H5R 9828   3.230   5.407   2.655  0.6866  0.3261  0.1731
   99SAPC   C26 9829   3.233   5.297   2.828 -0.1002  0.1762 -0.3421
   99SAPC   H6R 9830   3.135   5.256   2.800 -0.2726 -0.3780  0.9932
   99SAPC   C27 9831   3.280   5.248   2.962  0.3854  0.5300  0.2690
   99SAPC   H7R 9832   3.390   5.265   2.968  0.5271  0.9182 -2.1257
   99SAPC   H7S 9833   3.267   5.138   2.968 -2.0532  0.8299  1.7077
   99SAPC   C28 9834   3.206   5.313   3.081  0.4246 -0.2217  0.9227
   99SAPC   H8R 9835   3.179   5.420   3.073 -0.3140 -0.5282 -2.3552
   99SAPC   C29 9836   3.146   5.250   3.181  0.0861  0.0071  0.1386
   99SAPC   H9R 9837   3.083   5.296   3.257  1.5869 -0.3786  1.6719
   99SAPC  C210 9838   3.147   5.099   3.203 -0.5181  0.5991 -0.4734
   99SAPC  H10R 9839   3.152   5.027   3.118  0.1861 -2.5663  2.0441
   99SAPC  H10S 9840   3.049   5.074   3.250  0.0648 -1.3063 -0.1856
   99SAPC  C211 9841   3.261   5.067   3.307 -0.3804  0.7633  0.1860
   99SAPC  H11R 9842   3.359   5.113   3.286 -0.4367  0.8824  0.1868
   99SAPC  C212 9843   3.250   4.998   3.422  0.1886  0.1206 -0.4464
   99SAPC  H12R 9844   3.341   4.977   3.480  0.9220  0.5087 -1.4355
   99SAPC  C213 9845   3.127   4.929   3.485 -0.2719  0.2359  0.1062
   99SAPC  H13R 9846   3.154   4.842   3.549 -1.2798 -0.4573 -0.3818
   99SAPC  H13S 9847   3.056   4.887   3.410  0.6522 -0.9740 -0.1238
   99SAPC  C214 9848   3.047   5.016   3.583  1.3211 -0.4020  0.1258
   99SAPC  H14R 9849   3.026   5.117   3.544  2.0100 -0.9585 -1.8152
   99SAPC  C215 9850   3.009   4.994   3.713 -0.6935 -0.5998 -0.1055
   99SAPC  H15R 9851   2.939   5.062   3.764 -2.1230 -1.7758 -0.4495
   99SAPC  C216 9852   3.021   4.862   3.790  0.0791  0.5385  0.0745
   99SAPC  H16R 9853   3.126   4.851   3.824 -0.3665  2.9390  2.5653
   99SAPC  H16S 9854   2.999   4.781   3.717  0.2380  0.4444  0.1297
   99SAPC  C217 9855   2.905   4.823   3.894  1.0001 -0.7152 -0.2229
   99SAPC  H17R 9856   2.911   4.716   3.924 -1.9660 -1.7900 -2.9046
   99SAPC  H17S 9857   2.809   4.827   3.838  0.0204 -1.3755  1.3662
   99SAPC  C218 9858   2.899   4.912   4.021 -0.0488  0.2738 -0.9833
   99SAPC  H18R 9859   2.864   5.011   3.985  0.1042  0.2119 -1.3102
   99SAPC  H18S 9860   3.005   4.909   4.056 -0.3995 -1.1383  0.0729
   99SAPC  C219 9861   2.813   4.872   4.145  0.1991  0.3769 -0.3614
   99SAPC  H19R 9862   2.817   4.763   4.164 -2.8730  0.2463  0.0867
   99SAPC  H19S 9863   2.708   4.895   4.114 -0.2274 -1.6935 -0.6210
   99SAPC  C220 9864   2.849   4.961   4.266  0.4449  0.2529 -0.1275
   99SAPC  H20R 9865   2.844   5.069   4.242 -1.9985  0.3385  0.5050
   99SAPC  H20S 9866   2.956   4.939   4.287  1.0096  1.9642 -1.0085
   99SAPC  H20T 9867   2.793   4.939   4.359  1.4562  0.3001  0.5123
   99SAPC   C33 9868   3.548   4.601   2.898  0.7587 -0.3084 -0.4439
   99SAPC   H3X 9869   3.619   4.596   2.983  0.0632 -0.4170  0.1397
   99SAPC   H3Y 9870   3.536   4.497   2.860 -0.5343 -0.6527  0.8325
   99SAPC   C34 9871   3.415   4.676   2.938 -0.2839  0.3311  0.0114
   99SAPC   H4X 9872   3.370   4.715   2.844  1.9714  0.2192 -1.2007
   99SAPC   H4Y 9873   3.445   4.771   2.987 -2.2338  1.4323 -0.8344
   99SAPC   C35 9874   3.316   4.594   3.031 -0.2042 -0.2536 -0.4590
   99SAPC   H5X 9875   3.294   4.493   2.992  1.4926 -0.1444 -1.8150
   99SAPC   H5Y 9876   3.221   4.651   3.041  0.0206 -0.2750  2.5888
   99SAPC   C36 9877   3.365   4.582   3.178  0.4743  0.5624  0.4888
   99SAPC   H6X 9878   3.415   4.675   3.213 -0.0520  0.8424  0.5084
   99SAPC   H6Y 9879   3.443   4.504   3.187  0.3761  0.3102 -0.7454
   99SAPC   C37 9880   3.245   4.548   3.274 -0.2053 -0.2488  0.0073
   99SAPC   H7X 9881   3.181   4.469   3.230  1.1982 -1.3853 -0.0620
   99SAPC   H7Y 9882   3.188   4.642   3.293  0.9595  0.6733 -0.8810
   99SAPC   C38 9883   3.294   4.509   3.413 -0.1807  0.1467 -0.6724
   99SAPC   H8X 9884   3.366   4.585   3.451 -1.6727  1.6826 -0.7905
   99SAPC   H8Y 9885   3.339   4.408   3.405  0.1834  0.2532 -0.0308
   99SAPC   C39 9886   3.178   4.503   3.512  0.5050 -0.1620  0.5314
   99SAPC   H9X 9887   3.103   4.425   3.487 -1.1890  1.2961  0.8380
   99SAPC   H9Y 9888   3.128   4.603   3.520  0.8087  0.1649 -1.2856
   99SAPC  C310 9889   3.231   4.464   3.654 -0.1806 -0.3808 -0.0002
   99SAPC  H10X 9890   3.308   4.539   3.679 -2.3834  1.1374  2.9129
   99SAPC  H10Y 9891   3.276   4.363   3.665  1.1799  0.4768  5.1769
   99SAPC  C311 9892   3.129   4.467   3.773  0.6218  0.1008 -0.0271
   99SAPC  H11X 9893   3.049   4.392   3.754  0.0771  1.1531 -2.1480
   99SAPC  H11Y 9894   3.088   4.570   3.770  2.2770  0.8667  1.4076
   99SAPC  C312 9895   3.197   4.445   3.909  0.1206  0.3972 -0.3049
   99SAPC  H12X 9896   3.297   4.395   3.899 -0.5211 -0.8529 -0.7469
   99SAPC  H12Y 9897   3.124   4.393   3.975  0.2747  2.1293  1.2832
   99SAPC  C313 9898   3.211   4.579   3.981  0.0667  0.0427 -0.1222
   99SAPC  H13X 9899   3.123   4.643   3.957  1.3873  3.1083  2.3519
   99SAPC  H13Y 9900   3.303   4.632   3.948  0.3487 -0.0974  0.4335
   99SAPC  C314 9901   3.212   4.571   4.135 -0.4296  0.3917  0.0451
   99SAPC  H14X 9902   3.283   4.497   4.176  0.3061  1.4239  0.6976
   99SAPC  H14Y 9903   3.110   4.542   4.168 -0.7548  0.7873 -0.5903
   99SAPC  C315 9904   3.250   4.719   4.191  0.0703  0.2864 -0.2001
   99SAPC  H15X 9905   3.173   4.792   4.158  0.0966  0.9928  1.1961
   99SAPC  H15Y 9906   3.345   4.744   4.140 -0.0958 -2.5046 -2.1017
   99SAPC  C316 9907   3.269   4.720   4.339 -0.1965  0.7067 -0.2026
   99SAPC  H16X 9908   3.320   4.815   4.366 -0.1178  0.3343  1.0192
   99SAPC  H16Y 9909   3.341   4.644   4.374  0.1988  0.2862 -1.8622
   99SAPC  C317 9910   3.134   4.691   4.411 -0.5073  0.1131 -0.0416
   99SAPC  H17X 9911   3.086   4.593   4.386 -2.8363  0.8703  1.1006
   99SAPC  H17Y 9912   3.062   4.763   4.367  1.7428  0.9460 -2.6394
   99SAPC  C318 9913   3.136   4.702   4.567 -0.0264  0.0850  0.3462
   99SAPC  H18X 9914   3.188   4.616   4.614  2.9659  0.2533 -2.2859
   99SAPC  H18Y 9915   3.029   4.698   4.596 -0.3626 -0.2547 -0.8767
   99SAPC  H18Z 9916   3.179   4.800   4.598  0.6258 -0.4156  1.0679
  100SAPC     N 9917   2.312   4.076   1.799  0.8156 -0.1895  0.4224
  100SAPC   C12 9918   2.315   4.164   1.918 -0.0900  0.1776 -0.1135
  100SAPC  H12A 9919   2.321   4.267   1.885 -1.5730 -0.2241 -1.7802
  100SAPC  H12B 9920   2.407   4.140   1.970  1.0259  1.5649 -1.3562
  100SAPC   C13 9921   2.208   4.137   1.702 -0.3271  0.5290  0.0473
  100SAPC  H13A 9922   2.106   4.112   1.726 -0.6834  0.2412 -1.6363
  100SAPC  H13B 9923   2.227   4.240   1.675  0.2846  0.6842  1.0116
  100SAPC  H13C 9924   2.219   4.084   1.608  0.7096  1.2933 -0.2883
  100SAPC   C14 9925   2.434   4.065   1.732  0.0366  0.0837 -0.6658
  100SAPC  H14A 9926   2.508   4.018   1.795  3.6890 -0.6119 -4.9682
  100SAPC  H14B 9927   2.438   4.009   1.640  0.7328  1.4010 -1.4646
  100SAPC  H14C 9928   2.473   4.164   1.712 -0.4477  0.3392 -0.3733
  100SAPC   C15 9929   2.271   3.936   1.840 -0.4424 -0.7458 -0.0319
  100SAPC  H15A 9930   2.338   3.899   1.916 -1.0461 -1.3194  0.2342
  100SAPC  H15B 9931   2.171   3.925   1.879  0.0832  0.1991  1.6426
  100SAPC  H15C 9932   2.274   3.878   1.749  1.0535  1.6748 -1.6360
  100SAPC   C11 9933   2.197   4.161   2.022 -0.5976  0.2451  0.8577
  100SAPC  H11A 9934   2.231   4.220   2.110  0.5809  0.1368  0.4890
  100SAPC  H11B 9935   2.174   4.060   2.061  0.5666  0.9522  3.6430
  100SAPC     P 9936   2.071   4.376   1.966  0.2093  0.0971  0.0852
  100SAPC   O13 9937   2.193   4.437   1.910 -0.0130  0.7437  0.4827
  100SAPC   O14 9938   1.944   4.415   1.901 -0.5853 -0.2521  0.2716
  100SAPC   O12 9939   2.085   4.216   1.963  0.1423  0.2232  0.1615
  100SAPC   O11 9940   2.064   4.415   2.122 -0.3260  0.2013 -0.2839
  100SAPC    C1 9941   1.957   4.358   2.192  0.1079 -0.4597 -0.0400
  100SAPC    HA 9942   1.890   4.437   2.233  1.3318  1.3713 -1.4168
  100SAPC    HB 9943   1.885   4.299   2.131  0.0802 -1.3189  0.7904
  100SAPC    C2 9944   2.010   4.288   2.323 -0.2936  0.2146 -0.1905
  100SAPC    HS 9945   2.025   4.183   2.292  0.6657  0.8410 -2.0589
  100SAPC   O21 9946   1.906   4.305   2.425 -0.0406  0.0349  0.2652
  100SAPC   C21 9947   1.893   4.202   2.513 -0.1363  0.2013 -0.3169
  100SAPC   O22 9948   1.914   4.083   2.487 -0.3373  0.1546 -0.3263
  100SAPC   C22 9949   1.850   4.246   2.654 -0.5538  0.2365  0.0800
  100SAPC   H2R 9950   1.936   4.270   2.719 -1.2241  0.5820  0.8598
  100SAPC   H2S 9951   1.797   4.341   2.634 -0.8315  0.0355 -0.1534
  100SAPC    C3 9952   2.144   4.341   2.371 -0.3716 -0.6920 -1.3167
  100SAPC    HX 9953   2.144   4.450   2.392  0.5645 -1.0547  0.8642
  100SAPC    HY 9954   2.210   4.322   2.283  1.0168 -0.9009 -0.2715
  100SAPC   O31 9955   2.176   4.271   2.492 -0.9668 -0.0664  0.3053
  100SAPC   C31 9956   2.270   4.182   2.484 -0.5133  0.1301  0.3986
  100SAPC   O32 9957   2.325   4.138   2.383  0.1487  0.4871 -0.0100
  100SAPC   C32 9958   2.302   4.150   2.630  0.4612 -0.2483  0.7279
  100SAPC   H2X 9959   2.266   4.231   2.696 -1.6509 -0.0451 -0.5993
  100SAPC   H2Y 9960   2.413   4.147   2.643  0.8010 -2.7198 -1.7896
  100SAPC   C23 9961   1.748   4.153   2.721 -0.7459  0.3147  0.7938
  100SAPC   H3R 9962   1.792   4.056   2.754  0.4248  0.2449 -0.8578
  100SAPC   H3S 9963   1.664   4.136   2.650  0.9362 -4.0997 -0.4771
  100SAPC   C24 9964   1.704   4.238   2.838  0.0316  0.3322  1.1500
  100SAPC   H4R 9965   1.667   4.332   2.791  1.6405  0.3763 -0.0879
  100SAPC   H4S 9966   1.784   4.282   2.902 -0.2109  0.5681  1.2934
  100SAPC   C25 9967   1.601   4.164   2.925  1.0243  0.0996  0.3876
  100SAPC   H5R 9968   1.507   4.141   2.873 -0.7484  2.0274  2.5094
  100SAPC   C26 9969   1.613   4.148   3.058 -0.3035  1.2586 -0.2017
  100SAPC   H6R 9970   1.534   4.093   3.111 -1.8628  1.4352 -2.2063
  100SAPC   C27 9971   1.734   4.192   3.138  0.8087 -0.0063 -0.2430
  100SAPC   H7R 9972   1.819   4.207   3.068  0.2500 -1.4265 -1.2761
  100SAPC   H7S 9973   1.761   4.125   3.222 -2.7370  1.7476  2.5266
  100SAPC   C28 9974   1.701   4.326   3.203 -0.4638  0.0997 -0.4330
  100SAPC   H8R 9975   1.759   4.409   3.160  0.8494  0.3947  1.7394
  100SAPC   C29 9976   1.604   4.354   3.298 -0.2032 -0.0007  0.3906
  100SAPC   H9R 9977   1.598   4.452   3.347 -0.0926  0.6860 -0.9461
  100SAPC  C210 9978   1.516   4.257   3.372 -0.3391  1.1245  0.3435
  100SAPC  H10R 9979   1.528   4.264   3.482 -1.1531  2.3507  0.3781
  100SAPC  H10S 9980   1.545   4.152   3.351 -0.4305  0.8762  1.4091
  100SAPC  C211 9981   1.375   4.265   3.329 -0.5907 -0.2417  0.3850
  100SAPC  H11R 9982   1.339   4.190   3.257  2.0214 -0.8875 -0.3505
  100SAPC  C212 9983   1.286   4.355   3.384 -0.1949  0.0639  0.2685
  100SAPC  H12R 9984   1.179   4.359   3.360 -0.3689 -0.3429  0.9527
  100SAPC  C213 9985   1.325   4.463   3.482  0.1588  0.1281 -1.0380
  100SAPC  H13R 9986   1.286   4.559   3.443 -0.5478  0.0734 -0.4871
  100SAPC  H13S 9987   1.436   4.468   3.489  0.4740 -4.0638 -0.1316
  100SAPC  C214 9988   1.261   4.426   3.612  0.2111 -0.1636 -0.0664
  100SAPC  H14R 9989   1.256   4.318   3.632  1.3289 -0.6323 -1.9732
  100SAPC  C215 9990   1.211   4.515   3.693  0.2557 -0.0896  0.0930
  100SAPC  H15R 9991   1.169   4.471   3.784  0.0077  0.5957  0.3189
  100SAPC  C216 9992   1.203   4.668   3.678  0.2995  0.0414  0.0259
  100SAPC  H16R 9993   1.192   4.694   3.571 -1.8169 -0.2928  0.1218
  100SAPC  H16S 9994   1.298   4.711   3.716  0.5768 -0.3735 -0.1843
  100SAPC  C217 9995   1.076   4.740   3.733  0.4267 -1.1611  0.0056
  100SAPC  H17R 9996   1.061   4.700   3.835  0.0619  0.4733  0.6212
  100SAPC  H17S 9997   0.988   4.707   3.674  1.3726  1.8934 -3.4994
  100SAPC  C218 9998   1.081   4.898   3.742  0.2728  0.9605  0.4207
  100SAPC  H18R 9999   0.979   4.941   3.738 -1.5780 -2.9925  0.7569
  100SAPC  H18S10000   1.121   4.928   3.643  0.1357 -1.3341 -0.3921
  100SAPC  C21910001   1.170   4.935   3.864  0.2555 -0.1671  0.0899
  100SAPC  H19R10002   1.206   5.040   3.852  0.5559 -0.5034 -2.6800
  100SAPC  H19S10003   1.258   4.868   3.858 -0.0256 -0.4597 -1.2493
  100SAPC  C22010004   1.095   4.917   3.997  0.0367  0.0405  0.9478
  100SAPC  H20R10005   1.017   4.996   4.002  2.2547  2.2938  3.5453
  100SAPC  H20S10006   1.160   4.944   4.083 -1.6955  1.7723  1.7857
  100SAPC  H20T10007   1.048   4.817   4.010  0.5611 -0.2802  0.4485
  100SAPC   C3310008   2.253   4.007   2.668  0.1885  0.4176 -0.6432
  100SAPC   H3X10009   2.323   3.934   2.622  0.7941 -0.4613  1.5565
  100SAPC   H3Y10010   2.145   3.989   2.647 -0.3284  1.2392  1.0948
  100SAPC   C3410011   2.255   3.979   2.823 -0.2835  0.0257  0.2147
  100SAPC   H4X10012   2.352   4.006   2.870 -0.8734  1.7712  0.5003
  100SAPC   H4Y10013   2.232   3.872   2.843  1.3423 -0.0293  2.1573
  100SAPC   C3510014   2.136   4.050   2.894 -0.6197  0.2645  0.0826
  100SAPC   H5X10015   2.055   4.071   2.821 -0.4431  1.0021  0.0946
  100SAPC   H5Y10016   2.185   4.145   2.923 -0.5553  0.4757 -0.6938
  100SAPC   C3610017   2.087   3.978   3.024  0.1217  0.3209  0.5432
  100SAPC   H6X10018   2.006   4.046   3.057 -0.0839  0.6971 -0.6869
  100SAPC   H6Y10019   2.171   3.976   3.097  0.1140  0.0779  0.5452
  100SAPC   C3710020   2.026   3.834   3.015 -0.8666  1.0499  0.4375
  100SAPC   H7X10021   2.108   3.761   3.035 -0.6605  1.4193  0.9715
  100SAPC   H7Y10022   1.998   3.817   2.908 -0.4845  0.4483  0.4264
  100SAPC   C3810023   1.916   3.798   3.115 -0.3376  0.6718  0.4583
  100SAPC   H8X10024   1.880   3.694   3.103  0.0769  0.8029 -3.0208
  100SAPC   H8Y10025   1.829   3.856   3.077 -1.0531  0.1230  1.2336
  100SAPC   C3910026   1.939   3.841   3.259  0.3052 -0.1105  0.3268
  100SAPC   H9X10027   1.841   3.872   3.301 -0.1328 -0.9039 -0.0810
  100SAPC   H9Y10028   2.010   3.926   3.259  1.6870 -1.2032  1.9556
  100SAPC  C31010029   1.989   3.737   3.362 -0.1904  0.3157  0.0944
  100SAPC  H10X10030   2.076   3.686   3.314 -0.2660 -0.7979  1.0999
  100SAPC  H10Y10031   1.909   3.662   3.381  0.2670 -0.9813 -2.6101
  100SAPC  C31110032   2.037   3.812   3.487  0.0804 -0.0947  0.3316
  100SAPC  H11X10033   1.965   3.895   3.507 -2.1602 -1.4162 -1.6819
  100SAPC  H11Y10034   2.129   3.866   3.457 -1.2081  2.0214 -0.0488
  100SAPC  C31210035   2.058   3.728   3.615 -0.0681  0.7111 -0.3313
  100SAPC  H12X10036   2.130   3.647   3.591 -0.5178 -0.4400  1.9161
  100SAPC  H12Y10037   1.962   3.682   3.646  0.1681 -0.3572 -1.1574
  100SAPC  C31310038   2.120   3.824   3.719  0.0612  0.1465  0.9974
  100SAPC  H13X10039   2.067   3.916   3.687 -2.1818 -1.1881  0.5617
  100SAPC  H13Y10040   2.229   3.829   3.703  0.1739 -2.4664  0.4648
  100SAPC  C31410041   2.074   3.804   3.857 -0.2077 -0.1160 -0.3005
  100SAPC  H14X10042   2.140   3.724   3.896 -3.5039 -1.7218  2.5124
  100SAPC  H14Y10043   1.970   3.766   3.860 -0.3291  0.2301 -0.0687
  100SAPC  C31510044   2.079   3.925   3.946  0.4168 -0.6596 -0.1815
  100SAPC  H15X10045   2.187   3.948   3.963  0.8378 -2.5578 -0.0660
  100SAPC  H15Y10046   2.050   3.902   4.050 -1.7412  3.5960  0.3907
  100SAPC  C31610047   1.999   4.053   3.903 -0.8083 -0.1545 -0.0642
  100SAPC  H16X10048   1.900   4.019   3.865 -1.0764 -0.6521  1.0620
  100SAPC  H16Y10049   2.054   4.101   3.819 -0.1544 -1.3093 -0.3137
  100SAPC  C31710050   1.983   4.157   4.012 -1.5007  0.7578 -0.3617
  100SAPC  H17X10051   2.078   4.156   4.069 -2.7338 -1.7845  1.8158
  100SAPC  H17Y10052   1.907   4.120   4.083  0.1176 -1.6253  0.2175
  100SAPC  C31810053   1.956   4.300   3.973  0.2726 -0.4214  0.0047
  100SAPC  H18X10054   1.855   4.328   3.937  1.8660  2.9320 -2.5004
  100SAPC  H18Y10055   2.028   4.340   3.898 -0.6388  0.3169 -0.5028
  100SAPC  H18Z10056   1.983   4.354   4.066  1.7524  0.1295 -0.7092
  101OSM      N10057   3.703   3.064   6.855  0.1556  0.3850 -0.6339
  101OSM    C1510058   3.626   2.994   6.750  0.8257 -0.1297  0.7192
  101OSM   H15A10059   3.559   2.920   6.791  2.0330 -0.5029  2.1342
  101OSM   H15B10060   3.680   2.928   6.683  1.0428  0.9304 -0.1649
  101OSM   H15C10061   3.567   3.060   6.688  0.5491 -0.3184  0.7790
  101OSM    C1410062   3.811   3.156   6.797  0.0925  0.1774  0.6637
  101OSM   H14A10063   3.868   3.087   6.737 -2.2020  0.1329 -1.6474
  101OSM   H14B10064   3.859   3.208   6.878  0.7496  1.8423 -0.7409
  101OSM   H14C10065   3.760   3.232   6.740  2.0381  2.8913  2.3322
  101OSM    C1310066   3.606   3.147   6.926 -0.3434 -0.9271 -0.4470
  101OSM   H13A10067   3.655   3.212   6.997 -1.9347  1.7307 -1.6391
  101OSM   H13B10068   3.533   3.088   6.980 -1.3519  0.2078 -0.5243
  101OSM   H13C10069   3.542   3.203   6.859  1.2954  2.1395  0.4038
  101OSM    C1210070   3.771   2.971   6.953 -0.0105  0.2133  0.0265
  101OSM   H12A10071   3.709   2.890   6.987  2.1665 -1.6591 -0.2719
  101OSM   H12B10072   3.777   3.034   7.041  3.0499  0.9561 -0.6028
  101OSM    C1110073   3.909   2.913   6.916 -0.1459 -0.0023 -0.6599
  101OSM   H11A10074   3.942   2.858   7.007 -0.9994 -0.8433 -0.8449
  101OSM   H11B10075   3.986   2.992   6.903 -0.1525  0.3029  0.8658
  101OSM      P10076   3.918   2.684   6.810 -0.5115  0.1245 -0.7129
  101OSM    O1310077   4.060   2.648   6.828 -0.1636 -0.2229  0.0271
  101OSM    O1410078   3.834   2.627   6.913 -0.0550  0.3139  0.5357
  101OSM    O1110079   3.873   2.630   6.673 -0.2000  0.0605  0.0069
  101OSM    O1210080   3.909   2.838   6.794 -0.1104 -0.0229  0.5478
  101OSM    C1S10081   3.931   2.684   6.555  0.0337 -0.1892 -0.4316
  101OSM    H1S10082   4.034   2.644   6.545 -0.2902 -1.1760  0.0387
  101OSM    H1T10083   3.953   2.793   6.563 -1.4975  0.0856  0.7903
  101OSM     NF10084   3.903   2.716   6.311 -0.3831 -0.5898 -0.0852
  101OSM    HNF10085   3.858   2.803   6.291  0.8333 -0.3991 -2.3129
  101OSM    C2S10086   3.847   2.652   6.428 -0.0473  0.1567  0.0677
  101OSM    H2S10087   3.859   2.543   6.407  0.3701  0.7443 -3.3979
  101OSM    C3S10088   3.694   2.678   6.443  0.1298  0.1762  0.3656
  101OSM    H3S10089   3.695   2.788   6.456  1.0205  0.4561 -1.6985
  101OSM     O310090   3.631   2.614   6.557  0.2037  0.0535  0.0086
  101OSM    HO310091   3.708   2.575   6.600 -0.3956  1.1637  2.2073
  101OSM    C4S10092   3.621   2.647   6.315 -0.1315 -0.3467 -0.2543
  101OSM    H4S10093   3.654   2.556   6.264  1.4367 -0.0375  0.1473
  101OSM    C5S10094   3.550   2.744   6.248 -0.9091 -0.4650 -0.4884
  101OSM    H5S10095   3.544   2.840   6.301 -0.0192 -0.3262 -0.6202
  101OSM    C6S10096   3.497   2.757   6.108  0.5118  0.1472 -0.3316
  101OSM    H6S10097   3.400   2.811   6.112 -1.0965 -2.5498 -0.3137
  101OSM    H6T10098   3.460   2.656   6.081  1.1228 -0.4435  0.9311
  101OSM    C7S10099   3.599   2.806   6.006 -0.5270  0.0305  0.0017
  101OSM    H7S10100   3.682   2.732   6.014 -0.6273 -0.1659 -0.6723
  101OSM    H7T10101   3.632   2.910   6.025  0.0900 -0.3345  0.9942
  101OSM    C8S10102   3.546   2.797   5.865 -0.0073 -0.5728 -0.4815
  101OSM    H8S10103   3.437   2.813   5.881  0.4014  1.1378  0.8778
  101OSM    H8T10104   3.541   2.697   5.816  1.2184 -0.5316 -0.7176
  101OSM    C9S10105   3.597   2.905   5.770  0.2110  0.1796  0.1232
  101OSM    H9S10106   3.698   2.878   5.735  0.3566 -1.0439  1.4134
  101OSM    H9T10107   3.609   3.009   5.807  0.2058  0.2953 -0.1956
  101OSM   C10S10108   3.506   2.901   5.646 -0.5446  1.1717 -0.7035
  101OSM   H10S10109   3.415   2.959   5.675 -0.4592  0.1926  1.7574
  101OSM   H10T10110   3.470   2.797   5.633  0.0923  0.8738 -0.1295
  101OSM   C11S10111   3.573   2.953   5.520  0.0007 -0.4653 -0.0530
  101OSM   H11S10112   3.672   2.903   5.515  0.4063  0.3996 -1.1769
  101OSM   H11T10113   3.598   3.060   5.528 -0.7624 -0.3130  0.3448
  101OSM   C12S10114   3.504   2.913   5.391  0.1886 -0.0642  0.0349
  101OSM   H12S10115   3.414   2.978   5.394  1.2429  1.4436  0.4567
  101OSM   H12T10116   3.491   2.803   5.398 -1.9569  0.1327 -0.2911
  101OSM   C13S10117   3.585   2.952   5.271 -0.5286  0.8097  0.4291
  101OSM   H13S10118   3.683   2.901   5.280 -0.6338  0.3656 -0.7071
  101OSM   H13T10119   3.591   3.062   5.284  0.0969  0.8077  0.1614
  101OSM   C14S10120   3.528   2.902   5.133 -0.2450 -0.2301 -0.3377
  101OSM   H14S10121   3.430   2.952   5.121  1.1721  2.7323 -0.4418
  101OSM   H14T10122   3.522   2.793   5.153  1.5793 -0.1464  1.0034
  101OSM   C15S10123   3.624   2.936   5.022  1.0733 -0.0594  0.1860
  101OSM   H15S10124   3.648   3.045   5.024 -0.4691  0.2955  0.9544
  101OSM   H15T10125   3.584   2.920   4.920  0.8185 -2.5492  0.6139
  101OSM   C16S10126   3.754   2.860   5.021 -0.1278 -0.1441 -0.2481
  101OSM   H16S10127   3.741   2.750   5.029  1.2147 -0.2894  0.2356
  101OSM   H16T10128   3.805   2.894   5.114  1.0858  2.1199 -1.6469
  101OSM   C17S10129   3.833   2.900   4.895  0.5017  0.1737  0.5325
  101OSM   H17S10130   3.791   2.995   4.857  0.4419 -0.1422 -0.2084
  101OSM   H17T10131   3.807   2.830   4.813 -2.0813  0.7094  0.7954
  101OSM   C18S10132   3.978   2.892   4.923 -0.6711 -0.2003 -0.2551
  101OSM   H18S10133   4.004   2.974   4.993  1.8763 -1.7827  0.8245
  101OSM   H18T10134   4.038   2.921   4.834 -1.2924  0.2857 -0.5172
  101OSM   H18U10135   4.029   2.808   4.975 -0.5347  0.8551  1.4018
  101OSM    C1F10136   4.026   2.700   6.257  0.3542  0.7971 -0.1557
  101OSM     OF10137   4.104   2.623   6.308  0.5138 -0.3581  0.0832
  101OSM    C2F10138   4.064   2.770   6.131 -0.7651  0.2023 -0.3238
  101OSM    H2F10139   4.098   2.873   6.155  1.9172 -0.4911 -0.8698
  101OSM    H2G10140   3.977   2.774   6.062  0.8599 -0.1613 -2.5043
  101OSM    C3F10141   4.181   2.712   6.053 -0.5369  0.2613  0.2985
  101OSM    H3F10142   4.159   2.608   6.019  0.2667  0.9598 -2.6964
  101OSM    H3G10143   4.275   2.688   6.106 -1.0088 -1.5500  0.3933
  101OSM    C4F10144   4.223   2.803   5.936  0.2717 -0.2407 -0.0782
  101OSM    H4F10145   4.254   2.897   5.986 -0.2992 -0.2549  0.3039
  101OSM    H4G10146   4.134   2.828   5.876  0.7106 -2.0363 -1.5760
  101OSM    C5F10147   4.337   2.753   5.850 -0.3970  0.6449  0.2288
  101OSM    H5F10148   4.293   2.665   5.797 -2.4986  1.4860  0.4683
  101OSM    H5G10149   4.427   2.727   5.909 -0.8017 -1.0887  0.1438
  101OSM    C6F10150   4.378   2.853   5.740 -0.0244 -0.2111 -0.3456
  101OSM    H6F10151   4.477   2.841   5.691 -0.7053 -0.0209 -1.8200
  101OSM    H6G10152   4.375   2.956   5.783 -0.1722 -0.3633  0.0039
  101OSM    C7F10153   4.283   2.858   5.615 -0.1355  0.1289 -0.6444
  101OSM    H7F10154   4.182   2.874   5.658 -0.1563 -0.7468 -0.3580
  101OSM    H7G10155   4.277   2.759   5.566 -1.1642 -0.6394  0.9392
  101OSM    C8F10156   4.299   2.974   5.511 -0.6084  0.6123  0.1768
  101OSM    H8F10157   4.330   3.069   5.560  2.7169  0.5696 -1.5102
  101OSM    H8G10158   4.203   2.988   5.458  0.0580 -1.2683 -1.6796
  101OSM    C9F10159   4.409   2.934   5.419 -0.3731  0.2334 -0.3000
  101OSM    H9F10160   4.405   2.828   5.388 -0.0626  0.7503 -2.2539
  101OSM   C10F10161   4.507   3.010   5.370 -0.0379 -0.0781 -0.1134
  101OSM   H10F10162   4.567   2.964   5.291  0.0331  0.6341 -0.4867
  101OSM   C11F10163   4.535   3.153   5.400 -0.3288 -0.8716 -0.1872
  101OSM   H11F10164   4.441   3.211   5.408 -0.7100 -1.4263 -0.6005
  101OSM   H11G10165   4.605   3.195   5.325  3.4900 -4.2600  1.1223
  101OSM   C12F10166   4.616   3.162   5.541 -0.7572  0.0243 -0.0506
  101OSM   H12F10167   4.569   3.091   5.612 -1.0529 -1.5140 -1.6976
  101OSM   H12G10168   4.611   3.267   5.575  0.3911 -0.1141  0.6024
  101OSM   C13F10169   4.772   3.137   5.531  0.2496 -0.0546 -0.3714
  101OSM   H13F10170   4.814   3.210   5.457  1.4388 -1.4108 -1.0933
  101OSM   H13G10171   4.797   3.033   5.499  0.8252 -0.0373  0.0142
  101OSM   C14F10172   4.839   3.169   5.663 -0.1160  0.0578  0.3926
  101OSM   H14F10173   4.810   3.086   5.732  0.3027 -2.7595 -2.5656
  101OSM   H14G10174   4.810   3.270   5.699  0.0593  1.2532 -2.5377
  101OSM   C15F10175   5.002   3.161   5.649 -1.1350 -0.7152  0.3589
  101OSM   H15F10176   5.026   3.053   5.642 -2.8438 -1.2443  1.8011
  101OSM   H15G10177   5.047   3.185   5.748  0.3954 -0.3043 -0.4192
  101OSM   C16F10178   5.066   3.258   5.546  0.9370 -0.0787 -0.2650
  101OSM   H16F10179   5.152   3.313   5.590  0.5522 -0.0858  0.5041
  101OSM   H16G10180   4.987   3.333   5.523  0.7150 -0.3770 -0.4811
  101OSM   C17F10181   5.125   3.180   5.428 -0.2990  0.1029  0.0597
  101OSM   H17F10182   5.048   3.110   5.391 -0.5885  1.5113 -2.1762
  101OSM   H17G10183   5.209   3.117   5.465 -0.9164 -1.3325 -0.9181
  101OSM   C18F10184   5.186   3.271   5.326  0.3555  0.2238 -0.9612
  101OSM   H18F10185   5.103   3.328   5.279 -1.0942  0.5753  1.7733
  101OSM   H18G10186   5.248   3.206   5.262  1.1945 -1.7271  1.6440
  101OSM   H18H10187   5.264   3.341   5.365  1.8774 -1.4418 -0.9238
  102OSM      N10188   4.900   2.299   7.048 -0.5737  0.2024  0.1998
  102OSM    C1510189   4.901   2.373   7.176  0.2458  0.0409  0.1690
  102OSM   H15A10190   4.971   2.455   7.175  0.2630  0.0448  1.2109
  102OSM   H15B10191   4.923   2.313   7.263 -1.2579  1.4509  1.5821
  102OSM   H15C10192   4.803   2.414   7.196  0.6542  1.3290 -0.3594
  102OSM    C1410193   5.031   2.236   7.022  0.2231 -0.2480  0.3356
  102OSM   H14A10194   5.109   2.306   6.996  0.8789  0.4579  3.7094
  102OSM   H14B10195   5.021   2.158   6.948  0.9022  0.5326 -0.5943
  102OSM   H14C10196   5.069   2.179   7.106 -0.1737 -0.1746  0.5700
  102OSM    C1310197   4.795   2.194   7.049 -0.0782 -0.0141  0.0413
  102OSM   H13A10198   4.814   2.112   7.117  0.7902 -1.8045 -2.2340
  102OSM   H13B10199   4.791   2.158   6.947 -0.3039 -0.9279  0.3660
  102OSM   H13C10200   4.701   2.242   7.072 -0.4376 -0.5552 -0.2646
  102OSM    C1210201   4.867   2.398   6.936 -0.2835  0.6048 -0.4733
  102OSM   H12A10202   4.937   2.480   6.936  0.2584  0.1653 -1.8528
  102OSM   H12B10203   4.775   2.449   6.958 -1.6040 -1.8563  0.1323
  102OSM    C1110204   4.855   2.346   6.794 -0.0228 -0.3334 -0.1707
  102OSM   H11A10205   4.955   2.305   6.767 -1.1440 -2.0548 -1.9692
  102OSM   H11B10206   4.827   2.435   6.734  4.3203  0.7563 -0.9164
  102OSM      P10207   4.786   2.109   6.706  0.2532  0.0350  0.3675
  102OSM    O1310208   4.904   2.119   6.622  0.0283  0.3608  0.0004
  102OSM    O1410209   4.798   2.005   6.814  0.4489 -0.1802  0.6159
  102OSM    O1110210   4.663   2.076   6.617  0.1064  0.2323  0.3347
  102OSM    O1210211   4.753   2.249   6.777  0.1591  0.0176  0.6244
  102OSM    C1S10212   4.634   2.151   6.499 -0.3733  0.6341  0.5406
  102OSM    H1S10213   4.715   2.140   6.423  0.0385  1.5994  0.8214
  102OSM    H1T10214   4.629   2.260   6.519  0.0014  0.8685 -0.5889
  102OSM     NF10215   4.477   2.184   6.313 -0.4202  0.0564  0.2233
  102OSM    HNF10216   4.408   2.254   6.329  0.9930  1.2453  1.3387
  102OSM    C2S10217   4.497   2.108   6.441 -0.2941 -0.0412  0.2788
  102OSM    H2S10218   4.497   1.998   6.429  0.5228 -0.0269  0.0833
  102OSM    C3S10219   4.393   2.138   6.554  0.3471  0.5382  0.7538
  102OSM    H3S10220   4.417   2.243   6.578  1.4692  0.9396 -1.8079
  102OSM     O310221   4.403   2.055   6.665 -0.2906  0.4797 -0.8054
  102OSM    HO310222   4.493   2.025   6.651 -0.1591  0.7756 -0.5967
  102OSM    C4S10223   4.258   2.109   6.500 -0.2604 -0.3765 -0.6092
  102OSM    H4S10224   4.235   2.009   6.461  2.0757 -0.7425 -1.1897
  102OSM    C5S10225   4.167   2.205   6.472 -0.3426  0.2589 -0.0211
  102OSM    H5S10226   4.188   2.312   6.474 -0.2520  0.2390  0.0524
  102OSM    C6S10227   4.044   2.170   6.389  0.2044  0.0406 -0.3820
  102OSM    H6S10228   3.960   2.186   6.459  2.0291 -0.4650  2.0336
  102OSM    H6T10229   4.040   2.064   6.356 -2.4082  0.0020 -0.1527
  102OSM    C7S10230   4.028   2.244   6.260  0.5431  0.1061  0.0019
  102OSM    H7S10231   4.099   2.205   6.185  2.0497 -2.2160  2.4789
  102OSM    H7T10232   4.049   2.351   6.282  1.5417  0.1429 -1.0568
  102OSM    C8S10233   3.887   2.225   6.197 -0.0830  0.1643 -0.0408
  102OSM    H8S10234   3.805   2.272   6.255 -0.0986 -0.6562  0.6135
  102OSM    H8T10235   3.867   2.116   6.191  0.7687  0.0440 -1.2351
  102OSM    C9S10236   3.891   2.272   6.040  0.8672 -0.1782 -0.2835
  102OSM    H9S10237   3.788   2.255   6.000  0.4575 -1.9472  1.3432
  102OSM    H9T10238   3.947   2.197   5.981 -0.0726 -0.0354 -1.4016
  102OSM   C10S10239   3.944   2.407   6.011  0.0920 -0.8754 -0.2011
  102OSM   H10S10240   4.055   2.407   6.004  0.3065 -0.7351  2.3511
  102OSM   H10T10241   3.912   2.477   6.091  0.6620 -0.8902  0.0457
  102OSM   C11S10242   3.887   2.465   5.878  0.8739  0.1462 -0.4312
  102OSM   H11S10243   3.874   2.571   5.907  0.3715 -0.4773  1.8266
  102OSM   H11T10244   3.783   2.424   5.874  1.2372 -0.7165 -2.9060
  102OSM   C12S10245   3.964   2.422   5.752  0.4640  0.1396 -1.0435
  102OSM   H12S10246   3.956   2.312   5.766  2.2165 -0.0126 -1.1418
  102OSM   H12T10247   4.072   2.440   5.768  0.5950  1.0383 -2.8039
  102OSM   C13S10248   3.910   2.467   5.616 -0.5046 -0.3371  0.1023
  102OSM   H13S10249   3.809   2.423   5.599 -0.5985  1.1467 -4.0421
  102OSM   H13T10250   3.981   2.430   5.539  1.0341  3.2999 -0.4119
  102OSM   C14S10251   3.886   2.615   5.597 -0.2011 -0.7376  1.0690
  102OSM   H14S10252   3.976   2.675   5.625  0.5562 -2.0529  1.5181
  102OSM   H14T10253   3.805   2.644   5.667 -1.3736 -0.7451 -0.2588
  102OSM   C15S10254   3.841   2.655   5.456  0.6309 -0.1543  0.0460
  102OSM   H15S10255   3.821   2.764   5.452  0.1955 -0.2798 -2.5448
  102OSM   H15T10256   3.751   2.594   5.433  0.7003 -0.0462 -0.5112
  102OSM   C16S10257   3.936   2.625   5.344 -0.3835  0.0333 -0.0051
  102OSM   H16S10258   3.904   2.668   5.246 -0.6263 -2.3003 -1.0096
  102OSM   H16T10259   3.932   2.523   5.300  0.7015  0.2807 -0.7226
  102OSM   C17S10260   4.082   2.668   5.369  0.2009  0.3303 -0.9460
  102OSM   H17S10261   4.137   2.599   5.436 -1.7542 -1.5452 -1.1399
  102OSM   H17T10262   4.071   2.758   5.433 -1.6985 -2.0261  2.3934
  102OSM   C18S10263   4.163   2.706   5.244 -0.1104 -0.3356 -0.0869
  102OSM   H18S10264   4.265   2.747   5.263 -1.0429  1.4488  1.3263
  102OSM   H18T10265   4.105   2.785   5.193  1.0198  0.1037 -0.7251
  102OSM   H18U10266   4.162   2.614   5.182 -0.2746 -1.2439  1.2172
  102OSM    C1F10267   4.540   2.155   6.196  0.3495 -0.8848 -0.9140
  102OSM     OF10268   4.621   2.062   6.191  0.2452  0.7715 -0.2646
  102OSM    C2F10269   4.506   2.226   6.065  0.3484  0.3476 -0.1300
  102OSM    H2F10270   4.570   2.316   6.062  1.2685 -0.2472  0.8763
  102OSM    H2G10271   4.398   2.254   6.066  1.0339  3.2351  0.6115
  102OSM    C3F10272   4.525   2.147   5.937 -0.5609 -0.1951  0.6179
  102OSM    H3F10273   4.485   2.045   5.955  0.8456 -0.7747  0.6506
  102OSM    H3G10274   4.634   2.142   5.915 -0.5282 -1.1827  0.9541
  102OSM    C4F10275   4.468   2.217   5.807 -0.0281  0.7031 -1.0788
  102OSM    H4F10276   4.361   2.217   5.834  0.4319 -1.5209  1.0658
  102OSM    H4G10277   4.492   2.150   5.722 -3.8092 -0.0279 -1.7126
  102OSM    C5F10278   4.504   2.364   5.765 -0.7443  1.0771 -1.1672
  102OSM    H5F10279   4.613   2.367   5.743 -0.3498  0.5487  0.6091
  102OSM    H5G10280   4.482   2.434   5.848 -0.7559 -0.8001  0.4721
  102OSM    C6F10281   4.447   2.416   5.630 -0.3248 -0.2433 -0.3207
  102OSM    H6F10282   4.500   2.510   5.604 -2.1864  1.2194  0.9431
  102OSM    H6G10283   4.342   2.451   5.638 -0.7501 -1.3632 -0.7770
  102OSM    C7F10284   4.448   2.324   5.507  0.8925  0.6360  0.0548
  102OSM    H7F10285   4.395   2.229   5.530 -1.5063  1.4922 -1.5097
  102OSM    H7G10286   4.555   2.301   5.486  0.2007 -1.8017 -1.3222
  102OSM    C8F10287   4.385   2.384   5.382  0.2150  0.5490  0.1658
  102OSM    H8F10288   4.436   2.481   5.371  2.0957 -0.4510 -0.3768
  102OSM    H8G10289   4.276   2.404   5.395 -0.9517 -1.7402 -4.2143
  102OSM    C9F10290   4.410   2.298   5.260 -0.1764 -0.0571 -0.6587
  102OSM    H9F10291   4.406   2.189   5.276  2.7571 -0.6649 -2.9729
  102OSM   C10F10292   4.449   2.338   5.142 -0.0324 -0.2217  0.7268
  102OSM   H10F10293   4.469   2.263   5.064 -1.8942  0.4691 -0.4738
  102OSM   C11F10294   4.483   2.484   5.112  0.3555  0.8477  0.3699
  102OSM   H11F10295   4.585   2.485   5.069 -0.2854  2.1207 -1.2213
  102OSM   H11G10296   4.500   2.553   5.198  3.0682 -2.0662  2.4093
  102OSM   C12F10297   4.402   2.547   4.996  0.5329 -0.5495  0.0826
  102OSM   H12F10298   4.298   2.550   5.036  0.7327 -0.6942  0.6129
  102OSM   H12G10299   4.402   2.472   4.914  0.3970 -2.6304  1.9046
  102OSM   C13F10300   4.466   2.685   4.946  0.3366 -0.1316 -0.2951
  102OSM   H13F10301   4.536   2.662   4.863 -1.1773 -0.6325 -1.4624
  102OSM   H13G10302   4.526   2.730   5.028  2.4009  0.3252 -1.9740
  102OSM   C14F10303   4.369   2.794   4.899 -0.1147  0.2626  0.2080
  102OSM   H14F10304   4.348   2.860   4.986 -1.0091  0.2828 -0.0131
  102OSM   H14G10305   4.276   2.734   4.884 -0.0931 -0.0910  1.4066
  102OSM   C15F10306   4.409   2.865   4.777 -0.1751 -0.8423  0.3025
  102OSM   H15F10307   4.413   2.794   4.691  0.9644  0.0446 -0.4036
  102OSM   H15G10308   4.513   2.901   4.792 -0.8072  1.0693  0.3494
  102OSM   C16F10309   4.313   2.972   4.735 -0.5013 -0.4046 -0.6193
  102OSM   H16F10310   4.294   3.038   4.822 -1.7305 -0.9879 -0.4247
  102OSM   H16G10311   4.218   2.920   4.708  0.4303 -3.6877  1.8218
  102OSM   C17F10312   4.362   3.056   4.611 -0.5130  0.0565  0.2621
  102OSM   H17F10313   4.357   2.989   4.523 -0.3396 -0.4891  0.6608
  102OSM   H17G10314   4.471   3.081   4.617 -0.5179  0.1135  0.1321
  102OSM   C18F10315   4.272   3.179   4.584  0.2042  0.3869 -0.3040
  102OSM   H18F10316   4.317   3.240   4.502 -0.6533  0.5486 -0.6615
  102OSM   H18G10317   4.290   3.242   4.675  1.8915  0.3300 -0.5653
  102OSM   H18H10318   4.166   3.151   4.567  0.2840 -0.0271 -0.1120
  103OSM      N10319   3.802   5.007   6.662 -0.4513 -0.1008  0.1422
  103OSM    C1510320   3.691   5.037   6.575  0.0355  0.4693  0.9939
  103OSM   H15A10321   3.642   4.942   6.560 -0.9739  1.0840  0.3207
  103OSM   H15B10322   3.719   5.083   6.481 -1.7272 -1.5026 -0.6072
  103OSM   H15C10323   3.628   5.117   6.610  2.1337  2.8276 -0.2789
  103OSM    C1410324   3.866   5.134   6.698  0.1774 -0.4788  0.1338
  103OSM   H14A10325   3.882   5.201   6.614 -1.5873 -0.1979 -0.0170
  103OSM   H14B10326   3.960   5.113   6.748  0.0855 -2.7222 -0.5097
  103OSM   H14C10327   3.795   5.179   6.766 -1.5457 -0.3167 -1.6966
  103OSM    C1310328   3.755   4.931   6.786 -0.2930  0.0081 -0.4748
  103OSM   H13A10329   3.688   4.988   6.848  1.3276 -0.4036  1.7894
  103OSM   H13B10330   3.836   4.913   6.856 -0.2327  1.8014 -0.0328
  103OSM   H13C10331   3.708   4.841   6.750  1.0353 -0.8342 -0.2104
  103OSM    C1210332   3.905   4.917   6.592 -0.1895  0.2243  0.0656
  103OSM   H12A10333   3.993   4.904   6.653  0.2846  0.7679 -0.5036
  103OSM   H12B10334   3.944   4.960   6.501  0.9168 -1.4691 -0.3080
  103OSM    C1110335   3.868   4.773   6.557  0.0311 -0.0780 -0.0843
  103OSM   H11A10336   3.922   4.735   6.467 -3.0432 -3.1561 -0.8075
  103OSM   H11B10337   3.760   4.766   6.536 -0.3803  1.9728  1.0548
  103OSM      P10338   4.031   4.673   6.731  0.1804 -0.1484  0.3836
  103OSM    O1310339   4.059   4.787   6.815  0.2283 -0.5099  0.7152
  103OSM    O1410340   4.037   4.542   6.797  0.0894  0.5043  0.2270
  103OSM    O1110341   4.116   4.669   6.597  0.2958 -0.0752  0.4128
  103OSM    O1210342   3.889   4.690   6.670 -0.5162 -0.2253 -0.0049
  103OSM    C1S10343   4.124   4.548   6.515 -0.1767 -0.7739 -1.2093
  103OSM    H1S10344   4.025   4.516   6.475 -0.0896 -2.3226 -0.2898
  103OSM    H1T10345   4.167   4.461   6.569 -2.4437  0.0162  2.1759
  103OSM     NF10346   4.214   4.482   6.285  0.0055  0.1554 -0.2217
  103OSM    HNF10347   4.306   4.447   6.269 -0.5588 -2.8649  2.1372
  103OSM    C2S10348   4.219   4.582   6.388 -0.2470  0.1829 -0.8151
  103OSM    H2S10349   4.157   4.661   6.340 -1.1018  0.4933  0.7078
  103OSM    C3S10350   4.363   4.627   6.434  0.6962 -0.3658  0.2714
  103OSM    H3S10351   4.421   4.540   6.471  1.4935  0.2104  0.4066
  103OSM     O310352   4.374   4.718   6.545 -0.5183 -0.1542 -0.2494
  103OSM    HO310353   4.286   4.725   6.581 -0.4614 -2.3300  0.4443
  103OSM    C4S10354   4.436   4.685   6.318  0.2911 -0.3495  0.9648
  103OSM    H4S10355   4.396   4.782   6.285  1.5677 -0.1147  0.0415
  103OSM    C5S10356   4.538   4.629   6.247  0.2394  0.2102  0.6998
  103OSM    H5S10357   4.566   4.526   6.274 -0.7265 -0.4447 -0.6419
  103OSM    C6S10358   4.612   4.677   6.131 -0.8120 -0.1233 -0.1037
  103OSM    H6S10359   4.720   4.693   6.151 -0.8738  0.5459 -0.2886
  103OSM    H6T10360   4.581   4.781   6.109  0.1323  0.2688  0.3794
  103OSM    C7S10361   4.593   4.587   6.008  0.1755  0.1209 -0.6533
  103OSM    H7S10362   4.486   4.559   5.995  0.3244 -1.9712  1.8192
  103OSM    H7T10363   4.639   4.493   6.043  0.4185  1.0289  1.5735
  103OSM    C8S10364   4.670   4.633   5.881 -0.2135 -0.2688  0.0756
  103OSM    H8S10365   4.781   4.623   5.880 -0.0983  0.4465  1.6548
  103OSM    H8T10366   4.647   4.741   5.872 -2.1196 -0.5879  0.6712
  103OSM    C9S10367   4.618   4.549   5.760 -0.3401  0.1637  0.2983
  103OSM    H9S10368   4.509   4.567   5.769 -0.2279  0.1842  1.9110
  103OSM    H9T10369   4.660   4.446   5.761  0.7137  0.5674 -0.6312
  103OSM   C10S10370   4.661   4.608   5.622 -0.0143 -0.4105 -0.1201
  103OSM   H10S10371   4.772   4.595   5.619 -0.0604 -1.0444  0.5729
  103OSM   H10T10372   4.635   4.716   5.619 -2.0753 -0.8254  1.2218
  103OSM   C11S10373   4.586   4.543   5.501 -0.5856 -0.3860  0.3175
  103OSM   H11S10374   4.475   4.543   5.513 -0.6334 -0.4576 -0.1229
  103OSM   H11T10375   4.623   4.439   5.515 -1.7985 -0.9117 -0.2220
  103OSM   C12S10376   4.649   4.608   5.376 -0.5111 -0.0146  0.2241
  103OSM   H12S10377   4.756   4.579   5.372 -0.6864 -0.5042 -2.2052
  103OSM   H12T10378   4.649   4.719   5.389  1.9508  0.1387 -0.4994
  103OSM   C13S10379   4.578   4.565   5.248  1.2859  0.2670  0.2052
  103OSM   H13S10380   4.469   4.571   5.268  0.5515 -1.0303 -2.8242
  103OSM   H13T10381   4.588   4.457   5.224  0.9447  0.1968  0.3787
  103OSM   C14S10382   4.617   4.653   5.132  0.0471  0.9484  0.8495
  103OSM   H14S10383   4.725   4.678   5.125  0.0697  0.4517 -1.7284
  103OSM   H14T10384   4.569   4.753   5.133  2.2213  2.0666 -0.1770
  103OSM   C15S10385   4.584   4.588   4.991 -0.3848  0.3847  0.3232
  103OSM   H15S10386   4.598   4.662   4.910 -1.8857  1.1214  0.7149
  103OSM   H15T10387   4.478   4.558   4.980  0.0393 -0.1059 -4.9515
  103OSM   C16S10388   4.685   4.474   4.955 -0.7376 -0.0705 -0.5030
  103OSM   H16S10389   4.656   4.388   5.020  4.0140 -0.2621  1.7271
  103OSM   H16T10390   4.791   4.502   4.970 -0.7015  1.0872 -2.6122
  103OSM   C17S10391   4.683   4.428   4.808 -0.1276  0.4999  0.2246
  103OSM   H17S10392   4.580   4.444   4.770  0.3709 -0.6699 -1.7430
  103OSM   H17T10393   4.706   4.320   4.800 -0.2824  0.5086 -0.3927
  103OSM   C18S10394   4.760   4.513   4.697 -0.1864 -0.3632 -0.6334
  103OSM   H18S10395   4.726   4.494   4.592 -1.8695 -0.7976 -0.0461
  103OSM   H18T10396   4.868   4.486   4.703 -0.0296  0.4030  0.1182
  103OSM   H18U10397   4.752   4.622   4.713  0.5173 -0.1950 -1.3320
  103OSM    C1F10398   4.116   4.444   6.210  0.0114 -0.2674 -1.0016
  103OSM     OF10399   4.005   4.450   6.255 -0.9170  0.0850  0.0685
  103OSM    C2F10400   4.150   4.390   6.076 -0.1871  0.5426 -0.3796
  103OSM    H2F10401   4.116   4.286   6.057 -0.4964  0.5700  0.0001
  103OSM    H2G10402   4.260   4.398   6.061 -0.2245 -0.6456 -1.4373
  103OSM    C3F10403   4.087   4.469   5.961  0.2408 -0.6152 -1.1211
  103OSM    H3F10404   4.127   4.572   5.960  1.2210 -0.9953 -1.9731
  103OSM    H3G10405   3.983   4.466   6.000  1.1152  1.6172  1.7662
  103OSM    C4F10406   4.121   4.400   5.831  0.2196  0.0112  1.0883
  103OSM    H4F10407   4.076   4.301   5.811 -3.9382  1.7618  0.7334
  103OSM    H4G10408   4.232   4.391   5.822  0.1109 -0.7299  0.4047
  103OSM    C5F10409   4.081   4.500   5.727 -0.2901  0.2634 -0.0526
  103OSM    H5F10410   4.108   4.602   5.762 -0.2379  0.2174  0.0426
  103OSM    H5G10411   3.971   4.504   5.712 -0.3276 -1.1534 -0.2595
  103OSM    C6F10412   4.156   4.486   5.591  0.0095 -0.0515 -0.2784
  103OSM    H6F10413   4.136   4.384   5.552  0.0638  0.6916 -2.4062
  103OSM    H6G10414   4.266   4.491   5.602 -0.2156  2.1610  1.8943
  103OSM    C7F10415   4.123   4.589   5.490  0.0685  0.3014  0.0214
  103OSM    H7F10416   4.142   4.686   5.541  0.4595 -0.0906  0.6424
  103OSM    H7G10417   4.012   4.580   5.482 -0.3050 -2.3960  4.4670
  103OSM    C8F10418   4.200   4.598   5.364 -0.4263 -0.2472  0.3122
  103OSM    H8F10419   4.309   4.606   5.381 -0.3617  0.5690 -0.3874
  103OSM    H8G10420   4.183   4.691   5.306  4.5276 -0.6413 -2.2937
  103OSM    C9F10421   4.176   4.480   5.272  0.2322 -0.1745  0.5516
  103OSM    H9F10422   4.202   4.383   5.316 -1.1093 -0.8617 -0.0951
  103OSM   C10F10423   4.130   4.476   5.142 -0.0574 -0.0619 -0.2962
  103OSM   H10F10424   4.149   4.387   5.081 -1.1903  0.0274 -0.8023
  103OSM   C11F10425   4.086   4.598   5.067 -0.3872 -0.4553  0.2902
  103OSM   H11F10426   4.159   4.681   5.075 -0.2483 -0.6797  1.5815
  103OSM   H11G10427   3.990   4.637   5.104 -2.0378 -2.5987 -1.4282
  103OSM   C12F10428   4.081   4.559   4.915 -0.0467 -0.0389 -0.5893
  103OSM   H12F10429   4.036   4.641   4.855 -0.1143  0.3492 -0.0097
  103OSM   H12G10430   4.026   4.467   4.885  0.7040 -0.9942  0.8253
  103OSM   C13F10431   4.219   4.554   4.843  0.9327  1.1673  0.0636
  103OSM   H13F10432   4.279   4.462   4.864  1.3420  1.6415  1.0545
  103OSM   H13G10433   4.282   4.638   4.880  3.2658  0.2954 -1.6767
  103OSM   C14F10434   4.200   4.563   4.689 -0.1410  0.9363 -0.2170
  103OSM   H14F10435   4.132   4.644   4.658 -0.2328  0.2571 -1.9153
  103OSM   H14G10436   4.155   4.464   4.665 -0.7577  0.6779  1.8786
  103OSM   C15F10437   4.337   4.565   4.610  0.0728  0.4841  0.0266
  103OSM   H15F10438   4.309   4.570   4.503 -0.7867 -1.1849  0.1480
  103OSM   H15G10439   4.383   4.465   4.623  0.2157  0.4929 -0.3961
  103OSM   C16F10440   4.444   4.677   4.632 -0.0669  0.1297 -0.3692
  103OSM   H16F10441   4.532   4.659   4.566 -1.1713 -0.2454 -1.8009
  103OSM   H16G10442   4.489   4.646   4.729 -0.2463  0.6386 -0.1169
  103OSM   C17F10443   4.390   4.818   4.633 -0.2385 -0.6937 -0.1932
  103OSM   H17F10444   4.464   4.894   4.665 -1.0921  0.4363 -0.8206
  103OSM   H17G10445   4.304   4.829   4.702  0.2052  2.0411  0.0446
  103OSM   C18F10446   4.340   4.851   4.497 -0.0575  0.4571  0.5577
  103OSM   H18F10447   4.415   4.811   4.426 -0.7569  0.8576 -0.4357
  103OSM   H18G10448   4.323   4.958   4.473 -1.1272 -0.1650 -1.8398
  103OSM   H18H10449   4.248   4.793   4.472  0.9508 -0.9820 -0.0236
  104OSM      N10450   5.355   3.095   7.137  0.2225 -0.8761  0.0143
  104OSM    C1510451   5.295   3.061   7.004 -0.3872 -0.5349  0.5702
  104OSM   H15A10452   5.338   2.969   6.968  2.2148  1.0013 -0.5647
  104OSM   H15B10453   5.327   3.132   6.928  0.8155  0.3884  1.8956
  104OSM   H15C10454   5.187   3.051   7.000 -0.4646  0.4855 -1.7450
  104OSM    C1410455   5.307   2.989   7.229 -0.3272  0.3520 -0.4135
  104OSM   H14A10456   5.340   2.889   7.205  1.2597  0.6220  0.4409
  104OSM   H14B10457   5.200   2.976   7.237 -0.1459 -0.2505  1.6870
  104OSM   H14C10458   5.347   3.007   7.328  1.7344 -0.8583 -0.9736
  104OSM    C1310459   5.504   3.096   7.126  0.7666 -0.2017 -0.2665
  104OSM   H13A10460   5.546   3.101   7.226  0.4899 -0.5022 -0.1346
  104OSM   H13B10461   5.526   3.185   7.068 -0.0927  0.2066  0.0178
  104OSM   H13C10462   5.543   3.010   7.074 -1.2025 -1.0297 -0.4581
  104OSM    C1210463   5.316   3.236   7.183 -0.1630  0.4442 -0.2583
  104OSM   H12A10464   5.381   3.252   7.268  0.5093  0.8289 -0.8366
  104OSM   H12B10465   5.213   3.231   7.214 -0.0518  0.6947  0.1547
  104OSM    C1110466   5.328   3.353   7.092 -0.0660 -0.2598 -0.1110
  104OSM   H11A10467   5.277   3.442   7.136 -1.4109  0.5046 -2.9743
  104OSM   H11B10468   5.261   3.339   7.005  0.3424 -3.5273 -0.0250
  104OSM      P10469   5.503   3.399   6.907  0.2524  0.0651 -0.1483
  104OSM    O1310470   5.440   3.528   6.865 -0.6334  0.0732 -0.2585
  104OSM    O1410471   5.648   3.384   6.904 -0.3113  0.0440 -0.3659
  104OSM    O1110472   5.447   3.281   6.823  0.8221 -0.7310  0.3468
  104OSM    O1210473   5.467   3.373   7.056 -0.2183  0.8590 -0.3752
  104OSM    C1S10474   5.414   3.298   6.685  0.2627 -0.4272 -0.1308
  104OSM    H1S10475   5.436   3.395   6.635 -0.3124 -0.8673 -1.2749
  104OSM    H1T10476   5.307   3.277   6.663  0.5075 -0.3028 -1.5298
  104OSM     NF10477   5.411   3.199   6.467  0.0143 -0.0148  0.2097
  104OSM    HNF10478   5.352   3.122   6.443 -0.5095 -0.0815  1.5797
  104OSM    C2S10479   5.480   3.195   6.590 -0.9237 -0.1197 -0.4778
  104OSM    H2S10480   5.585   3.219   6.567 -1.6923  1.0830 -3.0619
  104OSM    C3S10481   5.481   3.043   6.655 -0.0377 -0.1083  0.1679
  104OSM    H3S10482   5.382   3.018   6.699  0.0354 -0.2425  0.2571
  104OSM     O310483   5.568   3.030   6.763  1.0036  0.3238 -0.1634
  104OSM    HO310484   5.573   3.119   6.799  1.9646  0.8737 -1.5732
  104OSM    C4S10485   5.532   2.958   6.551  0.3138  0.6510  0.1348
  104OSM    H4S10486   5.634   2.981   6.515  1.8995  0.3014  3.9766
  104OSM    C5S10487   5.475   2.849   6.503  0.1890  0.1721  0.7997
  104OSM    H5S10488   5.382   2.809   6.545 -0.6294 -0.8878 -1.8053
  104OSM    C6S10489   5.526   2.752   6.398 -0.2005  0.7566 -0.4003
  104OSM    H6S10490   5.458   2.760   6.311 -0.5885  2.2079  0.0053
  104OSM    H6T10491   5.533   2.650   6.443  1.3337  1.2878  0.6705
  104OSM    C7S10492   5.666   2.773   6.350 -0.0886 -0.4304  0.5696
  104OSM    H7S10493   5.707   2.674   6.321 -0.9964 -0.7184  0.2343
  104OSM    H7T10494   5.732   2.818   6.428  0.1895  0.6220 -0.2437
  104OSM    C8S10495   5.665   2.861   6.229 -0.5972 -0.0679  0.5236
  104OSM    H8S10496   5.763   2.911   6.215 -1.0548  0.1811 -2.5461
  104OSM    H8T10497   5.586   2.939   6.226 -1.1753 -0.6218 -2.8371
  104OSM    C9S10498   5.651   2.777   6.101  0.0994  0.4951  0.2991
  104OSM    H9S10499   5.620   2.852   6.026 -0.1845  0.5459  0.4660
  104OSM    H9T10500   5.562   2.713   6.121 -0.7613  1.6197  0.1744
  104OSM   C10S10501   5.774   2.692   6.050  0.4544 -0.3147  0.0168
  104OSM   H10S10502   5.728   2.620   5.980 -0.8770  0.3548  0.1817
  104OSM   H10T10503   5.819   2.628   6.129 -0.1717 -1.6626 -0.6895
  104OSM   C11S10504   5.866   2.771   5.960  0.1395  0.1436  0.6846
  104OSM   H11S10505   5.897   2.855   6.026  0.5341 -0.7444  1.6599
  104OSM   H11T10506   5.814   2.823   5.877 -2.7544 -0.0544  2.2594
  104OSM   C12S10507   5.971   2.672   5.908 -0.2050 -0.1811  0.3219
  104OSM   H12S10508   5.915   2.599   5.845  0.1919  0.4791 -0.8339
  104OSM   H12T10509   6.028   2.615   5.985  1.7362  2.5840  1.1045
  104OSM   C13S10510   6.083   2.729   5.816 -0.3480  0.1304 -0.2363
  104OSM   H13S10511   6.142   2.645   5.774 -0.4772 -0.0903  0.0192
  104OSM   H13T10512   6.159   2.797   5.858 -0.2836  2.2558 -3.4288
  104OSM   C14S10513   6.037   2.811   5.692 -0.1016 -0.0105 -0.0910
  104OSM   H14S10514   6.130   2.855   5.649  1.8108 -3.0158  0.6879
  104OSM   H14T10515   5.977   2.903   5.707  0.4827  0.3008  0.3708
  104OSM   C15S10516   5.975   2.732   5.576 -0.4097 -1.4103 -0.0766
  104OSM   H15S10517   6.020   2.630   5.570 -1.4025 -1.9239  0.8391
  104OSM   H15T10518   6.009   2.796   5.492  1.8069 -1.8029  0.4455
  104OSM   C16S10519   5.824   2.718   5.587  0.3119  0.5488  0.8858
  104OSM   H16S10520   5.762   2.809   5.596  0.8579  0.9326  0.8178
  104OSM   H16T10521   5.806   2.644   5.668 -1.6094 -0.5574 -0.4685
  104OSM   C17S10522   5.777   2.631   5.461  1.0755 -0.6665  0.0678
  104OSM   H17S10523   5.667   2.620   5.470  0.6856  2.2387 -0.3268
  104OSM   H17T10524   5.830   2.534   5.470  1.0580 -0.8772 -1.7508
  104OSM   C18S10525   5.816   2.700   5.327  0.3512 -0.1497 -0.2754
  104OSM   H18S10526   5.924   2.688   5.306  0.0453 -2.2578 -0.8722
  104OSM   H18T10527   5.779   2.805   5.319 -0.1167 -0.2667  0.2840
  104OSM   H18U10528   5.770   2.651   5.238 -2.1096  0.5924  0.4990
  104OSM    C1F10529   5.413   3.317   6.403 -0.4755  0.4276  0.3046
  104OSM     OF10530   5.509   3.393   6.424  0.6198 -0.4819 -0.4658
  104OSM    C2F10531   5.297   3.355   6.319 -0.0907 -0.3529 -0.4096
  104OSM    H2F10532   5.327   3.445   6.260  0.7621  0.7037  1.5393
  104OSM    H2G10533   5.208   3.364   6.385 -1.6659  0.2804 -2.4784
  104OSM    C3F10534   5.253   3.252   6.217  0.0433 -0.3737 -0.0781
  104OSM    H3F10535   5.231   3.155   6.267  2.3748 -0.3955  1.0094
  104OSM    H3G10536   5.330   3.223   6.142  0.2374 -1.0559  0.3790
  104OSM    C4F10537   5.117   3.287   6.147 -0.0262  0.0648 -0.4358
  104OSM    H4F10538   5.055   3.331   6.229  2.2876  2.6258  0.0877
  104OSM    H4G10539   5.063   3.195   6.119  1.3264 -0.9225  0.1069
  104OSM    C5F10540   5.121   3.381   6.025 -0.7356 -0.4544 -1.1863
  104OSM    H5F10541   5.189   3.344   5.945  1.5358  1.8218 -0.4412
  104OSM    H5G10542   5.168   3.476   6.059 -1.6648 -0.2373 -0.4614
  104OSM    C6F10543   4.981   3.427   5.964 -0.0679 -0.8676  0.3340
  104OSM    H6F10544   4.936   3.474   6.053 -0.6393 -1.3802  0.3250
  104OSM    H6G10545   4.933   3.332   5.930 -0.7879 -0.7642  1.0501
  104OSM    C7F10546   5.007   3.534   5.856  0.1712 -0.3273  0.0888
  104OSM    H7F10547   5.084   3.493   5.787 -0.3639  0.5565 -1.0837
  104OSM    H7G10548   5.054   3.629   5.891 -0.2468 -0.5705  1.3635
  104OSM    C8F10549   4.875   3.563   5.785  0.1780  0.0284  0.0905
  104OSM    H8F10550   4.795   3.542   5.858  0.3341 -0.1558  0.2102
  104OSM    H8G10551   4.869   3.479   5.712  1.4155 -2.6772  2.8574
  104OSM    C9F10552   4.857   3.701   5.733 -0.5746  0.0523  0.2022
  104OSM    H9F10553   4.871   3.772   5.816  1.0062 -0.3454  0.3105
  104OSM   C10F10554   4.852   3.734   5.605  0.6969  0.0019 -0.1808
  104OSM   H10F10555   4.845   3.841   5.582  0.9518  0.0279 -0.1333
  104OSM   C11F10556   4.851   3.643   5.483 -0.8144 -0.6025  0.3797
  104OSM   H11F10557   4.746   3.622   5.455 -0.2198 -1.4421 -1.3630
  104OSM   H11G10558   4.898   3.543   5.497 -0.5077 -0.9288 -2.4578
  104OSM   C12F10559   4.929   3.716   5.369  0.8081 -0.5201 -0.3187
  104OSM   H12F10560   4.930   3.827   5.377 -0.8242 -0.6109  1.8566
  104OSM   H12G10561   4.880   3.674   5.278  1.1431 -1.0555 -0.2555
  104OSM   C13F10562   5.078   3.666   5.349  0.5523  0.6658  0.0331
  104OSM   H13F10563   5.100   3.558   5.362 -2.1049  0.1355  0.8479
  104OSM   H13G10564   5.140   3.715   5.427 -0.9722  1.7725  0.6117
  104OSM   C14F10565   5.124   3.706   5.212  0.4251  0.3792 -0.1012
  104OSM   H14F10566   5.235   3.713   5.208  0.4949  1.3370  2.1864
  104OSM   H14G10567   5.071   3.800   5.188  0.0064 -0.3036 -2.0813
  104OSM   C15F10568   5.080   3.599   5.108 -0.0896 -0.0752  0.5079
  104OSM   H15F10569   4.972   3.573   5.109 -0.2202  0.3248 -1.0554
  104OSM   H15G10570   5.131   3.506   5.138 -1.2112 -0.4804  1.2303
  104OSM   C16F10571   5.104   3.646   4.960  0.3730 -0.7781 -0.4556
  104OSM   H16F10572   5.205   3.693   4.958 -0.9744  2.3628 -1.9517
  104OSM   H16G10573   5.031   3.730   4.948 -1.9808 -2.2538  2.2853
  104OSM   C17F10574   5.070   3.534   4.868  0.4383 -0.6781  0.0158
  104OSM   H17F10575   5.063   3.579   4.767 -1.4327 -1.3212 -0.1714
  104OSM   H17G10576   4.969   3.507   4.906 -0.1446  2.5915  1.1396
  104OSM   C18F10577   5.163   3.410   4.877 -0.1600 -0.6633  0.3405
  104OSM   H18F10578   5.120   3.351   4.793 -1.3571 -0.0827  0.5228
  104OSM   H18G10579   5.146   3.345   4.965 -0.4456  0.0062  0.7935
  104OSM   H18H10580   5.270   3.433   4.859 -0.6356  2.5104  0.9173
  105OSM      N10581   5.462   3.912   6.759  0.1587  0.0003 -0.2600
  105OSM    C1510582   5.443   3.903   6.613  0.7094  0.7030 -0.3619
  105OSM   H15A10583   5.539   3.899   6.563  1.1145 -3.7968  0.3328
  105OSM   H15B10584   5.390   3.993   6.588 -0.7587  1.5313  4.6421
  105OSM   H15C10585   5.388   3.814   6.585  0.7381  1.6267 -3.7363
  105OSM    C1410586   5.529   4.042   6.782  0.5072 -0.6322  0.1672
  105OSM   H14A10587   5.629   4.060   6.744  1.9872  0.2854  4.0113
  105OSM   H14B10588   5.550   4.063   6.886  1.2811  0.3362 -0.1608
  105OSM   H14C10589   5.466   4.125   6.755 -1.1827 -2.0198 -0.2951
  105OSM    C1310590   5.325   3.919   6.815 -1.2852 -0.2749  0.2672
  105OSM   H13A10591   5.274   3.824   6.808 -0.1884 -1.0055  1.6224
  105OSM   H13B10592   5.267   3.998   6.768 -1.1093 -1.7974 -2.7297
  105OSM   H13C10593   5.328   3.929   6.923 -1.3120 -1.2866  0.3743
  105OSM    C1210594   5.534   3.784   6.794  0.0641 -0.2428 -0.1268
  105OSM   H12A10595   5.477   3.698   6.762 -0.6798  0.3386 -0.3998
  105OSM   H12B10596   5.539   3.776   6.902  0.8834  1.6571  0.0241
  105OSM    C1110597   5.678   3.765   6.735 -0.5520  0.2109 -0.0382
  105OSM   H11A10598   5.676   3.782   6.626 -0.6647  1.9044  0.1988
  105OSM   H11B10599   5.715   3.662   6.752  1.2599  0.8931  0.4258
  105OSM      P10600   5.915   3.835   6.817 -0.1515 -0.2107  0.2199
  105OSM    O1310601   5.973   3.941   6.907 -0.0300  0.8441  0.0759
  105OSM    O1410602   5.943   3.695   6.857  0.3253  0.5240 -0.3504
  105OSM    O1110603   5.963   3.862   6.668  0.1803 -0.1363 -0.2582
  105OSM    O1210604   5.760   3.855   6.807 -0.4846 -0.0863  0.3132
  105OSM    C1S10605   6.052   3.777   6.591  1.0400 -0.8662 -0.7770
  105OSM    H1S10606   6.016   3.673   6.585 -1.9234 -0.0084  0.5674
  105OSM    H1T10607   6.155   3.773   6.631  0.4242  0.5379  1.0603
  105OSM     NF10608   6.098   3.745   6.341  0.4232  0.3220 -0.9811
  105OSM    HNF10609   6.196   3.734   6.323  1.4372  3.8082  1.3312
  105OSM    C2S10610   6.065   3.841   6.448  0.3592  0.5920  0.1528
  105OSM    H2S10611   5.966   3.883   6.420 -0.3786 -3.2208 -4.0890
  105OSM    C3S10612   6.163   3.961   6.456 -0.4176  0.2434  0.6108
  105OSM    H3S10613   6.267   3.921   6.465 -0.7410 -0.6201  0.6050
  105OSM     O310614   6.139   4.055   6.560  0.3279  0.3789  0.0323
  105OSM    HO310615   6.078   4.006   6.615  1.1452  0.2625  0.8495
  105OSM    C4S10616   6.166   4.032   6.321 -0.7666 -0.0819  0.5446
  105OSM    H4S10617   6.252   4.018   6.254 -1.2980  0.7021 -0.3167
  105OSM    C5S10618   6.075   4.128   6.277  0.8096 -0.0706 -0.4959
  105OSM    H5S10619   5.996   4.167   6.343  1.0158 -0.8732  0.2495
  105OSM    C6S10620   6.100   4.198   6.147  0.2958 -0.5317  0.4331
  105OSM    H6S10621   6.210   4.195   6.133  0.1963 -2.4067 -0.1598
  105OSM    H6T10622   6.059   4.301   6.149  2.3648  0.3990 -1.7365
  105OSM    C7S10623   6.054   4.116   6.031  0.3835  0.4777  0.1342
  105OSM    H7S10624   5.947   4.088   6.035  0.5458 -0.1828  0.0490
  105OSM    H7T10625   6.105   4.017   6.024  0.0952  0.3453 -0.1264
  105OSM    C8S10626   6.076   4.195   5.902 -0.7989 -0.0641  0.6995
  105OSM    H8S10627   6.183   4.224   5.891 -0.7616 -0.6127 -0.5687
  105OSM    H8T10628   6.014   4.287   5.909 -1.1965 -0.1996 -0.8040
  105OSM    C9S10629   6.036   4.112   5.777 -0.1522  0.0659  0.0341
  105OSM    H9S10630   5.969   4.029   5.809 -2.0069  0.2538 -2.9667
  105OSM    H9T10631   6.127   4.068   5.730 -0.5529  1.3465 -2.0846
  105OSM   C10S10632   5.962   4.199   5.671 -0.0378  0.6530 -0.0826
  105OSM   H10S10633   5.957   4.154   5.569 -1.3821  0.2326  0.1464
  105OSM   H10T10634   6.027   4.284   5.642  0.5682 -0.1436 -1.1352
  105OSM   C11S10635   5.823   4.238   5.712 -0.4823 -0.3778  0.2978
  105OSM   H11S10636   5.826   4.302   5.803 -0.3157  1.5982 -1.0312
  105OSM   H11T10637   5.763   4.148   5.740  0.7585 -0.7819  1.8333
  105OSM   C12S10638   5.745   4.329   5.616 -0.3931  0.2180 -0.1330
  105OSM   H12S10639   5.784   4.433   5.619  0.7593 -0.1170 -2.2219
  105OSM   H12T10640   5.638   4.338   5.647  0.0182 -0.3561  1.5531
  105OSM   C13S10641   5.741   4.295   5.464 -0.0396  0.0512 -0.2784
  105OSM   H13S10642   5.685   4.201   5.448 -0.8111  0.3289  0.7183
  105OSM   H13T10643   5.844   4.291   5.422  0.4457 -3.1478  0.9524
  105OSM   C14S10644   5.667   4.411   5.390 -0.0701 -0.4933  0.4824
  105OSM   H14S10645   5.696   4.510   5.430 -1.6868  0.4186 -0.5029
  105OSM   H14T10646   5.561   4.406   5.422  0.4302 -2.5822  2.0353
  105OSM   C15S10647   5.695   4.405   5.237 -0.0651  0.3391  0.1476
  105OSM   H15S10648   5.620   4.336   5.192 -0.0416 -1.4751  2.6828
  105OSM   H15T10649   5.799   4.371   5.222  0.4388  1.4544  0.9951
  105OSM   C16S10650   5.678   4.542   5.170  0.1713  0.2830  0.4975
  105OSM   H16S10651   5.736   4.622   5.221 -0.0940  2.1529 -1.9306
  105OSM   H16T10652   5.568   4.556   5.178 -0.0012  2.0539 -2.9150
  105OSM   C17S10653   5.728   4.543   5.025  0.3969  0.2012  0.2006
  105OSM   H17S10654   5.839   4.532   5.029  0.2170 -1.3443  1.8173
  105OSM   H17T10655   5.699   4.646   4.995  0.9819  0.5791  0.8712
  105OSM   C18S10656   5.664   4.438   4.933 -0.9085 -0.2706 -0.0323
  105OSM   H18S10657   5.691   4.448   4.826 -0.5268  1.3147  0.1900
  105OSM   H18T10658   5.553   4.444   4.933 -0.8919  0.3379  0.9696
  105OSM   H18U10659   5.692   4.335   4.964  0.8502 -0.2730 -1.4741
  105OSM    C1F10660   6.005   3.659   6.306  0.5667  0.4576 -0.4055
  105OSM     OF10661   5.885   3.660   6.341 -0.6237  0.4040 -0.2369
  105OSM    C2F10662   6.057   3.556   6.215  0.2616 -0.1063  0.7384
  105OSM    H2F10663   5.966   3.514   6.166  1.0896  1.6925 -2.6063
  105OSM    H2G10664   6.117   3.480   6.270  0.7246  0.2480  0.7239
  105OSM    C3F10665   6.147   3.613   6.106  0.4756 -0.4415 -0.8852
  105OSM    H3F10666   6.239   3.665   6.142  1.3876 -2.8072  0.4513
  105OSM    H3G10667   6.096   3.686   6.039  1.7159  1.7207  0.3894
  105OSM    C4F10668   6.193   3.498   6.019  0.3448 -0.4823 -0.3226
  105OSM    H4F10669   6.105   3.443   5.979 -1.0847  2.5474 -1.6686
  105OSM    H4G10670   6.253   3.423   6.075  3.1566  1.6265 -0.3341
  105OSM    C5F10671   6.283   3.557   5.913  0.0296  0.3151  0.2840
  105OSM    H5F10672   6.342   3.467   5.886 -0.1387  0.3819 -0.3342
  105OSM    H5G10673   6.362   3.626   5.950  0.8533 -1.1139  1.2774
  105OSM    C6F10674   6.201   3.616   5.791  0.0900  0.5845  0.2985
  105OSM    H6F10675   6.149   3.706   5.831 -0.6542 -0.6572  2.2910
  105OSM    H6G10676   6.143   3.532   5.747  0.7610  0.5025 -0.4599
  105OSM    C7F10677   6.295   3.666   5.673 -0.2066  0.5268  0.3849
  105OSM    H7F10678   6.352   3.579   5.635  1.9034  1.1058  2.0957
  105OSM    H7G10679   6.374   3.731   5.716 -0.4732 -0.5603  2.6393
  105OSM    C8F10680   6.215   3.737   5.567  1.0734  0.6044  0.6909
  105OSM    H8F10681   6.285   3.788   5.497  2.4430  0.8597  2.1711
  105OSM    H8G10682   6.140   3.802   5.617 -1.2754 -2.6161  1.6211
  105OSM    C9F10683   6.126   3.647   5.477 -0.5830 -0.3179  0.0889
  105OSM    H9F10684   6.065   3.587   5.546 -0.3014 -0.8772 -0.1423
  105OSM   C10F10685   6.124   3.630   5.345 -0.2974  1.1129  0.0789
  105OSM   H10F10686   6.054   3.555   5.307  0.9174  0.0179 -0.0719
  105OSM   C11F10687   6.207   3.692   5.235 -0.2850  0.2531  0.5692
  105OSM   H11F10688   6.278   3.770   5.269  2.1486 -1.8834  0.7004
  105OSM   H11G10689   6.150   3.748   5.159  1.2179 -0.7023 -1.3557
  105OSM   C12F10690   6.303   3.593   5.165  0.1323 -0.1410 -0.0773
  105OSM   H12F10691   6.243   3.501   5.145 -0.5937  0.4627 -0.7283
  105OSM   H12G10692   6.386   3.575   5.236 -0.3741  0.3527  0.6509
  105OSM   C13F10693   6.372   3.653   5.040 -0.1736  0.0315  0.3792
  105OSM   H13F10694   6.445   3.733   5.065 -0.6384  0.7886 -0.6038
  105OSM   H13G10695   6.302   3.698   4.966 -1.0149  0.8086  1.6208
  105OSM   C14F10696   6.457   3.552   4.959  0.1612 -0.5087 -0.1216
  105OSM   H14F10697   6.535   3.618   4.915 -0.0931 -0.0699  0.0801
  105OSM   H14G10698   6.408   3.491   4.880 -0.2675 -0.0579 -0.2146
  105OSM   C15F10699   6.546   3.465   5.056 -0.2211 -0.2609 -0.2959
  105OSM   H15F10700   6.491   3.427   5.144  1.6038 -1.6007  0.3456
  105OSM   H15G10701   6.626   3.530   5.097  0.9541 -2.0192  0.3069
  105OSM   C16F10702   6.622   3.354   4.985 -0.6869 -0.4414  0.3480
  105OSM   H16F10703   6.544   3.284   4.946 -0.3585 -0.7487  0.2362
  105OSM   H16G10704   6.682   3.304   5.064 -0.1254 -0.9927 -0.4109
  105OSM   C17F10705   6.723   3.396   4.871  0.1733 -0.2225  0.1467
  105OSM   H17F10706   6.660   3.440   4.792  0.1146 -0.6030 -0.0201
  105OSM   H17G10707   6.765   3.298   4.841  0.0834  0.0881 -1.0361
  105OSM   C18F10708   6.836   3.495   4.912  0.5413  0.1455 -0.4450
  105OSM   H18F10709   6.891   3.451   4.998  2.9455 -0.5817 -2.2373
  105OSM   H18G10710   6.801   3.600   4.924 -1.1359 -0.2863 -1.2878
  105OSM   H18H10711   6.902   3.509   4.823  0.7160 -1.7692 -0.6467
  106OSM      N10712   4.349   1.642   6.944 -0.1294 -0.1603  0.5723
  106OSM    C1510713   4.475   1.573   6.982 -0.4319 -0.7233  0.6275
  106OSM   H15A10714   4.491   1.561   7.088  1.0222 -0.5685  0.4544
  106OSM   H15B10715   4.561   1.631   6.950 -0.7370 -0.6593 -0.1000
  106OSM   H15C10716   4.475   1.474   6.940 -1.8673  0.1234 -1.5184
  106OSM    C1410717   4.234   1.549   6.985  0.1120  0.0250 -0.3616
  106OSM   H14A10718   4.134   1.586   6.964  0.3838 -0.4548 -2.7596
  106OSM   H14B10719   4.240   1.524   7.090 -3.8296 -0.6567 -0.1258
  106OSM   H14C10720   4.241   1.463   6.921  0.5561  1.4571 -2.3355
  106OSM    C1310721   4.336   1.767   7.018  1.1368 -0.3926 -0.1424
  106OSM   H13A10722   4.423   1.830   7.009  0.6309  0.4259  0.5116
  106OSM   H13B10723   4.334   1.753   7.125 -0.2625 -1.2018 -0.2411
  106OSM   H13C10724   4.255   1.824   6.974  0.9139  0.0073  0.7598
  106OSM    C1210725   4.343   1.672   6.791 -0.3481  0.0806 -0.6282
  106OSM   H12A10726   4.253   1.731   6.775 -0.3495  0.4199  0.5552
  106OSM   H12B10727   4.327   1.578   6.740 -1.2798 -0.8199  1.2324
  106OSM    C1110728   4.469   1.750   6.737  0.0266 -0.2554 -0.1461
  106OSM   H11A10729   4.499   1.840   6.795  0.6802 -0.9546  0.6122
  106OSM   H11B10730   4.434   1.779   6.635 -3.1691  0.7359  1.1259
  106OSM      P10731   4.589   1.553   6.638 -0.3672 -0.1308 -0.0886
  106OSM    O1310732   4.727   1.496   6.635  0.0883  0.3722 -0.4489
  106OSM    O1410733   4.476   1.460   6.656 -0.1555 -0.0556  0.8505
  106OSM    O1110734   4.567   1.632   6.505  0.2515  0.0027 -0.1951
  106OSM    O1210735   4.587   1.668   6.745  0.3540  0.0403 -0.1375
  106OSM    C1S10736   4.658   1.732   6.472 -0.2106  0.0115 -0.7075
  106OSM    H1S10737   4.758   1.720   6.519 -0.6909 -2.7897 -0.2646
  106OSM    H1T10738   4.623   1.833   6.505 -1.5860 -0.4620 -0.6699
  106OSM     NF10739   4.783   1.860   6.300  0.0534  0.4827  0.3473
  106OSM    HNF10740   4.739   1.939   6.259 -1.6278 -0.8382 -0.5063
  106OSM    C2S10741   4.701   1.740   6.320  0.0897  0.1676 -0.0999
  106OSM    H2S10742   4.760   1.649   6.297 -0.4696 -0.1182 -0.4219
  106OSM    C3S10743   4.574   1.740   6.232  0.3349 -0.4218  0.4472
  106OSM    H3S10744   4.526   1.839   6.245  0.8190 -0.2583  1.0009
  106OSM     O310745   4.468   1.652   6.264  0.0624  0.0512  0.1121
  106OSM    HO310746   4.498   1.610   6.344  1.2202 -1.5016 -1.0812
  106OSM    C4S10747   4.610   1.737   6.088 -0.9578 -0.4506  1.0581
  106OSM    H4S10748   4.594   1.839   6.047 -1.5300  0.2264  2.8676
  106OSM    C5S10749   4.656   1.638   6.005 -0.2519  0.5933 -0.4208
  106OSM    H5S10750   4.666   1.534   6.040 -1.3023  0.3624 -0.7780
  106OSM    C6S10751   4.684   1.666   5.862  0.6883  0.0950  0.7115
  106OSM    H6S10752   4.643   1.611   5.774  3.3712  2.7828 -2.4880
  106OSM    H6T10753   4.792   1.642   5.852  0.6579  0.2173  0.0118
  106OSM    C7S10754   4.674   1.816   5.808  0.2978  0.3040  0.0257
  106OSM    H7S10755   4.724   1.889   5.875 -0.4802  0.6182  0.2759
  106OSM    H7T10756   4.567   1.841   5.795 -0.3129 -1.4051  1.3803
  106OSM    C8S10757   4.742   1.832   5.667  0.6846  0.4271  0.3778
  106OSM    H8S10758   4.725   1.744   5.601 -0.5560  0.8284  0.1292
  106OSM    H8T10759   4.852   1.831   5.678  0.9187  1.4879 -1.4656
  106OSM    C9S10760   4.708   1.965   5.598  0.4526  0.1231 -0.2269
  106OSM    H9S10761   4.736   2.049   5.665 -1.6533  0.2785  0.5366
  106OSM    H9T10762   4.598   1.973   5.583  0.3230 -1.5812 -0.4342
  106OSM   C10S10763   4.791   1.990   5.470 -0.2887 -0.5331  0.4689
  106OSM   H10S10764   4.785   1.909   5.395 -2.1732  0.9615 -1.1161
  106OSM   H10T10765   4.898   2.012   5.493 -0.5663  1.7530 -0.1491
  106OSM   C11S10766   4.737   2.110   5.398  0.1696  0.2808  0.1411
  106OSM   H11S10767   4.729   2.196   5.468 -0.6709  0.9960 -0.8126
  106OSM   H11T10768   4.638   2.090   5.353  1.4906 -1.7943 -2.1072
  106OSM   C12S10769   4.822   2.163   5.279  0.0270  0.0597 -0.3087
  106OSM   H12S10770   4.928   2.135   5.297 -0.8277 -3.0988  0.4132
  106OSM   H12T10771   4.822   2.274   5.276 -1.6404  0.0946 -3.7619
  106OSM   C13S10772   4.788   2.116   5.142 -0.1123 -0.6247  0.6487
  106OSM   H13S10773   4.679   2.138   5.138 -0.0829 -0.3535  1.3174
  106OSM   H13T10774   4.799   2.006   5.130 -0.9462 -0.6014 -0.4573
  106OSM   C14S10775   4.860   2.200   5.029  0.3212  0.3998  0.3154
  106OSM   H14S10776   4.966   2.204   5.063  0.0195  0.2809  1.2943
  106OSM   H14T10777   4.804   2.295   5.027 -0.4874  0.0152  2.3965
  106OSM   C15S10778   4.843   2.136   4.886 -0.2562  0.2187 -0.6938
  106OSM   H15S10779   4.868   2.028   4.887 -2.9027 -0.5081  1.1510
  106OSM   H15T10780   4.919   2.180   4.819  2.9126 -3.4908  0.0977
  106OSM   C16S10781   4.698   2.154   4.850  0.5553  1.1350 -0.1042
  106OSM   H16S10782   4.655   2.253   4.872  0.4297  1.2707 -0.9249
  106OSM   H16T10783   4.640   2.074   4.901  2.7194 -0.6520 -0.2478
  106OSM   C17S10784   4.668   2.124   4.700  0.3193  0.1130 -0.2666
  106OSM   H17S10785   4.696   2.018   4.681  0.4526  0.1537 -0.2932
  106OSM   H17T10786   4.726   2.198   4.642 -1.3120  0.3743 -1.6648
  106OSM   C18S10787   4.522   2.126   4.667 -0.4390 -0.2560  1.2320
  106OSM   H18S10788   4.488   2.231   4.679 -0.3094 -0.0431 -0.0942
  106OSM   H18T10789   4.470   2.055   4.736 -0.1274 -0.2635  1.4592
  106OSM   H18U10790   4.509   2.100   4.559 -2.5989 -0.6916  1.5503
  106OSM    C1F10791   4.910   1.866   6.326 -0.7280 -0.0410 -0.0773
  106OSM     OF10792   4.959   1.782   6.401 -0.5229  0.4417 -0.1476
  106OSM    C2F10793   4.985   1.968   6.255 -1.0734  0.0113 -0.1683
  106OSM    H2F10794   4.981   2.059   6.319  0.7861 -0.0254  0.0444
  106OSM    H2G10795   4.946   1.977   6.152  0.7788  3.0910 -0.7091
  106OSM    C3F10796   5.137   1.941   6.234  1.0915 -0.5385 -0.6370
  106OSM    H3F10797   5.190   1.902   6.324 -1.0579 -4.2439 -0.7786
  106OSM    H3G10798   5.179   2.041   6.210 -0.3621 -0.1547 -1.7315
  106OSM    C4F10799   5.165   1.851   6.114  0.0600  0.4569 -0.0320
  106OSM    H4F10800   5.109   1.756   6.131 -0.6726  0.5608 -1.7265
  106OSM    H4G10801   5.273   1.826   6.120 -0.3705 -1.1617  2.6698
  106OSM    C5F10802   5.120   1.901   5.975  0.6449  0.4430 -0.4101
  106OSM    H5F10803   5.172   1.995   5.947 -0.2542  0.6137 -1.5736
  106OSM    H5G10804   5.017   1.944   5.971  1.1486  1.9972  1.6454
  106OSM    C6F10805   5.137   1.795   5.863 -0.3203  0.4840 -0.6517
  106OSM    H6F10806   5.054   1.723   5.852 -0.1260  0.2033 -0.3236
  106OSM    H6G10807   5.233   1.742   5.885 -0.6321 -0.8455 -2.3292
  106OSM    C7F10808   5.155   1.865   5.725 -0.1877  0.6274 -0.4658
  106OSM    H7F10809   5.249   1.924   5.722 -0.3986  1.1170  1.2531
  106OSM    H7G10810   5.070   1.937   5.721 -1.9273 -0.8658  3.8868
  106OSM    C8F10811   5.156   1.756   5.611 -0.2862 -0.5743 -0.3660
  106OSM    H8F10812   5.075   1.682   5.628 -1.2011  0.8659  1.8928
  106OSM    H8G10813   5.250   1.698   5.622  0.1000 -0.0858 -0.9888
  106OSM    C9F10814   5.147   1.823   5.474 -0.0270 -0.0084  0.1136
  106OSM    H9F10815   5.101   1.923   5.483  0.9922  0.3313  2.3374
  106OSM   C10F10816   5.205   1.783   5.363 -0.5362  0.1852  0.2467
  106OSM   H10F10817   5.195   1.838   5.269  0.6397  0.5614  0.3364
  106OSM   C11F10818   5.276   1.649   5.349 -0.6983  0.5642  0.2353
  106OSM   H11F10819   5.242   1.570   5.420 -0.5689  0.6166  0.3574
  106OSM   H11G10820   5.382   1.656   5.383 -0.5971 -0.8923  0.2845
  106OSM   C12F10821   5.260   1.601   5.204  0.5711 -0.2640  0.5851
  106OSM   H12F10822   5.308   1.674   5.137  0.3168  0.0571  0.7499
  106OSM   H12G10823   5.153   1.606   5.174  0.5117 -2.0027  0.4043
  106OSM   C13F10824   5.308   1.459   5.182 -0.5515  0.0997  0.6051
  106OSM   H13F10825   5.243   1.400   5.250 -1.0817 -1.2436 -0.9737
  106OSM   H13G10826   5.417   1.466   5.200 -0.2877 -0.6505 -0.5563
  106OSM   C14F10827   5.282   1.409   5.041  0.1932  0.7026  0.2831
  106OSM   H14F10828   5.318   1.484   4.967 -1.8493  0.6342 -0.8620
  106OSM   H14G10829   5.171   1.414   5.036  0.1953  0.0279 -0.7245
  106OSM   C15F10830   5.347   1.274   5.016  0.6739 -0.3648 -0.0669
  106OSM   H15F10831   5.310   1.214   5.102  1.1754  1.3599  1.4037
  106OSM   H15G10832   5.457   1.274   5.032  0.2968  0.2459  3.2590
  106OSM   C16F10833   5.307   1.217   4.873  0.2502  0.2192 -0.2966
  106OSM   H16F10834   5.374   1.266   4.800  2.4838 -0.6722  1.0493
  106OSM   H16G10835   5.202   1.229   4.837 -0.5873  0.5426  2.1168
  106OSM   C17F10836   5.346   1.066   4.873  0.4116 -0.0694  0.2946
  106OSM   H17F10837   5.456   1.053   4.881  0.4158 -0.2799 -0.1148
  106OSM   H17G10838   5.307   1.047   4.771 -0.8691  0.1217  0.7314
  106OSM   C18F10839   5.264   0.978   4.975  0.2775 -0.7677 -0.0352
  106OSM   H18F10840   5.295   0.872   4.985 -1.1044 -1.1146  0.8354
  106OSM   H18G10841   5.157   0.993   4.949 -0.0266  1.5796  2.2135
  106OSM   H18H10842   5.275   1.020   5.077 -0.3222 -1.8577  0.4854
  107OSM      N10843   3.995   6.016   6.780 -0.3100 -0.1317  0.3908
  107OSM    C1510844   3.953   6.160   6.748 -0.0667  0.3341 -1.4053
  107OSM   H15A10845   3.871   6.183   6.815  0.6698 -0.3782 -0.2203
  107OSM   H15B10846   3.927   6.177   6.645  0.2309  0.8827 -1.3961
  107OSM   H15C10847   4.028   6.233   6.775  0.0667  0.1849 -1.3756
  107OSM    C1410848   3.998   5.995   6.933 -0.4304  0.4887  0.8792
  107OSM   H14A10849   3.898   5.992   6.975 -0.6934  1.1841  0.3170
  107OSM   H14B10850   4.052   6.075   6.980  0.7739 -0.5643  1.3429
  107OSM   H14C10851   4.035   5.898   6.961  1.7098  1.0603  0.2245
  107OSM    C1310852   3.883   5.935   6.720  0.4360 -0.4715  0.3243
  107OSM   H13A10853   3.787   5.980   6.737 -0.4962 -1.8885 -0.8687
  107OSM   H13B10854   3.885   5.836   6.763  0.8101  0.3661  2.3226
  107OSM   H13C10855   3.892   5.930   6.612 -1.7499 -0.7088  0.1190
  107OSM    C1210856   4.131   5.973   6.720  0.7267  0.2058  0.0973
  107OSM   H12A10857   4.109   5.963   6.615 -2.4549 -1.8034  0.8171
  107OSM   H12B10858   4.143   5.869   6.745 -0.1457  0.3028  0.9888
  107OSM    C1110859   4.254   6.057   6.753 -0.1358 -0.3856 -0.0261
  107OSM   H11A10860   4.340   6.002   6.707 -1.1514  0.3061 -3.0007
  107OSM   H11B10861   4.275   6.069   6.861  1.2933 -0.2776 -0.2875
  107OSM      P10862   4.249   6.216   6.544 -0.0365 -0.1819  0.2826
  107OSM    O1310863   4.210   6.355   6.527 -0.1843  0.1934 -0.1120
  107OSM    O1410864   4.380   6.174   6.487 -0.0912 -0.0167  0.2066
  107OSM    O1110865   4.134   6.124   6.496 -0.1820  0.4311  0.2111
  107OSM    O1210866   4.242   6.191   6.699  0.5816 -0.2929  0.2425
  107OSM    C1S10867   4.017   6.171   6.423  0.1372 -0.3254 -0.5153
  107OSM    H1S10868   4.017   6.282   6.423  0.4071 -0.2574  1.9427
  107OSM    H1T10869   3.925   6.137   6.475 -0.0471  1.8083  0.6994
  107OSM     NF10870   3.901   6.164   6.204  0.3561  0.9454 -0.2578
  107OSM    HNF10871   3.814   6.115   6.202  1.3426 -0.8832 -0.5689
  107OSM    C2S10872   4.011   6.110   6.279 -0.0608 -0.6308  0.2260
  107OSM    H2S10873   4.100   6.144   6.221 -0.4098  0.7951  0.4900
  107OSM    C3S10874   4.016   5.953   6.286 -0.4108 -0.0360 -0.3407
  107OSM    H3S10875   3.928   5.910   6.339 -0.1511 -2.0177 -1.4121
  107OSM     O310876   4.132   5.900   6.347  0.0259  0.0299  0.0301
  107OSM    HO310877   4.173   5.980   6.380  0.3137 -0.2217  0.2865
  107OSM    C4S10878   4.020   5.906   6.152 -0.6587 -0.6386  0.2237
  107OSM    H4S10879   4.083   5.965   6.083 -0.7252  0.4179  1.0371
  107OSM    C5S10880   3.946   5.804   6.100  0.7008  0.2226 -0.6409
  107OSM    H5S10881   3.875   5.743   6.158  0.0616 -0.1109 -1.7469
  107OSM    C6S10882   3.953   5.759   5.955 -0.5378 -0.1879 -0.2747
  107OSM    H6S10883   3.900   5.663   5.939  0.7617 -0.8676 -0.7047
  107OSM    H6T10884   4.062   5.744   5.938  0.0068  1.3512  1.5449
  107OSM    C7S10885   3.903   5.867   5.855 -0.0775 -0.6086  0.0739
  107OSM    H7S10886   3.957   5.961   5.878 -1.1411  0.3849 -1.3788
  107OSM    H7T10887   3.793   5.858   5.866  0.2947 -3.0735  3.0793
  107OSM    C8S10888   3.935   5.831   5.709  0.3350 -0.0009 -0.4798
  107OSM    H8S10889   3.864   5.748   5.689  0.3207 -0.5561  1.7031
  107OSM    H8T10890   4.038   5.791   5.703  0.2119 -0.7441  1.6736
  107OSM    C9S10891   3.911   5.954   5.626 -0.0024 -0.2113 -0.5402
  107OSM    H9S10892   3.998   6.018   5.654  0.8779 -1.4930 -0.2601
  107OSM    H9T10893   3.821   6.016   5.645 -1.1386 -1.7941 -0.6084
  107OSM   C10S10894   3.934   5.925   5.480  0.0403 -0.1417 -1.3316
  107OSM   H10S10895   3.872   5.841   5.440 -0.1603  0.1706 -1.6794
  107OSM   H10T10896   4.039   5.905   5.449  0.6361  0.9134 -0.0873
  107OSM   C11S10897   3.886   6.039   5.390  0.2299  1.0565  0.3068
  107OSM   H11S10898   3.948   6.129   5.410 -1.3528  2.0596  0.9386
  107OSM   H11T10899   3.778   6.055   5.413  0.2236 -0.7744  1.7691
  107OSM   C12S10900   3.901   5.989   5.240  0.3670  0.4705 -0.1373
  107OSM   H12S10901   3.835   5.904   5.212 -0.5731  0.8908  0.7466
  107OSM   H12T10902   4.009   5.966   5.227  0.9603  2.6292  0.5932
  107OSM   C13S10903   3.859   6.098   5.150  0.7962 -0.4401  0.2293
  107OSM   H13S10904   3.918   6.187   5.178  0.5135  0.1879 -1.0895
  107OSM   H13T10905   3.753   6.125   5.171  0.7733  0.7576 -1.2164
  107OSM   C14S10906   3.877   6.053   5.000  0.1643 -0.0746 -0.5819
  107OSM   H14S10907   3.838   5.949   4.988 -1.1851  0.3152  0.2471
  107OSM   H14T10908   3.988   6.052   4.994  0.1467 -1.2527 -1.0665
  107OSM   C15S10909   3.813   6.146   4.896  0.3262 -0.4103 -0.6854
  107OSM   H15S10910   3.833   6.092   4.801 -1.7644 -0.3532 -1.2076
  107OSM   H15T10911   3.881   6.234   4.891  2.1491 -1.6902  0.3513
  107OSM   C16S10912   3.669   6.190   4.921 -0.3336  0.2633 -1.3729
  107OSM   H16S10913   3.654   6.246   5.016 -0.3584  1.3988 -2.0361
  107OSM   H16T10914   3.602   6.102   4.929 -0.9753  0.7693 -1.1274
  107OSM   C17S10915   3.612   6.271   4.809 -0.5583  0.6076  1.2262
  107OSM   H17S10916   3.507   6.293   4.840 -0.1984  0.8429  2.3199
  107OSM   H17T10917   3.617   6.212   4.716  2.2474  0.9018  1.1209
  107OSM   C18S10918   3.680   6.408   4.777  0.5615  0.2799 -0.6642
  107OSM   H18S10919   3.698   6.461   4.873  0.6079 -2.0215  0.6872
  107OSM   H18T10920   3.623   6.465   4.700  1.4673 -0.0099 -1.5572
  107OSM   H18U10921   3.779   6.386   4.733  0.9271 -2.5717  1.2962
  107OSM    C1F10922   3.897   6.290   6.165  0.3170  0.6688  0.5568
  107OSM     OF10923   3.985   6.375   6.184 -0.3468 -0.4475 -0.1049
  107OSM    C2F10924   3.767   6.334   6.103  0.0371 -0.2614  0.2395
  107OSM    H2F10925   3.690   6.255   6.115 -1.3166  1.0016  0.1487
  107OSM    H2G10926   3.774   6.352   5.994 -0.4806 -1.4199  0.0001
  107OSM    C3F10927   3.737   6.476   6.171  0.4673  0.0648 -0.3855
  107OSM    H3F10928   3.818   6.547   6.144  0.6072  0.3297  0.6660
  107OSM    H3G10929   3.721   6.473   6.281 -0.2076 -1.5859 -0.5141
  107OSM    C4F10930   3.603   6.544   6.127 -0.2542  0.1167 -0.2615
  107OSM    H4F10931   3.577   6.623   6.200  1.5707 -1.2868  2.0563
  107OSM    H4G10932   3.522   6.469   6.144 -0.5073  0.7230  1.4427
  107OSM    C5F10933   3.608   6.580   5.980 -0.9509 -0.5309  0.6890
  107OSM    H5F10934   3.597   6.482   5.930 -1.0565 -0.2743  0.1953
  107OSM    H5G10935   3.705   6.628   5.956 -1.0810 -0.8202 -0.4527
  107OSM    C6F10936   3.501   6.676   5.929 -0.2720 -0.5351  0.6517
  107OSM    H6F10937   3.498   6.764   5.997  1.0385 -1.0099  1.3622
  107OSM    H6G10938   3.402   6.625   5.936 -0.4031 -0.3593  0.1130
  107OSM    C7F10939   3.536   6.716   5.782 -0.8047  0.0395 -0.3522
  107OSM    H7F10940   3.569   6.623   5.732 -1.0153 -1.1978  1.6858
  107OSM    H7G10941   3.624   6.784   5.775 -0.7870  0.0431 -0.1038
  107OSM    C8F10942   3.413   6.760   5.700 -0.6256  0.2074 -0.7344
  107OSM    H8F10943   3.346   6.820   5.765 -1.5567 -2.3217  0.8331
  107OSM    H8G10944   3.353   6.669   5.675 -1.3082  0.5029 -0.2201
  107OSM    C9F10945   3.446   6.838   5.573 -0.5063  0.4146 -0.1091
  107OSM    H9F10946   3.511   6.926   5.585 -0.4906  0.1665  2.0008
  107OSM   C10F10947   3.413   6.804   5.446  0.0835  0.4659 -0.1432
  107OSM   H10F10948   3.445   6.873   5.366  0.6212 -1.1928 -1.4212
  107OSM   C11F10949   3.326   6.684   5.410  0.6597  0.3746 -0.3172
  107OSM   H11F10950   3.231   6.673   5.466  2.2312 -0.0969  2.4573
  107OSM   H11G10951   3.384   6.592   5.435  1.0710  0.7030 -0.0410
  107OSM   C12F10952   3.300   6.671   5.261 -0.5633  0.2794 -0.6876
  107OSM   H12F10953   3.216   6.599   5.254 -0.1555 -0.3882  0.9179
  107OSM   H12G10954   3.387   6.628   5.206  0.5866 -0.2145  1.4060
  107OSM   C13F10955   3.255   6.805   5.192 -0.3577  0.4040  0.0856
  107OSM   H13F10956   3.256   6.892   5.262  2.0961 -0.2032  0.9085
  107OSM   H13G10957   3.147   6.787   5.172  0.2132 -3.1622 -0.3889
  107OSM   C14F10958   3.339   6.843   5.074  0.1380  0.0263  0.2767
  107OSM   H14F10959   3.445   6.847   5.106 -0.4141 -1.1998  2.4381
  107OSM   H14G10960   3.305   6.947   5.055  0.7520  0.3262  0.7897
  107OSM   C15F10961   3.308   6.762   4.946  0.0967  0.8086  0.2885
  107OSM   H15F10962   3.197   6.758   4.938 -0.0034 -1.9229  1.7333
  107OSM   H15G10963   3.335   6.657   4.972 -0.5112  0.3902 -0.7354
  107OSM   C16F10964   3.370   6.798   4.813  0.9136 -0.2635 -0.0639
  107OSM   H16F10965   3.315   6.887   4.776 -1.2434 -1.2593  0.5959
  107OSM   H16G10966   3.361   6.718   4.737  0.1649 -0.1774 -0.0693
  107OSM   C17F10967   3.520   6.839   4.825  0.0344  0.0300 -0.4469
  107OSM   H17F10968   3.569   6.742   4.849  2.7174  0.7449 -2.5912
  107OSM   H17G10969   3.532   6.917   4.903 -0.7634 -0.3073  0.0232
  107OSM   C18F10970   3.573   6.892   4.693  1.1411  0.0420  0.1664
  107OSM   H18F10971   3.551   6.817   4.614 -2.0682 -0.2630  1.2031
  107OSM   H18G10972   3.683   6.899   4.704  1.3739 -1.8518 -0.5727
  107OSM   H18H10973   3.516   6.984   4.669  0.4832 -0.6558 -1.0351
  108OSM      N10974   6.755   5.142   6.605 -0.2889 -0.1138 -0.0441
  108OSM    C1510975   6.833   5.105   6.473  0.3176 -0.2041  0.5056
  108OSM   H15A10976   6.789   5.157   6.390 -0.5742 -1.9366 -0.1546
  108OSM   H15B10977   6.825   5.000   6.452 -0.2092 -0.3065  1.1646
  108OSM   H15C10978   6.938   5.127   6.488  0.7510 -2.1957  0.6735
  108OSM    C1410979   6.604   5.139   6.580  0.0403 -0.0481 -0.4293
  108OSM   H14A10980   6.583   5.229   6.523  2.4926  1.1368  0.3927
  108OSM   H14B10981   6.558   5.138   6.678 -1.0622  0.9682 -0.9021
  108OSM   H14C10982   6.570   5.054   6.523 -1.5494  1.0401 -1.1858
  108OSM    C1310983   6.779   5.053   6.717 -0.7225  0.2560  0.0560
  108OSM   H13A10984   6.771   4.956   6.670  0.4397 -0.6009  1.5275
  108OSM   H13B10985   6.699   5.054   6.790  0.7041 -0.6401  1.6932
  108OSM   H13C10986   6.877   5.067   6.759 -0.3421 -0.7176 -0.4734
  108OSM    C1210987   6.809   5.283   6.635  0.1162  0.0764 -0.1366
  108OSM   H12A10988   6.792   5.350   6.552 -0.3586 -1.9274 -1.7429
  108OSM   H12B10989   6.917   5.279   6.629  0.1239  0.3859 -0.1995
  108OSM    C1110990   6.758   5.362   6.756 -1.1782  0.6438 -0.4760
  108OSM   H11A10991   6.824   5.448   6.783  2.9001 -1.6177 -2.3818
  108OSM   H11B10992   6.767   5.288   6.838 -2.0104  0.3651 -0.6197
  108OSM      P10993   6.580   5.533   6.699 -0.5066  0.3228  0.0721
  108OSM    O1310994   6.428   5.542   6.696  0.0453  0.1181  0.3148
  108OSM    O1410995   6.655   5.640   6.769  0.3654  0.5630 -0.0928
  108OSM    O1110996   6.642   5.522   6.551 -0.1714  0.0914  0.1513
  108OSM    O1210997   6.620   5.387   6.747  0.1921  0.1574  0.1308
  108OSM    C1S10998   6.581   5.608   6.454 -0.3507 -0.0638  0.6475
  108OSM    H1S10999   6.596   5.715   6.479 -0.7631 -0.2420  1.6974
  108OSM    H1T11000   6.473   5.591   6.438 -0.0956 -0.6826 -0.5713
  108OSM     NF11001   6.602   5.693   6.226  0.1251 -0.0381 -0.0866
  108OSM    HNF11002   6.526   5.672   6.165  1.2003 -0.8366 -1.2241
  108OSM    C2S11003   6.655   5.599   6.313 -0.6563 -0.1322 -0.0867
  108OSM    H2S11004   6.763   5.622   6.323 -0.8608  1.0878 -0.4708
  108OSM    C3S11005   6.640   5.453   6.261  0.2139 -0.0223 -0.4807
  108OSM    H3S11006   6.531   5.434   6.260  0.2725 -0.3640 -1.1863
  108OSM     O311007   6.702   5.350   6.341 -0.3679  0.2467 -0.4552
  108OSM    HO311008   6.713   5.397   6.424  0.5320 -0.6050 -0.0734
  108OSM    C4S11009   6.688   5.443   6.114 -0.3470  0.2263 -0.3892
  108OSM    H4S11010   6.608   5.462   6.041 -1.1569  0.5488  0.5708
  108OSM    C5S11011   6.809   5.414   6.069  0.3197  0.6369  0.3346
  108OSM    H5S11012   6.891   5.386   6.136  1.6012  1.8511 -0.6503
  108OSM    C6S11013   6.824   5.407   5.916  0.2316 -0.3684  0.4987
  108OSM    H6S11014   6.784   5.316   5.866 -1.0767  1.1286 -1.2789
  108OSM    H6T11015   6.930   5.410   5.886 -0.2218  0.3406 -1.1103
  108OSM    C7S11016   6.770   5.531   5.838  1.1429  0.2383  0.5120
  108OSM    H7S11017   6.808   5.628   5.875  2.2809  0.7798 -1.8950
  108OSM    H7T11018   6.660   5.540   5.835  1.1103 -0.3474 -1.5905
  108OSM    C8S11019   6.836   5.528   5.692  0.3343  0.6729  0.2028
  108OSM    H8S11020   6.944   5.500   5.698  0.7824  2.5182  1.8022
  108OSM    H8T11021   6.835   5.632   5.652  0.4288  0.6283  0.0840
  108OSM    C9S11022   6.770   5.444   5.582  0.4494  0.3688 -0.9038
  108OSM    H9S11023   6.667   5.419   5.614  0.8885 -0.9588 -0.4816
  108OSM    H9T11024   6.818   5.348   5.554 -0.7528  0.0598 -2.0129
  108OSM   C10S11025   6.763   5.524   5.456 -0.4494  0.0547 -0.6819
  108OSM   H10S11026   6.870   5.534   5.425 -0.4477  1.4116 -0.3389
  108OSM   H10T11027   6.730   5.628   5.477  0.9696  0.5248 -0.6831
  108OSM   C11S11028   6.679   5.465   5.341 -0.1832 -0.5840 -0.8352
  108OSM   H11S11029   6.578   5.440   5.379 -0.6280  0.6490 -1.1642
  108OSM   H11T11030   6.717   5.364   5.316 -0.2067 -1.5014  2.3840
  108OSM   C12S11031   6.673   5.561   5.217  0.4315  1.1201  0.4575
  108OSM   H12S11032   6.661   5.660   5.265 -1.3384 -0.0819  2.7134
  108OSM   H12T11033   6.584   5.539   5.155  0.6966  0.5725  0.2629
  108OSM   C13S11034   6.799   5.536   5.121  0.2556 -0.0295 -1.2699
  108OSM   H13S11035   6.813   5.430   5.092  0.0390 -0.8400  1.3290
  108OSM   H13T11036   6.882   5.555   5.192 -0.9760  0.9642 -0.0370
  108OSM   C14S11037   6.812   5.637   5.014  0.6108  0.8991  0.1249
  108OSM   H14S11038   6.922   5.646   5.000  1.1826  0.3100  3.3805
  108OSM   H14T11039   6.769   5.733   5.049  1.3658  0.7182  1.6501
  108OSM   C15S11040   6.751   5.589   4.882  0.3059  0.3157 -0.7568
  108OSM   H15S11041   6.761   5.687   4.831  4.4921  0.1229 -0.6525
  108OSM   H15T11042   6.645   5.554   4.881  0.3504  0.1397 -2.5647
  108OSM   C16S11043   6.838   5.484   4.813 -1.1395 -0.1871 -0.3797
  108OSM   H16S11044   6.832   5.391   4.874  1.2821 -1.2534 -1.5926
  108OSM   H16T11045   6.944   5.518   4.810 -1.6938  1.6170 -1.6725
  108OSM   C17S11046   6.811   5.469   4.666 -0.3351 -0.0074  0.1986
  108OSM   H17S11047   6.701   5.452   4.656  0.2678 -3.8171 -1.7530
  108OSM   H17T11048   6.870   5.383   4.627 -0.6143 -0.4857  0.8208
  108OSM   C18S11049   6.841   5.599   4.583  0.6801 -0.2506  0.6080
  108OSM   H18S11050   6.780   5.680   4.629  0.0827  0.0724 -0.6942
  108OSM   H18T11051   6.819   5.582   4.475 -1.3472  2.6155  0.4398
  108OSM   H18U11052   6.949   5.621   4.595  1.0905  0.0818 -2.6347
  108OSM    C1F11053   6.644   5.819   6.232  0.1278 -0.9333  0.3303
  108OSM     OF11054   6.741   5.852   6.295  0.0442 -0.2821 -0.6268
  108OSM    C2F11055   6.573   5.916   6.146  0.1854 -0.4577 -1.0799
  108OSM    H2F11056   6.548   6.011   6.199  2.6154  0.2764 -1.1205
  108OSM    H2G11057   6.479   5.865   6.114 -0.6384 -1.1174  2.0462
  108OSM    C3F11058   6.652   5.960   6.018 -0.5792 -0.0327 -0.2471
  108OSM    H3F11059   6.701   5.878   5.961 -1.7315 -1.2576  0.4713
  108OSM    H3G11060   6.732   6.030   6.053  1.0389 -1.4233 -0.9871
  108OSM    C4F11061   6.561   6.042   5.921 -0.3345  0.1059  0.9444
  108OSM    H4F11062   6.540   6.131   5.985  1.8163  0.5762  1.0437
  108OSM    H4G11063   6.468   5.987   5.892 -0.9881 -0.0639  3.1436
  108OSM    C5F11064   6.638   6.085   5.792  0.1670 -0.2879 -0.7689
  108OSM    H5F11065   6.732   6.133   5.827  0.9238 -2.0757 -0.1933
  108OSM    H5G11066   6.580   6.167   5.744 -0.0553 -0.5715 -0.9849
  108OSM    C6F11067   6.672   5.976   5.693 -0.1593  0.7417 -0.3214
  108OSM    H6F11068   6.578   5.942   5.643 -1.1504  1.2974  1.0927
  108OSM    H6G11069   6.704   5.885   5.749 -0.9464 -0.6102 -1.9839
  108OSM    C7F11070   6.784   6.029   5.598  0.1984  0.4277 -0.4417
  108OSM    H7F11071   6.878   6.040   5.655 -0.8324  1.4403  1.1518
  108OSM    H7G11072   6.760   6.129   5.556 -0.9821  1.0477  1.5565
  108OSM    C8F11073   6.807   5.921   5.486 -0.2374 -0.0865 -0.3801
  108OSM    H8F11074   6.728   5.924   5.408 -1.0651 -2.5494  0.2832
  108OSM    H8G11075   6.803   5.828   5.546 -1.0384 -0.5230 -1.0825
  108OSM    C9F11076   6.938   5.945   5.412  1.1159  0.4746  0.0055
  108OSM    H9F11077   7.029   5.938   5.473  0.5795  0.0641  0.7699
  108OSM   C10F11078   6.965   5.975   5.285  0.1802 -1.0054 -0.8361
  108OSM   H10F11079   7.065   5.999   5.246 -0.8799  1.8444 -2.0118
  108OSM   C11F11080   6.855   5.991   5.187  0.2926  0.3187 -0.0034
  108OSM   H11F11081   6.769   6.033   5.243  0.5260  1.9172 -0.8020
  108OSM   H11G11082   6.846   5.883   5.160  3.9295 -0.4104  1.1942
  108OSM   C12F11083   6.879   6.082   5.068  0.7062 -0.2485  0.6739
  108OSM   H12F11084   6.895   6.188   5.097 -1.6661  0.8328 -1.5891
  108OSM   H12G11085   6.788   6.080   5.005  0.9411 -2.8619  0.3070
  108OSM   C13F11086   6.993   6.037   4.976  0.0685  0.2776 -0.7845
  108OSM   H13F11087   6.983   5.931   4.944  0.5797  0.3457 -1.1826
  108OSM   H13G11088   7.087   6.033   5.034  0.1012 -0.7513 -0.8791
  108OSM   C14F11089   7.012   6.123   4.850  0.1610 -0.2057 -0.4426
  108OSM   H14F11090   7.121   6.119   4.828  0.6131  0.2205  1.5586
  108OSM   H14G11091   6.988   6.227   4.879  2.2187 -0.6940  3.8361
  108OSM   C15F11092   6.946   6.061   4.728  0.1621 -0.7251  0.4356
  108OSM   H15F11093   6.836   6.054   4.742 -0.3945  0.8951 -2.4534
  108OSM   H15G11094   6.984   5.958   4.711  2.0753  0.1142 -0.7836
  108OSM   C16F11095   6.968   6.131   4.588  0.3015 -0.1369 -0.3707
  108OSM   H16F11096   7.079   6.135   4.583  0.5568 -0.6645  2.9176
  108OSM   H16G11097   6.928   6.233   4.608 -0.6146 -0.9725  2.3619
  108OSM   C17F11098   6.902   6.070   4.463  0.5137 -0.2770  0.2022
  108OSM   H17F11099   6.795   6.061   4.492  0.3786  1.3833  0.3003
  108OSM   H17G11100   6.936   5.965   4.449 -0.6349 -1.2889  3.7568
  108OSM   C18F11101   6.898   6.152   4.339  0.5747 -0.9419  0.2595
  108OSM   H18F11102   6.994   6.194   4.301 -0.2456  1.0205  0.2069
  108OSM   H18G11103   6.846   6.247   4.362 -1.1574 -2.0292  0.9688
  108OSM   H18H11104   6.836   6.095   4.267  0.9562  0.0896 -0.9341
  109OSM      N11105   3.085   2.060   6.662  0.5931 -0.1715 -0.6967
  109OSM    C1511106   3.190   1.973   6.599  1.1177  0.0167 -0.3599
  109OSM   H15A11107   3.181   1.984   6.492 -1.2300 -0.6317 -0.2991
  109OSM   H15B11108   3.157   1.874   6.624 -1.1458  0.2905 -1.8954
  109OSM   H15C11109   3.286   2.001   6.637  1.0575  0.2134 -0.3514
  109OSM    C1411110   3.055   2.011   6.801 -0.4191  0.0526  0.2108
  109OSM   H14A11111   2.966   2.057   6.843  0.8316  1.5020  1.3913
  109OSM   H14B11112   3.135   2.029   6.871  1.2941  0.6340 -1.8263
  109OSM   H14C11113   3.039   1.904   6.807  1.1094 -0.1734  0.6257
  109OSM    C1311114   3.146   2.194   6.681  0.0371 -0.0464  0.0871
  109OSM   H13A11115   3.079   2.251   6.744 -1.0380 -1.8840  0.6738
  109OSM   H13B11116   3.146   2.237   6.582  1.0358  0.9785  0.5019
  109OSM   H13C11117   3.249   2.194   6.715  1.1596  2.9741 -2.7650
  109OSM    C1211118   2.958   2.064   6.577  0.4071 -0.4554  0.2246
  109OSM   H12A11119   2.887   2.116   6.641  1.8020 -1.2796  2.5521
  109OSM   H12B11120   2.936   1.961   6.555 -0.8309  0.1832 -1.9466
  109OSM    C1111121   2.963   2.136   6.445 -0.3703 -0.0146 -0.2653
  109OSM   H11A11122   2.864   2.112   6.399 -0.4352 -1.2950  0.4923
  109OSM   H11B11123   3.038   2.088   6.378 -0.5249  0.7678 -1.0195
  109OSM      P11124   2.952   2.394   6.366 -0.3148  0.0340  0.1868
  109OSM    O1311125   2.825   2.360   6.296  0.4621  0.5051 -0.3412
  109OSM    O1411126   2.944   2.522   6.439  0.2041 -0.5629 -0.1152
  109OSM    O1111127   3.071   2.399   6.265 -0.0199 -0.1899 -0.2951
  109OSM    O1211128   2.990   2.272   6.467 -0.1996  0.3811 -0.3486
  109OSM    C1S11129   3.099   2.279   6.183 -0.8896  0.4171  0.0017
  109OSM    H1S11130   3.010   2.214   6.168  0.0618 -1.0241  0.4070
  109OSM    H1T11131   3.183   2.220   6.226  0.0019  0.8156 -1.1514
  109OSM     NF11132   3.176   2.192   5.963 -0.1547 -0.0190  0.7914
  109OSM    HNF11133   3.270   2.159   5.957 -0.2679 -0.1840 -0.2710
  109OSM    C2S11134   3.158   2.312   6.043 -0.1773 -0.6954 -0.0411
  109OSM    H2S11135   3.094   2.382   5.985  1.5814  1.1919  0.1487
  109OSM    C3S11136   3.293   2.393   6.065  0.2716 -0.1938  0.2894
  109OSM    H3S11137   3.368   2.327   6.113 -0.6414 -2.6009 -1.3814
  109OSM     O311138   3.274   2.509   6.145 -0.2052  0.0514  0.5278
  109OSM    HO311139   3.187   2.492   6.180 -0.3824 -4.1649 -1.2725
  109OSM    C4S11140   3.348   2.437   5.931  0.1533  0.1200  0.1312
  109OSM    H4S11141   3.284   2.498   5.866 -0.9151 -0.3321  0.7159
  109OSM    C5S11142   3.464   2.385   5.877 -0.0478  0.4727  0.4416
  109OSM    H5S11143   3.523   2.308   5.930  0.7749  0.3277 -0.6558
  109OSM    C6S11144   3.512   2.416   5.737 -0.0273  0.1670  0.0307
  109OSM    H6S11145   3.623   2.416   5.745 -0.0222 -0.7220  0.0370
  109OSM    H6T11146   3.491   2.515   5.692  0.8135 -1.2287 -3.8118
  109OSM    C7S11147   3.448   2.322   5.632  0.1209  0.3635 -0.3145
  109OSM    H7S11148   3.340   2.347   5.623  0.3215  0.6367 -2.6350
  109OSM    H7T11149   3.459   2.216   5.664 -1.8386 -0.0328 -0.7934
  109OSM    C8S11150   3.518   2.335   5.494 -1.1941  0.6431 -0.1539
  109OSM    H8S11151   3.591   2.251   5.487 -1.7786 -0.1032  1.9179
  109OSM    H8T11152   3.565   2.436   5.493 -1.3390  0.7124 -0.0614
  109OSM    C9S11153   3.418   2.337   5.374 -0.3228 -0.0977  0.0207
  109OSM    H9S11154   3.343   2.418   5.392 -0.2545 -0.6464  3.5058
  109OSM    H9T11155   3.355   2.246   5.369  0.5904 -0.8239  1.1421
  109OSM   C10S11156   3.485   2.351   5.238  0.4577  0.2939  0.0961
  109OSM   H10S11157   3.413   2.296   5.174 -0.6062 -0.2373  1.6609
  109OSM   H10T11158   3.580   2.295   5.229  1.5028  2.3326 -2.8063
  109OSM   C11S11159   3.491   2.499   5.195  0.4498  0.3992 -0.1140
  109OSM   H11S11160   3.545   2.559   5.271  0.4247 -0.4540  0.5874
  109OSM   H11T11161   3.386   2.536   5.195  0.3750  0.3445  2.1268
  109OSM   C12S11162   3.558   2.518   5.064 -0.1551  0.0794 -0.1091
  109OSM   H12S11163   3.664   2.486   5.064 -0.6329 -1.6068 -1.3411
  109OSM   H12T11164   3.542   2.625   5.036  2.3116  0.6297  0.3237
  109OSM   C13S11165   3.475   2.453   4.951  0.9370  0.2919 -0.0705
  109OSM   H13S11166   3.371   2.492   4.957  0.9634  0.2543  0.9277
  109OSM   H13T11167   3.474   2.343   4.970 -0.6534  0.5051  1.3860
  109OSM   C14S11168   3.547   2.486   4.820 -0.3473  0.5857  0.6336
  109OSM   H14S11169   3.536   2.408   4.742  0.7278  1.0091  0.0334
  109OSM   H14T11170   3.656   2.493   4.841 -0.0752  0.7621 -0.7852
  109OSM   C15S11171   3.485   2.613   4.749 -0.7411 -0.5241 -0.0755
  109OSM   H15S11172   3.545   2.642   4.660 -0.6576 -1.1027 -0.2150
  109OSM   H15T11173   3.487   2.701   4.816  1.2676  0.3921 -1.2208
  109OSM   C16S11174   3.343   2.589   4.707 -0.1485  0.2737  0.1121
  109OSM   H16S11175   3.290   2.576   4.804  0.7387  1.1526  0.7526
  109OSM   H16T11176   3.338   2.492   4.654  1.7693  0.1042  0.1498
  109OSM   C17S11177   3.286   2.696   4.608 -0.1209  0.3146  0.6765
  109OSM   H17S11178   3.176   2.683   4.599 -0.1103 -0.0962  1.0717
  109OSM   H17T11179   3.332   2.666   4.512 -0.4995 -0.5751  0.7556
  109OSM   C18S11180   3.310   2.840   4.653 -0.5631 -0.3673 -0.3729
  109OSM   H18S11181   3.258   2.855   4.751 -1.0148 -0.3113 -0.6177
  109OSM   H18T11182   3.263   2.912   4.583  0.2798 -0.1902 -0.7702
  109OSM   H18U11183   3.420   2.852   4.665 -0.4784 -0.3272 -1.1854
  109OSM    C1F11184   3.072   2.129   5.908  0.7778 -0.0821  0.0531
  109OSM     OF11185   2.960   2.179   5.917 -0.0223 -0.2921  0.0067
  109OSM    C2F11186   3.109   1.996   5.838  0.0739 -0.2908 -0.6692
  109OSM    H2F11187   3.068   1.914   5.901  0.6433 -0.8435 -1.0057
  109OSM    H2G11188   3.218   1.981   5.822  0.1056 -1.5729  0.5288
  109OSM    C3F11189   3.038   1.991   5.704  0.6401  0.1863  0.5151
  109OSM    H3F11190   2.929   2.012   5.716  1.0928  2.1892  1.4803
  109OSM    H3G11191   3.040   1.887   5.664 -3.4301 -0.2156  0.9061
  109OSM    C4F11192   3.112   2.083   5.597  0.3546  0.4300 -0.2223
  109OSM    H4F11193   3.219   2.055   5.598  0.5851  1.2276 -1.0704
  109OSM    H4G11194   3.102   2.185   5.640  1.9641 -0.2602  1.9668
  109OSM    C5F11195   3.056   2.076   5.453 -0.3116  0.6746 -0.3722
  109OSM    H5F11196   3.110   2.137   5.378  2.5942 -1.3745 -0.1250
  109OSM    H5G11197   2.957   2.127   5.447 -0.6026  0.2012  0.2035
  109OSM    C6F11198   3.052   1.938   5.396 -0.6354 -0.8778  0.8095
  109OSM    H6F11199   2.968   1.886   5.447 -3.0836  2.1618  0.1724
  109OSM    H6G11200   3.145   1.886   5.424 -0.7203 -0.1348  2.6543
  109OSM    C7F11201   3.014   1.933   5.251 -0.8414 -0.2087  0.1099
  109OSM    H7F11202   3.107   1.948   5.192  0.1551  1.2530  1.9351
  109OSM    H7G11203   2.954   2.024   5.233  0.6204  1.3747  2.6295
  109OSM    C8F11204   2.941   1.805   5.191  0.2748 -0.4161 -0.4315
  109OSM    H8F11205   2.910   1.831   5.087  1.8086  0.8377 -0.6178
  109OSM    H8G11206   2.850   1.788   5.252  0.4672 -0.1785 -0.0724
  109OSM    C9F11207   3.026   1.683   5.189 -0.5156 -0.2384 -0.0739
  109OSM    H9F11208   3.053   1.645   5.288  2.3196  1.9159  0.1053
  109OSM   C10F11209   3.083   1.618   5.087 -0.2787  0.1179 -0.6646
  109OSM   H10F11210   3.151   1.540   5.123 -0.4842  0.5444  0.7050
  109OSM   C11F11211   3.058   1.642   4.940 -0.3387  0.4824 -0.4817
  109OSM   H11F11212   3.139   1.694   4.886 -1.2453  1.8347 -0.5782
  109OSM   H11G11213   2.974   1.714   4.929  0.0218  0.7574 -1.5176
  109OSM   C12F11214   3.041   1.512   4.856 -0.1702  0.5797 -0.8415
  109OSM   H12F11215   2.949   1.457   4.884  1.0627 -0.2379  2.0435
  109OSM   H12G11216   3.124   1.441   4.878 -0.6430  0.0638 -0.7054
  109OSM   C13F11217   3.064   1.530   4.708 -0.4696  0.9352 -0.0259
  109OSM   H13F11218   3.058   1.443   4.639 -0.2983  0.8730  0.0376
  109OSM   H13G11219   3.165   1.576   4.705 -0.7914  1.6933  0.3977
  109OSM   C14F11220   2.962   1.621   4.642 -0.2096  0.0762 -0.7927
  109OSM   H14F11221   2.958   1.721   4.692 -1.0280 -0.2505 -0.1651
  109OSM   H14G11222   2.860   1.583   4.666  0.6396 -1.2501  0.9381
  109OSM   C15F11223   2.966   1.645   4.491 -0.2495 -0.3035  0.7581
  109OSM   H15F11224   2.883   1.707   4.452  1.4700  1.0362 -1.0266
  109OSM   H15G11225   2.953   1.545   4.444  0.3305  0.2628 -0.6734
  109OSM   C16F11226   3.099   1.703   4.432  0.1144  0.4260  0.2752
  109OSM   H16F11227   3.189   1.637   4.443  0.0427  0.0925 -1.0558
  109OSM   H16G11228   3.128   1.794   4.489 -0.0668  0.0795  0.9386
  109OSM   C17F11229   3.085   1.724   4.278  0.6417  0.1191  0.2273
  109OSM   H17F11230   3.053   1.625   4.238  0.7808 -0.1493  0.7545
  109OSM   H17G11231   3.191   1.734   4.244  0.1822  0.1875 -1.2458
  109OSM   C18F11232   2.995   1.845   4.241 -0.0370  0.7150  0.2314
  109OSM   H18F11233   2.984   1.853   4.131 -1.1192  0.3593  0.3030
  109OSM   H18G11234   3.046   1.934   4.284  2.3525 -1.1277  1.4001
  109OSM   H18H11235   2.892   1.828   4.281  0.6020 -1.3421  1.1475
  110OSM      N11236   5.010   6.144   6.751 -0.0400  0.3190 -0.5212
  110OSM    C1511237   5.011   6.055   6.866 -0.2105  0.6584 -0.8967
  110OSM   H15A11238   5.010   6.106   6.962 -4.6015 -1.2355  0.2901
  110OSM   H15B11239   5.112   6.015   6.868  0.5624  2.4997  0.2551
  110OSM   H15C11240   4.935   5.979   6.869  1.0166 -0.6055  0.8794
  110OSM    C1411241   4.881   6.215   6.751  0.3162 -0.1829 -0.4652
  110OSM   H14A11242   4.896   6.305   6.693 -3.3483 -0.6644 -2.4706
  110OSM   H14B11243   4.840   6.242   6.847  1.0620 -0.4812 -0.0515
  110OSM   H14C11244   4.803   6.159   6.701  1.2051 -2.9295  1.0486
  110OSM    C1311245   5.109   6.260   6.774  0.1636  0.0617 -0.6201
  110OSM   H13A11246   5.098   6.340   6.702  0.4340  2.5828  2.0020
  110OSM   H13B11247   5.209   6.222   6.756  0.4327  0.7055 -0.4822
  110OSM   H13C11248   5.110   6.297   6.875 -2.8706  1.9608 -1.1644
  110OSM    C1211249   5.041   6.067   6.618 -0.5366 -0.2437 -0.0618
  110OSM   H12A11250   5.019   6.135   6.537 -2.2080 -1.6656 -0.8731
  110OSM   H12B11251   4.973   5.985   6.601 -0.4348  0.0886 -2.4774
  110OSM    C1111252   5.191   6.024   6.600  0.0356  1.1659 -0.1639
  110OSM   H11A11253   5.201   5.977   6.500  0.0850  2.4657 -0.7871
  110OSM   H11B11254   5.215   5.943   6.672 -3.3004 -2.2936 -2.5332
  110OSM      P11255   5.424   6.128   6.570  0.1455  0.0062  0.1198
  110OSM    O1311256   5.489   6.255   6.609  0.1488 -0.5477 -0.6228
  110OSM    O1411257   5.491   5.998   6.615  0.4402  0.7341  0.5064
  110OSM    O1111258   5.419   6.117   6.418  0.0626 -0.3030 -0.2958
  110OSM    O1211259   5.278   6.132   6.612  0.2802 -0.1686 -0.5377
  110OSM    C1S11260   5.378   6.240   6.357  0.0638 -0.3130  0.2486
  110OSM    H1S11261   5.443   6.327   6.381 -1.5578  0.8910  0.4510
  110OSM    H1T11262   5.270   6.263   6.371  0.3335  1.4797 -0.3962
  110OSM     NF11263   5.353   6.375   6.148 -0.4826 -0.8910 -0.7481
  110OSM    HNF11264   5.264   6.381   6.104  0.1811 -0.9799 -2.1689
  110OSM    C2S11265   5.388   6.242   6.198  0.1692 -0.0203 -0.1068
  110OSM    H2S11266   5.494   6.232   6.166 -0.1109  0.8212 -1.4148
  110OSM    C3S11267   5.309   6.122   6.140  0.0435 -0.2420 -0.4639
  110OSM    H3S11268   5.203   6.148   6.162  0.2165 -0.7230  1.0460
  110OSM     O311269   5.316   5.992   6.197 -0.0026  0.1023 -0.3756
  110OSM    HO311270   5.352   6.011   6.284  0.1619  1.6738 -0.7574
  110OSM    C4S11271   5.334   6.103   5.993  0.0489 -0.1494  0.3108
  110OSM    H4S11272   5.264   6.164   5.933  1.7498  1.2144 -0.3869
  110OSM    C5S11273   5.414   6.018   5.928 -0.3723  0.0417 -0.3743
  110OSM    H5S11274   5.473   5.944   5.985 -1.2465  0.1133  0.6462
  110OSM    C6S11275   5.422   6.003   5.781 -0.6332  1.4422  0.0724
  110OSM    H6S11276   5.352   5.928   5.739  1.8902 -0.5803 -0.8462
  110OSM    H6T11277   5.523   5.974   5.743 -1.1328 -1.2680  0.6422
  110OSM    C7S11278   5.400   6.138   5.710  0.3869  0.1041  0.0272
  110OSM    H7S11279   5.466   6.221   5.742 -0.5644  0.0922  2.1312
  110OSM    H7T11280   5.292   6.164   5.718 -0.0443 -2.0547  2.0818
  110OSM    C8S11281   5.409   6.118   5.555  0.1777 -0.3663 -0.3122
  110OSM    H8S11282   5.348   6.031   5.525 -0.5805  0.4294 -1.1505
  110OSM    H8T11283   5.516   6.107   5.526  0.5121  3.3061 -0.9791
  110OSM    C9S11284   5.357   6.232   5.474  0.1650  0.0349  0.1158
  110OSM    H9S11285   5.249   6.255   5.487 -0.7085 -1.6808 -3.1577
  110OSM    H9T11286   5.365   6.207   5.366 -1.2150 -1.3049  0.2948
  110OSM   C10S11287   5.448   6.353   5.493 -0.3660 -0.7540 -0.5537
  110OSM   H10S11288   5.542   6.323   5.542  0.1369  3.2464  1.2980
  110OSM   H10T11289   5.401   6.429   5.559 -1.5814 -2.3230  0.4614
  110OSM   C11S11290   5.491   6.413   5.355  0.4718 -0.3451 -0.0862
  110OSM   H11S11291   5.406   6.414   5.283  0.5557  0.3170 -0.1774
  110OSM   H11T11292   5.578   6.360   5.309  0.0670  0.1297 -1.4336
  110OSM   C12S11293   5.534   6.553   5.371  0.3420  0.2903 -0.1445
  110OSM   H12S11294   5.615   6.559   5.447 -1.0834 -1.7367  1.6509
  110OSM   H12T11295   5.447   6.608   5.412  1.0116  1.8193 -0.6655
  110OSM   C13S11296   5.588   6.614   5.245 -0.7979 -0.2470  0.3258
  110OSM   H13S11297   5.508   6.622   5.169 -1.0031  0.1903  0.5864
  110OSM   H13T11298   5.675   6.553   5.213 -0.5064  0.0732  0.5012
  110OSM   C14S11299   5.647   6.758   5.264  0.2786 -0.1403  0.2259
  110OSM   H14S11300   5.717   6.757   5.350 -1.4546 -2.1032  1.7390
  110OSM   H14T11301   5.557   6.821   5.279 -0.9750 -1.8957  0.4467
  110OSM   C15S11302   5.724   6.799   5.138 -0.0525 -0.0055  0.4786
  110OSM   H15S11303   5.659   6.814   5.049  1.2663  0.7225 -0.4047
  110OSM   H15T11304   5.794   6.716   5.114 -0.2307  0.7571 -3.3401
  110OSM   C16S11305   5.807   6.927   5.163 -0.7675 -0.4582 -0.5160
  110OSM   H16S11306   5.886   6.929   5.085 -1.7165  1.5897 -1.5175
  110OSM   H16T11307   5.851   6.918   5.264 -0.3023 -1.5341 -0.8012
  110OSM   C17S11308   5.733   7.057   5.154  0.0708 -0.4464 -0.0123
  110OSM   H17S11309   5.802   7.137   5.186 -1.0669  1.1960 -1.4752
  110OSM   H17T11310   5.655   7.059   5.233 -0.2547 -2.1499 -0.2422
  110OSM   C18S11311   5.677   7.091   5.018 -0.3907  0.3133 -0.2137
  110OSM   H18S11312   5.687   7.201   5.003 -2.7801  0.6973  0.5802
  110OSM   H18T11313   5.572   7.061   5.003 -0.3335  0.5121 -1.0502
  110OSM   H18U11314   5.739   7.050   4.935  0.5933 -3.3799  2.1145
  110OSM    C1F11315   5.421   6.486   6.171 -0.0294 -0.3346  0.1629
  110OSM     OF11316   5.536   6.472   6.203 -0.2466 -0.3629 -0.2442
  110OSM    C2F11317   5.339   6.613   6.157 -0.8342  0.4987  0.7594
  110OSM    H2F11318   5.344   6.649   6.262 -1.9752  0.5323  0.8195
  110OSM    H2G11319   5.233   6.584   6.142 -1.1411  1.6222  0.6296
  110OSM    C3F11320   5.392   6.716   6.056 -0.2377  0.0590 -0.2063
  110OSM    H3F11321   5.500   6.731   6.075  0.1190 -2.7555  0.4141
  110OSM    H3G11322   5.345   6.813   6.086  2.1294  1.9833 -2.3206
  110OSM    C4F11323   5.356   6.672   5.911 -0.2463 -0.0671 -0.0165
  110OSM    H4F11324   5.245   6.658   5.913 -0.6640  2.6743  0.0916
  110OSM    H4G11325   5.404   6.577   5.881 -1.5348 -1.0458  0.8676
  110OSM    C5F11326   5.387   6.779   5.807  0.3331 -0.2194 -0.2938
  110OSM    H5F11327   5.493   6.808   5.789  0.2105 -0.2899 -1.1709
  110OSM    H5G11328   5.325   6.867   5.837 -1.7996 -1.7764  0.1183
  110OSM    C6F11329   5.347   6.741   5.666 -0.2835 -0.9961 -0.1905
  110OSM    H6F11330   5.245   6.700   5.682 -0.8879  0.4551 -0.1591
  110OSM    H6G11331   5.408   6.670   5.606  4.1675  2.8063 -0.7248
  110OSM    C7F11332   5.340   6.860   5.570  0.6061  0.0823  0.5322
  110OSM    H7F11333   5.441   6.902   5.552 -0.2681  1.9315 -0.2132
  110OSM    H7G11334   5.288   6.939   5.628 -1.9458 -1.8600  1.0973
  110OSM    C8F11335   5.254   6.840   5.436 -0.1993  0.4435 -0.1102
  110OSM    H8F11336   5.296   6.757   5.376 -0.3167 -0.8433  1.5079
  110OSM    H8G11337   5.270   6.923   5.365  1.6532  0.0751 -0.1809
  110OSM    C9F11338   5.103   6.814   5.457  1.1297  0.7852  0.2284
  110OSM    H9F11339   5.055   6.897   5.511 -0.5474  0.1195 -0.1570
  110OSM   C10F11340   5.023   6.709   5.425 -0.1407 -0.6631  0.1108
  110OSM   H10F11341   4.918   6.713   5.458 -1.5432 -1.9581 -3.6516
  110OSM   C11F11342   5.053   6.584   5.351 -0.2046 -0.7896  0.1747
  110OSM   H11F11343   4.959   6.526   5.344 -0.8152  0.2067 -0.0860
  110OSM   H11G11344   5.136   6.523   5.394  1.7509  1.5399 -0.0583
  110OSM   C12F11345   5.093   6.616   5.200  0.1701 -0.6682 -0.3104
  110OSM   H12F11346   5.180   6.685   5.211 -0.8171  1.1418 -2.8802
  110OSM   H12G11347   5.014   6.687   5.167  1.7465  1.0073 -0.6853
  110OSM   C13F11348   5.127   6.495   5.127 -0.6095 -0.7510  0.1637
  110OSM   H13F11349   5.212   6.446   5.178  0.8107  0.2991 -1.1199
  110OSM   H13G11350   5.162   6.515   5.024  0.1105 -0.6569  0.4214
  110OSM   C14F11351   5.005   6.398   5.113  0.0579  0.8050 -0.6076
  110OSM   H14F11352   4.983   6.359   5.215 -1.0891 -0.8264 -1.4366
  110OSM   H14G11353   5.058   6.315   5.062 -1.4566  0.1291 -1.1432
  110OSM   C15F11354   4.882   6.447   5.038 -0.0481 -0.1432  0.3572
  110OSM   H15F11355   4.924   6.495   4.947 -3.6572  1.2473 -0.7749
  110OSM   H15G11356   4.827   6.517   5.105 -1.5134 -1.8496  1.0333
  110OSM   C16F11357   4.777   6.342   4.986 -0.5383  0.0972 -1.1262
  110OSM   H16F11358   4.720   6.297   5.070 -0.6262 -0.9373 -1.7266
  110OSM   H16G11359   4.832   6.262   4.932  0.5265 -1.2820  1.7762
  110OSM   C17F11360   4.657   6.384   4.893 -0.0130 -0.7557 -0.3200
  110OSM   H17F11361   4.576   6.439   4.944  1.4071  1.8939 -0.7201
  110OSM   H17G11362   4.595   6.295   4.870 -0.5932 -1.2870  2.8404
  110OSM   C18F11363   4.686   6.452   4.759  0.0801 -0.6110  0.6397
  110OSM   H18F11364   4.757   6.398   4.692 -0.3988  0.3702 -0.7085
  110OSM   H18G11365   4.722   6.556   4.771 -2.0072 -0.0442  2.5889
  110OSM   H18H11366   4.587   6.455   4.708  0.1690 -0.5152  0.4714
  111OSM      N11367   1.052   3.520   6.497  0.6506 -0.0999 -0.7482
  111OSM    C1511368   1.017   3.602   6.610 -0.4501  0.3307 -0.7763
  111OSM   H15A11369   1.061   3.699   6.594  0.6266  0.6785  3.3337
  111OSM   H15B11370   1.060   3.574   6.705 -0.8287  1.0452 -0.3867
  111OSM   H15C11371   0.913   3.621   6.631  0.3981  4.0926  0.8816
  111OSM    C1411372   1.197   3.497   6.501 -0.5549  0.8054  0.3992
  111OSM   H14A11373   1.243   3.590   6.470 -3.0797  1.5379 -1.5245
  111OSM   H14B11374   1.223   3.417   6.433 -0.5141  1.0056  0.1765
  111OSM   H14C11375   1.238   3.465   6.596  0.7266 -0.6174 -0.5814
  111OSM    C1311376   0.977   3.387   6.501  1.0592 -0.0188  0.0311
  111OSM   H13A11377   1.021   3.317   6.570  0.2948  0.3305  0.8994
  111OSM   H13B11378   0.979   3.347   6.401 -0.1424  1.7266 -0.7323
  111OSM   H13C11379   0.874   3.405   6.530  1.1343 -1.0654  1.0171
  111OSM    C1211380   1.017   3.596   6.371  0.1082  0.1479 -0.4822
  111OSM   H12A11381   0.911   3.616   6.370  0.2721  1.1630 -2.3443
  111OSM   H12B11382   1.028   3.522   6.293  2.4591 -0.9014  0.7401
  111OSM    C1111383   1.079   3.736   6.343 -0.2948  0.7144 -0.5655
  111OSM   H11A11384   1.048   3.761   6.240  0.7378 -0.8686 -1.3047
  111OSM   H11B11385   1.190   3.740   6.345 -0.2754  0.8000  2.0114
  111OSM      P11386   0.886   3.884   6.435  0.4009 -0.4071 -0.2210
  111OSM    O1311387   0.790   3.771   6.435  0.4357 -0.6191 -1.0638
  111OSM    O1411388   0.871   3.969   6.555  0.0468  0.0765 -0.1804
  111OSM    O1111389   0.881   3.963   6.300  0.2546 -0.5584  0.3860
  111OSM    O1211390   1.040   3.833   6.441 -0.8951  0.8988  0.5093
  111OSM    C1S11391   0.988   4.047   6.263  0.5567 -0.0490  0.2776
  111OSM    H1S11392   1.088   3.999   6.267  0.0026 -1.3533 -0.9042
  111OSM    H1T11393   0.995   4.128   6.339  2.9452  0.3305 -0.2800
  111OSM     NF11394   1.090   4.169   6.074 -0.4123 -0.1718  0.3395
  111OSM    HNF11395   1.096   4.268   6.072 -1.4417 -0.1050  0.1187
  111OSM    C2S11396   0.971   4.109   6.120 -0.0089 -0.1740 -0.2252
  111OSM    H2S11397   0.948   4.023   6.054  0.1553  0.3752 -1.0028
  111OSM    C3S11398   0.847   4.210   6.120 -0.3979 -0.5808 -0.5654
  111OSM    H3S11399   0.862   4.299   6.184  1.5962 -0.3029 -1.3317
  111OSM     O311400   0.728   4.155   6.169 -0.7357 -0.0084  0.2477
  111OSM    HO311401   0.759   4.095   6.238 -1.8624  1.0365  1.7400
  111OSM    C4S11402   0.826   4.257   5.984 -0.2388  0.6263 -0.4863
  111OSM    H4S11403   0.824   4.178   5.908 -0.7276  0.1862 -0.0252
  111OSM    C5S11404   0.809   4.383   5.943  0.1764  0.2420  0.0580
  111OSM    H5S11405   0.803   4.465   6.017  2.5730 -0.2083  0.8361
  111OSM    C6S11406   0.792   4.421   5.794  0.0596  0.7752 -0.1370
  111OSM    H6S11407   0.795   4.528   5.764 -1.6477 -0.0752 -3.9949
  111OSM    H6T11408   0.696   4.379   5.757 -0.0087  0.4087  0.4435
  111OSM    C7S11409   0.882   4.355   5.686  0.3244  0.1280  0.3437
  111OSM    H7S11410   0.865   4.246   5.675  0.3810  0.0281  1.1727
  111OSM    H7T11411   0.992   4.360   5.704  0.7913 -1.7292 -1.5758
  111OSM    C8S11412   0.841   4.416   5.550 -0.2687 -0.9683 -0.3451
  111OSM    H8S11413   0.820   4.522   5.575  0.9462 -1.0035  1.0113
  111OSM    H8T11414   0.744   4.375   5.515 -1.4648 -0.3667  2.0246
  111OSM    C9S11415   0.950   4.420   5.446 -0.1833  0.2141  0.1726
  111OSM    H9S11416   0.982   4.316   5.427 -2.1056 -0.1307 -1.6297
  111OSM    H9T11417   1.031   4.484   5.486 -1.4826  1.9186  0.2250
  111OSM   C10S11418   0.889   4.470   5.312 -0.6925  0.5255 -0.4262
  111OSM   H10S11419   0.877   4.580   5.301  0.9029  0.5758 -2.0903
  111OSM   H10T11420   0.788   4.428   5.295 -0.8143  1.8919 -3.9775
  111OSM   C11S11421   0.968   4.411   5.196 -0.7424 -0.0160  0.3210
  111OSM   H11S11422   0.957   4.302   5.178  2.7804 -0.3416 -0.4949
  111OSM   H11T11423   1.075   4.423   5.224 -0.8493  2.0340 -0.0209
  111OSM   C12S11424   0.941   4.476   5.054 -0.6090  0.0078 -0.2545
  111OSM   H12S11425   0.950   4.586   5.046 -1.5173  0.0446 -0.9939
  111OSM   H12T11426   0.834   4.449   5.037 -0.4134 -2.3783  1.6999
  111OSM   C13S11427   1.023   4.400   4.949  0.0707  0.1248  0.2859
  111OSM   H13S11428   1.009   4.295   4.982  1.4005 -0.6710 -1.5142
  111OSM   H13T11429   1.133   4.410   4.959  0.1522 -1.8505  2.1944
  111OSM   C14S11430   0.973   4.441   4.803 -0.6114 -0.1029 -0.1675
  111OSM   H14S11431   0.864   4.426   4.786 -0.4175  0.0824 -1.6612
  111OSM   H14T11432   1.032   4.381   4.731  2.0078  0.5094  1.3379
  111OSM   C15S11433   0.992   4.590   4.767  0.1357  0.0958  0.0565
  111OSM   H15S11434   1.099   4.620   4.768 -0.5199  2.6616  0.3876
  111OSM   H15T11435   0.941   4.648   4.846 -0.5846 -2.2858  1.4346
  111OSM   C16S11436   0.924   4.622   4.630 -0.4435  0.1071  0.2002
  111OSM   H16S11437   0.911   4.732   4.631  0.8435  0.3204  3.0642
  111OSM   H16T11438   0.826   4.570   4.628 -0.2623 -0.5082  2.7771
  111OSM   C17S11439   1.019   4.590   4.515  0.3579 -0.4388 -0.1149
  111OSM   H17S11440   1.021   4.480   4.499  0.2114 -0.8655  2.4006
  111OSM   H17T11441   1.121   4.620   4.547  0.1422  0.8811 -0.6204
  111OSM   C18S11442   0.968   4.644   4.385 -1.1825  0.1386  0.1714
  111OSM   H18S11443   1.046   4.695   4.326 -1.0766  1.1733  1.1689
  111OSM   H18T11444   0.894   4.725   4.401 -1.9128 -0.4941  0.0718
  111OSM   H18U11445   0.942   4.558   4.319  0.6663 -0.1520 -0.2287
  111OSM    C1F11446   1.207   4.100   6.056 -0.4873 -0.5151  0.2652
  111OSM     OF11447   1.213   3.985   6.083  0.0012 -0.2915 -0.3331
  111OSM    C2F11448   1.319   4.190   6.031 -0.4181  0.5442 -0.5263
  111OSM    H2F11449   1.377   4.199   6.125 -0.7431  0.2799 -0.2979
  111OSM    H2G11450   1.283   4.291   6.001 -1.4649  0.3814  0.1258
  111OSM    C3F11451   1.417   4.135   5.924  0.6878 -0.1125 -0.0064
  111OSM    H3F11452   1.440   4.029   5.950 -0.2536  0.0785  1.7821
  111OSM    H3G11453   1.512   4.191   5.934  0.4464 -0.1644  4.8442
  111OSM    C4F11454   1.371   4.144   5.778 -0.1951 -0.0910  0.6443
  111OSM    H4F11455   1.295   4.065   5.761  0.9501 -1.1078  0.0024
  111OSM    H4G11456   1.465   4.112   5.727  0.4348  0.7509  1.2309
  111OSM    C5F11457   1.314   4.276   5.717  0.1039 -0.6408  0.8639
  111OSM    H5F11458   1.383   4.360   5.738 -1.5008  0.4170  2.1754
  111OSM    H5G11459   1.218   4.300   5.768 -1.9418  0.9807 -3.2282
  111OSM    C6F11460   1.277   4.274   5.567  0.2289  0.2987  0.1020
  111OSM    H6F11461   1.215   4.356   5.525 -0.4678 -1.5815 -2.8431
  111OSM    H6G11462   1.215   4.181   5.566 -0.9091  1.0361 -0.4505
  111OSM    C7F11463   1.401   4.266   5.479 -0.1036 -0.1905 -0.0389
  111OSM    H7F11464   1.426   4.158   5.479  0.0303 -0.2215 -2.6168
  111OSM    H7G11465   1.475   4.339   5.520 -0.2528  0.9540 -1.7117
  111OSM    C8F11466   1.372   4.310   5.336 -0.3347 -0.1796 -0.2263
  111OSM    H8F11467   1.455   4.338   5.268 -1.3358  0.6066 -1.1665
  111OSM    H8G11468   1.305   4.398   5.347  0.3341  0.1207  1.8079
  111OSM    C9F11469   1.304   4.194   5.259  0.5191  1.1081  0.4014
  111OSM    H9F11470   1.195   4.187   5.267  0.5327 -1.8112 -1.0562
  111OSM   C10F11471   1.368   4.091   5.202 -0.6886  0.2952  0.8616
  111OSM   H10F11472   1.313   4.011   5.151  0.3626 -0.5487  1.0180
  111OSM   C11F11473   1.518   4.092   5.208 -0.7459  0.3270 -0.0212
  111OSM   H11F11474   1.557   4.093   5.312 -0.1737 -1.3036 -0.1841
  111OSM   H11G11475   1.564   4.180   5.158  1.0069 -0.7084 -0.3451
  111OSM   C12F11476   1.580   3.963   5.135  0.2549 -0.5708  0.0489
  111OSM   H12F11477   1.543   3.869   5.182  2.7209 -0.5746  2.1842
  111OSM   H12G11478   1.689   3.965   5.153  0.0441  2.7941  1.7336
  111OSM   C13F11479   1.546   3.973   4.987  0.1588  0.3048  0.2086
  111OSM   H13F11480   1.541   4.075   4.944 -0.1768 -1.1315 -3.5991
  111OSM   H13G11481   1.449   3.920   4.977  1.3693 -2.2671  1.1429
  111OSM   C14F11482   1.660   3.907   4.901 -0.4278 -0.2954  0.0808
  111OSM   H14F11483   1.641   3.799   4.915 -1.1930 -0.3055 -0.9135
  111OSM   H14G11484   1.759   3.937   4.940  0.6997 -2.3062 -1.0903
  111OSM   C15F11485   1.656   3.934   4.754  0.2473  0.2928  0.4238
  111OSM   H15F11486   1.744   3.898   4.696 -0.9705 -0.3799 -1.0727
  111OSM   H15G11487   1.656   4.043   4.735 -1.0493  0.0097 -1.4291
  111OSM   C16F11488   1.541   3.870   4.672  0.2928 -0.6873 -0.8279
  111OSM   H16F11489   1.542   3.894   4.563  0.7254  0.0194 -0.6713
  111OSM   H16G11490   1.447   3.903   4.720  0.4599 -0.3316 -0.7496
  111OSM   C17F11491   1.543   3.719   4.690 -0.1649 -0.6081 -0.0997
  111OSM   H17F11492   1.521   3.700   4.798 -0.6972  0.1098 -0.0696
  111OSM   H17G11493   1.646   3.681   4.673 -0.6478 -1.5476 -1.0469
  111OSM   C18F11494   1.439   3.652   4.599 -0.0128  0.4841 -0.1532
  111OSM   H18F11495   1.492   3.561   4.563 -0.8322  0.6391 -1.8013
  111OSM   H18G11496   1.418   3.718   4.513  0.2970 -0.5029 -1.0195
  111OSM   H18H11497   1.344   3.612   4.640 -0.1857 -0.6131 -1.5237
  112OSM      N11498   3.596   1.436   6.711 -0.9757  0.4324  0.6732
  112OSM    C1511499   3.613   1.498   6.847  0.6906  1.2800  0.3180
  112OSM   H15A11500   3.582   1.600   6.862 -1.1202  0.5656  1.9126
  112OSM   H15B11501   3.718   1.517   6.863  0.4753  2.8897 -0.0368
  112OSM   H15C11502   3.575   1.441   6.931  2.1043  0.2311  0.2739
  112OSM    C1411503   3.663   1.308   6.709 -0.1305  0.1286 -0.1706
  112OSM   H14A11504   3.659   1.265   6.610 -1.4151  3.5460 -1.7766
  112OSM   H14B11505   3.620   1.241   6.782  1.1839 -1.4814 -0.8176
  112OSM   H14C11506   3.769   1.323   6.723  0.0232  0.9183 -1.8833
  112OSM    C1311507   3.452   1.418   6.680 -0.4217  0.2782 -0.4849
  112OSM   H13A11508   3.417   1.337   6.743  1.2807 -0.7823 -0.8484
  112OSM   H13B11509   3.448   1.393   6.575  2.4454  0.2478 -0.6655
  112OSM   H13C11510   3.399   1.509   6.707 -0.5326  0.3275 -0.8688
  112OSM    C1211511   3.647   1.526   6.596  0.3427 -0.1884 -0.1096
  112OSM   H12A11512   3.581   1.612   6.599  0.0760 -0.2131 -2.8603
  112OSM   H12B11513   3.619   1.484   6.501 -1.4372  2.3885 -0.8318
  112OSM    C1111514   3.797   1.574   6.602 -0.8711 -0.3100 -0.4470
  112OSM   H11A11515   3.807   1.644   6.687 -0.9135 -2.2052  1.2132
  112OSM   H11B11516   3.810   1.642   6.515 -0.3052  0.9620  0.6150
  112OSM      P11517   4.007   1.457   6.711 -0.3974 -0.1700  0.0291
  112OSM    O1311518   3.977   1.516   6.839 -0.8234  0.5414  0.3025
  112OSM    O1411519   4.065   1.318   6.715  0.3460  0.3567 -0.5823
  112OSM    O1111520   4.112   1.553   6.643 -0.0411  0.6460  0.6119
  112OSM    O1211521   3.888   1.461   6.617 -0.3494  0.2024  0.3210
  112OSM    C1S11522   4.188   1.514   6.529  0.3152 -0.4683 -0.2025
  112OSM    H1S11523   4.200   1.404   6.526 -1.8862 -0.8332  1.4451
  112OSM    H1T11524   4.290   1.557   6.541  0.2407 -0.2513 -0.3368
  112OSM     NF11525   4.211   1.516   6.278  0.0746 -0.8299 -0.1443
  112OSM    HNF11526   4.282   1.571   6.235 -0.6041 -1.3992 -2.0935
  112OSM    C2S11527   4.131   1.571   6.389 -0.1441 -0.0340 -0.5775
  112OSM    H2S11528   4.026   1.533   6.385  0.6420 -3.0398  2.6554
  112OSM    C3S11529   4.132   1.730   6.403 -0.2134  0.2791 -0.2412
  112OSM    H3S11530   4.236   1.764   6.420 -0.3131 -0.0467  1.0753
  112OSM     O311531   4.054   1.780   6.510 -0.0181  0.6881  0.1730
  112OSM    HO311532   4.029   1.697   6.552 -1.0797  3.0631  5.0586
  112OSM    C4S11533   4.089   1.800   6.271  1.0070  0.0392 -0.1383
  112OSM    H4S11534   3.990   1.768   6.236  2.2254 -2.8683 -1.1842
  112OSM    C5S11535   4.157   1.876   6.184 -0.1055  0.6386 -0.6595
  112OSM    H5S11536   4.260   1.910   6.205  0.4122 -0.1056 -1.8480
  112OSM    C6S11537   4.113   1.914   6.048  0.5651  0.5354 -0.3595
  112OSM    H6S11538   4.139   2.021   6.034  2.0323  0.5193  1.6214
  112OSM    H6T11539   4.004   1.908   6.030  0.3679 -0.4193  0.9796
  112OSM    C7S11540   4.194   1.825   5.950 -0.7054  1.2404 -0.3644
  112OSM    H7S11541   4.171   1.716   5.955 -0.1983  1.1838  1.7946
  112OSM    H7T11542   4.302   1.825   5.975 -0.3401  2.3328 -1.8032
  112OSM    C8S11543   4.186   1.875   5.807 -0.0798  0.1361  0.0872
  112OSM    H8S11544   4.226   1.979   5.809  1.0647 -0.2363 -1.2310
  112OSM    H8T11545   4.081   1.887   5.775  0.2521 -1.2704 -1.6968
  112OSM    C9S11546   4.246   1.781   5.712  0.2447 -0.0038  0.1914
  112OSM    H9S11547   4.190   1.690   5.680  0.7807 -0.4551  0.5091
  112OSM    H9T11548   4.344   1.756   5.758  0.8514  4.1525  1.5547
  112OSM   C10S11549   4.281   1.864   5.583 -0.4929  0.6453 -0.1014
  112OSM   H10S11550   4.347   1.948   5.612  0.9532  0.3630 -2.3543
  112OSM   H10T11551   4.187   1.897   5.532 -1.3223 -1.2729  0.1027
  112OSM   C11S11552   4.367   1.782   5.490  0.0867  0.3239  0.2741
  112OSM   H11S11553   4.318   1.685   5.464 -2.3283  1.2486  1.0542
  112OSM   H11T11554   4.463   1.749   5.535 -0.0316 -0.3095  0.0808
  112OSM   C12S11555   4.380   1.856   5.359 -0.1336 -0.3053 -0.8113
  112OSM   H12S11556   4.420   1.957   5.379 -1.1649 -0.3905  2.2378
  112OSM   H12T11557   4.283   1.881   5.311 -0.1346 -0.5914 -0.9600
  112OSM   C13S11558   4.447   1.783   5.248 -0.2684 -0.0245  0.1737
  112OSM   H13S11559   4.394   1.688   5.227  1.6036 -0.6688 -2.1174
  112OSM   H13T11560   4.554   1.765   5.269 -0.3589  1.4686  2.2421
  112OSM   C14S11561   4.436   1.867   5.123 -0.4306 -0.1039 -0.2518
  112OSM   H14S11562   4.491   1.963   5.125 -1.1116  0.2934 -0.2878
  112OSM   H14T11563   4.328   1.895   5.119 -0.1751  1.0140  0.2939
  112OSM   C15S11564   4.474   1.792   5.001  0.5395  0.0159  0.0971
  112OSM   H15S11565   4.457   1.855   4.911 -2.0565 -1.0998 -0.2895
  112OSM   H15T11566   4.404   1.708   4.980 -2.0905  2.4921 -2.0197
  112OSM   C16S11567   4.612   1.737   4.996  0.2024 -0.3682 -0.6404
  112OSM   H16S11568   4.639   1.677   5.085  0.6975  0.8748  0.0676
  112OSM   H16T11569   4.692   1.815   4.995 -0.6282  0.5162 -0.0590
  112OSM   C17S11570   4.643   1.641   4.880  0.6202  0.2738  0.7752
  112OSM   H17S11571   4.577   1.551   4.886  1.4886 -0.6282 -1.9231
  112OSM   H17T11572   4.743   1.597   4.895 -0.5719 -2.5919  0.9111
  112OSM   C18S11573   4.625   1.689   4.738  0.0913 -0.0673 -1.1121
  112OSM   H18S11574   4.518   1.686   4.707 -0.8734 -1.5035  1.9625
  112OSM   H18T11575   4.672   1.619   4.666  0.2444  0.5193 -1.5943
  112OSM   H18U11576   4.669   1.790   4.725 -1.1472  0.4489 -1.4729
  112OSM    C1F11577   4.214   1.391   6.248  0.2016 -0.2407 -0.5353
  112OSM     OF11578   4.133   1.314   6.295  0.0977 -1.0232 -0.1441
  112OSM    C2F11579   4.323   1.351   6.161 -0.3208 -0.5572 -0.5101
  112OSM    H2F11580   4.422   1.348   6.212 -0.4806  1.5485  0.0484
  112OSM    H2G11581   4.319   1.417   6.072 -0.5634 -0.5347 -0.4841
  112OSM    C3F11582   4.310   1.202   6.119  0.7158  0.5795  0.1864
  112OSM    H3F11583   4.285   1.141   6.209  1.0889  0.5966  0.3022
  112OSM    H3G11584   4.404   1.160   6.079 -0.0093 -0.6375 -0.2864
  112OSM    C4F11585   4.205   1.172   6.009  0.2068 -0.0303 -0.0881
  112OSM    H4F11586   4.224   1.254   5.936 -0.5599  0.1474 -0.0957
  112OSM    H4G11587   4.103   1.188   6.051  0.3938  1.3574 -0.1018
  112OSM    C5F11588   4.238   1.031   5.935  0.6814 -0.2040 -0.3800
  112OSM    H5F11589   4.236   0.952   6.013 -1.4152  0.1753 -0.0088
  112OSM    H5G11590   4.340   1.038   5.892  0.6855  0.2583 -0.2989
  112OSM    C6F11591   4.135   0.986   5.825  0.1287 -0.1935  0.9305
  112OSM    H6F11592   4.166   0.889   5.782 -2.3438  0.0579 -1.7142
  112OSM    H6G11593   4.137   1.064   5.745 -2.1500 -1.3972 -0.4026
  112OSM    C7F11594   3.999   0.984   5.893  0.5730  0.0611 -0.0108
  112OSM    H7F11595   3.964   1.078   5.942 -1.7793 -0.6924 -0.1213
  112OSM    H7G11596   4.006   0.901   5.967 -1.8467 -0.7015 -0.5318
  112OSM    C8F11597   3.886   0.947   5.792  0.1854 -0.0368 -0.6234
  112OSM    H8F11598   3.887   1.021   5.710  1.0670  1.1197  0.4042
  112OSM    H8G11599   3.786   0.956   5.840  0.2369 -0.6439 -0.3852
  112OSM    C9F11600   3.892   0.819   5.726 -0.8026 -0.0207  0.4860
  112OSM    H9F11601   3.994   0.780   5.710 -1.2842 -1.1240  0.0583
  112OSM   C10F11602   3.784   0.757   5.672  0.3939 -0.0106  0.2682
  112OSM   H10F11603   3.797   0.665   5.612  0.0334 -1.5308  2.4260
  112OSM   C11F11604   3.644   0.815   5.669  0.3813 -0.2121  0.2101
  112OSM   H11F11605   3.653   0.925   5.664 -1.6587 -0.0388 -0.3594
  112OSM   H11G11606   3.588   0.788   5.761 -0.2580 -0.6769 -0.3052
  112OSM   C12F11607   3.565   0.768   5.545 -0.0416  0.4927  0.7106
  112OSM   H12F11608   3.605   0.816   5.454 -0.1327 -0.7145  0.0135
  112OSM   H12G11609   3.467   0.819   5.533  0.3562  0.6180 -2.9756
  112OSM   C13F11610   3.534   0.617   5.527 -0.0177 -0.8563 -0.7314
  112OSM   H13F11611   3.489   0.577   5.620  0.2666  0.9229  0.2192
  112OSM   H13G11612   3.631   0.564   5.516  0.3211 -0.3319 -0.3050
  112OSM   C14F11613   3.443   0.577   5.409  0.3235  0.1307 -0.0103
  112OSM   H14F11614   3.484   0.612   5.312 -2.2021 -0.1932 -1.2799
  112OSM   H14G11615   3.345   0.627   5.419  0.5894  0.5745  0.4318
  112OSM   C15F11616   3.416   0.427   5.404  0.5419  0.5793  0.2660
  112OSM   H15F11617   3.336   0.401   5.477  0.7317  1.0631  0.6461
  112OSM   H15G11618   3.510   0.374   5.430  0.3908 -0.4536 -1.1557
  112OSM   C16F11619   3.391   0.378   5.263  0.1418  0.2730 -0.0302
  112OSM   H16F11620   3.392   0.267   5.265 -0.0986  0.2764  1.4953
  112OSM   H16G11621   3.475   0.414   5.199 -0.3291 -1.0198 -1.4394
  112OSM   C17F11622   3.257   0.427   5.216  0.2680  0.0244 -0.2458
  112OSM   H17F11623   3.242   0.531   5.253  4.5955 -0.1069  2.6446
  112OSM   H17G11624   3.173   0.368   5.258 -0.2460 -0.2386 -1.5785
  112OSM   C18F11625   3.229   0.436   5.071 -0.5957 -0.2654 -0.0503
  112OSM   H18F11626   3.306   0.504   5.028  0.0226  0.1865  1.7046
  112OSM   H18G11627   3.142   0.500   5.048  2.0167  4.3510  1.5591
  112OSM   H18H11628   3.217   0.338   5.021 -0.4179 -1.0145  1.3238
  113OSM      N11629   1.028   1.971   6.663 -0.5834 -0.4130 -0.6968
  113OSM    C1511630   1.176   1.937   6.668 -0.7851  0.0652  0.3826
  113OSM   H15A11631   1.230   2.008   6.608 -2.0304  0.1895 -0.6202
  113OSM   H15B11632   1.201   1.835   6.640  1.9495  0.7636 -0.0318
  113OSM   H15C11633   1.222   1.930   6.766 -0.9390 -1.3211  0.3873
  113OSM    C1411634   0.961   1.888   6.763 -0.0638 -0.1784  0.1868
  113OSM   H14A11635   0.855   1.885   6.743  0.0260 -1.6894 -0.1482
  113OSM   H14B11636   0.986   1.923   6.862 -0.3001 -1.7776  0.8309
  113OSM   H14C11637   0.990   1.785   6.750 -0.0964 -0.1422 -0.1837
  113OSM    C1311638   1.004   2.111   6.697 -0.1506 -0.0754  0.0664
  113OSM   H13A11639   1.028   2.178   6.616  2.7123 -2.6167 -1.3987
  113OSM   H13B11640   1.060   2.138   6.786 -1.2969  1.9488  0.2308
  113OSM   H13C11641   0.898   2.116   6.717 -0.0600 -1.7999  1.1952
  113OSM    C1211642   0.974   1.942   6.526 -0.1362 -0.0287 -0.2034
  113OSM   H12A11643   0.981   1.836   6.504 -0.7935 -0.6965  2.3963
  113OSM   H12B11644   1.038   1.983   6.450 -2.9033  0.9953 -2.1185
  113OSM    C1111645   0.826   1.986   6.501  0.1253 -0.6599  0.1680
  113OSM   H11A11646   0.808   1.964   6.393 -2.1645 -1.2431  0.6051
  113OSM   H11B11647   0.816   2.095   6.522 -0.0524 -0.6555  0.0632
  113OSM      P11648   0.675   1.776   6.533 -0.3750 -0.3163 -0.1912
  113OSM    O1311649   0.788   1.684   6.525  0.5677 -0.9046 -0.1226
  113OSM    O1411650   0.555   1.729   6.612  0.2814 -0.6634  0.0781
  113OSM    O1111651   0.633   1.819   6.385  0.2143 -0.4876  0.0865
  113OSM    O1211652   0.735   1.909   6.584 -0.5723 -0.3093 -0.0109
  113OSM    C1S11653   0.628   1.709   6.288 -0.4478  0.0489  0.3148
  113OSM    H1S11654   0.582   1.617   6.332 -1.1171  0.6365  0.8704
  113OSM    H1T11655   0.726   1.697   6.238 -1.0796  1.9774 -1.4993
  113OSM     NF11656   0.511   1.631   6.077  0.0326  0.4078 -0.1509
  113OSM    HNF11657   0.539   1.643   5.982 -1.1635  1.2361 -0.4262
  113OSM    C2S11658   0.533   1.744   6.163 -0.6962  0.8357  0.0056
  113OSM    H2S11659   0.433   1.766   6.206 -1.1606  1.5652 -1.3794
  113OSM    C3S11660   0.586   1.874   6.096  0.4680 -0.1436 -0.0145
  113OSM    H3S11661   0.681   1.837   6.052  1.1887  0.6829  0.7944
  113OSM     O311662   0.614   1.985   6.186 -0.1506  0.0979 -0.0576
  113OSM    HO311663   0.631   1.930   6.263 -0.7866 -2.1293 -1.4186
  113OSM    C4S11664   0.493   1.911   5.978 -0.8908  0.0179  0.2715
  113OSM    H4S11665   0.527   1.860   5.887  0.1488  0.4990  0.3769
  113OSM    C5S11666   0.402   2.013   5.973 -0.3608 -0.1871  0.5194
  113OSM    H5S11667   0.386   2.080   6.058 -1.5062  0.5095 -0.2240
  113OSM    C6S11668   0.318   2.063   5.860 -0.1853  0.6306 -0.6875
  113OSM    H6S11669   0.337   2.172   5.847 -1.4926  0.7410 -1.9297
  113OSM    H6T11670   0.210   2.064   5.888 -0.1910  0.3653 -0.6963
  113OSM    C7S11671   0.333   1.984   5.737  0.0052  0.3592 -0.0136
  113OSM    H7S11672   0.307   1.877   5.756 -1.1590  0.0581 -2.8480
  113OSM    H7T11673   0.439   1.979   5.705 -1.0737 -1.7040 -3.8449
  113OSM    C8S11674   0.254   2.029   5.613  0.2518  0.7166  0.0475
  113OSM    H8S11675   0.277   2.134   5.586 -1.2760  1.2050  0.5199
  113OSM    H8T11676   0.145   2.012   5.622  0.4221 -1.0106 -0.7180
  113OSM    C9S11677   0.286   1.935   5.495  0.3610 -0.8238 -0.0607
  113OSM    H9S11678   0.232   1.839   5.512 -0.4761 -0.4858 -0.7556
  113OSM    H9T11679   0.396   1.915   5.496  0.3955 -1.0467  3.6144
  113OSM   C10S11680   0.246   2.007   5.357 -0.2991  0.4920 -0.5789
  113OSM   H10S11681   0.318   2.073   5.305 -0.9768 -0.0447 -2.2502
  113OSM   H10T11682   0.167   2.079   5.387  0.2035  0.0538  2.1173
  113OSM   C11S11683   0.177   1.917   5.254 -0.3962  0.1008 -0.3360
  113OSM   H11S11684   0.087   1.869   5.297 -3.3865  2.2716 -3.6277
  113OSM   H11T11685   0.248   1.839   5.217 -1.0516 -0.3177 -0.7484
  113OSM   C12S11686   0.148   2.005   5.130 -0.4803  0.3169  0.0043
  113OSM   H12S11687   0.253   2.020   5.096  0.1507 -0.8544  1.3326
  113OSM   H12T11688   0.118   2.108   5.159  2.1843  0.9382  0.9255
  113OSM   C13S11689   0.048   1.940   5.029  0.4211  0.5281  0.2056
  113OSM   H13S11690   0.026   2.007   4.943  3.4206  1.7949  0.2977
  113OSM   H13T11691  -0.044   1.920   5.088 -0.4577  1.5191 -0.7600
  113OSM   C14S11692   0.083   1.795   4.981 -0.1808  0.4877 -0.3091
  113OSM   H14S11693   0.115   1.728   5.063  0.0789  0.5966 -0.3204
  113OSM   H14T11694   0.175   1.805   4.920 -1.6322  1.8927 -2.4115
  113OSM   C15S11695  -0.023   1.706   4.914 -0.0659  0.1666 -0.5840
  113OSM   H15S11696  -0.064   1.755   4.823 -1.2771 -1.0902 -0.7396
  113OSM   H15T11697  -0.107   1.688   4.984  0.3652 -4.1555 -0.9095
  113OSM   C16S11698   0.024   1.561   4.881 -0.2761 -0.4173  0.2849
  113OSM   H16S11699   0.044   1.511   4.978  3.2257 -0.3750 -0.2525
  113OSM   H16T11700   0.119   1.566   4.823 -1.2755  0.7705 -1.3474
  113OSM   C17S11701  -0.075   1.482   4.799  0.4782  0.2589 -0.0676
  113OSM   H17S11702  -0.130   1.566   4.752 -0.0515  0.5135  0.9801
  113OSM   H17T11703  -0.141   1.442   4.878  1.6919  1.4980  1.6327
  113OSM   C18S11704  -0.017   1.369   4.714  0.3234  0.7190  0.1119
  113OSM   H18S11705   0.042   1.300   4.778 -1.1265 -0.3310  0.3600
  113OSM   H18T11706   0.058   1.401   4.638 -0.8899  0.2920 -1.3030
  113OSM   H18U11707  -0.102   1.315   4.669 -1.8183  2.9845  1.1808
  113OSM    C1F11708   0.461   1.517   6.124  0.1162 -0.1980  0.3138
  113OSM     OF11709   0.410   1.501   6.231  0.2484 -0.7962  0.5726
  113OSM    C2F11710   0.474   1.401   6.035  0.2719 -0.1812 -0.0442
  113OSM    H2F11711   0.559   1.342   6.074 -0.8040 -2.1614 -0.5944
  113OSM    H2G11712   0.499   1.445   5.936  1.0549  0.3099  0.3600
  113OSM    C3F11713   0.348   1.314   6.030  0.1635 -0.7584 -0.0328
  113OSM    H3F11714   0.248   1.361   6.021 -0.2696 -1.5640  0.5726
  113OSM    H3G11715   0.342   1.266   6.129 -1.0272  0.3620  0.4578
  113OSM    C4F11716   0.346   1.211   5.922 -0.3245 -0.1984 -0.5089
  113OSM    H4F11717   0.260   1.148   5.952 -2.0665  2.4907  0.5555
  113OSM    H4G11718   0.443   1.157   5.921  0.1918  0.7179 -0.5852
  113OSM    C5F11719   0.321   1.266   5.780 -0.2614 -0.2290  0.6501
  113OSM    H5F11720   0.388   1.348   5.747  0.0614 -0.8042 -0.1635
  113OSM    H5G11721   0.220   1.313   5.783  0.8368  2.3280 -0.0680
  113OSM    C6F11722   0.343   1.147   5.679 -0.1792 -0.4207  0.0377
  113OSM    H6F11723   0.264   1.071   5.703 -0.3896  0.1433  1.2143
  113OSM    H6G11724   0.442   1.102   5.702 -0.0813 -0.4245 -0.3920
  113OSM    C7F11725   0.348   1.200   5.536 -0.1852 -0.1004 -0.8549
  113OSM    H7F11726   0.439   1.262   5.525 -0.0608 -0.2439 -0.6352
  113OSM    H7G11727   0.261   1.265   5.514 -0.5724  0.3219  1.5561
  113OSM    C8F11728   0.355   1.096   5.421 -0.3711  0.4466 -0.2523
  113OSM    H8F11729   0.363   1.141   5.320  0.9218 -0.4315 -0.5674
  113OSM    H8G11730   0.260   1.039   5.425 -0.4984  0.6578 -0.2587
  113OSM    C9F11731   0.470   0.998   5.433  0.2308  0.2319 -0.8065
  113OSM    H9F11732   0.560   1.038   5.482 -0.7342  1.7904 -0.2177
  113OSM   C10F11733   0.472   0.869   5.393 -0.3670 -0.4772  0.5967
  113OSM   H10F11734   0.568   0.816   5.387 -0.7984 -1.1405 -0.8832
  113OSM   C11F11735   0.362   0.798   5.308 -0.5708 -0.0548 -0.0306
  113OSM   H11F11736   0.275   0.866   5.297 -0.1158  0.5019 -0.2162
  113OSM   H11G11737   0.318   0.714   5.365 -1.3628  0.1607 -0.3177
  113OSM   C12F11738   0.407   0.747   5.169 -0.3910 -0.2861  0.2853
  113OSM   H12F11739   0.500   0.690   5.190  0.5771  1.1326 -0.0118
  113OSM   H12G11740   0.445   0.834   5.111  0.5235  0.1115  1.4529
  113OSM   C13F11741   0.298   0.671   5.085  0.5961 -0.2380 -0.6672
  113OSM   H13F11742   0.215   0.744   5.074  0.3511 -0.3256  0.4562
  113OSM   H13G11743   0.266   0.579   5.139 -2.4240  0.6719 -0.6946
  113OSM   C14F11744   0.347   0.626   4.952 -0.2150 -0.5555  0.1466
  113OSM   H14F11745   0.425   0.546   4.946  0.8791  0.5156 -0.4357
  113OSM   H14G11746   0.401   0.719   4.923 -1.0581  0.5385  1.8854
  113OSM   C15F11747   0.240   0.594   4.850 -0.1395 -0.0879  0.5881
  113OSM   H15F11748   0.173   0.681   4.837 -1.7235 -1.5653 -2.0393
  113OSM   H15G11749   0.167   0.519   4.888 -0.1066 -0.6475 -0.4206
  113OSM   C16F11750   0.298   0.545   4.715 -0.2300  0.1976  0.2014
  113OSM   H16F11751   0.344   0.449   4.746 -1.7089 -1.3350 -2.0260
  113OSM   H16G11752   0.372   0.617   4.674  0.8098 -1.0919 -0.2605
  113OSM   C17F11753   0.193   0.536   4.598  0.6286 -0.2500  0.4144
  113OSM   H17F11754   0.140   0.634   4.608  0.1969 -0.6434  2.4542
  113OSM   H17G11755   0.112   0.463   4.621 -0.1317  0.9780  1.9171
  113OSM   C18F11756   0.246   0.516   4.458 -0.2569  0.2810 -0.5568
  113OSM   H18F11757   0.336   0.581   4.453 -0.7733  0.8916 -2.3844
  113OSM   H18G11758   0.167   0.549   4.387  0.0900  2.4629  0.0108
  113OSM   H18H11759   0.293   0.417   4.437  0.1477  0.6458 -1.4097
  114OSM      N11760   0.047   6.488   6.841  0.1453 -0.1153 -0.4285
  114OSM    C1511761   0.156   6.584   6.857 -1.0771 -0.0341  0.1762
  114OSM   H15A11762   0.247   6.528   6.845 -0.3544  1.4477 -1.9572
  114OSM   H15B11763   0.145   6.637   6.950  0.5481 -0.1029  0.4398
  114OSM   H15C11764   0.156   6.656   6.776  1.4024  1.9059  1.7567
  114OSM    C1411765   0.081   6.402   6.724  0.1339  0.4852 -0.1960
  114OSM   H14A11766   0.002   6.328   6.720 -0.2768  0.9543 -1.1994
  114OSM   H14B11767   0.176   6.354   6.740 -0.2841 -0.1695  0.3552
  114OSM   H14C11768   0.090   6.457   6.631 -1.5941  1.6801  0.3014
  114OSM    C1311769   0.029   6.410   6.965 -0.5260 -0.4093 -0.5056
  114OSM   H13A11770   0.122   6.374   7.007  0.1676  0.4455 -1.2848
  114OSM   H13B11771  -0.035   6.323   6.968 -0.8333 -0.1662  1.2766
  114OSM   H13C11772  -0.024   6.473   7.035 -0.5401 -1.4594  0.4806
  114OSM    C1211773  -0.081   6.569   6.804 -0.4222  0.1988  0.2192
  114OSM   H12A11774  -0.103   6.624   6.894  0.1025 -0.0183  0.4801
  114OSM   H12B11775  -0.161   6.497   6.792 -0.8030  0.7090 -0.3308
  114OSM    C1111776  -0.078   6.676   6.688  0.3494  0.3040  0.4296
  114OSM   H11A11777  -0.185   6.704   6.671  0.5584  0.3813 -0.8263
  114OSM   H11B11778  -0.028   6.625   6.604  0.7664  0.5959  0.4999
  114OSM      P11779  -0.060   6.922   6.774  0.1070 -0.2256  0.0993
  114OSM    O1311780  -0.172   6.900   6.861  0.3709 -0.0247 -0.2764
  114OSM    O1411781   0.042   7.007   6.838  0.0032  0.0814  0.3536
  114OSM    O1111782  -0.115   6.985   6.641 -0.7445  0.3788  0.0610
  114OSM    O1211783   0.006   6.783   6.734  0.1385 -0.5483 -0.0684
  114OSM    C1S11784  -0.030   6.985   6.525  0.3894  0.3330 -0.6438
  114OSM    H1S11785   0.043   6.901   6.528  2.0718  1.7750  1.1104
  114OSM    H1T11786   0.020   7.084   6.527 -0.4036  0.7328 -0.0105
  114OSM     NF11787  -0.045   6.948   6.272 -0.2610  0.5261  0.1751
  114OSM    HNF11788  -0.037   7.015   6.199  0.7330 -0.0139 -0.2279
  114OSM    C2S11789  -0.116   6.972   6.397  0.1805  0.0500  0.4521
  114OSM    H2S11790  -0.178   6.885   6.429 -2.3581  2.2851  1.9961
  114OSM    C3S11791  -0.222   7.083   6.391 -0.3537 -0.5520 -0.0449
  114OSM    H3S11792  -0.168   7.179   6.377 -0.2010 -0.3941  1.4732
  114OSM     O311793  -0.290   7.103   6.513  0.8397  0.2974 -0.1756
  114OSM    HO311794  -0.244   7.043   6.572 -0.1980  1.1527  1.5861
  114OSM    C4S11795  -0.320   7.062   6.282 -0.4311  1.1715  0.1376
  114OSM    H4S11796  -0.374   6.967   6.299  1.6047 -0.1930 -0.6284
  114OSM    C5S11797  -0.333   7.140   6.174  0.5075 -0.1648 -0.5130
  114OSM    H5S11798  -0.275   7.231   6.155 -1.2459  1.4075  1.1910
  114OSM    C6S11799  -0.431   7.126   6.058  0.3852 -0.4481  0.0055
  114OSM    H6S11800  -0.386   7.165   5.964  1.6681  1.2737  1.2984
  114OSM    H6T11801  -0.522   7.184   6.084  0.7564  0.1580 -0.0347
  114OSM    C7S11802  -0.458   6.977   6.034 -0.5660  0.1890  0.6189
  114OSM    H7S11803  -0.543   6.974   5.962  0.4058  0.0150 -0.5652
  114OSM    H7T11804  -0.492   6.914   6.118 -0.9128 -0.8088 -0.2378
  114OSM    C8S11805  -0.342   6.905   5.971 -1.0216 -0.1023 -0.5633
  114OSM    H8S11806  -0.367   6.797   5.959  1.5448 -0.8377 -0.0339
  114OSM    H8T11807  -0.253   6.911   6.037 -0.9744  0.5877 -0.6883
  114OSM    C9S11808  -0.320   6.954   5.824 -0.2260 -0.3013 -0.5621
  114OSM    H9S11809  -0.277   7.056   5.814 -0.8233 -0.1895 -2.3501
  114OSM    H9T11810  -0.422   6.942   5.780 -0.9927  0.2720  0.9934
  114OSM   C10S11811  -0.233   6.859   5.742 -0.2021 -0.1321 -0.2081
  114OSM   H10S11812  -0.246   6.753   5.771  0.0182  0.0271  0.4737
  114OSM   H10T11813  -0.129   6.883   5.772 -0.1726  0.7965 -1.0045
  114OSM   C11S11814  -0.244   6.870   5.588 -0.4280  0.6605 -0.4928
  114OSM   H11S11815  -0.226   6.978   5.570 -0.0700  0.6267 -0.3538
  114OSM   H11T11816  -0.346   6.834   5.565 -0.0880 -1.1085  0.5816
  114OSM   C12S11817  -0.134   6.790   5.505  0.0589  0.4645  0.1085
  114OSM   H12S11818  -0.173   6.688   5.484  1.6968  0.0058 -0.9017
  114OSM   H12T11819  -0.051   6.761   5.573 -0.8488 -1.1699  0.5573
  114OSM   C13S11820  -0.079   6.862   5.378 -0.3981 -0.5151  0.1433
  114OSM   H13S11821  -0.000   6.934   5.409 -2.0609  1.6018 -0.2966
  114OSM   H13T11822  -0.164   6.907   5.323  0.7544 -0.8040 -1.9573
  114OSM   C14S11823  -0.026   6.757   5.273 -1.1885 -0.1390  0.7309
  114OSM   H14S11824   0.047   6.694   5.330 -1.0174 -0.8759 -0.2771
  114OSM   H14T11825   0.034   6.808   5.195 -4.7707  0.6432 -1.7427
  114OSM   C15S11826  -0.136   6.685   5.198 -0.4530  0.3049  0.5823
  114OSM   H15S11827  -0.220   6.753   5.172 -1.4242 -1.5750 -1.5872
  114OSM   H15T11828  -0.183   6.601   5.255 -0.2713  0.1354  0.4823
  114OSM   C16S11829  -0.074   6.634   5.059  0.2141 -0.2272 -0.3817
  114OSM   H16S11830   0.015   6.575   5.090  0.8456  1.1610  0.5772
  114OSM   H16T11831  -0.051   6.720   4.992  0.7835  1.2760  1.6181
  114OSM   C17S11832  -0.163   6.535   4.988  0.7585  0.3390 -0.2114
  114OSM   H17S11833  -0.268   6.570   4.986  1.4710  2.6579 -2.4995
  114OSM   H17T11834  -0.173   6.444   5.051  0.7163 -1.1329 -2.2458
  114OSM   C18S11835  -0.116   6.486   4.854 -0.0474  0.2448 -0.0017
  114OSM   H18S11836  -0.104   6.572   4.785 -0.8174  0.7215  0.4477
  114OSM   H18T11837  -0.182   6.410   4.807  0.6978 -0.4968  0.1237
  114OSM   H18U11838  -0.023   6.425   4.843  0.8871  1.9658 -2.8280
  114OSM    C1F11839   0.017   6.832   6.251 -0.1773  0.4500  0.2835
  114OSM     OF11840   0.014   6.746   6.335 -0.0989 -0.0126 -0.6279
  114OSM    C2F11841   0.113   6.834   6.135  0.2502 -0.7274 -0.0009
  114OSM    H2F11842   0.195   6.762   6.158  0.9470  0.3600  1.0691
  114OSM    H2G11843   0.172   6.929   6.131  1.3666 -1.4481 -2.1392
  114OSM    C3F11844   0.045   6.799   6.007 -0.6601  0.0759 -0.2570
  114OSM    H3F11845  -0.019   6.883   5.972  1.6036  1.6668 -0.7563
  114OSM    H3G11846  -0.025   6.713   6.012  0.5872 -1.0291 -1.1896
  114OSM    C4F11847   0.148   6.788   5.889 -0.1746 -0.5956 -0.1961
  114OSM    H4F11848   0.222   6.869   5.901 -1.6609  0.6085  1.3206
  114OSM    H4G11849   0.099   6.809   5.791 -0.0648 -0.0680 -0.1410
  114OSM    C5F11850   0.210   6.650   5.891 -0.0513  0.2723 -0.0530
  114OSM    H5F11851   0.128   6.578   5.909  1.5303 -1.2018  1.7697
  114OSM    H5G11852   0.268   6.644   5.986 -0.1231  0.0032 -0.0238
  114OSM    C6F11853   0.299   6.613   5.773  0.3064  0.2289  0.8306
  114OSM    H6F11854   0.338   6.510   5.782 -2.8362 -1.4342 -2.2276
  114OSM    H6G11855   0.381   6.688   5.770 -1.2589  1.9630 -0.7691
  114OSM    C7F11856   0.226   6.611   5.634 -0.3478  0.4774  0.6540
  114OSM    H7F11857   0.311   6.596   5.563  1.7679 -0.9323  3.2969
  114OSM    H7G11858   0.195   6.716   5.612 -0.1750 -0.0151 -2.5256
  114OSM    C8F11859   0.115   6.509   5.612 -0.4495  0.4893  0.4146
  114OSM    H8F11860   0.070   6.543   5.516  2.3707 -1.9846 -2.0053
  114OSM    H8G11861   0.035   6.528   5.685 -1.7248  0.4462 -0.9187
  114OSM    C9F11862   0.159   6.371   5.598  0.0914  1.3133  0.4053
  114OSM    H9F11863   0.170   6.314   5.691  1.2156 -2.2936 -1.7407
  114OSM   C10F11864   0.175   6.296   5.486 -0.9385  0.3930  0.5888
  114OSM   H10F11865   0.215   6.193   5.484 -1.8382  0.0254  1.0537
  114OSM   C11F11866   0.170   6.360   5.348  0.4477 -0.3980  0.8100
  114OSM   H11F11867   0.145   6.468   5.357 -1.4394 -0.2829 -3.4391
  114OSM   H11G11868   0.085   6.321   5.288  0.6083  0.8952 -0.3027
  114OSM   C12F11869   0.300   6.348   5.263 -0.4640  0.1361  0.3404
  114OSM   H12F11870   0.336   6.244   5.253  1.1777  0.7392 -0.4770
  114OSM   H12G11871   0.385   6.400   5.315  0.4462 -0.0095 -0.9551
  114OSM   C13F11872   0.267   6.409   5.127 -0.3274 -0.4945  0.2783
  114OSM   H13F11873   0.214   6.506   5.133  0.7673  0.0895  0.6315
  114OSM   H13G11874   0.208   6.331   5.074  2.5994 -3.0432  0.4777
  114OSM   C14F11875   0.402   6.431   5.051 -0.5563  0.4373 -0.1440
  114OSM   H14F11876   0.438   6.326   5.037 -2.3602 -0.0370 -1.5880
  114OSM   H14G11877   0.478   6.478   5.117 -0.8524 -0.8929  1.2205
  114OSM   C15F11878   0.365   6.501   4.916 -0.6315  0.5061 -0.0333
  114OSM   H15F11879   0.343   6.607   4.941  1.5060  1.1077 -0.5356
  114OSM   H15G11880   0.272   6.449   4.883 -0.5114 -0.9994  1.8053
  114OSM   C16F11881   0.474   6.486   4.817  0.4662 -0.2379  0.1510
  114OSM   H16F11882   0.575   6.468   4.861  0.5086 -1.5474 -0.4417
  114OSM   H16G11883   0.491   6.584   4.766  0.1106  0.5637  1.5214
  114OSM   C17F11884   0.442   6.380   4.714 -0.2037 -0.2319  0.4857
  114OSM   H17F11885   0.337   6.397   4.684 -0.1348 -1.5211 -0.5994
  114OSM   H17G11886   0.462   6.282   4.763  0.9390  0.9575  2.5417
  114OSM   C18F11887   0.527   6.393   4.585 -0.1452 -1.0923 -0.5338
  114OSM   H18F11888   0.633   6.393   4.616 -0.1550 -2.0602 -0.4559
  114OSM   H18G11889   0.502   6.483   4.525  0.6145  0.0700  0.8392
  114OSM   H18H11890   0.502   6.305   4.522  0.5587 -0.7170 -1.3486
  115OSM      N11891   0.204   2.492   6.822 -0.0970  0.4214 -0.0469
  115OSM    C1511892   0.332   2.438   6.879  0.6813 -0.1743  0.4422
  115OSM   H15A11893   0.393   2.509   6.932  0.0237 -0.0457  1.0412
  115OSM   H15B11894   0.392   2.413   6.793 -0.8199 -1.9588 -0.1650
  115OSM   H15C11895   0.323   2.346   6.936  0.5383  0.2233  1.0806
  115OSM    C1411896   0.105   2.487   6.936  0.3315 -0.7621 -0.5515
  115OSM   H14A11897   0.026   2.559   6.917 -0.2396 -0.6867  1.7431
  115OSM   H14B11898   0.158   2.522   7.023  2.0659 -3.2174 -0.5379
  115OSM   H14C11899   0.072   2.387   6.960 -0.1982 -0.1022  1.8330
  115OSM    C1311900   0.230   2.631   6.789 -0.0881 -0.0927 -0.8788
  115OSM   H13A11901   0.280   2.681   6.871  0.6545  1.8552 -2.4144
  115OSM   H13B11902   0.135   2.680   6.774 -0.6235 -0.5558  0.8208
  115OSM   H13C11903   0.287   2.654   6.699  2.3162  0.2005  0.6287
  115OSM    C1211904   0.161   2.412   6.704  0.6461  0.6787 -0.4455
  115OSM   H12A11905   0.126   2.312   6.724 -0.5181  0.5456 -2.7213
  115OSM   H12B11906   0.247   2.394   6.642  0.1854 -2.2305 -0.3772
  115OSM    C1111907   0.043   2.477   6.630 -0.2837 -0.3419 -0.0240
  115OSM   H11A11908   0.026   2.433   6.530 -1.3488  1.7541 -0.8237
  115OSM   H11B11909   0.058   2.586   6.613 -1.2177 -0.1636  0.2521
  115OSM      P11910  -0.176   2.561   6.741 -0.0946 -0.3019  0.1018
  115OSM    O1311911  -0.287   2.493   6.808 -0.7040  0.0056  0.4173
  115OSM    O1411912  -0.107   2.657   6.820 -0.7463  0.3852  0.0773
  115OSM    O1111913  -0.218   2.633   6.615 -0.2181 -0.6179  0.1873
  115OSM    O1211914  -0.077   2.446   6.692 -0.2407 -0.5223 -0.3747
  115OSM    C1S11915  -0.212   2.608   6.475  0.0133  0.1490 -0.3422
  115OSM    H1S11916  -0.271   2.518   6.446  0.2621  0.2201 -1.0741
  115OSM    H1T11917  -0.105   2.595   6.448  0.0139  0.5724 -0.5437
  115OSM     NF11918  -0.287   2.704   6.252 -0.7116 -0.2015 -0.1027
  115OSM    HNF11919  -0.218   2.740   6.189  1.1271 -1.6996  0.9524
  115OSM    C2S11920  -0.268   2.735   6.396 -0.4759 -0.6794  0.3345
  115OSM    H2S11921  -0.362   2.766   6.446 -0.4038  0.5902 -0.2817
  115OSM    C3S11922  -0.159   2.854   6.425 -0.4172  0.2129 -0.1639
  115OSM    H3S11923  -0.071   2.807   6.377 -2.0442 -1.2548 -1.8858
  115OSM     O311924  -0.116   2.870   6.557  0.6239  0.2212 -0.5622
  115OSM    HO311925  -0.160   2.802   6.608  1.3557  0.5620  0.5592
  115OSM    C4S11926  -0.202   2.975   6.363  0.5272 -0.6808  0.0561
  115OSM    H4S11927  -0.296   3.020   6.399 -0.6102 -1.8792 -1.3144
  115OSM    C5S11928  -0.138   3.058   6.274 -0.2254 -0.6583  0.2378
  115OSM    H5S11929  -0.035   3.042   6.239  0.2952  2.4058  0.0265
  115OSM    C6S11930  -0.188   3.199   6.232 -0.3483  0.3417  0.2879
  115OSM    H6S11931  -0.120   3.268   6.288  0.5406 -1.9094  2.1835
  115OSM    H6T11932  -0.294   3.222   6.255 -0.6315  0.3397 -0.9524
  115OSM    C7S11933  -0.171   3.223   6.084  0.4333 -0.2581  0.2345
  115OSM    H7S11934  -0.234   3.160   6.017  1.6451 -0.7588 -0.4682
  115OSM    H7T11935  -0.063   3.211   6.061  0.8313  1.9629  0.7200
  115OSM    C8S11936  -0.198   3.373   6.044 -0.1346  0.2164 -0.0297
  115OSM    H8S11937  -0.124   3.435   6.099 -0.5593 -1.6112  2.8121
  115OSM    H8T11938  -0.298   3.398   6.086 -0.6323  0.5076 -1.3297
  115OSM    C9S11939  -0.185   3.406   5.894 -0.3135 -0.8178  0.2736
  115OSM    H9S11940  -0.284   3.391   5.845 -0.1926  0.4208 -0.3850
  115OSM    H9T11941  -0.115   3.348   5.830  3.1448  3.7494 -0.6234
  115OSM   C10S11942  -0.161   3.553   5.856 -0.1075  0.3283 -0.2992
  115OSM   H10S11943  -0.066   3.606   5.882 -0.0776  1.1378 -1.8994
  115OSM   H10T11944  -0.235   3.607   5.918 -2.9993 -0.7724 -2.5773
  115OSM   C11S11945  -0.192   3.582   5.713 -0.0249  0.5093  0.2684
  115OSM   H11S11946  -0.296   3.551   5.691  0.0020  2.2206 -2.9836
  115OSM   H11T11947  -0.126   3.519   5.649  0.5042  1.1149  0.2076
  115OSM   C12S11948  -0.168   3.728   5.671 -0.1087  0.5189  0.2577
  115OSM   H12S11949  -0.086   3.774   5.731  0.4207  0.6692 -0.5738
  115OSM   H12T11950  -0.260   3.783   5.704 -1.4259 -0.1565 -2.0747
  115OSM   C13S11951  -0.155   3.748   5.523  0.7778  0.2443  0.7454
  115OSM   H13S11952  -0.065   3.692   5.491  0.7257 -0.2433  1.4180
  115OSM   H13T11953  -0.121   3.852   5.506  2.0507 -0.4720 -1.5383
  115OSM   C14S11954  -0.268   3.714   5.423  0.1535  0.2775 -0.0191
  115OSM   H14S11955  -0.366   3.755   5.456 -0.7457 -1.1112 -0.8124
  115OSM   H14T11956  -0.264   3.603   5.427  1.4009  0.3496  1.9211
  115OSM   C15S11957  -0.225   3.767   5.289  0.3502  0.1572 -0.3007
  115OSM   H15S11958  -0.289   3.722   5.210  1.2343 -1.6254 -0.0726
  115OSM   H15T11959  -0.121   3.738   5.262  0.9293 -0.4608  2.2978
  115OSM   C16S11960  -0.235   3.920   5.288  0.2843 -0.6729  0.3115
  115OSM   H16S11961  -0.170   3.975   5.360  0.1661  0.4517 -0.4307
  115OSM   H16T11962  -0.340   3.949   5.309 -0.0924 -2.8257  1.7189
  115OSM   C17S11963  -0.196   3.977   5.154 -1.0531 -0.0776  0.3148
  115OSM   H17S11964  -0.275   3.964   5.076 -0.1510  0.4154 -0.7114
  115OSM   H17T11965  -0.095   3.941   5.124 -0.7831 -0.5108  1.6628
  115OSM   C18S11966  -0.185   4.133   5.163  0.4441 -0.4294  0.4996
  115OSM   H18S11967  -0.112   4.168   5.087 -0.1542  1.8077  0.8695
  115OSM   H18T11968  -0.147   4.170   5.261 -1.4166  0.5468  0.8985
  115OSM   H18U11969  -0.289   4.172   5.153  0.0254 -2.0920 -3.6120
  115OSM    C1F11970  -0.378   2.617   6.208 -0.0361  0.5454 -0.4570
  115OSM     OF11971  -0.462   2.569   6.283 -0.8095  0.4646 -0.0575
  115OSM    C2F11972  -0.357   2.580   6.059  0.4525  0.2601  0.5072
  115OSM    H2F11973  -0.311   2.479   6.065  0.2748  0.0026 -1.6430
  115OSM    H2G11974  -0.277   2.650   6.026  1.9326 -1.4070  0.3901
  115OSM    C3F11975  -0.489   2.570   5.984 -0.1824  0.0204 -0.1848
  115OSM    H3F11976  -0.530   2.672   5.971  0.1719 -0.0326 -1.9522
  115OSM    H3G11977  -0.572   2.521   6.040  0.0686  1.1611  1.2502
  115OSM    C4F11978  -0.467   2.512   5.843 -0.0158  0.1699 -0.4335
  115OSM    H4F11979  -0.565   2.501   5.792 -0.1777  1.5539 -0.4558
  115OSM    H4G11980  -0.430   2.408   5.852 -1.1443 -0.1228  1.5757
  115OSM    C5F11981  -0.369   2.601   5.756  0.7165 -0.2199 -0.2755
  115OSM    H5F11982  -0.269   2.611   5.804  0.4897  0.0037  0.1535
  115OSM    H5G11983  -0.389   2.709   5.769  1.3548  0.0479 -1.3664
  115OSM    C6F11984  -0.360   2.561   5.602  0.6778 -0.1908 -0.2358
  115OSM    H6F11985  -0.338   2.454   5.579 -0.1613 -0.4774  0.2429
  115OSM    H6G11986  -0.275   2.613   5.554  0.7413 -2.4977 -2.8710
  115OSM    C7F11987  -0.485   2.606   5.529  0.1196  0.9098 -0.0168
  115OSM    H7F11988  -0.505   2.715   5.541  1.8145  1.2111  0.2917
  115OSM    H7G11989  -0.572   2.548   5.568  2.7195 -3.7356 -0.4866
  115OSM    C8F11990  -0.466   2.576   5.378 -0.5836  0.1643  0.1948
  115OSM    H8F11991  -0.440   2.469   5.364  0.8676  0.3019  1.6020
  115OSM    H8G11992  -0.378   2.628   5.335 -0.3213 -0.5744 -0.1768
  115OSM    C9F11993  -0.596   2.619   5.316 -0.0189 -0.1818  0.2838
  115OSM    H9F11994  -0.685   2.627   5.379 -0.6642 -0.5014 -0.5588
  115OSM   C10F11995  -0.607   2.661   5.196  0.1327 -0.9076  0.3098
  115OSM   H10F11996  -0.708   2.678   5.156  0.4630  0.7641  0.0963
  115OSM   C11F11997  -0.496   2.651   5.092 -0.0404  0.3437  0.6615
  115OSM   H11F11998  -0.400   2.610   5.130  1.0071  0.1395 -2.0148
  115OSM   H11G11999  -0.475   2.750   5.045  0.9638 -0.6690 -1.1390
  115OSM   C12F12000  -0.525   2.564   4.972  0.1824 -0.4391 -0.3221
  115OSM   H12F12001  -0.628   2.578   4.934 -0.2094 -2.5484 -0.1199
  115OSM   H12G12002  -0.513   2.458   5.004  0.0725  0.0234  1.3454
  115OSM   C13F12003  -0.433   2.596   4.855 -0.7989  0.0704  0.0106
  115OSM   H13F12004  -0.328   2.603   4.892 -0.8263  3.8734 -0.3166
  115OSM   H13G12005  -0.451   2.700   4.822  1.3693  0.2482 -0.8198
  115OSM   C14F12006  -0.446   2.511   4.728 -0.2497 -1.1908 -0.2082
  115OSM   H14F12007  -0.554   2.486   4.728 -1.0730  1.8855  1.5846
  115OSM   H14G12008  -0.383   2.419   4.732  0.9792 -0.3787 -0.1865
  115OSM   C15F12009  -0.409   2.592   4.599 -0.0635  0.5096 -0.6116
  115OSM   H15F12010  -0.303   2.627   4.607  0.7135 -1.9923  1.1527
  115OSM   H15G12011  -0.477   2.680   4.606  1.5890  1.6965  3.3110
  115OSM   C16F12012  -0.426   2.505   4.477  0.0384 -0.0018  1.0201
  115OSM   H16F12013  -0.503   2.428   4.499 -0.5820  0.9893  2.5450
  115OSM   H16G12014  -0.324   2.465   4.460  0.1060  1.2075 -1.9663
  115OSM   C17F12015  -0.455   2.582   4.345  0.6894  0.3698 -1.3045
  115OSM   H17F12016  -0.554   2.626   4.369  1.6876  2.3318 -0.5775
  115OSM   H17G12017  -0.476   2.502   4.270 -0.0570  0.1022 -0.8244
  115OSM   C18F12018  -0.363   2.686   4.289 -0.6672  0.3234  0.4317
  115OSM   H18F12019  -0.417   2.754   4.220 -2.4394  0.2430  1.6813
  115OSM   H18G12020  -0.268   2.647   4.247 -0.7724  0.3394  0.1785
  115OSM   H18H12021  -0.310   2.741   4.370  1.0630  1.9696 -1.6843
  116OSM      N12022   1.616   1.711   6.898  0.0037 -0.2130  0.4249
  116OSM    C1512023   1.732   1.638   6.953  0.2290 -1.0350 -0.4464
  116OSM   H15A12024   1.728   1.535   6.923 -1.6639 -0.4429 -2.4792
  116OSM   H15B12025   1.725   1.636   7.061 -1.4111 -2.5871 -0.5348
  116OSM   H15C12026   1.820   1.693   6.922  0.1107 -0.7732 -0.3246
  116OSM    C1412027   1.492   1.645   6.956 -0.1679  0.2846  0.3884
  116OSM   H14A12028   1.408   1.691   6.907  0.5459  0.4960 -0.6938
  116OSM   H14B12029   1.486   1.661   7.062  3.6672 -0.0589  0.8065
  116OSM   H14C12030   1.481   1.543   6.923  1.4060  0.5808 -1.2565
  116OSM    C1312031   1.620   1.853   6.942 -0.5304  0.6664 -0.2137
  116OSM   H13A12032   1.626   1.846   7.050  0.2106  1.6066 -0.1814
  116OSM   H13B12033   1.532   1.904   6.905 -0.1595 -0.7732 -3.4076
  116OSM   H13C12034   1.698   1.910   6.894  1.9394 -1.3745  1.1293
  116OSM    C1212035   1.628   1.711   6.748  0.0153  0.1621 -0.6497
  116OSM   H12A12036   1.649   1.613   6.708  1.9298 -0.3642  1.4454
  116OSM   H12B12037   1.711   1.773   6.719 -0.2240  2.0494  2.2532
  116OSM    C1112038   1.516   1.768   6.658  0.0269  0.2747 -0.0343
  116OSM   H11A12039   1.556   1.745   6.557  1.6412  2.9161 -0.0896
  116OSM   H11B12040   1.521   1.878   6.666 -2.6439  0.3448  2.3899
  116OSM      P12041   1.325   1.596   6.622 -0.1472  0.1034  0.2382
  116OSM    O1312042   1.425   1.487   6.656 -0.0372  0.1643  0.1544
  116OSM    O1412043   1.183   1.582   6.659  0.1252  0.3298  0.0323
  116OSM    O1112044   1.348   1.620   6.465 -0.4483 -0.5097  0.2293
  116OSM    O1212045   1.380   1.732   6.678 -0.1047 -0.3668  0.1453
  116OSM    C1S12046   1.248   1.637   6.369 -0.5276  0.4345  0.1076
  116OSM    H1S12047   1.159   1.698   6.397 -0.9877 -0.4240  0.5601
  116OSM    H1T12048   1.197   1.539   6.354 -1.0126  0.4722  1.4226
  116OSM     NF12049   1.203   1.706   6.137  0.1802 -0.2516  0.0802
  116OSM    HNF12050   1.178   1.628   6.081 -2.1042 -2.4080  3.7116
  116OSM    C2S12051   1.309   1.675   6.231  0.2280  0.6171  0.1013
  116OSM    H2S12052   1.377   1.763   6.233 -0.1380  0.9570 -1.4780
  116OSM    C3S12053   1.408   1.562   6.180  0.0920 -0.3181 -0.0576
  116OSM    H3S12054   1.348   1.468   6.186  0.7587 -0.6803  1.4669
  116OSM     O312055   1.518   1.523   6.266 -0.1040 -0.3057 -0.0459
  116OSM    HO312056   1.511   1.557   6.356  0.2530  0.9745 -0.4806
  116OSM    C4S12057   1.457   1.596   6.043 -0.1253 -0.6484  0.3428
  116OSM    H4S12058   1.455   1.701   6.013  2.4138 -0.8589 -0.8131
  116OSM    C5S12059   1.502   1.504   5.958 -0.8334  0.4840  0.2297
  116OSM    H5S12060   1.521   1.402   5.996  2.3915 -0.0714 -2.4021
  116OSM    C6S12061   1.544   1.527   5.815  0.1003 -0.1653  0.3729
  116OSM    H6S12062   1.500   1.448   5.751  0.1659  1.8818 -2.3956
  116OSM    H6T12063   1.654   1.528   5.799  0.2300 -0.5346  1.1659
  116OSM    C7S12064   1.483   1.647   5.734  0.6832 -0.0323 -0.7079
  116OSM    H7S12065   1.523   1.743   5.771  0.0965 -0.3772  0.8959
  116OSM    H7T12066   1.372   1.652   5.744  0.7268  3.7315 -0.8800
  116OSM    C8S12067   1.528   1.637   5.583  0.1691 -0.0406  0.2694
  116OSM    H8S12068   1.504   1.530   5.561 -0.3679 -0.1595  1.3756
  116OSM    H8T12069   1.635   1.661   5.565 -0.6078  1.3667 -3.0774
  116OSM    C9S12070   1.449   1.714   5.474  0.3502 -0.8397 -0.3499
  116OSM    H9S12071   1.481   1.821   5.470  0.2325 -0.8255 -2.2150
  116OSM    H9T12072   1.345   1.706   5.511  0.3537  3.0552  1.0183
  116OSM   C10S12073   1.442   1.659   5.327 -1.0028  0.9288  0.2857
  116OSM   H10S12074   1.367   1.707   5.261 -1.9445  1.7888  1.9083
  116OSM   H10T12075   1.444   1.548   5.329 -1.5978  0.8383 -1.9376
  116OSM   C11S12076   1.581   1.691   5.262  0.0286  0.1286 -0.0278
  116OSM   H11S12077   1.656   1.663   5.339  1.2824  0.2462 -1.1640
  116OSM   H11T12078   1.589   1.797   5.229  1.6766  0.1082  0.2002
  116OSM   C12S12079   1.605   1.605   5.141  0.0653  0.3249  0.7609
  116OSM   H12S12080   1.604   1.502   5.182 -0.5779  0.3929  0.9159
  116OSM   H12T12081   1.708   1.619   5.101  1.8066 -3.0692  3.5170
  116OSM   C13S12082   1.506   1.615   5.029 -0.0199 -0.1708 -0.0300
  116OSM   H13S12083   1.502   1.715   4.982  1.1674 -1.4855 -3.2450
  116OSM   H13T12084   1.409   1.575   5.067 -0.1838  0.1194 -0.1428
  116OSM   C14S12085   1.531   1.524   4.903  0.7356  0.0882 -0.0781
  116OSM   H14S12086   1.517   1.416   4.925 -0.8381  0.1149 -0.7806
  116OSM   H14T12087   1.629   1.550   4.859 -0.7514  4.0448 -1.5095
  116OSM   C15S12088   1.439   1.577   4.793  0.4970  0.5515  0.0533
  116OSM   H15S12089   1.427   1.687   4.790 -0.4536  0.4610  0.1631
  116OSM   H15T12090   1.332   1.550   4.805  0.5477 -0.2981 -1.2453
  116OSM   C16S12091   1.486   1.522   4.654  0.5103  0.0897 -0.0838
  116OSM   H16S12092   1.521   1.416   4.659  0.4030  0.0344 -0.4990
  116OSM   H16T12093   1.579   1.580   4.635  0.5690 -0.5872 -2.0839
  116OSM   C17S12094   1.394   1.548   4.538 -0.1500  0.1151 -0.0776
  116OSM   H17S12095   1.386   1.658   4.532  1.8664  0.3539  1.0897
  116OSM   H17T12096   1.290   1.513   4.559  1.1654 -3.3623  1.4197
  116OSM   C18S12097   1.452   1.488   4.413 -0.0229 -0.0185 -0.2885
  116OSM   H18S12098   1.468   1.379   4.427  3.2233  0.5079  1.0566
  116OSM   H18T12099   1.551   1.535   4.396  0.2626 -0.2530  0.6829
  116OSM   H18U12100   1.390   1.493   4.321  1.4031 -2.8829 -1.5431
  116OSM    C1F12101   1.112   1.801   6.150  0.6647 -0.5097 -0.1442
  116OSM     OF12102   1.120   1.880   6.247 -0.9360 -0.0976  0.0019
  116OSM    C2F12103   0.987   1.787   6.058 -0.1936 -0.1887  0.1133
  116OSM    H2F12104   0.899   1.766   6.123 -0.2939 -0.0342  0.0296
  116OSM    H2G12105   1.010   1.709   5.983  2.5265  3.9968 -3.9001
  116OSM    C3F12106   0.954   1.909   5.971 -0.8967 -0.0112 -1.2186
  116OSM    H3F12107   0.919   1.988   6.040 -0.3556 -0.0601 -0.8833
  116OSM    H3G12108   0.867   1.881   5.908  0.2788  0.5708 -3.1780
  116OSM    C4F12109   1.073   1.969   5.888  0.1900 -0.1111 -0.5093
  116OSM    H4F12110   1.141   2.021   5.959 -0.2582  1.4406 -1.1763
  116OSM    H4G12111   1.035   2.041   5.812 -1.9558  0.0399  0.6334
  116OSM    C5F12112   1.158   1.868   5.809  0.0760  0.1856  0.1233
  116OSM    H5F12113   1.203   1.794   5.879  0.1190  1.0175  1.0077
  116OSM    H5G12114   1.227   1.944   5.767  0.9789 -1.7231 -1.9958
  116OSM    C6F12115   1.084   1.809   5.682  0.5702 -0.4873  0.4899
  116OSM    H6F12116   0.992   1.749   5.701  0.7149 -0.6380  0.7294
  116OSM    H6G12117   1.157   1.739   5.636  0.4276 -0.3180  0.0037
  116OSM    C7F12118   1.070   1.917   5.575  0.5258 -0.2976  0.6864
  116OSM    H7F12119   1.175   1.952   5.560  0.2845  0.0392 -0.2997
  116OSM    H7G12120   1.007   1.998   5.615  0.6233 -0.3209  0.8865
  116OSM    C8F12121   1.000   1.866   5.446  0.1559  0.1415 -0.1158
  116OSM    H8F12122   0.893   1.844   5.470 -0.0178  2.0498  1.0512
  116OSM    H8G12123   1.050   1.776   5.404  0.6627  1.5547 -2.6866
  116OSM    C9F12124   1.010   1.970   5.342 -0.3051  0.2724 -0.0148
  116OSM    H9F12125   1.005   2.075   5.373  0.0645 -0.0090  1.0339
  116OSM   C10F12126   1.037   1.953   5.212  1.0476  0.1821  0.6871
  116OSM   H10F12127   1.038   2.045   5.152  0.1711 -0.5565 -0.5022
  116OSM   C11F12128   1.048   1.823   5.135  0.7779  0.6948  0.3898
  116OSM   H11F12129   0.952   1.787   5.092  2.4823 -0.0438 -3.1607
  116OSM   H11G12130   1.078   1.732   5.192 -2.5837 -1.8843 -1.5819
  116OSM   C12F12131   1.150   1.810   5.020  0.0454 -0.8485 -0.1514
  116OSM   H12F12132   1.147   1.705   4.985 -0.7162 -0.7829 -0.3022
  116OSM   H12G12133   1.246   1.838   5.069 -1.3601  0.0041  2.3081
  116OSM   C13F12134   1.115   1.917   4.907 -0.1981  0.4183  0.8337
  116OSM   H13F12135   1.167   2.015   4.916  1.1526 -0.2826  1.0088
  116OSM   H13G12136   1.007   1.942   4.910 -0.3979  0.6487 -3.0776
  116OSM   C14F12137   1.135   1.857   4.766  0.2505  0.7649 -0.0177
  116OSM   H14F12138   1.075   1.768   4.739  1.2366  0.4754 -1.3638
  116OSM   H14G12139   1.240   1.826   4.748 -0.2501 -0.9285 -0.1417
  116OSM   C15F12140   1.119   1.956   4.654  0.2800 -0.1511 -0.1130
  116OSM   H15F12141   1.138   1.908   4.555  1.1129 -1.5168  0.6850
  116OSM   H15G12142   1.190   2.042   4.650  1.6756 -1.2914 -1.3747
  116OSM   C16F12143   0.973   2.010   4.641 -0.7826 -0.1505 -0.6129
  116OSM   H16F12144   0.959   2.061   4.739  1.9454  0.4780 -0.4892
  116OSM   H16G12145   0.907   1.922   4.626 -1.1981  0.2780 -1.3919
  116OSM   C17F12146   0.952   2.106   4.527  0.2321 -0.2354 -0.3282
  116OSM   H17F12147   0.993   2.075   4.429 -0.5854  0.0170 -0.7591
  116OSM   H17G12148   1.024   2.186   4.554  2.2997 -1.7353 -1.1223
  116OSM   C18F12149   0.810   2.162   4.509  0.3157  0.2699  0.3828
  116OSM   H18F12150   0.763   2.194   4.605  2.5847  2.1915  0.9472
  116OSM   H18G12151   0.749   2.085   4.458  0.3522  0.3946  0.1453
  116OSM   H18H12152   0.804   2.256   4.450 -1.8942 -1.3513 -2.1977
  117OSM      N12153   1.235   4.104   6.631 -0.4553 -0.0397  0.1929
  117OSM    C1512154   1.341   4.201   6.668 -0.6084  0.5220  0.8347
  117OSM   H15A12155   1.322   4.234   6.769 -2.2410 -0.4894  0.8908
  117OSM   H15B12156   1.331   4.283   6.598  0.9414 -1.5956 -2.0626
  117OSM   H15C12157   1.437   4.154   6.653 -0.0491  1.2862  1.8705
  117OSM    C1412158   1.272   4.044   6.505 -0.4462 -0.7257  0.3878
  117OSM   H14A12159   1.191   3.980   6.474  0.2798 -0.2446 -2.8026
  117OSM   H14B12160   1.364   3.991   6.525  0.7908  1.7584  1.7973
  117OSM   H14C12161   1.296   4.122   6.435 -0.8085 -0.6618  0.3331
  117OSM    C1312162   1.238   3.999   6.738  0.0848  0.5186 -0.0659
  117OSM   H13A12163   1.331   3.946   6.749 -0.0573  0.3743  0.4521
  117OSM   H13B12164   1.162   3.923   6.730  0.1358  0.3003  1.2566
  117OSM   H13C12165   1.223   4.035   6.839  0.0930 -0.9307  0.4708
  117OSM    C1212166   1.104   4.185   6.623 -0.6364 -0.3455  0.2858
  117OSM   H12A12167   1.076   4.232   6.716 -2.4806  1.2356 -1.0156
  117OSM   H12B12168   1.017   4.123   6.609 -1.1195  0.2373  0.6746
  117OSM    C1112169   1.100   4.299   6.509 -0.1656 -0.7187 -0.1099
  117OSM   H11A12170   0.994   4.323   6.484  0.1585  0.8375 -0.1134
  117OSM   H11B12171   1.143   4.253   6.418  1.4276  0.2988  0.0791
  117OSM      P12172   1.102   4.536   6.622 -0.4891  0.0100 -0.5252
  117OSM    O1312173   1.054   4.486   6.754 -0.7673 -0.0739  0.0464
  117OSM    O1412174   1.198   4.653   6.631  0.2146  0.0711 -0.7141
  117OSM    O1112175   0.980   4.564   6.534 -0.6217 -0.2360 -0.3344
  117OSM    O1212176   1.175   4.415   6.541 -0.0799  0.1401 -0.7800
  117OSM    C1S12177   1.001   4.624   6.400 -0.8048  0.3401  0.1121
  117OSM    H1S12178   1.102   4.606   6.358  0.5092  1.9309  2.4151
  117OSM    H1T12179   0.993   4.735   6.406 -2.4126  0.2819 -0.3231
  117OSM     NF12180   0.946   4.634   6.168 -0.1392 -0.3266 -0.5558
  117OSM    HNF12181   0.898   4.719   6.147 -1.5069 -0.4278  1.7695
  117OSM    C2S12182   0.907   4.574   6.298  0.2907 -0.1170 -0.4675
  117OSM    H2S12183   0.899   4.463   6.287  2.0552 -0.5219  1.6284
  117OSM    C3S12184   0.767   4.628   6.349 -0.1683 -0.0310 -0.5786
  117OSM    H3S12185   0.776   4.737   6.370 -1.7672 -0.4780  3.2467
  117OSM     O312186   0.730   4.586   6.481 -0.0426  0.1433 -0.2674
  117OSM    HO312187   0.813   4.567   6.524 -0.7301  1.1932  1.6125
  117OSM    C4S12188   0.663   4.599   6.240  0.6318  0.3308  0.6887
  117OSM    H4S12189   0.667   4.682   6.167 -3.9562  0.8254  0.7064
  117OSM    C5S12190   0.582   4.494   6.222  0.1973 -0.1754  0.3883
  117OSM    H5S12191   0.577   4.422   6.305 -2.4885  0.9887  1.3467
  117OSM    C6S12192   0.469   4.492   6.116  0.8475 -0.4002  0.5446
  117OSM    H6S12193   0.384   4.429   6.151  0.3986 -0.2359 -0.2440
  117OSM    H6T12194   0.503   4.435   6.027 -2.2491 -0.0832 -0.9565
  117OSM    C7S12195   0.415   4.633   6.064  0.0456 -0.4224 -0.3987
  117OSM    H7S12196   0.502   4.695   6.032 -0.3028 -0.6114 -1.7637
  117OSM    H7T12197   0.350   4.679   6.142 -0.1830 -1.9582  0.3374
  117OSM    C8S12198   0.318   4.624   5.941 -0.1401 -0.0669 -0.2081
  117OSM    H8S12199   0.239   4.553   5.974 -0.8080  1.3226  1.3295
  117OSM    H8T12200   0.370   4.578   5.854  0.1465 -1.5439  0.7218
  117OSM    C9S12201   0.281   4.770   5.887  0.0966  1.0538 -0.5114
  117OSM    H9S12202   0.381   4.791   5.841  0.7994 -2.7515 -1.0644
  117OSM    H9T12203   0.269   4.844   5.968  3.1583  2.0047 -0.8013
  117OSM   C10S12204   0.170   4.782   5.778  0.3958  0.8713  0.2408
  117OSM   H10S12205   0.184   4.871   5.714  0.9279 -0.0481 -0.9652
  117OSM   H10T12206   0.068   4.767   5.820  0.0305  0.8305 -0.6562
  117OSM   C11S12207   0.179   4.668   5.670  0.4010  0.9074  0.3283
  117OSM   H11S12208   0.158   4.565   5.706  0.6322 -0.0610 -2.1156
  117OSM   H11T12209   0.278   4.653   5.621 -1.2273 -2.1164 -2.4792
  117OSM   C12S12210   0.093   4.690   5.544 -0.0545 -0.0503  0.6771
  117OSM   H12S12211  -0.005   4.726   5.581 -0.8721 -0.0952 -1.3229
  117OSM   H12T12212   0.068   4.601   5.482 -1.1712 -0.6509  1.9535
  117OSM   C13S12213   0.152   4.793   5.442  0.2792 -0.0462 -0.1765
  117OSM   H13S12214   0.260   4.769   5.432  0.0116 -1.7922  0.6251
  117OSM   H13T12215   0.152   4.894   5.489 -2.5175  0.7762 -1.7408
  117OSM   C14S12216   0.093   4.798   5.298  0.1024  0.6523  0.2173
  117OSM   H14S12217  -0.016   4.814   5.313  0.2129  0.4768  1.2689
  117OSM   H14T12218   0.104   4.697   5.252 -1.6602  0.4759  0.1166
  117OSM   C15S12219   0.170   4.882   5.197  0.3425 -0.0763 -0.4681
  117OSM   H15S12220   0.277   4.850   5.197  0.5315  0.4958  0.8265
  117OSM   H15T12221   0.165   4.981   5.246  0.5570  0.2028 -1.0002
  117OSM   C16S12222   0.124   4.881   5.055 -0.0661  0.2774  0.3720
  117OSM   H16S12223   0.156   4.975   5.004 -2.2904  0.5311 -0.6910
  117OSM   H16T12224   0.014   4.873   5.062 -0.2655  2.5550  0.8595
  117OSM   C17S12225   0.173   4.758   4.975  0.3338  0.3995  0.1846
  117OSM   H17S12226   0.137   4.662   5.019 -2.7092 -0.2426 -3.2046
  117OSM   H17T12227   0.284   4.765   4.983  0.4366  0.0335 -0.7114
  117OSM   C18S12228   0.137   4.754   4.828 -0.2889  0.0564 -0.1149
  117OSM   H18S12229   0.175   4.853   4.795 -1.3672  0.8114  0.8350
  117OSM   H18T12230   0.029   4.754   4.799 -0.2034  0.3781 -0.4403
  117OSM   H18U12231   0.172   4.661   4.778 -2.1147 -1.4776  1.3155
  117OSM    C1F12232   1.042   4.581   6.098  0.0445  0.0925  0.1234
  117OSM     OF12233   1.105   4.478   6.136 -0.1057  0.3812  0.8167
  117OSM    C2F12234   1.077   4.644   5.966  0.2187 -0.1226  0.2173
  117OSM    H2F12235   1.052   4.752   5.977 -3.1517 -0.8612  0.6780
  117OSM    H2G12236   1.017   4.592   5.889 -1.0597 -1.2342  1.9076
  117OSM    C3F12237   1.227   4.626   5.939 -0.0059 -0.3847 -0.4799
  117OSM    H3F12238   1.254   4.518   5.940  1.2339 -0.1269  2.3775
  117OSM    H3G12239   1.290   4.667   6.021 -1.1902  0.5104  0.0171
  117OSM    C4F12240   1.275   4.687   5.801 -0.8316  0.5678 -0.1503
  117OSM    H4F12241   1.383   4.676   5.777 -0.7272 -3.3768  1.4367
  117OSM    H4G12242   1.261   4.797   5.813  2.0595  0.8890  1.0217
  117OSM    C5F12243   1.200   4.645   5.675 -0.1267  0.1953 -0.0210
  117OSM    H5F12244   1.098   4.689   5.676 -0.7061 -1.0177 -1.6097
  117OSM    H5G12245   1.184   4.535   5.675 -2.5907  0.4695  1.7303
  117OSM    C6F12246   1.292   4.681   5.552  0.1501  0.0322 -0.2623
  117OSM    H6F12247   1.369   4.601   5.553 -1.0976 -1.3446 -3.2511
  117OSM    H6G12248   1.342   4.776   5.579  2.4964 -1.8767  2.8539
  117OSM    C7F12249   1.225   4.699   5.413 -0.0849 -0.1622 -0.7425
  117OSM    H7F12250   1.172   4.796   5.428  0.0954 -0.1613 -0.1064
  117OSM    H7G12251   1.158   4.611   5.403 -0.1480 -0.2544  0.3841
  117OSM    C8F12252   1.319   4.718   5.291  0.2214  0.2425  0.7490
  117OSM    H8F12253   1.382   4.626   5.290  0.6686  0.5373  1.1026
  117OSM    H8G12254   1.383   4.808   5.298  1.5176 -0.5091 -0.7957
  117OSM    C9F12255   1.232   4.733   5.164 -0.3170  0.2704 -0.0538
  117OSM    H9F12256   1.137   4.789   5.169 -2.2529 -2.6414 -1.2153
  117OSM   C10F12257   1.277   4.725   5.041 -0.6934  0.0193  0.0521
  117OSM   H10F12258   1.215   4.738   4.951  1.4149  0.4498 -1.4092
  117OSM   C11F12259   1.424   4.695   4.997  0.7937 -0.8876  0.3045
  117OSM   H11F12260   1.492   4.752   5.064 -0.9995  1.0164  0.6201
  117OSM   H11G12261   1.429   4.735   4.894 -3.4199  0.4988  0.4667
  117OSM   C12F12262   1.453   4.545   4.990  0.0782 -0.4400  0.0939
  117OSM   H12F12263   1.390   4.499   5.069 -2.0835  2.6833  0.3931
  117OSM   H12G12264   1.559   4.545   5.023  0.4263  3.4924 -0.5004
  117OSM   C13F12265   1.414   4.479   4.854  0.0454 -0.4128 -1.0288
  117OSM   H13F12266   1.457   4.535   4.769  1.0551 -1.1394 -1.0150
  117OSM   H13G12267   1.304   4.496   4.854 -0.2102 -1.8854 -1.1459
  117OSM   C14F12268   1.450   4.337   4.836  0.2202  0.2785 -0.0633
  117OSM   H14F12269   1.395   4.288   4.920  1.8311 -0.6021  0.5281
  117OSM   H14G12270   1.556   4.321   4.867  0.1530 -0.5002 -0.2305
  117OSM   C15F12271   1.427   4.265   4.701  0.1215 -0.4787 -0.4671
  117OSM   H15F12272   1.437   4.155   4.716 -2.3047 -0.7227 -0.1234
  117OSM   H15G12273   1.505   4.306   4.633  0.1182 -0.5172 -0.4945
  117OSM   C16F12274   1.290   4.284   4.632  0.0242 -0.6972 -0.4201
  117OSM   H16F12275   1.291   4.391   4.603  1.0399 -0.3608  0.7824
  117OSM   H16G12276   1.208   4.263   4.704 -0.2731 -3.4288 -1.4259
  117OSM   C17F12277   1.291   4.198   4.503  0.0016 -0.2807 -0.9708
  117OSM   H17F12278   1.312   4.090   4.519 -0.0923 -0.4901 -2.1655
  117OSM   H17G12279   1.368   4.241   4.435 -0.2326  0.1897 -0.9361
  117OSM   C18F12280   1.150   4.197   4.439 -1.2447 -0.9227 -1.0210
  117OSM   H18F12281   1.113   4.297   4.408 -3.3000  0.0050  3.5708
  117OSM   H18G12282   1.086   4.161   4.522 -0.9859  1.0237  0.0909
  117OSM   H18H12283   1.157   4.123   4.356 -0.5260 -0.6975 -1.1692
  118OSM      N12284   0.311   3.600   6.741 -0.0623  0.3128  0.5721
  118OSM    C1512285   0.175   3.533   6.780  0.8247 -0.2225  0.6538
  118OSM   H15A12286   0.176   3.510   6.885  0.2684  0.7929  0.8991
  118OSM   H15B12287   0.166   3.439   6.728 -1.3270  0.6683 -0.7579
  118OSM   H15C12288   0.094   3.602   6.758  0.9596  0.5396  2.4067
  118OSM    C1412289   0.330   3.733   6.814 -0.2786 -0.1057  0.1742
  118OSM   H14A12290   0.243   3.795   6.800  1.0169  1.9647  0.7926
  118OSM   H14B12291   0.419   3.787   6.785 -0.5258 -0.3433 -1.0899
  118OSM   H14C12292   0.335   3.724   6.921 -0.8488  1.5669  0.3745
  118OSM    C1312293   0.424   3.519   6.784  0.4212  0.7043  0.3620
  118OSM   H13A12294   0.416   3.428   6.727 -0.4738  0.5000  0.7884
  118OSM   H13B12295   0.413   3.494   6.888 -0.5547 -1.4769 -0.2025
  118OSM   H13C12296   0.522   3.557   6.760  0.2430  0.0672 -1.5844
  118OSM    C1212297   0.314   3.619   6.591 -0.1308  0.5032 -0.4449
  118OSM   H12A12298   0.382   3.697   6.557  1.6638 -0.4725  0.7407
  118OSM   H12B12299   0.217   3.660   6.568 -0.3182 -0.5767 -1.7092
  118OSM    C1112300   0.328   3.496   6.494 -0.1704 -0.3909 -0.7711
  118OSM   H11A12301   0.437   3.478   6.481 -0.0096 -0.0657  0.0407
  118OSM   H11B12302   0.304   3.523   6.389 -1.6848 -0.8795 -0.5728
  118OSM      P12303   0.118   3.331   6.479 -0.0169 -0.1065 -0.4634
  118OSM    O1312304   0.084   3.210   6.556 -0.4477 -0.1616 -0.0808
  118OSM    O1412305   0.028   3.444   6.493 -0.1354 -0.9151  0.1322
  118OSM    O1112306   0.143   3.297   6.325  0.4080  0.0488 -0.8257
  118OSM    O1212307   0.258   3.380   6.540 -0.0796  0.1742 -0.4525
  118OSM    C1S12308   0.250   3.209   6.300 -0.6968  0.0966  1.2204
  118OSM    H1S12309   0.224   3.116   6.355 -0.5380  0.1982  1.4667
  118OSM    H1T12310   0.345   3.248   6.341 -1.7349  2.3591  1.6539
  118OSM     NF12311   0.378   3.097   6.111 -0.2626 -0.2558 -0.5166
  118OSM    HNF12312   0.461   3.144   6.084 -0.4249 -0.0310 -0.6327
  118OSM    C2S12313   0.269   3.191   6.142 -0.0077  0.2827 -0.4020
  118OSM    H2S12314   0.174   3.145   6.108 -0.6000  0.5997  0.7825
  118OSM    C3S12315   0.279   3.328   6.070 -0.0836  0.0869 -0.1799
  118OSM    H3S12316   0.354   3.391   6.123 -0.5272  1.3362 -0.9773
  118OSM     O312317   0.167   3.411   6.085 -0.1071  0.0319 -0.2673
  118OSM    HO312318   0.109   3.368   6.147  1.9504 -0.0209  1.7410
  118OSM    C4S12319   0.316   3.315   5.923 -0.5197 -0.2224 -0.6336
  118OSM    H4S12320   0.424   3.329   5.909  0.0738 -1.4728  2.0799
  118OSM    C5S12321   0.237   3.305   5.817  0.1271  0.6659 -0.4878
  118OSM    H5S12322   0.127   3.308   5.824 -0.0043 -0.6682 -1.5733
  118OSM    C6S12323   0.278   3.311   5.668 -0.4470 -0.3446 -0.5732
  118OSM    H6S12324   0.238   3.231   5.602  0.2539  0.3096 -1.8417
  118OSM    H6T12325   0.386   3.287   5.656 -0.2081  0.8635 -0.9544
  118OSM    C7S12326   0.236   3.447   5.610  0.6111 -0.5208  0.6778
  118OSM    H7S12327   0.290   3.538   5.646 -0.3708  0.5010 -0.3344
  118OSM    H7T12328   0.127   3.468   5.609  0.8347  1.2932 -2.7449
  118OSM    C8S12329   0.278   3.449   5.460  1.4799 -0.2799  0.1328
  118OSM    H8S12330   0.218   3.374   5.402 -2.3398 -0.2837  3.6196
  118OSM    H8T12331   0.381   3.409   5.449  1.5642 -0.2957  0.9499
  118OSM    C9S12332   0.256   3.583   5.384  0.1014  0.4237  0.1983
  118OSM    H9S12333   0.315   3.659   5.440  0.3185  0.0523  0.4725
  118OSM    H9T12334   0.154   3.611   5.418  0.4245  0.3723  1.2231
  118OSM   C10S12335   0.276   3.573   5.233  0.1027  0.7992 -0.6840
  118OSM   H10S12336   0.220   3.486   5.192  0.9481 -1.2142  2.1485
  118OSM   H10T12337   0.382   3.556   5.204  0.5397 -0.0879  1.2648
  118OSM   C11S12338   0.234   3.696   5.158 -0.4145  0.1273  0.3821
  118OSM   H11S12339   0.288   3.789   5.186  0.4632 -0.0655 -0.6120
  118OSM   H11T12340   0.130   3.715   5.193  0.2660  1.5087  1.7858
  118OSM   C12S12341   0.253   3.685   4.999  0.0860 -0.2444  0.1957
  118OSM   H12S12342   0.203   3.587   4.983  1.9134 -1.0514 -0.8920
  118OSM   H12T12343   0.361   3.691   4.975 -0.0016 -1.4510 -0.6306
  118OSM   C13S12344   0.175   3.805   4.926  0.1821  0.5786  0.4341
  118OSM   H13S12345   0.211   3.907   4.952  0.3754  0.3976  0.8981
  118OSM   H13T12346   0.070   3.792   4.959  0.5446  0.5775  1.6567
  118OSM   C14S12347   0.168   3.791   4.779  0.0937  0.4167  0.0616
  118OSM   H14S12348   0.098   3.862   4.729 -1.1903 -1.6428 -1.2106
  118OSM   H14T12349   0.130   3.689   4.757 -1.1356  1.2275 -1.8862
  118OSM   C15S12350   0.299   3.797   4.709  0.1351 -0.4139  0.0348
  118OSM   H15S12351   0.271   3.774   4.604 -1.4076  0.8659  0.1177
  118OSM   H15T12352   0.365   3.718   4.752  1.5792 -0.3672 -1.9536
  118OSM   C16S12353   0.363   3.937   4.694  0.0279 -0.4516 -0.1295
  118OSM   H16S12354   0.367   3.988   4.792  4.4518 -1.5076  0.4434
  118OSM   H16T12355   0.297   3.996   4.628 -0.5250 -2.7927 -1.8057
  118OSM   C17S12356   0.494   3.941   4.626 -1.1763 -0.0956  0.1152
  118OSM   H17S12357   0.481   3.898   4.525 -2.2202  2.0430 -0.7158
  118OSM   H17T12358   0.560   3.879   4.691 -1.6597 -0.2193  0.5001
  118OSM   C18S12359   0.552   4.078   4.619  0.2203 -0.1856 -0.0293
  118OSM   H18S12360   0.646   4.081   4.560 -0.7504  2.0709 -1.5568
  118OSM   H18T12361   0.572   4.124   4.719  2.8465  2.2866 -1.5501
  118OSM   H18U12362   0.487   4.145   4.559  1.2297 -0.7582 -1.8369
  118OSM    C1F12363   0.363   2.968   6.125 -0.1299  0.5712  0.5896
  118OSM     OF12364   0.266   2.912   6.164  0.0619  0.3800 -0.0576
  118OSM    C2F12365   0.484   2.885   6.094 -0.2509  0.3926 -0.3181
  118OSM    H2F12366   0.479   2.789   6.148 -0.6014  1.6279  1.9437
  118OSM    H2G12367   0.586   2.924   6.112 -0.5045  0.2581  1.5791
  118OSM    C3F12368   0.485   2.854   5.945  0.6774 -0.7222  0.1608
  118OSM    H3F12369   0.398   2.794   5.911 -0.1050  0.3783  0.1666
  118OSM    H3G12370   0.576   2.792   5.927  1.8118  0.6251  1.0451
  118OSM    C4F12371   0.510   2.972   5.838 -0.1298  0.1408 -0.3174
  118OSM    H4F12372   0.596   3.029   5.881  0.5326 -0.1058 -1.2884
  118OSM    H4G12373   0.416   3.032   5.844 -1.9110 -2.5282  0.0182
  118OSM    C5F12374   0.543   2.938   5.695  0.5417 -0.3332 -0.9544
  118OSM    H5F12375   0.490   2.852   5.649  0.7654 -1.1788  0.3319
  118OSM    H5G12376   0.651   2.916   5.687  0.5660 -0.2405 -0.8836
  118OSM    C6F12377   0.522   3.046   5.588 -0.2985 -0.3592 -0.5638
  118OSM    H6F12378   0.571   3.144   5.605 -0.0818 -0.4882 -0.4406
  118OSM    H6G12379   0.412   3.060   5.585 -0.0830  1.4533 -0.9761
  118OSM    C7F12380   0.564   2.989   5.448  0.3347 -0.2144 -0.5112
  118OSM    H7F12381   0.504   2.896   5.439 -1.6012  1.0702 -1.7302
  118OSM    H7G12382   0.674   2.978   5.435  0.4726  1.2284 -0.7449
  118OSM    C8F12383   0.506   3.080   5.339  0.2220  0.0899 -0.3250
  118OSM    H8F12384   0.541   3.184   5.354  2.9628 -0.9367  1.1722
  118OSM    H8G12385   0.396   3.087   5.357 -0.0700  2.0411 -2.3729
  118OSM    C9F12386   0.534   3.044   5.196 -0.0857  0.4547  0.1213
  118OSM    H9F12387   0.599   2.959   5.170 -1.3677  0.1302 -2.2613
  118OSM   C10F12388   0.482   3.114   5.091 -0.6550 -0.3685  0.1282
  118OSM   H10F12389   0.500   3.062   4.995 -1.0707  1.3976 -0.9566
  118OSM   C11F12390   0.392   3.234   5.096 -0.4816  0.2386 -0.1603
  118OSM   H11F12391   0.452   3.327   5.092  1.8492 -0.8687  3.6995
  118OSM   H11G12392   0.338   3.222   5.192  1.3004 -3.5764  0.5868
  118OSM   C12F12393   0.308   3.229   4.967  0.7138  0.2087  0.2660
  118OSM   H12F12394   0.232   3.307   4.989  0.4977 -0.1936  0.9788
  118OSM   H12G12395   0.254   3.133   4.961  1.4173 -0.2669  1.1774
  118OSM   C13F12396   0.386   3.255   4.834 -0.5393 -0.1936  0.5940
  118OSM   H13F12397   0.459   3.175   4.807 -2.4810 -1.3148 -1.7553
  118OSM   H13G12398   0.439   3.351   4.849 -2.0972  1.2782 -2.4001
  118OSM   C14F12399   0.295   3.258   4.703 -0.6644  0.4885  0.2012
  118OSM   H14F12400   0.219   3.339   4.709 -0.1759  0.8706  1.5488
  118OSM   H14G12401   0.251   3.156   4.698 -0.9179  0.5964  0.2002
  118OSM   C15F12402   0.383   3.277   4.574 -0.0470 -0.4004 -0.6928
  118OSM   H15F12403   0.324   3.239   4.487 -1.9252 -0.9824  0.7646
  118OSM   H15G12404   0.469   3.211   4.598 -0.4475 -0.6513  0.1018
  118OSM   C16F12405   0.425   3.425   4.555 -0.2280  0.3026 -0.4271
  118OSM   H16F12406   0.499   3.457   4.631 -0.1530 -2.5311  0.8054
  118OSM   H16G12407   0.328   3.474   4.576 -1.5899 -3.3102  2.8986
  118OSM   C17F12408   0.487   3.444   4.414 -0.1452 -0.0663  0.1063
  118OSM   H17F12409   0.420   3.387   4.346  0.7115 -1.8087  0.6544
  118OSM   H17G12410   0.576   3.379   4.403 -0.7959 -0.5436 -3.8320
  118OSM   C18F12411   0.507   3.590   4.381  0.2406 -0.1884 -0.2984
  118OSM   H18F12412   0.406   3.637   4.381 -0.3641 -0.8370  5.3476
  118OSM   H18G12413   0.545   3.613   4.279  0.7770  0.1038 -0.0343
  118OSM   H18H12414   0.577   3.632   4.456 -0.2204  0.9152 -0.4722
  119OSM      N12415   2.602   1.293   6.694 -0.6627  0.1702  0.6142
  119OSM    C1512416   2.748   1.315   6.669  0.5482  0.4242 -0.0742
  119OSM   H15A12417   2.766   1.399   6.604  0.7645  0.2906 -0.1912
  119OSM   H15B12418   2.788   1.230   6.616 -1.0592  0.3756 -1.2798
  119OSM   H15C12419   2.800   1.331   6.762 -1.8947  0.7352  1.3336
  119OSM    C1412420   2.550   1.404   6.772 -0.2154 -0.5512 -0.7742
  119OSM   H14A12421   2.442   1.411   6.772 -0.1159  2.3195 -0.4794
  119OSM   H14B12422   2.577   1.498   6.727  0.9936 -0.0742  0.8364
  119OSM   H14C12423   2.593   1.399   6.872 -2.8080  2.3142  0.6656
  119OSM    C1312424   2.541   1.305   6.552  0.0426  0.0364  0.0652
  119OSM   H13A12425   2.572   1.220   6.493 -1.6496  1.0995 -2.5543
  119OSM   H13B12426   2.580   1.389   6.497  0.1348 -0.3545 -0.4674
  119OSM   H13C12427   2.433   1.310   6.555 -0.0899 -2.2478  1.6415
  119OSM    C1212428   2.572   1.162   6.763  0.1894  0.5040  0.1848
  119OSM   H12A12429   2.466   1.146   6.771  0.5063 -1.7743  0.4652
  119OSM   H12B12430   2.611   1.159   6.864  1.3493  0.8660 -0.2360
  119OSM    C1112431   2.619   1.029   6.688 -0.2294  0.1957  1.0152
  119OSM   H11A12432   2.624   0.947   6.762 -0.2468 -1.9103 -1.1946
  119OSM   H11B12433   2.722   1.038   6.648 -0.5926 -1.0973 -0.3059
  119OSM      P12434   2.559   0.942   6.441  0.5408 -0.3469 -0.3025
  119OSM    O1312435   2.550   0.794   6.467  1.0171 -0.2617  0.2472
  119OSM    O1412436   2.460   1.006   6.356 -0.3417 -0.0904 -0.0816
  119OSM    O1112437   2.695   0.982   6.391  0.3035 -0.4225 -0.3088
  119OSM    O1212438   2.527   1.015   6.583  0.3347  0.1240 -0.1011
  119OSM    C1S12439   2.784   0.915   6.306  0.4149  0.2699  0.4205
  119OSM    H1S12440   2.733   0.838   6.243  1.1512  0.4236 -0.3818
  119OSM    H1T12441   2.859   0.862   6.369 -1.3552 -1.9782  0.7624
  119OSM     NF12442   2.925   0.962   6.105 -0.3469 -0.2478 -0.0754
  119OSM    HNF12443   3.024   0.970   6.113 -0.5885  1.4417  2.9638
  119OSM    C2S12444   2.861   1.023   6.225 -0.6493  0.6358  0.7983
  119OSM    H2S12445   2.787   1.087   6.174 -0.5460 -1.2619 -1.9904
  119OSM    C3S12446   2.958   1.098   6.320  0.7375 -0.4061 -0.2484
  119OSM    H3S12447   3.042   1.027   6.338  0.1271 -0.7448  1.4488
  119OSM     O312448   2.906   1.122   6.457 -0.0101  0.5556  0.0028
  119OSM    HO312449   2.821   1.078   6.459 -0.2854  1.0513 -0.6576
  119OSM    C4S12450   3.022   1.229   6.262  0.5178 -0.4132 -0.1681
  119OSM    H4S12451   3.127   1.222   6.230  0.6457 -1.8396  0.4976
  119OSM    C5S12452   2.959   1.347   6.262  0.2492  0.4305 -0.2347
  119OSM    H5S12453   2.859   1.360   6.307 -0.0374  2.3067 -1.2695
  119OSM    C6S12454   3.010   1.472   6.198  0.0940 -0.3968  0.1867
  119OSM    H6S12455   3.109   1.450   6.155  0.4109  0.6877  0.3230
  119OSM    H6T12456   3.018   1.558   6.268 -0.2650  0.2378 -0.5406
  119OSM    C7S12457   2.927   1.530   6.084  0.1652 -1.0511 -0.3812
  119OSM    H7S12458   2.960   1.631   6.051 -0.0438 -1.0366 -0.5427
  119OSM    H7T12459   2.821   1.535   6.117  0.4635 -0.3760  0.5189
  119OSM    C8S12460   2.926   1.439   5.961  0.3872 -0.8737  0.3476
  119OSM    H8S12461   2.883   1.340   5.988 -1.6570  0.5283  2.5159
  119OSM    H8T12462   3.031   1.419   5.929  0.4269 -3.2304  1.7145
  119OSM    C9S12463   2.826   1.492   5.857  0.2190  0.6829  0.2637
  119OSM    H9S12464   2.852   1.598   5.837  3.1333  0.0148  0.1816
  119OSM    H9T12465   2.721   1.493   5.894 -0.3870  1.1359 -1.3525
  119OSM   C10S12466   2.828   1.403   5.729  0.1725  0.1717  0.0982
  119OSM   H10S12467   2.741   1.440   5.672  0.5994 -0.2174 -0.8416
  119OSM   H10T12468   2.822   1.294   5.750 -2.3360  0.3150  0.3273
  119OSM   C11S12469   2.941   1.444   5.635  0.2153 -0.3353 -0.6705
  119OSM   H11S12470   3.039   1.444   5.689 -0.4624  1.0795  0.6477
  119OSM   H11T12471   2.925   1.553   5.617 -1.9098 -0.3228  0.9411
  119OSM   C12S12472   2.940   1.378   5.498 -0.1931  0.2036  0.3728
  119OSM   H12S12473   2.917   1.269   5.506 -1.3653  0.0299 -3.3355
  119OSM   H12T12474   3.040   1.388   5.452  0.7645  0.2753  2.3584
  119OSM   C13S12475   2.850   1.443   5.391  0.0406  0.0173  0.6926
  119OSM   H13S12476   2.871   1.548   5.364 -0.2277  0.4144  1.9476
  119OSM   H13T12477   2.747   1.432   5.433 -0.5129 -3.2875 -1.1905
  119OSM   C14S12478   2.866   1.360   5.260 -1.0456  1.0964  0.2199
  119OSM   H14S12479   2.836   1.256   5.285  0.5271  0.1744 -1.4569
  119OSM   H14T12480   2.969   1.336   5.226 -1.2527  0.3730  0.0858
  119OSM   C15S12481   2.773   1.404   5.142 -0.1425  0.4108  0.1733
  119OSM   H15S12482   2.812   1.497   5.094 -0.2372 -0.0126 -0.7504
  119OSM   H15T12483   2.675   1.425   5.188 -2.4991 -1.6071 -3.4525
  119OSM   C16S12484   2.760   1.289   5.033 -0.8956 -1.0423  0.4861
  119OSM   H16S12485   2.713   1.204   5.087  2.4184 -2.2215  1.7782
  119OSM   H16T12486   2.857   1.249   4.999 -1.9835 -2.3778 -1.1583
  119OSM   C17S12487   2.699   1.333   4.903 -0.2943 -0.0570  0.2350
  119OSM   H17S12488   2.731   1.426   4.852  1.8072 -0.3547  0.8909
  119OSM   H17T12489   2.590   1.350   4.915 -0.3090  0.4094 -0.4935
  119OSM   C18S12490   2.710   1.226   4.795 -0.1176 -0.0602 -0.3091
  119OSM   H18S12491   2.814   1.187   4.789 -0.5552 -1.0582 -1.9642
  119OSM   H18T12492   2.667   1.260   4.699 -1.2815  1.3465  0.6745
  119OSM   H18U12493   2.643   1.144   4.827 -0.9703  1.0528  0.8282
  119OSM    C1F12494   2.847   0.933   5.998 -0.8835  1.2173  0.1141
  119OSM     OF12495   2.723   0.948   6.000 -0.4129 -0.0101  0.0090
  119OSM    C2F12496   2.918   0.895   5.871 -0.0795 -0.4259 -0.7429
  119OSM    H2F12497   2.930   0.785   5.879  1.0033 -0.2091  1.7425
  119OSM    H2G12498   3.015   0.950   5.871  0.1664 -0.7103 -3.6848
  119OSM    C3F12499   2.829   0.930   5.747  0.7874  0.1108 -0.5179
  119OSM    H3F12500   2.775   1.027   5.754  1.1248  0.3073 -0.6249
  119OSM    H3G12501   2.753   0.850   5.761  0.9721 -0.0212 -0.2702
  119OSM    C4F12502   2.901   0.900   5.621  0.3189 -0.6007  0.5772
  119OSM    H4F12503   2.939   0.796   5.617 -0.9223 -1.1364  1.9057
  119OSM    H4G12504   2.981   0.975   5.605 -0.4153  0.2222  0.6424
  119OSM    C5F12505   2.794   0.897   5.507  0.1395  0.1584  0.2046
  119OSM    H5F12506   2.730   0.986   5.523 -0.3634  0.2580 -2.0435
  119OSM    H5G12507   2.728   0.809   5.521  0.6432 -0.2679 -0.0439
  119OSM    C6F12508   2.852   0.901   5.363 -0.4290  0.3483  0.2615
  119OSM    H6F12509   2.918   0.812   5.351 -0.2738  0.5245 -0.1977
  119OSM    H6G12510   2.919   0.985   5.335 -0.5449 -0.1060 -1.4585
  119OSM    C7F12511   2.754   0.915   5.246  0.5572  0.3073  0.4471
  119OSM    H7F12512   2.700   1.011   5.255  0.6599  0.7500 -2.5484
  119OSM    H7G12513   2.671   0.844   5.264  0.7049  0.0374  0.0947
  119OSM    C8F12514   2.822   0.897   5.106  0.1991 -0.5120  0.4521
  119OSM    H8F12515   2.873   0.798   5.106  0.1859 -0.6023 -2.3013
  119OSM    H8G12516   2.896   0.978   5.089 -0.9286  0.5954  0.6990
  119OSM    C9F12517   2.718   0.896   4.996 -0.0281 -0.9121 -0.1262
  119OSM    H9F12518   2.637   0.970   4.997 -0.5635 -1.4877  0.7296
  119OSM   C10F12519   2.721   0.815   4.889 -0.3526  0.3301 -0.6946
  119OSM   H10F12520   2.651   0.842   4.808 -0.3466 -1.9318 -1.5114
  119OSM   C11F12521   2.829   0.712   4.863 -0.2375  0.9829 -0.3965
  119OSM   H11F12522   2.869   0.662   4.954 -0.6033 -0.3955 -0.9605
  119OSM   H11G12523   2.918   0.743   4.806  0.3898  0.9442  0.5411
  119OSM   C12F12524   2.774   0.587   4.778  0.3793  0.4349 -0.3468
  119OSM   H12F12525   2.738   0.623   4.679 -0.1152  0.6581 -0.0947
  119OSM   H12G12526   2.693   0.530   4.828  1.6004 -1.0559 -0.0008
  119OSM   C13F12527   2.896   0.504   4.764 -0.0518  0.3756 -0.2063
  119OSM   H13F12528   2.944   0.494   4.863 -0.9416  1.4421  0.3556
  119OSM   H13G12529   2.975   0.551   4.702  0.7155  0.2081  0.6216
  119OSM   C14F12530   2.856   0.367   4.701  0.6731 -0.4960  0.0680
  119OSM   H14F12531   2.780   0.316   4.764  0.8287 -0.1497  0.5383
  119OSM   H14G12532   2.955   0.317   4.694  0.4040 -1.2011  1.1601
  119OSM   C15F12533   2.816   0.379   4.552  0.1225  0.6127  0.4017
  119OSM   H15F12534   2.900   0.429   4.499 -1.2493  4.1285  1.2632
  119OSM   H15G12535   2.724   0.440   4.568 -0.7110 -0.4581 -0.1657
  119OSM   C16F12536   2.775   0.243   4.486 -0.2305 -0.1627 -0.2718
  119OSM   H16F12537   2.700   0.188   4.546  2.9007 -0.2809  3.9936
  119OSM   H16G12538   2.872   0.189   4.484  0.2407  0.6607 -1.7205
  119OSM   C17F12539   2.724   0.261   4.343 -0.2260 -0.1008  0.5374
  119OSM   H17F12540   2.629   0.318   4.349 -1.8586 -2.5983  0.2053
  119OSM   H17G12541   2.698   0.163   4.296  0.9710  0.6161 -1.7539
  119OSM   C18F12542   2.831   0.326   4.255  0.6450  0.2568  0.1212
  119OSM   H18F12543   2.916   0.261   4.226  0.7867  0.9943 -1.1757
  119OSM   H18G12544   2.877   0.413   4.307 -0.2718 -0.3709  2.0905
  119OSM   H18H12545   2.786   0.362   4.160  0.2143  0.5089  0.4191
  120OSM      N12546   5.812   4.840   6.759 -0.0155  0.3377 -0.5473
  120OSM    C1512547   5.801   4.721   6.843 -0.1114 -0.1005 -0.2990
  120OSM   H15A12548   5.825   4.634   6.783 -0.6532 -0.1807 -0.4030
  120OSM   H15B12549   5.700   4.715   6.882  0.8443  1.8125  2.8772
  120OSM   H15C12550   5.861   4.728   6.933 -2.0359 -0.2951  1.0648
  120OSM    C1412551   5.776   4.957   6.842 -0.0912  0.0586 -0.7838
  120OSM   H14A12552   5.820   4.957   6.941 -2.3727  0.6747  0.3049
  120OSM   H14B12553   5.670   4.949   6.862  0.0116 -0.1417 -0.3134
  120OSM   H14C12554   5.789   5.055   6.798  0.7834  0.1459 -0.3560
  120OSM    C1312555   5.961   4.868   6.724 -0.1902 -0.3594 -0.7345
  120OSM   H13A12556   6.005   4.865   6.822  0.9879 -4.9626 -1.1799
  120OSM   H13B12557   5.973   4.968   6.686 -3.3590 -0.3870 -2.1169
  120OSM   H13C12558   6.007   4.794   6.660 -0.4345 -1.0947 -0.0739
  120OSM    C1212559   5.730   4.824   6.633 -0.5741 -0.4617 -0.3624
  120OSM   H12A12560   5.778   4.751   6.569 -1.5330 -2.3498  0.9455
  120OSM   H12B12561   5.733   4.921   6.587  0.2298 -0.1908  0.2335
  120OSM    C1112562   5.580   4.777   6.650  0.2331 -0.0272  0.9072
  120OSM   H11A12563   5.577   4.673   6.687  0.3771 -0.4267 -0.1751
  120OSM   H11B12564   5.524   4.770   6.554  0.2112  1.1518  0.8141
  120OSM      P12565   5.462   5.002   6.687  0.0271 -0.5314 -0.3413
  120OSM    O1312566   5.322   4.990   6.637  0.0977 -0.5324 -0.4146
  120OSM    O1412567   5.478   5.107   6.788  0.0489  0.0559 -0.0497
  120OSM    O1112568   5.550   5.044   6.566  0.0773  0.1361  0.4263
  120OSM    O1212569   5.514   4.867   6.741 -0.5438  0.1842  0.7816
  120OSM    C1S12570   5.540   5.173   6.509 -0.2865 -0.5391 -0.8062
  120OSM    H1S12571   5.632   5.230   6.535  0.4060 -0.3773 -3.3078
  120OSM    H1T12572   5.457   5.235   6.550  0.9350  0.7662 -0.2184
  120OSM     NF12573   5.560   5.298   6.282 -0.5713  0.9911 -0.0082
  120OSM    HNF12574   5.496   5.361   6.239  0.1998  2.3266  0.7294
  120OSM    C2S12575   5.532   5.167   6.347  0.7114 -1.3579  0.1465
  120OSM    H2S12576   5.601   5.089   6.308 -1.5366 -1.5752 -3.9358
  120OSM    C3S12577   5.394   5.106   6.303  0.3542  0.4609  0.0223
  120OSM    H3S12578   5.309   5.163   6.347 -0.2731 -0.1289 -0.4054
  120OSM     O312579   5.376   4.973   6.346  0.0714  0.5950 -0.3253
  120OSM    HO312580   5.448   4.959   6.407 -0.6278  1.8903  0.8689
  120OSM    C4S12581   5.377   5.112   6.152 -0.2261  0.0016  0.4881
  120OSM    H4S12582   5.287   5.166   6.121 -0.7500 -2.7467 -3.5861
  120OSM    C5S12583   5.436   5.036   6.051  0.2246  0.3074  0.2188
  120OSM    H5S12584   5.488   4.944   6.083  1.6910  1.0142 -0.0422
  120OSM    C6S12585   5.400   5.041   5.903  0.0427  1.0304 -0.0555
  120OSM    H6S12586   5.367   4.939   5.878  1.5209  0.6481 -0.5471
  120OSM    H6T12587   5.494   5.064   5.848 -0.2680 -1.9976 -2.0639
  120OSM    C7S12588   5.294   5.136   5.854  0.3124 -0.5730 -0.4427
  120OSM    H7S12589   5.309   5.242   5.883 -0.0561 -0.5764 -0.2288
  120OSM    H7T12590   5.203   5.107   5.911 -1.2455  3.0327 -0.8669
  120OSM    C8S12591   5.272   5.125   5.700 -0.4779  0.0269  0.3169
  120OSM    H8S12592   5.227   5.029   5.669 -1.8613  0.8850 -0.4356
  120OSM    H8T12593   5.371   5.120   5.650 -1.4185  0.1277 -1.6479
  120OSM    C9S12594   5.191   5.245   5.643  0.8991 -0.4658 -0.0221
  120OSM    H9S12595   5.244   5.341   5.656  0.2008  0.1264 -1.3649
  120OSM    H9T12596   5.098   5.256   5.703  2.3092  0.7743  2.0333
  120OSM   C10S12597   5.158   5.246   5.494  0.3234  0.5047  0.7853
  120OSM   H10S12598   5.089   5.329   5.468 -1.8382 -2.4708 -4.8994
  120OSM   H10T12599   5.094   5.160   5.465 -1.9381  2.6313 -1.0250
  120OSM   C11S12600   5.281   5.256   5.405 -0.0259 -0.3853  0.2931
  120OSM   H11S12601   5.347   5.167   5.411  0.5243  0.0741  1.2248
  120OSM   H11T12602   5.335   5.347   5.441 -0.0135 -0.1941 -0.1977
  120OSM   C12S12603   5.250   5.284   5.258  0.1641  0.1002  0.8092
  120OSM   H12S12604   5.179   5.368   5.248 -0.4826 -0.5913 -0.6487
  120OSM   H12T12605   5.200   5.193   5.219  2.8832 -1.7583  1.3464
  120OSM   C13S12606   5.369   5.309   5.164 -0.1686 -0.4080 -0.0258
  120OSM   H13S12607   5.442   5.225   5.168 -2.6270 -2.7825 -1.4536
  120OSM   H13T12608   5.421   5.401   5.196 -0.5583  0.9369 -2.9850
  120OSM   C14S12609   5.324   5.337   5.016 -0.0190 -0.4757  0.2286
  120OSM   H14S12610   5.405   5.386   4.958 -1.0455  2.0458  0.7882
  120OSM   H14T12611   5.234   5.403   5.015  0.9309  0.8664 -0.2265
  120OSM   C15S12612   5.309   5.201   4.936 -0.4685  0.1707  0.3457
  120OSM   H15S12613   5.210   5.162   4.967 -0.5147  1.1253  1.4582
  120OSM   H15T12614   5.391   5.131   4.964 -0.4222  0.0627 -0.0516
  120OSM   C16S12615   5.298   5.222   4.786 -0.1099 -0.2333 -0.2253
  120OSM   H16S12616   5.402   5.240   4.751  0.1820 -1.4810 -0.0444
  120OSM   H16T12617   5.241   5.314   4.762  0.2736  0.2569  0.7088
  120OSM   C17S12618   5.240   5.093   4.716 -0.8231 -1.1871  0.5028
  120OSM   H17S12619   5.133   5.079   4.741 -1.9051 -4.1590 -4.3155
  120OSM   H17T12620   5.298   5.008   4.759  2.1206 -0.4290 -1.6004
  120OSM   C18S12621   5.263   5.082   4.561 -0.5085 -0.3306  0.5053
  120OSM   H18S12622   5.258   5.183   4.514 -3.4175 -0.1399  1.0573
  120OSM   H18T12623   5.166   5.049   4.517 -1.0218  0.3321  1.1273
  120OSM   H18U12624   5.356   5.028   4.535  0.2032  2.4147 -3.6568
  120OSM    C1F12625   5.673   5.363   6.282 -0.1487 -0.0337  0.0361
  120OSM     OF12626   5.768   5.316   6.347 -0.1839  0.8923 -0.3487
  120OSM    C2F12627   5.673   5.500   6.222  0.5612 -0.5454  0.3720
  120OSM    H2F12628   5.777   5.533   6.198  0.9588 -1.2703  1.0596
  120OSM    H2G12629   5.639   5.571   6.301 -1.0648  0.3157 -1.0358
  120OSM    C3F12630   5.592   5.516   6.086  0.3990  0.4704  0.3091
  120OSM    H3F12631   5.554   5.619   6.071  1.3415  0.9388  1.0501
  120OSM    H3G12632   5.499   5.455   6.090  0.7994 -0.1272  0.8046
  120OSM    C4F12633   5.665   5.487   5.961  0.1262  0.1724  1.3060
  120OSM    H4F12634   5.720   5.391   5.970 -0.5833 -0.5025 -0.8188
  120OSM    H4G12635   5.739   5.564   5.932  1.4833 -1.4633  0.2052
  120OSM    C5F12636   5.576   5.461   5.838  0.1411 -0.6068  0.4529
  120OSM    H5F12637   5.530   5.557   5.808  0.5595 -0.0544  1.5150
  120OSM    H5G12638   5.507   5.385   5.881  0.7586 -1.0550  0.6796
  120OSM    C6F12639   5.660   5.397   5.722  0.5071  0.3206 -0.1184
  120OSM    H6F12640   5.683   5.294   5.757  0.9244  0.2902 -0.4734
  120OSM    H6G12641   5.757   5.449   5.707  0.1729  1.0092  0.0812
  120OSM    C7F12642   5.597   5.402   5.581 -0.3490  0.5528  0.3219
  120OSM    H7F12643   5.602   5.502   5.534 -1.7453  0.9037  0.8850
  120OSM    H7G12644   5.487   5.398   5.595 -0.1236 -1.3660  1.9795
  120OSM    C8F12645   5.643   5.286   5.498  0.5446  0.1105  0.3160
  120OSM    H8F12646   5.576   5.271   5.411 -2.4856 -1.8529  2.7739
  120OSM    H8G12647   5.624   5.196   5.560 -0.1386  0.0740  0.0632
  120OSM    C9F12648   5.793   5.290   5.474 -0.5916 -0.0518 -0.6824
  120OSM    H9F12649   5.856   5.283   5.564  0.8074  1.4776 -1.4977
  120OSM   C10F12650   5.842   5.296   5.352  0.3437 -0.1008  0.2742
  120OSM   H10F12651   5.951   5.290   5.343  0.1614 -1.4300 -1.7063
  120OSM   C11F12652   5.773   5.309   5.218  0.2363 -0.1364  0.4002
  120OSM   H11F12653   5.819   5.388   5.154  0.2816 -1.1151 -0.7998
  120OSM   H11G12654   5.667   5.338   5.229  0.8929  1.8257  2.4149
  120OSM   C12F12655   5.799   5.176   5.146  0.0630 -0.4336  0.9299
  120OSM   H12F12656   5.757   5.090   5.203  1.4316 -2.9442 -1.5674
  120OSM   H12G12657   5.904   5.165   5.111  0.0410 -1.4188  1.1480
  120OSM   C13F12658   5.718   5.168   5.010  0.3483 -0.7341 -0.3159
  120OSM   H13F12659   5.763   5.232   4.931 -2.6443  0.4309 -1.2149
  120OSM   H13G12660   5.617   5.211   5.028  0.5194 -0.3832 -0.1753
  120OSM   C14F12661   5.725   5.028   4.961 -0.3967  0.7540 -1.0526
  120OSM   H14F12662   5.662   4.962   5.023 -0.1336  0.0689 -1.5026
  120OSM   H14G12663   5.828   4.987   4.964 -0.1541  1.4176  0.1755
  120OSM   C15F12664   5.684   5.015   4.809 -0.8549 -0.4681  0.6674
  120OSM   H15F12665   5.764   5.066   4.752 -0.3602 -2.1266 -0.1992
  120OSM   H15G12666   5.589   5.065   4.780  0.1655  0.9829 -0.2870
  120OSM   C16F12667   5.682   4.868   4.763  0.0321 -0.5477  0.0358
  120OSM   H16F12668   5.602   4.820   4.823 -0.1532 -0.7198 -0.3492
  120OSM   H16G12669   5.779   4.823   4.793 -0.6622 -0.9680  1.7420
  120OSM   C17F12670   5.648   4.859   4.616  0.0422 -0.5523 -0.2328
  120OSM   H17F12671   5.710   4.935   4.564 -1.0785  0.7778  0.3122
  120OSM   H17G12672   5.541   4.883   4.597 -0.0571 -1.2057 -0.5243
  120OSM   C18F12673   5.672   4.713   4.569  0.3575 -0.7288 -0.2772
  120OSM   H18F12674   5.620   4.696   4.472 -0.7593 -0.0410  0.1737
  120OSM   H18G12675   5.612   4.652   4.641 -0.9249 -1.5785 -1.9874
  120OSM   H18H12676   5.777   4.680   4.564  0.3466 -0.7584 -0.3153
  121OSM      N12677   0.434   0.618   6.774 -0.3317 -0.2209 -0.0276
  121OSM    C1512678   0.458   0.759   6.831  0.5469  0.4948  0.8313
  121OSM   H15A12679   0.365   0.810   6.814 -0.5012 -1.2947  1.0356
  121OSM   H15B12680   0.540   0.804   6.776  3.0322 -0.0287  3.8318
  121OSM   H15C12681   0.488   0.748   6.934  0.4391 -2.0670  0.6479
  121OSM    C1412682   0.552   0.537   6.811 -0.6103 -0.6664 -0.8057
  121OSM   H14A12683   0.638   0.595   6.784 -1.1169  0.5933  0.1590
  121OSM   H14B12684   0.568   0.447   6.754  0.0940 -0.0068 -1.6681
  121OSM   H14C12685   0.552   0.528   6.919 -2.2793  1.6295 -0.5191
  121OSM    C1312686   0.309   0.544   6.815  0.6439 -1.0092 -0.2415
  121OSM   H13A12687   0.215   0.578   6.775  0.2525 -0.0768  1.3766
  121OSM   H13B12688   0.304   0.555   6.922 -0.6587 -0.7043 -0.3142
  121OSM   H13C12689   0.312   0.439   6.789  0.4036 -0.3658 -3.2597
  121OSM    C1212690   0.429   0.623   6.617 -0.1412  0.0435 -0.2043
  121OSM   H12A12691   0.417   0.519   6.588 -1.7035 -0.1860  1.1083
  121OSM   H12B12692   0.528   0.641   6.579 -0.3349  1.5295 -0.0311
  121OSM    C1112693   0.324   0.708   6.548  0.1783  0.1349  0.0722
  121OSM   H11A12694   0.338   0.714   6.438 -1.7093  3.4150 -0.1287
  121OSM   H11B12695   0.342   0.807   6.595 -1.2304  0.6640 -0.4390
  121OSM      P12696   0.122   0.539   6.513  0.0137  0.0470 -0.2803
  121OSM    O1312697   0.197   0.417   6.546  0.1236  0.5390  0.8859
  121OSM    O1412698  -0.022   0.543   6.556 -0.1919  0.2147 -0.1323
  121OSM    O1112699   0.126   0.566   6.351 -0.0475  0.1251 -0.3626
  121OSM    O1212700   0.194   0.662   6.578 -0.0177 -0.9475  0.8365
  121OSM    C1S12701   0.056   0.682   6.305 -0.0727 -0.1995 -1.0910
  121OSM    H1S12702   0.124   0.768   6.323  0.3455 -0.6595 -0.4250
  121OSM    H1T12703  -0.041   0.701   6.355  0.5609 -0.8646  0.4515
  121OSM     NF12704  -0.039   0.795   6.106  0.4030 -0.9279 -0.1942
  121OSM    HNF12705  -0.138   0.810   6.106  0.5376  0.1466 -1.3556
  121OSM    C2S12706   0.027   0.672   6.152 -0.8064 -0.2850  1.4561
  121OSM    H2S12707   0.127   0.678   6.103 -2.1265  1.2088 -1.2940
  121OSM    C3S12708  -0.040   0.538   6.114 -0.0825 -0.2270 -0.0018
  121OSM    H3S12709  -0.146   0.541   6.146  0.3736 -3.0045  2.1956
  121OSM     O312710  -0.002   0.420   6.181 -0.1784  0.7626 -0.1535
  121OSM    HO312711   0.047   0.441   6.261  2.2881 -2.2088 -0.7093
  121OSM    C4S12712  -0.043   0.509   5.971 -0.1543  0.2745  0.9024
  121OSM    H4S12713   0.054   0.501   5.920  0.4586  3.8940  1.2127
  121OSM    C5S12714  -0.149   0.504   5.886  0.1260 -0.1505  0.1565
  121OSM    H5S12715  -0.246   0.535   5.927 -0.1995  2.8237 -2.4556
  121OSM    C6S12716  -0.155   0.473   5.739 -0.6090  0.6897  0.1269
  121OSM    H6S12717  -0.178   0.573   5.697  1.1802  0.3456 -1.8739
  121OSM    H6T12718  -0.244   0.412   5.710 -1.7357  2.7566 -0.9536
  121OSM    C7S12719  -0.037   0.388   5.686  0.0181 -0.7843  0.5065
  121OSM    H7S12720  -0.034   0.290   5.738  2.0073 -0.6673  0.6813
  121OSM    H7T12721   0.057   0.439   5.713 -0.6205  0.2462  0.8326
  121OSM    C8S12722  -0.043   0.356   5.536  0.4189  0.1022 -0.4119
  121OSM    H8S12723  -0.142   0.311   5.513  1.9681 -2.9806 -1.6570
  121OSM    H8T12724   0.027   0.271   5.517 -0.3773 -0.2657 -1.9349
  121OSM    C9S12725  -0.003   0.461   5.438 -0.1735 -0.3792 -0.1330
  121OSM    H9S12726   0.094   0.496   5.480 -0.0631 -2.0109  1.0348
  121OSM    H9T12727  -0.080   0.540   5.431  0.1294 -0.0997 -0.3390
  121OSM   C10S12728   0.020   0.414   5.292  0.3708 -0.3932  0.6576
  121OSM   H10S12729   0.118   0.363   5.297  0.2729 -0.9082 -1.6293
  121OSM   H10T12730   0.030   0.510   5.237 -1.3300 -0.6383 -0.1285
  121OSM   C11S12731  -0.096   0.351   5.220 -0.1613  0.2024 -0.0290
  121OSM   H11S12732  -0.192   0.407   5.224 -1.0093 -1.0750 -1.2585
  121OSM   H11T12733  -0.112   0.254   5.271  1.0136  0.5929  1.1492
  121OSM   C12S12734  -0.053   0.316   5.081 -0.0807 -0.2187 -0.4726
  121OSM   H12S12735   0.045   0.264   5.070  1.3983  2.3363 -0.0996
  121OSM   H12T12736  -0.047   0.410   5.021 -0.7594 -0.6842 -1.2941
  121OSM   C13S12737  -0.153   0.234   4.998 -0.0099 -0.2973  0.3003
  121OSM   H13S12738  -0.252   0.284   4.990  0.9903  2.0477  1.5579
  121OSM   H13T12739  -0.181   0.136   5.040 -0.7125 -0.7644 -1.1925
  121OSM   C14S12740  -0.103   0.223   4.853 -0.1800  0.3606 -0.2249
  121OSM   H14S12741  -0.147   0.131   4.809  2.6844 -0.8169 -0.8172
  121OSM   H14T12742   0.006   0.224   4.869 -0.2291  0.0440  0.1348
  121OSM   C15S12743  -0.158   0.345   4.773  0.0873 -0.1837  0.7872
  121OSM   H15S12744  -0.091   0.429   4.802  0.4386 -0.1540 -0.0711
  121OSM   H15T12745  -0.262   0.375   4.796  1.0365  1.9310  2.7714
  121OSM   C16S12746  -0.143   0.325   4.620  0.1148 -0.6488  0.0168
  121OSM   H16S12747  -0.204   0.237   4.590 -2.2235  1.3987 -1.6954
  121OSM   H16T12748  -0.036   0.311   4.594 -0.1210 -1.8300 -0.3547
  121OSM   C17S12749  -0.204   0.438   4.533  0.0536 -0.0250 -0.1301
  121OSM   H17S12750  -0.155   0.537   4.544  0.2898 -0.1700  0.1147
  121OSM   H17T12751  -0.306   0.449   4.575 -0.2961 -1.2364 -0.6303
  121OSM   C18S12752  -0.207   0.400   4.385  0.3780 -0.3377  1.4529
  121OSM   H18S12753  -0.272   0.313   4.364 -0.6687  0.9093 -0.8013
  121OSM   H18T12754  -0.105   0.375   4.351 -0.5731  0.3436 -2.2947
  121OSM   H18U12755  -0.242   0.482   4.318  1.4335  0.0789  1.3831
  121OSM    C1F12756   0.015   0.915   6.084 -0.7813  0.3132  0.2991
  121OSM     OF12757   0.134   0.923   6.056  0.4475 -0.4139 -0.5458
  121OSM    C2F12758  -0.078   1.035   6.079 -0.4406  0.4585  0.1453
  121OSM    H2F12759  -0.063   1.092   6.172  2.2145  0.1786 -0.0183
  121OSM    H2G12760  -0.181   1.001   6.054 -0.6987  0.7884  0.7502
  121OSM    C3F12761  -0.039   1.118   5.958  0.9181 -0.3553  0.9702
  121OSM    H3F12762  -0.002   1.055   5.875 -1.2115  0.3417 -0.5963
  121OSM    H3G12763   0.051   1.178   5.982  0.0106  1.7474 -0.5961
  121OSM    C4F12764  -0.147   1.213   5.908 -0.3573 -0.0386  0.3684
  121OSM    H4F12765  -0.107   1.290   5.839  1.7430 -0.1572  1.3426
  121OSM    H4G12766  -0.194   1.265   5.995  2.2618  1.5375  0.9711
  121OSM    C5F12767  -0.257   1.138   5.833  0.0852  0.2384  0.0056
  121OSM    H5F12768  -0.328   1.099   5.909 -1.1268 -0.1123 -1.2627
  121OSM    H5G12769  -0.213   1.060   5.767 -1.4705  0.4968 -1.4106
  121OSM    C6F12770  -0.346   1.221   5.733 -0.0502  0.9278 -0.0769
  121OSM    H6F12771  -0.414   1.145   5.689 -1.2781  1.0643  1.4926
  121OSM    H6G12772  -0.277   1.263   5.657 -0.5384  0.5343 -0.7438
  121OSM    C7F12773  -0.432   1.326   5.799 -0.7871  0.3295 -0.5596
  121OSM    H7F12774  -0.372   1.365   5.884 -2.4534 -0.6782  1.1692
  121OSM    H7G12775  -0.515   1.280   5.856  0.2488 -0.7225  0.1583
  121OSM    C8F12776  -0.476   1.440   5.708 -0.5392 -0.1354 -1.0945
  121OSM    H8F12777  -0.387   1.475   5.651 -0.0437  3.2059  1.3741
  121OSM    H8G12778  -0.482   1.521   5.785 -0.8483 -1.5215  0.3934
  121OSM    C9F12779  -0.597   1.419   5.627  0.1061  0.0373  0.0138
  121OSM    H9F12780  -0.687   1.449   5.682  0.9832 -1.0126  2.1273
  121OSM   C10F12781  -0.609   1.371   5.503 -0.9486 -0.0969  0.3453
  121OSM   H10F12782  -0.704   1.367   5.447  0.6834 -1.3367 -2.4994
  121OSM   C11F12783  -0.487   1.323   5.421 -0.0848 -0.6248  0.8873
  121OSM   H11F12784  -0.390   1.326   5.475  0.3694  2.8463  0.0800
  121OSM   H11G12785  -0.474   1.376   5.324 -0.3626  1.5827  1.9976
  121OSM   C12F12786  -0.500   1.178   5.379 -0.2981 -0.0934 -0.5857
  121OSM   H12F12787  -0.578   1.178   5.299 -0.8081  1.0050 -0.1092
  121OSM   H12G12788  -0.538   1.118   5.465 -0.1030 -0.0185 -0.4486
  121OSM   C13F12789  -0.371   1.113   5.329  0.8626  0.7540  0.1692
  121OSM   H13F12790  -0.391   1.005   5.309  0.6513  0.3667  2.2302
  121OSM   H13G12791  -0.291   1.118   5.406  1.4136  0.7834 -0.3966
  121OSM   C14F12792  -0.320   1.161   5.200 -0.3548  0.2014 -0.4558
  121OSM   H14F12793  -0.224   1.116   5.168  0.0751  1.2867 -0.7406
  121OSM   H14G12794  -0.301   1.269   5.215  1.7551 -0.1856 -0.0440
  121OSM   C15F12795  -0.405   1.136   5.076  0.0509  0.0175 -0.7632
  121OSM   H15F12796  -0.497   1.198   5.082  1.2998  1.8091  1.6023
  121OSM   H15G12797  -0.436   1.030   5.084 -2.5966  0.8778  1.8274
  121OSM   C16F12798  -0.335   1.167   4.941  0.3474 -0.5812 -0.7881
  121OSM   H16F12799  -0.251   1.097   4.921  0.9385 -0.3668  0.7726
  121OSM   H16G12800  -0.283   1.265   4.951 -0.7512  0.0192 -0.7699
  121OSM   C17F12801  -0.435   1.162   4.828  0.2380 -0.8135 -0.2944
  121OSM   H17F12802  -0.529   1.218   4.849  0.3774  0.1975 -2.1787
  121OSM   H17G12803  -0.477   1.061   4.807 -2.6410  0.5165 -1.5591
  121OSM   C18F12804  -0.373   1.216   4.696  0.2044  0.8815  0.1953
  121OSM   H18F12805  -0.436   1.205   4.605 -0.2190  0.5355  0.5283
  121OSM   H18G12806  -0.280   1.158   4.678 -0.1611  0.4697 -0.4051
  121OSM   H18H12807  -0.345   1.324   4.698  0.4592  0.8902 -1.9586
  122OSM      N12808   6.639   3.214   6.824  0.4633  1.0570 -0.1543
  122OSM    C1512809   6.661   3.104   6.923 -0.0954 -0.4239  0.5173
  122OSM   H15A12810   6.582   3.031   6.910 -0.8419  0.5484 -0.5686
  122OSM   H15B12811   6.676   3.142   7.023 -0.2693 -0.3327  0.5079
  122OSM   H15C12812   6.755   3.063   6.888  1.9928  3.0738  1.5401
  122OSM    C1412813   6.763   3.298   6.830 -0.9927 -0.5290 -0.6909
  122OSM   H14A12814   6.802   3.288   6.930  1.1446 -0.3236 -1.4409
  122OSM   H14B12815   6.737   3.401   6.814 -0.7584 -0.1634  1.1488
  122OSM   H14C12816   6.841   3.253   6.770 -2.6799 -2.2260 -1.7458
  122OSM    C1312817   6.623   3.156   6.686 -0.3286  0.1540 -0.4946
  122OSM   H13A12818   6.535   3.092   6.691 -0.5841  0.4743 -0.8397
  122OSM   H13B12819   6.703   3.094   6.649 -1.2157 -1.1493 -0.3199
  122OSM   H13C12820   6.608   3.234   6.613 -0.9712  0.2205 -0.2992
  122OSM    C1212821   6.512   3.276   6.864  0.1241 -0.2276 -0.6196
  122OSM   H12A12822   6.512   3.307   6.968 -0.7278  2.0800 -1.2533
  122OSM   H12B12823   6.440   3.196   6.879 -1.1124  1.0603  0.7582
  122OSM    C1112824   6.459   3.380   6.764 -0.1624 -0.2295  0.1115
  122OSM   H11A12825   6.361   3.422   6.797  0.0392 -0.1227  0.5881
  122OSM   H11B12826   6.437   3.338   6.664 -2.9995  0.2705  0.4319
  122OSM      P12827   6.580   3.608   6.825  0.0021 -0.0624 -0.0983
  122OSM    O1312828   6.494   3.602   6.948  0.1591 -0.6538  0.5082
  122OSM    O1412829   6.728   3.618   6.840  0.1001 -0.3282 -0.1980
  122OSM    O1112830   6.529   3.734   6.745 -0.1538  0.5769  0.2026
  122OSM    O1212831   6.552   3.486   6.732 -0.3705 -0.0712  0.7733
  122OSM    C1S12832   6.587   3.757   6.616 -0.3451 -0.7020 -0.5492
  122OSM    H1S12833   6.581   3.674   6.542 -1.6811 -0.6762 -0.5000
  122OSM    H1T12834   6.695   3.781   6.630 -0.2790 -2.3303  2.9888
  122OSM     NF12835   6.573   3.882   6.400  0.2352  0.5238  0.2199
  122OSM    HNF12836   6.656   3.928   6.370  1.6178  0.5204  3.6302
  122OSM    C2S12837   6.537   3.883   6.542  0.5238  0.0478 -0.2945
  122OSM    H2S12838   6.428   3.860   6.541  0.8272 -2.0293  2.1846
  122OSM    C3S12839   6.571   4.015   6.620  0.2032 -0.3669 -0.7431
  122OSM    H3S12840   6.678   4.036   6.599  0.4592 -0.6644  0.2251
  122OSM     O312841   6.556   3.997   6.763 -0.1141 -0.7564 -0.3236
  122OSM    HO312842   6.516   3.910   6.772  3.1182 -2.1208  3.0108
  122OSM    C4S12843   6.491   4.130   6.573 -0.2493  0.2561 -0.6254
  122OSM    H4S12844   6.385   4.110   6.551  0.0737 -0.5788 -1.5154
  122OSM    C5S12845   6.546   4.251   6.551 -0.9446 -0.3429  0.1887
  122OSM    H5S12846   6.651   4.260   6.583 -1.7437 -2.0920  3.8375
  122OSM    C6S12847   6.476   4.372   6.486 -0.7413  0.5193  0.1645
  122OSM    H6S12848   6.559   4.442   6.462 -0.1355 -0.8596 -2.0277
  122OSM    H6T12849   6.415   4.437   6.553  1.7588  1.5754  1.6100
  122OSM    C7S12850   6.420   4.339   6.353  0.5051  0.6660 -0.5513
  122OSM    H7S12851   6.326   4.284   6.375 -0.7168  2.2562 -1.5689
  122OSM    H7T12852   6.488   4.273   6.294 -0.4520  0.6000 -1.6141
  122OSM    C8S12853   6.393   4.468   6.272  0.4085 -0.3300  0.2929
  122OSM    H8S12854   6.357   4.427   6.175 -1.3809  2.2391 -0.2375
  122OSM    H8T12855   6.489   4.521   6.252 -0.0232 -0.3244 -2.0295
  122OSM    C9S12856   6.283   4.556   6.335  0.7862  0.7020  0.7439
  122OSM    H9S12857   6.319   4.570   6.439 -0.1145  1.1697  0.9993
  122OSM    H9T12858   6.187   4.502   6.346 -0.9737  2.4960 -3.4606
  122OSM   C10S12859   6.247   4.695   6.280  0.4507  0.4276  0.1558
  122OSM   H10S12860   6.337   4.757   6.298  0.7871  0.3224 -1.0741
  122OSM   H10T12861   6.156   4.734   6.330  0.7339  1.6977 -0.2701
  122OSM   C11S12862   6.213   4.696   6.129  0.3127  0.1961 -0.3411
  122OSM   H11S12863   6.298   4.651   6.073 -0.5508  0.2188 -1.7365
  122OSM   H11T12864   6.214   4.799   6.089 -1.0836  0.3692  0.0208
  122OSM   C12S12865   6.093   4.617   6.077  0.0098 -1.0518 -0.8762
  122OSM   H12S12866   6.011   4.640   6.148 -0.2345 -1.5229 -1.0014
  122OSM   H12T12867   6.112   4.509   6.098  0.5648 -0.7281  0.3609
  122OSM   C13S12868   6.050   4.663   5.938 -0.3622 -0.1388  0.2522
  122OSM   H13S12869   6.050   4.774   5.936 -3.0943 -0.0987 -0.3627
  122OSM   H13T12870   5.946   4.629   5.925 -0.4058  0.2556 -0.4886
  122OSM   C14S12871   6.135   4.617   5.822 -0.5425 -0.2198 -0.3781
  122OSM   H14S12872   6.158   4.509   5.832 -0.7618 -0.0750  2.2426
  122OSM   H14T12873   6.230   4.671   5.802 -0.4270 -0.5323 -0.6863
  122OSM   C15S12874   6.045   4.619   5.692  0.0907  0.0545 -0.3154
  122OSM   H15S12875   6.018   4.720   5.655 -1.1142 -1.6202 -4.5901
  122OSM   H15T12876   5.949   4.564   5.695 -0.2615  0.6281 -0.8255
  122OSM   C16S12877   6.133   4.568   5.575  0.4555 -0.5645 -0.3250
  122OSM   H16S12878   6.181   4.473   5.606  1.1611 -0.5293 -1.2698
  122OSM   H16T12879   6.215   4.637   5.545 -1.6253  0.5618 -4.0024
  122OSM   C17S12880   6.045   4.544   5.442  0.2685  0.0985  0.2025
  122OSM   H17S12881   5.955   4.608   5.439 -1.3358 -2.0438  0.1222
  122OSM   H17T12882   5.999   4.444   5.458  0.0377  0.2559  0.5121
  122OSM   C18S12883   6.138   4.529   5.316 -0.1079  0.9327  0.3778
  122OSM   H18S12884   6.201   4.619   5.299  0.3262  0.9644  1.9914
  122OSM   H18T12885   6.070   4.513   5.230 -1.9762 -0.1288  1.9589
  122OSM   H18U12886   6.209   4.444   5.324  2.0132  2.6182  0.3733
  122OSM    C1F12887   6.512   3.802   6.314 -0.5497 -0.1908  0.1136
  122OSM     OF12888   6.395   3.763   6.333  0.1450 -0.0488 -0.1047
  122OSM    C2F12889   6.587   3.767   6.189  0.8656  0.0627  0.1782
  122OSM    H2F12890   6.572   3.658   6.181 -0.6583  0.2175  0.6429
  122OSM    H2G12891   6.697   3.787   6.188  1.2678 -1.9596  0.0233
  122OSM    C3F12892   6.529   3.844   6.070  0.0333  0.2954  0.2317
  122OSM    H3F12893   6.421   3.822   6.070  0.1779 -0.5427  1.9626
  122OSM    H3G12894   6.564   3.807   5.971  1.1314  0.8009  0.4105
  122OSM    C4F12895   6.560   3.996   6.067  0.3725  0.4268  1.3052
  122OSM    H4F12896   6.669   4.006   6.050  0.7903 -4.2887 -0.3257
  122OSM    H4G12897   6.539   4.048   6.163  0.4467 -0.1915  1.6634
  122OSM    C5F12898   6.481   4.075   5.963  0.0548 -0.3637 -0.1107
  122OSM    H5F12899   6.516   4.180   5.972  2.8245 -1.3266  1.6330
  122OSM    H5G12900   6.372   4.072   5.987  0.3784 -0.5092  1.4566
  122OSM    C6F12901   6.500   4.017   5.822 -0.5325  0.4431 -0.1947
  122OSM    H6F12902   6.435   3.931   5.799 -2.0923  2.1207 -2.5472
  122OSM    H6G12903   6.603   3.976   5.818 -0.5188  0.1531  1.9597
  122OSM    C7F12904   6.493   4.122   5.711 -0.1244 -0.0559 -0.1041
  122OSM    H7F12905   6.576   4.192   5.732  0.0003  0.2686 -1.5691
  122OSM    H7G12906   6.399   4.179   5.724  0.0932  0.6792 -1.5357
  122OSM    C8F12907   6.498   4.069   5.569 -0.4641  0.0052  0.1503
  122OSM    H8F12908   6.412   4.004   5.543 -1.5477  1.4862 -0.1014
  122OSM    H8G12909   6.586   4.003   5.553 -0.0045  1.0269 -1.8790
  122OSM    C9F12910   6.484   4.176   5.461 -0.4470  0.5968 -0.2446
  122OSM    H9F12911   6.580   4.229   5.449 -0.2447  0.0394 -1.1789
  122OSM   C10F12912   6.378   4.222   5.409  0.3352  0.0665 -0.0736
  122OSM   H10F12913   6.389   4.295   5.327  2.3389 -1.7372 -1.5397
  122OSM   C11F12914   6.239   4.152   5.411  0.1055  0.2297  0.6461
  122OSM   H11F12915   6.172   4.233   5.446  1.2155  0.2636  2.8119
  122OSM   H11G12916   6.223   4.064   5.477 -2.0326  0.8052  0.9845
  122OSM   C12F12917   6.198   4.110   5.263 -1.0474  0.1084 -0.2830
  122OSM   H12F12918   6.247   4.011   5.252 -0.5389 -0.1070  2.8454
  122OSM   H12G12919   6.228   4.191   5.193  0.9366  2.0003  2.4959
  122OSM   C13F12920   6.042   4.121   5.251 -0.2505  0.1111 -0.2715
  122OSM   H13F12921   6.024   4.228   5.275  0.8612 -0.2538  2.6775
  122OSM   H13G12922   5.985   4.055   5.320  1.5651 -0.4956  0.7254
  122OSM   C14F12923   5.993   4.097   5.106 -0.3723  0.1192  0.8791
  122OSM   H14F12924   5.882   4.085   5.101 -0.3528  0.1749  0.3393
  122OSM   H14G12925   6.027   3.994   5.085  0.1595 -0.1154  2.7008
  122OSM   C15F12926   6.027   4.205   5.003  0.1786 -0.0199  0.3932
  122OSM   H15F12927   6.138   4.204   4.999  0.1473 -1.4712 -1.5753
  122OSM   H15G12928   5.977   4.298   5.036 -0.1617  0.1969 -0.7086
  122OSM   C16F12929   5.972   4.177   4.863 -0.6317  0.8721  0.0040
  122OSM   H16F12930   5.871   4.137   4.885 -1.7418  1.9437 -2.6010
  122OSM   H16G12931   6.040   4.098   4.825  0.4767  0.8286  1.9295
  122OSM   C17F12932   5.970   4.301   4.773 -0.1176  0.6899 -0.3386
  122OSM   H17F12933   6.068   4.352   4.774  0.5724 -0.5945  0.9527
  122OSM   H17G12934   5.902   4.378   4.815 -0.2722  1.0221 -1.1604
  122OSM   C18F12935   5.918   4.283   4.632  0.1389 -0.0894 -0.3644
  122OSM   H18F12936   5.812   4.251   4.627 -0.1943  1.0879 -1.5114
  122OSM   H18G12937   5.970   4.204   4.574  1.1622 -0.6636  1.2728
  122OSM   H18H12938   5.921   4.378   4.573  2.9802  1.3645  1.8803
  123OSM      N12939   2.831   3.129   2.312  0.2367 -0.1066 -0.2360
  123OSM    C1512940   2.834   3.245   2.218  0.0077 -0.0351  0.0154
  123OSM   H15A12941   2.841   3.207   2.117  0.1986  0.3899 -0.1351
  123OSM   H15B12942   2.926   3.302   2.224 -0.8624  1.4546 -0.3654
  123OSM   H15C12943   2.757   3.318   2.239 -0.2181  0.6714 -2.8349
  123OSM    C1412944   2.948   3.044   2.290  0.1707  0.2890  0.6157
  123OSM   H14A12945   3.047   3.086   2.302  2.0290 -3.3625 -0.4178
  123OSM   H14B12946   2.953   3.008   2.188  0.9543  1.3061  0.2811
  123OSM   H14C12947   2.938   2.963   2.361 -0.6953 -0.7770 -0.6749
  123OSM    C1312948   2.822   3.168   2.453  0.0239  0.4620  0.8693
  123OSM   H13A12949   2.732   3.226   2.469 -0.3325  0.0914  0.2769
  123OSM   H13B12950   2.907   3.227   2.483  0.2486 -0.1294  1.4303
  123OSM   H13C12951   2.807   3.082   2.517 -2.9250 -2.2017 -2.9015
  123OSM    C1212952   2.702   3.052   2.276  0.6262 -0.6706  0.5565
  123OSM   H12A12953   2.690   3.033   2.171  0.5781  2.0919 -0.0205
  123OSM   H12B12954   2.622   3.122   2.299  0.6774 -0.2063 -0.6236
  123OSM    C1112955   2.670   2.916   2.347 -0.2850  0.2296 -0.4100
  123OSM   H11A12956   2.562   2.894   2.342 -0.4041 -0.7028  3.5237
  123OSM   H11B12957   2.704   2.932   2.451  0.2481  1.2145 -0.7186
  123OSM      P12958   2.831   2.710   2.377  0.3787  0.0188  0.4612
  123OSM    O1312959   2.859   2.582   2.303 -0.0433 -0.4124 -0.6353
  123OSM    O1412960   2.945   2.776   2.441  0.2834 -0.1538  0.7857
  123OSM    O1112961   2.735   2.675   2.497 -0.7091  0.7031  0.0419
  123OSM    O1212962   2.742   2.803   2.293 -0.1390  0.0872 -0.3752
  123OSM    C1S12963   2.616   2.593   2.480 -0.6897 -0.0864  0.5021
  123OSM    H1S12964   2.643   2.502   2.422  0.3732  0.0735  0.7204
  123OSM    H1T12965   2.535   2.653   2.433  0.2038 -0.3892 -1.5641
  123OSM     NF12966   2.465   2.442   2.601  0.5661  0.0567 -0.0336
  123OSM    HNF12967   2.374   2.477   2.582  0.6413  1.5885  2.1189
  123OSM    C2S12968   2.568   2.544   2.615  0.3111  0.2672 -0.5677
  123OSM    H2S12969   2.653   2.495   2.668 -0.1540  0.4831  0.4036
  123OSM    C3S12970   2.524   2.666   2.702  0.5733 -0.9600  0.0059
  123OSM    H3S12971   2.434   2.708   2.653  1.2433  1.3317  0.6268
  123OSM     O312972   2.623   2.769   2.713 -0.2627  0.2905  0.1022
  123OSM    HO312973   2.695   2.743   2.655 -0.2939 -0.3827  0.3650
  123OSM    C4S12974   2.481   2.634   2.841  0.1639  0.0783  0.0572
  123OSM    H4S12975   2.559   2.597   2.908  0.1431 -1.7357 -0.8743
  123OSM    C5S12976   2.356   2.625   2.886 -0.1614  0.6700  0.6461
  123OSM    H5S12977   2.278   2.658   2.814  1.9842  0.9585 -1.6939
  123OSM    C6S12978   2.302   2.578   3.019 -0.7464  0.3196  0.4432
  123OSM    H6S12979   2.280   2.471   2.996 -0.7878  0.6132 -0.9493
  123OSM    H6T12980   2.213   2.634   3.054 -0.6331  0.9559 -0.2706
  123OSM    C7S12981   2.397   2.583   3.145  0.1521  0.3458 -0.0595
  123OSM    H7S12982   2.437   2.686   3.152  0.5029  0.3546 -1.6916
  123OSM    H7T12983   2.482   2.513   3.125  0.3602  0.3553  0.7810
  123OSM    C8S12984   2.337   2.542   3.284 -0.0686  0.1799 -0.5219
  123OSM    H8S12985   2.301   2.437   3.286  1.6923 -0.4528 -0.6820
  123OSM    H8T12986   2.248   2.608   3.291  1.7108  2.6128  0.3539
  123OSM    C9S12987   2.420   2.577   3.404 -0.1398 -0.2620  0.0107
  123OSM    H9S12988   2.418   2.688   3.405  2.7658 -0.1216 -0.9287
  123OSM    H9T12989   2.527   2.547   3.394 -0.6317 -1.8252 -0.8898
  123OSM   C10S12990   2.370   2.519   3.536 -0.7972 -0.1329  1.1392
  123OSM   H10S12991   2.354   2.412   3.511  0.4728  0.2013 -1.5151
  123OSM   H10T12992   2.267   2.559   3.551 -0.8207 -0.3321  1.5019
  123OSM   C11S12993   2.465   2.545   3.650 -1.1391 -0.0002  0.0983
  123OSM   H11S12994   2.499   2.651   3.645  0.6867 -0.5565 -0.0256
  123OSM   H11T12995   2.559   2.488   3.638  1.0576  3.0362  1.6930
  123OSM   C12S12996   2.420   2.516   3.790  0.5494  0.1911  0.1938
  123OSM   H12S12997   2.392   2.409   3.804  0.5225  0.2012  0.2183
  123OSM   H12T12998   2.325   2.567   3.816  1.0532 -0.6922  4.5954
  123OSM   C13S12999   2.510   2.551   3.898 -0.6098 -0.2405  0.1161
  123OSM   H13S13000   2.520   2.661   3.893  0.3193 -0.3681 -3.8381
  123OSM   H13T13001   2.608   2.498   3.896 -0.5886 -0.1938 -0.0840
  123OSM   C14S13002   2.463   2.516   4.040 -0.0919  0.5121  0.2200
  123OSM   H14S13003   2.453   2.408   4.066  0.7486  0.7897  1.8097
  123OSM   H14T13004   2.360   2.555   4.056 -0.3308 -0.3226  0.7941
  123OSM   C15S13005   2.552   2.569   4.155 -0.6204  0.4458 -0.4463
  123OSM   H15S13006   2.560   2.677   4.133 -2.2477  0.4960 -0.8750
  123OSM   H15T13007   2.649   2.518   4.136 -0.4314  0.8804 -0.6617
  123OSM   C16S13008   2.501   2.540   4.297  0.1230 -1.0230  0.6368
  123OSM   H16S13009   2.503   2.432   4.319 -0.0412 -1.4261 -1.1977
  123OSM   H16T13010   2.395   2.573   4.300  0.9445  2.0393 -0.4178
  123OSM   C17S13011   2.583   2.615   4.404  0.1900  0.0841  0.1657
  123OSM   H17S13012   2.692   2.593   4.396  0.7508  2.1098  1.2738
  123OSM   H17T13013   2.561   2.575   4.506  1.1371  1.4706  0.9584
  123OSM   C18S13014   2.568   2.769   4.399  0.1247  0.2727  0.5695
  123OSM   H18S13015   2.460   2.790   4.410 -0.5876 -2.5074 -0.2900
  123OSM   H18T13016   2.586   2.797   4.293  0.1422 -0.0815  0.4761
  123OSM   H18U13017   2.623   2.830   4.474 -0.3712  1.3493  0.0855
  123OSM    C1F13018   2.503   2.317   2.579 -0.3703  0.3302  0.3814
  123OSM     OF13019   2.621   2.278   2.596 -0.2939 -0.3489 -0.2871
  123OSM    C2F13020   2.401   2.221   2.537  1.2826  0.1029  0.6732
  123OSM    H2F13021   2.446   2.123   2.563  1.0847 -0.8012 -2.0875
  123OSM    H2G13022   2.379   2.223   2.429 -1.0420  1.1930  1.1068
  123OSM    C3F13023   2.258   2.245   2.611 -0.3761  0.3484 -0.0692
  123OSM    H3F13024   2.193   2.320   2.560  0.8299  0.8612 -0.8782
  123OSM    H3G13025   2.278   2.287   2.712 -0.9501  0.5363 -0.0301
  123OSM    C4F13026   2.177   2.118   2.622  0.5744 -0.2716 -0.7039
  123OSM    H4F13027   2.250   2.035   2.611 -0.3644 -1.0223 -1.5516
  123OSM    H4G13028   2.121   2.086   2.531 -0.5444 -3.9239  1.0759
  123OSM    C5F13029   2.107   2.097   2.760 -0.7862  0.1727  0.1082
  123OSM    H5F13030   2.050   2.002   2.755 -0.7168  0.1947 -1.9622
  123OSM    H5G13031   2.034   2.180   2.772 -0.6148  0.4714 -0.8230
  123OSM    C6F13032   2.207   2.088   2.881  0.7318  0.6907  0.3977
  123OSM    H6F13033   2.284   2.168   2.882 -0.3443  1.7510  0.1962
  123OSM    H6G13034   2.263   1.992   2.877  1.0057  0.8226  1.0237
  123OSM    C7F13035   2.132   2.079   3.015  0.8276  0.0254  0.0612
  123OSM    H7F13036   2.052   2.003   3.001  0.7671  0.3734 -1.7395
  123OSM    H7G13037   2.086   2.178   3.036  1.9202  0.5588  0.0104
  123OSM    C8F13038   2.217   2.045   3.133 -0.1175  0.0817  0.2701
  123OSM    H8F13039   2.319   2.088   3.126  0.6241 -1.6543 -0.3879
  123OSM    H8G13040   2.236   1.936   3.141  0.2183  0.1475  0.3840
  123OSM    C9F13041   2.154   2.081   3.261  0.2432  0.0717 -0.4757
  123OSM    H9F13042   2.210   2.157   3.318  2.1025 -0.9909 -0.8259
  123OSM   C10F13043   2.040   2.026   3.306 -0.7005 -0.6514  0.2077
  123OSM   H10F13044   1.994   2.070   3.396  1.3629  0.8504  0.5911
  123OSM   C11F13045   1.971   1.902   3.256  0.4190 -0.8048 -0.8573
  123OSM   H11F13046   2.026   1.852   3.174  0.1426 -0.5549 -1.1981
  123OSM   H11G13047   1.883   1.940   3.201  0.7449  0.8837 -0.2752
  123OSM   C12F13048   1.943   1.795   3.364  0.2587  0.0541  0.1738
  123OSM   H12F13049   1.879   1.713   3.325 -0.9279  0.5314  1.0565
  123OSM   H12G13050   1.886   1.843   3.447 -2.3456  0.1638 -1.5627
  123OSM   C13F13051   2.076   1.733   3.428  0.5077  0.5632  0.4607
  123OSM   H13F13052   2.117   1.803   3.503  3.3169 -1.3829  0.9131
  123OSM   H13G13053   2.140   1.733   3.337  0.5252 -0.2515  0.4670
  123OSM   C14F13054   2.054   1.597   3.498 -0.0752  0.4114  0.5928
  123OSM   H14F13055   2.000   1.521   3.438  0.9380 -1.0325  1.4266
  123OSM   H14G13056   1.995   1.628   3.586 -0.9346 -1.1572  0.6012
  123OSM   C15F13057   2.188   1.529   3.532 -0.3342  0.3360 -0.7093
  123OSM   H15F13058   2.243   1.484   3.447 -1.1701 -0.4821 -0.8330
  123OSM   H15G13059   2.166   1.460   3.616 -3.3212  1.4728 -0.4256
  123OSM   C16F13060   2.289   1.637   3.598 -0.5803  0.3741  0.3799
  123OSM   H16F13061   2.312   1.725   3.534 -0.3293 -0.2386 -0.3978
  123OSM   H16G13062   2.389   1.598   3.627  0.6485  3.1872  0.2714
  123OSM   C17F13063   2.241   1.704   3.729 -0.0669 -0.1371 -0.2810
  123OSM   H17F13064   2.220   1.616   3.794 -1.9232  0.8875  0.5654
  123OSM   H17G13065   2.153   1.771   3.723 -1.0962 -0.9858  3.2155
  123OSM   C18F13066   2.358   1.780   3.792  0.4950  0.2892 -0.1619
  123OSM   H18F13067   2.453   1.721   3.793  0.5053  0.2771 -1.0565
  123OSM   H18G13068   2.338   1.822   3.893  0.7508  0.1187 -0.0387
  123OSM   H18H13069   2.373   1.872   3.731  1.9084  1.0641  1.2771
  124OSM      N13070   3.134   3.726   2.092 -0.6027  0.8804  0.2347
  124OSM    C1513071   3.231   3.605   2.115 -0.2145 -0.1554 -0.6469
  124OSM   H15A13072   3.184   3.526   2.171  1.7514 -0.4695  0.6782
  124OSM   H15B13073   3.310   3.628   2.186 -3.1038  0.1202  2.7476
  124OSM   H15C13074   3.275   3.560   2.027  1.7722 -1.6837  1.0096
  124OSM    C1413075   3.091   3.783   2.222 -0.6936 -0.4301  0.6926
  124OSM   H14A13076   3.181   3.824   2.265  0.9089 -1.6896 -1.3239
  124OSM   H14B13077   3.060   3.707   2.293  1.4503  1.0478  3.4305
  124OSM   H14C13078   3.009   3.851   2.210  0.0823  0.6121  1.1679
  124OSM    C1313079   3.219   3.830   2.009 -0.3114 -0.0149  0.5009
  124OSM   H13A13080   3.245   3.791   1.912 -0.3171  0.3979  0.3301
  124OSM   H13B13081   3.302   3.879   2.058  0.3057  1.4199 -1.8416
  124OSM   H13C13082   3.161   3.918   1.985  1.6125  1.2432  0.1844
  124OSM    C1213083   3.022   3.667   2.013  0.4044  0.6725  0.5567
  124OSM   H12A13084   3.062   3.647   1.915  3.1680 -1.2958  1.9544
  124OSM   H12B13085   2.939   3.737   2.009 -2.2331 -2.2669 -0.1115
  124OSM    C1113086   2.951   3.544   2.069  0.0255 -0.3662 -0.3933
  124OSM   H11A13087   3.026   3.463   2.088  0.0310 -0.1279  0.6684
  124OSM   H11B13088   2.877   3.500   1.998 -1.4879  1.3787  0.0349
  124OSM      P13089   2.752   3.633   2.182 -0.0021  0.2267 -0.4255
  124OSM    O1313090   2.755   3.756   2.101  0.4543  0.7172 -0.6762
  124OSM    O1413091   2.671   3.521   2.133 -0.2502  0.1367 -0.3508
  124OSM    O1113092   2.706   3.657   2.335 -0.3155  0.2084  0.0519
  124OSM    O1213093   2.895   3.568   2.195 -0.2712 -0.1113 -0.0003
  124OSM    C1S13094   2.753   3.563   2.428 -0.4175 -0.1202 -0.4942
  124OSM    H1S13095   2.857   3.592   2.454 -0.4567  0.9675 -1.4651
  124OSM    H1T13096   2.755   3.457   2.397  1.8812  0.0618 -1.2031
  124OSM     NF13097   2.735   3.468   2.660  0.3044  0.2844 -0.1526
  124OSM    HNF13098   2.669   3.397   2.684  1.1511 -0.0116  1.3961
  124OSM    C2S13099   2.681   3.566   2.570  0.3343  0.6242  0.7684
  124OSM    H2S13100   2.707   3.669   2.603 -0.3293  0.9590  0.2551
  124OSM    C3S13101   2.527   3.558   2.556 -0.4719 -1.1595 -0.2965
  124OSM    H3S13102   2.510   3.458   2.511 -1.0383 -1.8274  1.3208
  124OSM     O313103   2.463   3.651   2.464  0.1055 -0.3800 -0.0611
  124OSM    HO313104   2.531   3.707   2.427  0.8892 -2.2505 -1.6000
  124OSM    C4S13105   2.448   3.546   2.687 -0.1200 -0.5170  0.0006
  124OSM    H4S13106   2.445   3.439   2.713  1.9009  0.3278  4.6687
  124OSM    C5S13107   2.405   3.645   2.768  0.4214 -0.2993  0.2029
  124OSM    H5S13108   2.439   3.747   2.744  1.3253 -1.1719 -2.5330
  124OSM    C6S13109   2.339   3.623   2.908  0.4510  0.3043 -0.1087
  124OSM    H6S13110   2.229   3.633   2.908  0.0315 -3.0188  0.1265
  124OSM    H6T13111   2.379   3.698   2.980  0.8203  0.3998 -0.4145
  124OSM    C7S13112   2.371   3.481   2.974  0.2961  0.1874 -0.2260
  124OSM    H7S13113   2.476   3.448   2.967  1.1012  2.5199  0.1461
  124OSM    H7T13114   2.303   3.410   2.921  0.2895  0.6683 -0.8653
  124OSM    C8S13115   2.337   3.476   3.118  0.3655  0.2914  0.3150
  124OSM    H8S13116   2.282   3.572   3.130  0.2010  0.0496  1.6230
  124OSM    H8T13117   2.421   3.484   3.189 -0.3783  1.0265  1.1306
  124OSM    C9S13118   2.238   3.365   3.158 -0.0530 -0.3503  0.1959
  124OSM    H9S13119   2.286   3.272   3.120  3.1291  0.6696  1.4109
  124OSM    H9T13120   2.145   3.386   3.101 -0.3843 -1.7048  0.2025
  124OSM   C10S13121   2.212   3.367   3.309 -0.2472 -0.2376 -0.6807
  124OSM   H10S13122   2.150   3.457   3.330  0.6304  0.1210  0.4718
  124OSM   H10T13123   2.315   3.377   3.349  0.0025  4.0673 -1.8593
  124OSM   C11S13124   2.147   3.248   3.366 -0.8909  0.6288  0.1397
  124OSM   H11S13125   2.168   3.153   3.312  2.2764  0.6865  1.0610
  124OSM   H11T13126   2.037   3.251   3.352 -1.1027  4.2779  1.4974
  124OSM   C12S13127   2.190   3.224   3.515 -0.1490  0.4386  0.2718
  124OSM   H12S13128   2.300   3.233   3.526 -0.1611  3.9327 -1.3290
  124OSM   H12T13129   2.170   3.117   3.540 -0.8136  0.2066 -1.1376
  124OSM   C13S13130   2.117   3.318   3.617  0.8447  1.0725 -1.1231
  124OSM   H13S13131   2.007   3.302   3.616  0.4103  3.3914  1.0481
  124OSM   H13T13132   2.144   3.423   3.594 -0.0554  1.1227 -2.0456
  124OSM   C14S13133   2.178   3.298   3.753 -0.5359  0.6985 -1.1730
  124OSM   H14S13134   2.286   3.320   3.762 -0.4121  0.4588 -1.9744
  124OSM   H14T13135   2.174   3.190   3.780  1.1921  0.5554 -1.3527
  124OSM   C15S13136   2.106   3.366   3.877 -0.5773 -0.6153  1.1414
  124OSM   H15S13137   1.999   3.346   3.859 -0.4866  1.2915 -2.4075
  124OSM   H15T13138   2.124   3.474   3.897  0.3586 -0.7784  1.2430
  124OSM   C16S13139   2.140   3.289   4.006  0.4680 -0.3916  0.2860
  124OSM   H16S13140   2.250   3.273   4.017  0.3194 -1.8530 -0.1367
  124OSM   H16T13141   2.097   3.187   3.996  2.4142 -1.3552  1.1109
  124OSM   C17S13142   2.086   3.356   4.135  0.2957  0.3999 -0.3555
  124OSM   H17S13143   1.981   3.388   4.117  1.3002  3.3666 -1.5455
  124OSM   H17T13144   2.153   3.439   4.165  0.9745 -0.4656  0.6358
  124OSM   C18S13145   2.090   3.263   4.259 -0.1072  0.5597  0.3183
  124OSM   H18S13146   2.022   3.176   4.248  1.6279 -0.6741 -1.3156
  124OSM   H18T13147   2.058   3.316   4.351 -0.3201  0.1527  0.4814
  124OSM   H18U13148   2.189   3.217   4.278 -1.6657 -3.0113  0.5061
  124OSM    C1F13149   2.857   3.454   2.715  0.2667 -0.3826 -0.7380
  124OSM     OF13150   2.937   3.552   2.713 -0.0536  0.5336 -0.0814
  124OSM    C2F13151   2.902   3.325   2.779  0.6936 -0.6995 -0.5519
  124OSM    H2F13152   2.966   3.265   2.712  0.0255 -1.7054 -0.3202
  124OSM    H2G13153   2.816   3.257   2.797  0.1286  0.3820  1.1157
  124OSM    C3F13154   2.995   3.353   2.904  0.4300 -0.7438 -0.2579
  124OSM    H3F13155   3.088   3.407   2.877 -0.2098  0.4061 -0.1858
  124OSM    H3G13156   3.034   3.257   2.945  2.7287  0.2018 -0.0375
  124OSM    C4F13157   2.918   3.420   3.025 -0.4329 -0.5700 -0.2425
  124OSM    H4F13158   2.830   3.356   3.048  0.5737 -1.5924  0.8735
  124OSM    H4G13159   2.896   3.526   2.999 -2.2991 -0.5907  1.0805
  124OSM    C5F13160   3.018   3.420   3.146  0.3239 -0.1298  0.2134
  124OSM    H5F13161   3.118   3.441   3.102  0.5950  0.9885  1.2672
  124OSM    H5G13162   3.013   3.315   3.183 -0.6135 -0.3021 -0.3728
  124OSM    C6F13163   2.978   3.530   3.250  0.6359 -0.3173  0.4364
  124OSM    H6F13164   2.875   3.504   3.280  0.6462 -0.6107  0.2299
  124OSM    H6G13165   2.966   3.627   3.197 -0.9317 -0.5700  0.2790
  124OSM    C7F13166   3.085   3.539   3.360  0.4304  0.6570  0.1130
  124OSM    H7F13167   3.179   3.584   3.320 -0.2930  2.6278  0.5231
  124OSM    H7G13168   3.102   3.434   3.390  1.6602  0.4925 -1.0833
  124OSM    C8F13169   3.027   3.622   3.480  0.0870 -0.1606  0.7055
  124OSM    H8F13170   2.993   3.714   3.427  2.2702 -0.6320 -1.7660
  124OSM    H8G13171   3.119   3.646   3.537  1.4062  2.0008 -2.0416
  124OSM    C9F13172   2.909   3.565   3.549  0.1216  0.1410  0.1794
  124OSM    H9F13173   2.813   3.587   3.498  1.2076 -0.1251 -2.1075
  124OSM   C10F13174   2.910   3.505   3.670 -0.5557 -0.3002 -0.1194
  124OSM   H10F13175   2.808   3.490   3.709 -1.1511  1.0394 -1.0927
  124OSM   C11F13176   3.030   3.494   3.761 -0.1892 -0.7402 -0.5048
  124OSM   H11F13177   3.119   3.511   3.697  0.0851  0.9930  0.2821
  124OSM   H11G13178   3.045   3.389   3.794  1.8425  0.0156  1.2203
  124OSM   C12F13179   3.028   3.594   3.889 -0.5876  0.4689 -0.1371
  124OSM   H12F13180   3.024   3.704   3.877  3.4102  0.8720  0.7008
  124OSM   H12G13181   3.133   3.588   3.926 -0.3302  2.3962 -0.4760
  124OSM   C13F13182   2.932   3.550   3.997  0.1994  0.0173 -0.5344
  124OSM   H13F13183   2.920   3.440   4.004 -2.2653  0.1976 -0.7739
  124OSM   H13G13184   2.829   3.580   3.967 -0.5166  1.1350  2.6274
  124OSM   C14F13185   2.954   3.622   4.134 -0.1990 -0.0374  0.6234
  124OSM   H14F13186   2.996   3.725   4.125  3.1435 -1.3109  0.4036
  124OSM   H14G13187   3.039   3.571   4.183 -0.4726 -0.7079  0.4116
  124OSM   C15F13188   2.849   3.620   4.238 -0.1854 -0.5251 -0.0730
  124OSM   H15F13189   2.754   3.660   4.197 -0.5300 -0.9385  0.3059
  124OSM   H15G13190   2.872   3.687   4.323  1.8703 -1.9563  0.5847
  124OSM   C16F13191   2.818   3.484   4.289  0.4819  0.4318  0.0127
  124OSM   H16F13192   2.918   3.447   4.321 -0.1013 -1.8335 -0.5975
  124OSM   H16G13193   2.788   3.408   4.214 -0.8816  2.1131 -1.2473
  124OSM   C17F13194   2.724   3.475   4.408  0.3492 -0.7573 -0.1031
  124OSM   H17F13195   2.625   3.516   4.378  1.2997  3.4259  1.6348
  124OSM   H17G13196   2.768   3.555   4.472  1.0613  0.2863 -1.8176
  124OSM   C18F13197   2.718   3.338   4.479 -0.4406 -0.2530 -0.2004
  124OSM   H18F13198   2.643   3.334   4.561  1.5299  1.3644  1.8029
  124OSM   H18G13199   2.820   3.312   4.515  0.6930  3.7466 -0.0324
  124OSM   H18H13200   2.707   3.265   4.396 -1.5977 -1.2525  0.7910
  125OSM      N13201   4.829   6.635   2.066 -0.2503 -0.1092  0.3256
  125OSM    C1513202   4.847   6.499   2.123  0.6513  0.3942  0.1203
  125OSM   H15A13203   4.913   6.501   2.208  1.7400 -0.8724 -0.6490
  125OSM   H15B13204   4.893   6.429   2.054  0.8480 -1.0724  1.6501
  125OSM   H15C13205   4.756   6.453   2.158  2.0641 -1.7428  1.2629
  125OSM    C1413206   4.964   6.697   2.041 -0.7408  0.5371  0.2112
  125OSM   H14A13207   5.028   6.619   2.003  1.0249  1.4617  1.1958
  125OSM   H14B13208   5.016   6.729   2.129  0.1254  2.4591 -0.9289
  125OSM   H14C13209   4.957   6.776   1.967 -1.7031  1.0858  0.8730
  125OSM    C1313210   4.760   6.616   1.929  0.3237  0.0263  0.2432
  125OSM   H13A13211   4.801   6.533   1.872  0.2461  1.4703 -2.0420
  125OSM   H13B13212   4.769   6.709   1.875 -0.4134  1.0506  1.8232
  125OSM   H13C13213   4.657   6.588   1.944  1.2293 -2.7425  2.1426
  125OSM    C1213214   4.747   6.731   2.154  0.9282  0.5060 -0.1492
  125OSM   H12A13215   4.752   6.830   2.113  1.4464  0.9713  0.9870
  125OSM   H12B13216   4.794   6.728   2.251 -0.6077  1.1871  0.6548
  125OSM    C1113217   4.597   6.701   2.181 -0.3917 -0.4294 -0.7888
  125OSM   H11A13218   4.569   6.763   2.269  0.3691 -3.5116  1.8099
  125OSM   H11B13219   4.579   6.595   2.208 -1.0371 -0.0418  0.3851
  125OSM      P13220   4.494   6.879   2.028 -0.0922 -0.5597 -0.1362
  125OSM    O1313221   4.623   6.954   2.020 -0.2986 -0.1924  0.7649
  125OSM    O1413222   4.415   6.863   1.905  0.3217 -0.1690 -0.0231
  125OSM    O1113223   4.401   6.941   2.146 -0.3125  0.2677  0.0906
  125OSM    O1213224   4.524   6.733   2.068  0.2397  0.6857 -0.1174
  125OSM    C1S13225   4.288   6.878   2.205 -0.1140 -0.5201 -0.5128
  125OSM    H1S13226   4.296   6.767   2.205 -1.8818 -0.6650 -0.0113
  125OSM    H1T13227   4.200   6.900   2.141  1.4622  0.3892 -2.5068
  125OSM     NF13228   4.158   6.894   2.404  0.4260  0.2196  0.3008
  125OSM    HNF13229   4.107   6.969   2.445 -0.3564 -0.8472  1.3364
  125OSM    C2S13230   4.282   6.927   2.348  0.5132  0.5067  0.5817
  125OSM    H2S13231   4.352   6.864   2.407  0.4356  1.0233  1.2350
  125OSM    C3S13232   4.321   7.070   2.377 -0.1962  0.8242 -0.2130
  125OSM    H3S13233   4.257   7.140   2.321 -2.8765 -0.1987  1.3670
  125OSM     O313234   4.449   7.109   2.342 -0.0342  0.1315  1.0272
  125OSM    HO313235   4.482   7.049   2.274  0.3170  0.5998  0.7790
  125OSM    C4S13236   4.310   7.084   2.529 -0.0052 -0.3531  0.3113
  125OSM    H4S13237   4.364   7.008   2.587 -1.2713 -0.5611  1.2755
  125OSM    C5S13238   4.243   7.184   2.585 -0.5058 -0.0073 -1.3082
  125OSM    H5S13239   4.207   7.269   2.526 -0.4092 -1.2499 -3.2445
  125OSM    C6S13240   4.228   7.209   2.732 -0.2222 -0.2887 -0.0942
  125OSM    H6S13241   4.136   7.261   2.766 -0.8705 -1.0439 -0.6434
  125OSM    H6T13242   4.311   7.273   2.769 -0.2034 -0.2974 -0.1207
  125OSM    C7S13243   4.233   7.073   2.819  0.2766  0.8211 -0.0039
  125OSM    H7S13244   4.333   7.026   2.815  0.1900  0.6989 -1.0882
  125OSM    H7T13245   4.177   6.992   2.766  0.5024  1.5056 -1.3487
  125OSM    C8S13246   4.175   7.088   2.958  0.5726  0.0487  0.5483
  125OSM    H8S13247   4.070   7.122   2.961  0.2781 -0.8615  0.8003
  125OSM    H8T13248   4.242   7.165   3.003 -0.6545  1.2292  0.3919
  125OSM    C9S13249   4.182   6.961   3.040  0.1740  0.2815 -0.0729
  125OSM    H9S13250   4.284   6.917   3.032  0.4802  0.8407  0.5895
  125OSM    H9T13251   4.098   6.903   2.997 -0.0833  1.4569 -1.2207
  125OSM   C10S13252   4.168   6.980   3.198 -0.4197 -0.2756 -0.2236
  125OSM   H10S13253   4.069   7.031   3.202 -0.5475 -0.5504  0.2905
  125OSM   H10T13254   4.248   7.049   3.230  0.2741 -1.3181  0.3723
  125OSM   C11S13255   4.179   6.855   3.283  0.9794  0.0835  0.2013
  125OSM   H11S13256   4.248   6.782   3.235  1.5640 -0.2841  1.5709
  125OSM   H11T13257   4.081   6.804   3.290  1.6265 -1.1298  0.7783
  125OSM   C12S13258   4.229   6.881   3.420 -0.8621  0.0172 -0.9149
  125OSM   H12S13259   4.320   6.941   3.401 -1.1620  0.0681 -2.2827
  125OSM   H12T13260   4.258   6.782   3.462  1.0595  0.4884 -1.0645
  125OSM   C13S13261   4.125   6.942   3.508 -0.0823  0.3239  0.2560
  125OSM   H13S13262   4.049   6.861   3.508  0.8597 -0.5960  0.2232
  125OSM   H13T13263   4.077   7.027   3.455  1.1247  0.2652 -1.0018
  125OSM   C14S13264   4.153   6.982   3.655 -0.4401 -0.0619 -0.2014
  125OSM   H14S13265   4.060   7.018   3.705 -0.1038  0.3082  0.1745
  125OSM   H14T13266   4.232   7.059   3.646  0.5642 -1.0328  0.0707
  125OSM   C15S13267   4.211   6.862   3.735  0.0720  0.1040  0.0371
  125OSM   H15S13268   4.269   6.796   3.667  0.0448 -0.1724  0.2796
  125OSM   H15T13269   4.126   6.798   3.768  0.3028  0.5958  1.6733
  125OSM   C16S13270   4.287   6.914   3.854 -0.2814  0.0403 -0.1690
  125OSM   H16S13271   4.376   6.966   3.814 -0.8451  0.6932 -0.5993
  125OSM   H16T13272   4.337   6.843   3.923  1.3659  0.9926 -0.3443
  125OSM   C17S13273   4.196   7.008   3.932 -0.4288 -0.1935  0.7182
  125OSM   H17S13274   4.106   6.957   3.971 -0.7912  0.3447  0.6010
  125OSM   H17T13275   4.175   7.104   3.880 -0.1415 -1.1887 -1.3278
  125OSM   C18S13276   4.278   7.059   4.052 -0.2953 -0.4759 -0.8092
  125OSM   H18S13277   4.341   6.983   4.102 -0.0254 -0.9396 -1.8312
  125OSM   H18T13278   4.210   7.108   4.126  2.3009  0.4898  1.0926
  125OSM   H18U13279   4.343   7.143   4.019 -1.6553  0.9271 -0.1080
  125OSM    C1F13280   4.112   6.768   2.414 -0.6487 -0.0598  0.0990
  125OSM     OF13281   4.194   6.680   2.395 -0.1087 -0.1317 -0.4433
  125OSM    C2F13282   3.969   6.740   2.450  0.0127  0.3268 -0.3568
  125OSM    H2F13283   3.898   6.726   2.365 -0.3545  1.0358 -0.1727
  125OSM    H2G13284   3.930   6.835   2.493  0.5704  0.7423 -0.7586
  125OSM    C3F13285   3.940   6.635   2.555  0.6831 -0.2094 -0.1598
  125OSM    H3F13286   3.970   6.535   2.518 -1.6260 -0.1023 -2.6693
  125OSM    H3G13287   3.829   6.632   2.553  0.5644  1.7921  0.6111
  125OSM    C4F13288   4.016   6.661   2.682  0.1947 -0.2765 -0.4513
  125OSM    H4F13289   3.992   6.763   2.719  1.0991 -0.4941  0.8120
  125OSM    H4G13290   4.125   6.664   2.661  0.1407  0.1803 -0.6831
  125OSM    C5F13291   3.987   6.560   2.790  0.3404  0.8696 -0.3522
  125OSM    H5F13292   4.018   6.459   2.755 -0.2289 -0.3794  2.4505
  125OSM    H5G13293   3.878   6.561   2.813  0.8156 -0.3650  2.2423
  125OSM    C6F13294   4.052   6.583   2.920 -0.4977 -0.8676  0.2190
  125OSM    H6F13295   4.011   6.672   2.972 -0.6957 -0.0461 -1.2791
  125OSM    H6G13296   4.160   6.608   2.911 -1.2453  2.0565 -2.1489
  125OSM    C7F13297   4.027   6.462   3.013  0.5043  1.3441  0.4744
  125OSM    H7F13298   4.059   6.366   2.968  0.5512  1.6989 -0.2639
  125OSM    H7G13299   3.920   6.445   3.035  0.3550  0.8236 -0.6313
  125OSM    C8F13300   4.105   6.467   3.146  0.3444 -0.6021  0.2689
  125OSM    H8F13301   4.073   6.565   3.187 -0.3472 -0.6999 -0.0297
  125OSM    H8G13302   4.213   6.464   3.122 -0.1218 -0.0084 -2.2254
  125OSM    C9F13303   4.047   6.353   3.230  0.3138  0.0911  1.1330
  125OSM    H9F13304   3.995   6.276   3.171  0.0230  0.1135  1.3580
  125OSM   C10F13305   4.056   6.350   3.363  0.4913 -0.6317  0.2151
  125OSM   H10F13306   4.021   6.263   3.421  0.9678  0.5414  2.3687
  125OSM   C11F13307   4.128   6.459   3.443 -0.3590  0.1809 -0.4562
  125OSM   H11F13308   4.055   6.523   3.496 -0.1048 -0.2744  0.4646
  125OSM   H11G13309   4.193   6.515   3.373 -0.9673 -0.0459 -1.2183
  125OSM   C12F13310   4.220   6.391   3.557  0.3760  0.4168  0.0346
  125OSM   H12F13311   4.290   6.465   3.602  0.5976  0.8087 -0.9182
  125OSM   H12G13312   4.279   6.319   3.496 -0.4933 -1.6969  1.5752
  125OSM   C13F13313   4.138   6.325   3.666  0.5202 -0.6448 -0.4297
  125OSM   H13F13314   4.209   6.265   3.727  0.6909  0.8737  0.9128
  125OSM   H13G13315   4.058   6.256   3.630 -1.7704  2.1402 -1.0167
  125OSM   C14F13316   4.069   6.420   3.761 -0.4835  0.4351  0.1405
  125OSM   H14F13317   4.008   6.360   3.831  1.0263 -0.5651  0.6614
  125OSM   H14G13318   4.010   6.501   3.713 -0.5116 -0.0206 -0.6043
  125OSM   C15F13319   4.165   6.497   3.857 -0.7593 -0.0196 -0.1229
  125OSM   H15F13320   4.196   6.597   3.818 -1.8178  0.5372  0.4391
  125OSM   H15G13321   4.263   6.444   3.860 -1.5997 -1.5862  1.2798
  125OSM   C16F13322   4.109   6.518   3.993 -0.0654  0.8768  0.0966
  125OSM   H16F13323   4.090   6.425   4.051  0.5383  1.1025  0.6692
  125OSM   H16G13324   4.008   6.558   3.975 -0.8247  0.8784  3.5757
  125OSM   C17F13325   4.183   6.619   4.067 -0.0728  0.2625 -0.4535
  125OSM   H17F13326   4.195   6.708   4.001 -4.7862  1.7909  0.3553
  125OSM   H17G13327   4.291   6.595   4.082  0.4044  0.2445 -3.3510
  125OSM   C18F13328   4.138   6.660   4.209  0.3012 -0.1691  0.1448
  125OSM   H18F13329   4.191   6.751   4.244 -1.3735  0.8421  0.1518
  125OSM   H18G13330   4.161   6.582   4.285  0.6377 -1.0178 -0.8036
  125OSM   H18H13331   4.027   6.668   4.220  0.2202 -0.2735 -0.5571
  126OSM      N13332   2.620   1.035   1.998  0.1254 -0.2095 -0.1680
  126OSM    C1513333   2.582   1.168   1.938 -0.4593 -0.2160  0.2342
  126OSM   H15A13334   2.640   1.249   1.978 -0.7913  0.8955 -1.4195
  126OSM   H15B13335   2.476   1.189   1.939 -0.5191 -0.3863 -0.8160
  126OSM   H15C13336   2.603   1.170   1.832  0.2876 -1.1280  0.3497
  126OSM    C1413337   2.567   1.025   2.138 -0.3796  0.1349 -0.2087
  126OSM   H14A13338   2.625   1.092   2.200 -1.1765 -0.9358  1.7921
  126OSM   H14B13339   2.573   0.927   2.184 -0.4710 -0.8022 -2.0628
  126OSM   H14C13340   2.466   1.063   2.139 -0.0778  0.9757  0.9850
  126OSM    C1313341   2.555   0.930   1.912 -0.6103  0.1639 -0.2559
  126OSM   H13A13342   2.592   0.937   1.811  0.8049  1.4826  0.3030
  126OSM   H13B13343   2.447   0.936   1.916 -0.6955 -1.6197  2.1916
  126OSM   H13C13344   2.586   0.834   1.949 -0.0606  0.1137 -0.8384
  126OSM    C1213345   2.767   1.017   2.000 -0.7922  0.6796  0.3078
  126OSM   H12A13346   2.805   1.051   1.905  0.0602 -1.1080 -0.0350
  126OSM   H12B13347   2.791   0.912   2.003  0.3118  0.9151  0.0538
  126OSM    C1113348   2.855   1.081   2.123 -0.0176 -0.2752 -0.4093
  126OSM   H11A13349   2.815   1.185   2.126 -0.5597 -0.4442 -1.3884
  126OSM   H11B13350   2.964   1.086   2.104 -0.4753  0.2894 -3.2234
  126OSM      P13351   2.859   0.864   2.258 -0.2573  0.4132  0.3497
  126OSM    O1313352   2.728   0.796   2.259 -0.2748  0.2355 -0.0073
  126OSM    O1413353   2.956   0.825   2.155 -0.0096  0.5771  0.0024
  126OSM    O1113354   2.924   0.836   2.399  0.5441 -0.4032 -1.1051
  126OSM    O1213355   2.834   1.023   2.254  0.0331 -0.8077  0.2145
  126OSM    C1S13356   3.046   0.910   2.437  0.9256  1.0084 -0.6739
  126OSM    H1S13357   3.045   1.021   2.423 -1.1060  1.0603 -0.4794
  126OSM    H1T13358   3.134   0.881   2.377  2.3222  0.0289  1.7084
  126OSM     NF13359   3.190   0.979   2.623 -0.4498 -0.7722 -0.2287
  126OSM    HNF13360   3.276   0.936   2.649 -0.0177  0.9048  1.2640
  126OSM    C2S13361   3.085   0.891   2.592 -0.0088 -0.2154 -0.7069
  126OSM    H2S13362   2.995   0.904   2.656 -1.1569 -0.1061 -2.2993
  126OSM    C3S13363   3.122   0.740   2.612  0.0716  0.8206  0.2472
  126OSM    H3S13364   3.219   0.732   2.559 -0.2403 -2.1539 -0.0542
  126OSM     O313365   3.026   0.641   2.573 -0.0388  0.4763 -0.2291
  126OSM    HO313366   2.972   0.693   2.512 -0.4734 -0.2956 -0.5171
  126OSM    C4S13367   3.165   0.719   2.758  0.5579  0.7930  0.1113
  126OSM    H4S13368   3.272   0.702   2.774  0.9528  3.1290  0.2814
  126OSM    C5S13369   3.080   0.698   2.861 -0.5173  0.7238  0.1849
  126OSM    H5S13370   2.972   0.693   2.844 -0.3167  0.3626 -1.0360
  126OSM    C6S13371   3.121   0.658   2.995  0.1288 -0.2964  0.1118
  126OSM    H6S13372   3.143   0.549   3.006  0.4472 -0.0099  2.9057
  126OSM    H6T13373   3.033   0.674   3.060  1.1861 -2.5870  2.2653
  126OSM    C7S13374   3.247   0.725   3.052 -0.0083  0.0243 -0.2737
  126OSM    H7S13375   3.241   0.833   3.027  0.4411  0.3831  1.1196
  126OSM    H7T13376   3.340   0.675   3.017  0.8383  0.1438  1.6959
  126OSM    C8S13377   3.243   0.710   3.199 -0.3686 -0.0073 -0.0612
  126OSM    H8S13378   3.144   0.744   3.237  0.1332  1.3983  0.0495
  126OSM    H8T13379   3.311   0.783   3.247  0.5018  0.0954 -1.3856
  126OSM    C9S13380   3.263   0.573   3.259  0.0113  0.4087  0.3956
  126OSM    H9S13381   3.357   0.529   3.221 -0.7954 -1.4346  0.3975
  126OSM    H9T13382   3.180   0.511   3.219 -0.1097  0.9951 -0.2650
  126OSM   C10S13383   3.238   0.582   3.413 -0.7838 -0.4391  0.7397
  126OSM   H10S13384   3.133   0.603   3.443 -0.7743 -1.5636  1.5999
  126OSM   H10T13385   3.315   0.656   3.443  0.3479 -0.9293 -0.8727
  126OSM   C11S13386   3.280   0.450   3.479 -0.8787 -0.0564  0.7893
  126OSM   H11S13387   3.387   0.422   3.480 -1.5200 -2.8897  0.8971
  126OSM   H11T13388   3.247   0.365   3.415  1.7107 -1.6173  1.3840
  126OSM   C12S13389   3.249   0.432   3.627  0.0422 -0.7649  0.3735
  126OSM   H12S13390   3.210   0.330   3.644 -0.0406 -0.1793  4.5317
  126OSM   H12T13391   3.174   0.511   3.649 -0.8352 -0.2771 -3.5389
  126OSM   C13S13392   3.379   0.453   3.713  0.0237  0.3568 -0.1316
  126OSM   H13S13393   3.428   0.549   3.683  0.1323 -0.4252 -2.7206
  126OSM   H13T13394   3.441   0.364   3.688 -0.8908 -0.3686  0.1383
  126OSM   C14S13395   3.331   0.441   3.861 -0.7967 -0.6866  0.3181
  126OSM   H14S13396   3.270   0.348   3.871 -0.9780 -0.5772  0.2396
  126OSM   H14T13397   3.262   0.527   3.875  0.8439  0.2912  3.5175
  126OSM   C15S13398   3.441   0.438   3.959  0.1572 -0.2119 -0.8474
  126OSM   H15S13399   3.502   0.531   3.963 -0.1879  0.0534 -1.5591
  126OSM   H15T13400   3.517   0.360   3.937  1.4785  0.8702 -0.2921
  126OSM   C16S13401   3.401   0.407   4.104 -0.7834  0.2791 -0.4665
  126OSM   H16S13402   3.496   0.390   4.159  0.0519 -0.2388 -1.9960
  126OSM   H16T13403   3.338   0.315   4.100  0.7606 -0.9236  1.4435
  126OSM   C17S13404   3.326   0.511   4.177 -0.0382  0.5681  0.0340
  126OSM   H17S13405   3.302   0.468   4.277 -0.8070 -1.1536 -0.8551
  126OSM   H17T13406   3.226   0.530   4.133 -0.6112  1.3739  1.5739
  126OSM   C18S13407   3.409   0.634   4.200  0.5593 -0.7940  0.1350
  126OSM   H18S13408   3.495   0.595   4.259  0.0018 -1.4944  0.4915
  126OSM   H18T13409   3.359   0.712   4.261  1.4519  0.5978 -0.8436
  126OSM   H18U13410   3.443   0.688   4.109 -0.4281 -0.7882 -0.2418
  126OSM    C1F13411   3.171   1.108   2.645 -0.2420 -0.0044 -0.3971
  126OSM     OF13412   3.059   1.149   2.612 -0.0015 -0.4364 -0.5508
  126OSM    C2F13413   3.280   1.188   2.714 -0.3832  0.1520  0.5192
  126OSM    H2F13414   3.311   1.271   2.647 -0.7099  0.3550  0.6182
  126OSM    H2G13415   3.368   1.123   2.733  0.2442  1.0726  0.8542
  126OSM    C3F13416   3.231   1.242   2.852  0.0305  0.3326  0.5138
  126OSM    H3F13417   3.135   1.299   2.851  1.8002  3.5712 -1.3912
  126OSM    H3G13418   3.308   1.316   2.884  0.4707  0.2475 -0.3019
  126OSM    C4F13419   3.230   1.137   2.964 -1.0513  0.1635  0.0851
  126OSM    H4F13420   3.331   1.123   3.009 -1.6956  1.0052  1.8864
  126OSM    H4G13421   3.192   1.041   2.923 -1.1589 -0.1041  0.8072
  126OSM    C5F13422   3.140   1.184   3.081 -0.1549 -0.5949  0.6904
  126OSM    H5F13423   3.037   1.154   3.051 -0.3829  2.0054 -1.4638
  126OSM    H5G13424   3.139   1.295   3.081 -1.6200 -0.5489 -1.4111
  126OSM    C6F13425   3.181   1.116   3.212 -0.3498 -0.8774 -0.2950
  126OSM    H6F13426   3.279   1.161   3.237 -0.4331 -0.3951 -0.8072
  126OSM    H6G13427   3.184   1.007   3.196 -0.5388 -1.0417  0.7423
  126OSM    C7F13428   3.091   1.153   3.338  0.6125  0.1275  0.1731
  126OSM    H7F13429   2.990   1.174   3.298  0.3198 -1.3365  0.0580
  126OSM    H7G13430   3.120   1.254   3.374  0.7969  0.2698 -0.3659
  126OSM    C8F13431   3.074   1.043   3.444 -0.3931 -0.1852 -0.0911
  126OSM    H8F13432   3.007   0.961   3.411 -2.0068 -0.6307  3.7237
  126OSM    H8G13433   3.018   1.094   3.525  0.8893  0.8142  0.2014
  126OSM    C9F13434   3.203   0.982   3.488  0.0392  0.4348  0.2520
  126OSM    H9F13435   3.267   0.954   3.403  0.1752  1.8377 -0.1308
  126OSM   C10F13436   3.251   0.967   3.614  0.0124  0.4891 -0.4555
  126OSM   H10F13437   3.354   0.932   3.629  0.7253  1.8836 -1.8373
  126OSM   C11F13438   3.193   1.015   3.744  0.6656  0.1581  0.3465
  126OSM   H11F13439   3.134   1.109   3.738 -1.1952 -0.9756 -0.1064
  126OSM   H11G13440   3.272   1.017   3.822  0.0286  0.0233  1.0108
  126OSM   C12F13441   3.087   0.924   3.801  0.4516  0.3449  0.1317
  126OSM   H12F13442   2.989   0.927   3.748 -0.4377  3.1238  1.7421
  126OSM   H12G13443   3.060   0.961   3.902  0.3473  0.1488  0.1771
  126OSM   C13F13444   3.102   0.769   3.820  0.1098  0.0133  0.2159
  126OSM   H13F13445   3.187   0.753   3.889 -0.3849  0.9891  1.0794
  126OSM   H13G13446   3.123   0.726   3.719 -2.1456 -0.7984  0.0520
  126OSM   C14F13447   2.981   0.685   3.865 -0.3648  0.0115  0.4735
  126OSM   H14F13448   3.023   0.584   3.885 -0.0825  0.3446  1.6667
  126OSM   H14G13449   2.912   0.688   3.778 -0.6639 -0.6628  0.6770
  126OSM   C15F13450   2.919   0.734   3.999 -0.0973 -0.4227 -0.2531
  126OSM   H15F13451   2.823   0.680   4.019  0.8618 -1.2119  2.6668
  126OSM   H15G13452   2.878   0.837   3.988 -1.9284 -1.1022 -0.2236
  126OSM   C16F13453   3.016   0.702   4.122 -0.6407  0.2319  0.3906
  126OSM   H16F13454   3.107   0.764   4.108  0.2132 -0.9706  0.4809
  126OSM   H16G13455   3.033   0.592   4.116  0.6908  0.4242  0.3400
  126OSM   C17F13456   2.962   0.738   4.259  0.1531  0.8585  0.2015
  126OSM   H17F13457   2.859   0.696   4.269  0.7986 -1.0466 -0.5466
  126OSM   H17G13458   2.961   0.848   4.264  3.6546  1.0044  0.1214
  126OSM   C18F13459   3.054   0.689   4.374 -0.6162 -0.3125  0.3422
  126OSM   H18F13460   3.015   0.726   4.471 -1.7401  0.2074 -0.2894
  126OSM   H18G13461   3.161   0.717   4.361 -0.8642  0.1871 -0.6808
  126OSM   H18H13462   3.054   0.578   4.372 -4.1741 -0.4344  0.9493
  127OSM      N13463   2.056   3.243   1.961 -0.5487 -0.5943 -0.3192
  127OSM    C1513464   2.083   3.384   1.920 -0.1035 -0.1502  0.0300
  127OSM   H15A13465   2.047   3.455   1.993 -0.6106  0.3761 -0.7250
  127OSM   H15B13466   2.039   3.416   1.827 -2.6657 -3.4493 -0.0766
  127OSM   H15C13467   2.191   3.384   1.918 -0.0859 -1.6082  0.2087
  127OSM    C1413468   1.909   3.232   1.998  0.2876  0.0700 -0.0356
  127OSM   H14A13469   1.879   3.129   1.982 -0.4775  0.3938 -0.7073
  127OSM   H14B13470   1.845   3.298   1.942 -1.3052  0.6478  2.3148
  127OSM   H14C13471   1.896   3.257   2.102 -0.3910 -0.5752  0.0409
  127OSM    C1313472   2.093   3.136   1.858  0.3401 -0.2247 -0.2425
  127OSM   H13A13473   2.017   3.128   1.781  0.8216 -1.5144 -0.6006
  127OSM   H13B13474   2.096   3.040   1.907 -2.2494 -0.6966 -0.8290
  127OSM   H13C13475   2.174   3.167   1.794  0.0475  0.6913 -0.1826
  127OSM    C1213476   2.128   3.225   2.096  1.2289 -0.0858  0.8317
  127OSM   H12A13477   2.119   3.313   2.158  0.6610  0.5030 -0.0733
  127OSM   H12B13478   2.232   3.221   2.067  0.9492 -0.3113 -0.1586
  127OSM    C1113479   2.092   3.096   2.170 -0.0851 -0.2266  0.2583
  127OSM   H11A13480   1.984   3.081   2.189 -0.5063  2.6258  0.5304
  127OSM   H11B13481   2.125   3.108   2.275  0.0251  3.0521 -0.0518
  127OSM      P13482   2.310   2.954   2.146 -0.2701  0.3443  0.0816
  127OSM    O1313483   2.337   2.813   2.099  0.0822 -0.3236  0.0334
  127OSM    O1413484   2.404   3.063   2.128 -0.0588  0.0815 -0.3534
  127OSM    O1113485   2.296   2.944   2.300 -0.0807  0.5519 -0.0277
  127OSM    O1213486   2.161   2.994   2.092 -0.5234 -0.3764  0.6520
  127OSM    C1S13487   2.230   2.830   2.363  0.3998  0.4557  0.5814
  127OSM    H1S13488   2.287   2.739   2.332  0.6880  1.8041 -3.4342
  127OSM    H1T13489   2.125   2.823   2.326 -0.6117  2.1975  2.8963
  127OSM     NF13490   2.109   2.764   2.566  0.7304  0.5031 -0.0217
  127OSM    HNF13491   2.021   2.810   2.573  1.6869  2.4903 -0.4416
  127OSM    C2S13492   2.212   2.853   2.519 -0.5351  0.1504  0.5684
  127OSM    H2S13493   2.307   2.826   2.570 -0.8653  0.4322  1.3662
  127OSM    C3S13494   2.182   3.000   2.556  0.3906  0.0709 -1.2835
  127OSM    H3S13495   2.093   3.038   2.501 -1.0426  0.0403  0.8694
  127OSM     O313496   2.287   3.096   2.525 -0.3867  0.3361  0.0448
  127OSM    HO313497   2.349   3.046   2.470  0.0578  0.1424  0.7138
  127OSM    C4S13498   2.142   3.011   2.707  0.2843 -0.5776 -0.1997
  127OSM    H4S13499   2.035   2.990   2.721  0.5854 -1.2880  1.2473
  127OSM    C5S13500   2.228   3.032   2.811 -0.5558  0.6865 -0.0903
  127OSM    H5S13501   2.336   3.031   2.786  0.2390  2.8934  2.7309
  127OSM    C6S13502   2.197   3.024   2.958  0.6254  0.3555  0.1942
  127OSM    H6S13503   2.174   3.128   2.986 -0.5613  1.1195 -3.1220
  127OSM    H6T13504   2.285   2.985   3.013 -0.1263 -2.0951 -0.1863
  127OSM    C7S13505   2.081   2.931   2.990 -0.5492 -0.1726 -0.4056
  127OSM    H7S13506   2.096   2.826   2.957 -3.1331 -1.1544  1.2613
  127OSM    H7T13507   1.991   2.958   2.930  0.1988 -1.2931 -2.1147
  127OSM    C8S13508   2.038   2.937   3.143  0.3871  0.2145 -0.3463
  127OSM    H8S13509   1.993   3.037   3.158 -1.3139 -0.6087  0.2988
  127OSM    H8T13510   2.133   2.927   3.200  0.9175  1.6282 -0.9275
  127OSM    C9S13511   1.946   2.818   3.181 -0.2064  0.4209  1.0054
  127OSM    H9S13512   2.010   2.728   3.179 -0.7240  0.0716 -0.2101
  127OSM    H9T13513   1.867   2.815   3.103 -0.1869  2.0975  0.8898
  127OSM   C10S13514   1.894   2.841   3.327  0.2217  0.2310  0.2055
  127OSM   H10S13515   1.830   2.751   3.344 -0.6132  0.5825 -0.9255
  127OSM   H10T13516   1.833   2.933   3.315 -0.2801 -0.1545 -0.2220
  127OSM   C11S13517   2.006   2.882   3.429 -0.6031  0.3649  0.1285
  127OSM   H11S13518   1.999   2.990   3.456  1.9047  0.5816  0.1444
  127OSM   H11T13519   2.105   2.857   3.387 -0.6757  1.0253 -0.4441
  127OSM   C12S13520   1.971   2.821   3.573  0.2156 -0.9010  0.0787
  127OSM   H12S13521   1.988   2.712   3.567 -1.6293 -1.1806 -0.6074
  127OSM   H12T13522   1.863   2.827   3.597  0.0477 -1.3458 -0.5605
  127OSM   C13S13523   2.064   2.875   3.675  0.4704 -0.5561  0.1373
  127OSM   H13S13524   2.060   2.986   3.680  1.2947 -0.3330 -2.4933
  127OSM   H13T13525   2.169   2.869   3.638  0.5029 -1.8157  0.3761
  127OSM   C14S13526   2.048   2.803   3.811  0.8075  0.1715  0.1149
  127OSM   H14S13527   2.084   2.699   3.796 -1.5198 -0.3764 -2.4214
  127OSM   H14T13528   1.939   2.792   3.832  0.1796  1.6066 -2.0768
  127OSM   C15S13529   2.125   2.860   3.927 -0.8812 -0.5736  0.2060
  127OSM   H15S13530   2.095   2.964   3.950  0.3375 -0.1791  0.0751
  127OSM   H15T13531   2.230   2.862   3.888 -1.2391 -2.3522 -0.9582
  127OSM   C16S13532   2.128   2.784   4.061  0.1987 -0.3298  0.3907
  127OSM   H16S13533   2.203   2.706   4.036  1.2209  0.5038  0.8061
  127OSM   H16T13534   2.027   2.742   4.082 -1.2588  2.6542 -0.2214
  127OSM   C17S13535   2.169   2.870   4.189  0.3354  0.3058 -0.1428
  127OSM   H17S13536   2.157   2.800   4.275  2.5657 -1.4790 -1.1588
  127OSM   H17T13537   2.102   2.958   4.194  1.2169  0.9565  0.6969
  127OSM   C18S13538   2.313   2.920   4.205  0.1377  0.4450 -0.2502
  127OSM   H18S13539   2.335   3.001   4.132  0.7997  1.7301  1.3104
  127OSM   H18T13540   2.385   2.835   4.200 -0.4316 -0.0070 -0.8869
  127OSM   H18U13541   2.327   2.968   4.304 -2.6656  2.0763 -0.5597
  127OSM    C1F13542   2.122   2.629   2.564  0.9817  0.2263 -0.3510
  127OSM     OF13543   2.223   2.572   2.540  0.1668  0.5586 -0.0489
  127OSM    C2F13544   1.996   2.550   2.581  0.3070 -0.4648 -0.5021
  127OSM    H2F13545   1.987   2.482   2.494 -0.3021 -0.0827 -0.7411
  127OSM    H2G13546   1.916   2.626   2.585 -0.1824 -0.9996  1.9967
  127OSM    C3F13547   2.005   2.482   2.719  0.7527 -0.3044 -0.4174
  127OSM    H3F13548   2.102   2.431   2.741 -0.4724 -2.2815  0.6778
  127OSM    H3G13549   1.935   2.397   2.715  0.7896 -0.3298 -0.5223
  127OSM    C4F13550   1.969   2.576   2.838 -0.0289 -0.7921 -0.1298
  127OSM    H4F13551   1.876   2.633   2.814  0.6703  0.8023  0.7438
  127OSM    H4G13552   2.047   2.655   2.845 -1.9372  1.1742  0.2820
  127OSM    C5F13553   1.962   2.495   2.968  0.6243 -0.2722 -0.5936
  127OSM    H5F13554   1.991   2.572   3.043  0.5580 -0.9874  0.1757
  127OSM    H5G13555   2.033   2.410   2.961  3.1811  1.7172 -0.2398
  127OSM    C6F13556   1.826   2.442   2.994  0.7007 -0.3425 -0.4403
  127OSM    H6F13557   1.806   2.376   2.907  3.3360 -0.6051 -0.9524
  127OSM    H6G13558   1.762   2.531   3.002  2.7506  1.3531 -1.8277
  127OSM    C7F13559   1.810   2.355   3.123 -0.6994 -0.4312 -0.2296
  127OSM    H7F13560   1.860   2.258   3.105 -1.1086 -1.0774  1.8395
  127OSM    H7G13561   1.704   2.327   3.138 -0.7105  0.2978  1.2508
  127OSM    C8F13562   1.862   2.429   3.245  0.7112  0.5225  0.1258
  127OSM    H8F13563   1.792   2.424   3.331  1.1957 -2.3806  0.4426
  127OSM    H8G13564   1.872   2.538   3.228  0.6471  0.7395  1.4123
  127OSM    C9F13565   1.997   2.397   3.294  0.4833 -0.3121  0.3681
  127OSM    H9F13566   2.076   2.396   3.217  0.0662 -3.6491 -0.1689
  127OSM   C10F13567   2.041   2.367   3.416  0.1933  0.0841 -0.0323
  127OSM   H10F13568   2.149   2.355   3.430  0.4376 -0.0207 -1.7828
  127OSM   C11F13569   1.963   2.351   3.547 -0.1949 -0.0471  0.8544
  127OSM   H11F13570   1.860   2.328   3.512  0.7183 -1.5388 -1.0717
  127OSM   H11G13571   1.959   2.449   3.600 -0.0923 -0.6044  1.9149
  127OSM   C12F13572   1.998   2.231   3.643 -0.3853 -1.0031  0.3219
  127OSM   H12F13573   1.976   2.129   3.606 -4.0706 -0.5346  0.8541
  127OSM   H12G13574   1.937   2.256   3.732 -0.3164  0.1743  0.0621
  127OSM   C13F13575   2.141   2.224   3.696 -0.1692 -0.0813 -0.2605
  127OSM   H13F13576   2.191   2.322   3.714  0.3163 -0.0170 -1.8362
  127OSM   H13G13577   2.191   2.174   3.611  0.5416  2.3721 -1.3698
  127OSM   C14F13578   2.144   2.143   3.827 -0.4344  0.2381  0.0555
  127OSM   H14F13579   2.255   2.139   3.837 -0.2040  0.9831 -1.8579
  127OSM   H14G13580   2.112   2.037   3.822  0.9576 -0.2169  0.1142
  127OSM   C15F13581   2.077   2.211   3.949  0.2566  0.1410 -0.4368
  127OSM   H15F13582   1.966   2.199   3.951  0.2601 -0.4735 -2.2105
  127OSM   H15G13583   2.065   2.319   3.924 -0.4128  0.4509  1.0753
  127OSM   C16F13584   2.145   2.195   4.094  0.0310  0.5826  0.0183
  127OSM   H16F13585   2.253   2.179   4.073  0.0705 -1.8054  1.6584
  127OSM   H16G13586   2.103   2.108   4.149 -2.3002  0.0832 -2.3292
  127OSM   C17F13587   2.120   2.316   4.195 -0.2358 -0.5154  0.3680
  127OSM   H17F13588   2.009   2.321   4.192 -0.2775 -1.4362 -2.0904
  127OSM   H17G13589   2.156   2.405   4.140 -0.4298 -0.8166 -0.2591
  127OSM   C18F13590   2.184   2.318   4.339  0.9183 -0.4417  0.7771
  127OSM   H18F13591   2.290   2.285   4.334  1.3506  1.0133 -2.2597
  127OSM   H18G13592   2.119   2.243   4.389 -2.3921  1.1289 -0.8705
  127OSM   H18H13593   2.172   2.405   4.407  0.5595 -2.1166  2.9610
  128OSM      N13594   2.279   0.440   2.151  0.2633  0.0579  0.2336
  128OSM    C1513595   2.396   0.357   2.143  0.6821 -0.5899 -0.1215
  128OSM   H15A13596   2.445   0.374   2.048  0.0959 -3.3575 -1.0299
  128OSM   H15B13597   2.361   0.254   2.146 -0.8815 -0.0699  0.4741
  128OSM   H15C13598   2.466   0.383   2.220  1.6218  2.5285 -1.8893
  128OSM    C1413599   2.178   0.394   2.048 -0.0574  0.1666  0.6279
  128OSM   H14A13600   2.215   0.428   1.952 -1.2589 -1.0120 -0.2750
  128OSM   H14B13601   2.089   0.453   2.062 -0.1317  0.3609 -0.5747
  128OSM   H14C13602   2.163   0.288   2.044 -0.2181  0.2026  0.3210
  128OSM    C1313603   2.221   0.431   2.285 -0.1625 -0.1515  0.0725
  128OSM   H13A13604   2.300   0.438   2.358  1.0273 -2.5162 -0.8688
  128OSM   H13B13605   2.166   0.338   2.293 -1.7777  0.9470  2.7702
  128OSM   H13C13606   2.144   0.503   2.307  0.6676  0.3657  1.4398
  128OSM    C1213607   2.315   0.587   2.141  0.1685 -0.1468  0.0027
  128OSM   H12A13608   2.396   0.613   2.208  0.2162  2.5958 -0.9789
  128OSM   H12B13609   2.225   0.641   2.167 -1.7396 -2.3458 -1.6666
  128OSM    C1113610   2.360   0.651   2.003 -0.4158 -0.0062 -0.1008
  128OSM   H11A13611   2.452   0.595   1.975 -0.1365 -0.5000  1.6764
  128OSM   H11B13612   2.392   0.755   2.025  3.3046 -0.8916 -0.7285
  128OSM      P13613   2.184   0.761   1.834 -0.4814 -0.0934  0.3031
  128OSM    O1313614   2.286   0.859   1.781  0.3730 -0.3038  0.1798
  128OSM    O1413615   2.092   0.710   1.729 -0.4808  0.3471  0.2403
  128OSM    O1113616   2.104   0.833   1.942 -0.1771  0.8069 -0.0664
  128OSM    O1213617   2.257   0.634   1.903 -0.1661  0.0328  0.1380
  128OSM    C1S13618   2.024   0.759   2.030  0.8465  0.9255 -0.0277
  128OSM    H1S13619   2.087   0.693   2.094 -0.2300  0.9849  1.1227
  128OSM    H1T13620   1.934   0.712   1.986  0.5798  0.3663  1.0886
  128OSM     NF13621   1.935   0.787   2.260 -0.1056  0.0351 -0.1867
  128OSM    HNF13622   1.836   0.781   2.270 -0.0648  1.6701  1.7304
  128OSM    C2S13623   1.979   0.861   2.142  0.7027  0.6173  0.5984
  128OSM    H2S13624   2.063   0.927   2.169 -0.1577  1.3852  1.4751
  128OSM    C3S13625   1.865   0.946   2.075 -0.1702  0.1717  0.1717
  128OSM    H3S13626   1.778   0.877   2.062 -0.3643  0.3141  0.6925
  128OSM     O313627   1.899   1.000   1.946 -0.0387 -0.2192  0.5077
  128OSM    HO313628   1.976   0.946   1.925  2.3287  1.7695  3.2393
  128OSM    C4S13629   1.828   1.060   2.161  0.1062 -0.0961 -0.9340
  128OSM    H4S13630   1.733   1.045   2.214 -0.2052  1.8148 -0.8643
  128OSM    C5S13631   1.871   1.186   2.179 -0.7043  0.2207  0.0210
  128OSM    H5S13632   1.953   1.222   2.114 -0.1226  1.7135  1.5231
  128OSM    C6S13633   1.811   1.283   2.274 -0.0239 -0.1754  0.0414
  128OSM    H6S13634   1.759   1.361   2.214  1.1159  1.3305  0.9582
  128OSM    H6T13635   1.891   1.339   2.325 -0.0195 -0.2937  0.1654
  128OSM    C7S13636   1.709   1.227   2.371 -0.5192 -0.0046  0.0246
  128OSM    H7S13637   1.625   1.175   2.319 -1.5295  2.5391 -1.0678
  128OSM    H7T13638   1.647   1.307   2.417 -1.0377 -1.3529  1.7682
  128OSM    C8S13639   1.756   1.138   2.495 -0.4391  0.1525 -0.0037
  128OSM    H8S13640   1.860   1.158   2.528 -0.8449  2.8405 -0.1373
  128OSM    H8T13641   1.777   1.033   2.464 -0.8443  0.3056 -0.8294
  128OSM    C9S13642   1.665   1.147   2.615  0.1692  0.4547 -0.7922
  128OSM    H9S13643   1.569   1.101   2.582  0.8446  0.1982 -2.5325
  128OSM    H9T13644   1.629   1.248   2.644  0.8799  1.3057 -2.7212
  128OSM   C10S13645   1.713   1.067   2.738  0.1447 -0.9485 -0.8287
  128OSM   H10S13646   1.811   1.114   2.763 -0.6495 -0.2181  1.0750
  128OSM   H10T13647   1.726   0.959   2.715 -0.4110 -0.7620 -2.1258
  128OSM   C11S13648   1.611   1.079   2.859  0.7450 -0.1193 -0.0432
  128OSM   H11S13649   1.519   1.024   2.835 -0.0150  0.6006  1.1014
  128OSM   H11T13650   1.580   1.184   2.879  1.1405 -0.0859  0.4233
  128OSM   C12S13651   1.666   1.030   2.992  0.2558  0.1675 -0.1142
  128OSM   H12S13652   1.700   0.925   2.982 -2.1892 -0.6313 -0.8003
  128OSM   H12T13653   1.582   1.035   3.064  2.5303  2.7100  2.5914
  128OSM   C13S13654   1.783   1.113   3.043  0.8023 -0.4553  0.3473
  128OSM   H13S13655   1.766   1.222   3.034 -1.6358 -0.8446 -0.5665
  128OSM   H13T13656   1.872   1.088   2.981 -0.7168 -0.6181 -1.8938
  128OSM   C14S13657   1.823   1.082   3.189  0.7148 -0.0076  0.4770
  128OSM   H14S13658   1.835   0.972   3.200 -2.2729 -0.1997  3.6275
  128OSM   H14T13659   1.743   1.104   3.263  0.7570 -0.6781  0.7312
  128OSM   C15S13660   1.947   1.160   3.232  0.6254  0.3269  0.3903
  128OSM   H15S13661   1.914   1.258   3.271 -0.2877  0.5681 -0.9194
  128OSM   H15T13662   2.017   1.178   3.148  1.0252 -0.1884  0.6066
  128OSM   C16S13663   2.035   1.093   3.341  0.0982 -0.0828 -0.1039
  128OSM   H16S13664   2.082   1.008   3.288  1.0920  0.3195  0.0975
  128OSM   H16T13665   1.971   1.043   3.417  1.0541 -2.9984 -1.0986
  128OSM   C17S13666   2.143   1.185   3.397 -0.1519 -0.1052  0.6089
  128OSM   H17S13667   2.099   1.279   3.434  0.9360  0.9408 -0.6173
  128OSM   H17T13668   2.210   1.218   3.314  0.4540  0.0892  1.1664
  128OSM   C18S13669   2.230   1.122   3.498  0.1721 -0.7063  0.3065
  128OSM   H18S13670   2.162   1.110   3.585 -1.2936  1.5731 -0.4212
  128OSM   H18T13671   2.299   1.203   3.530  0.4242  0.1196 -2.0816
  128OSM   H18U13672   2.290   1.033   3.471 -0.2805 -0.3807 -1.9606
  128OSM    C1F13673   2.020   0.729   2.345  0.6356  0.0618 -0.0751
  128OSM     OF13674   2.136   0.743   2.330 -0.5708 -0.0054 -0.1284
  128OSM    C2F13675   1.961   0.659   2.461 -0.2283  0.0499  0.0649
  128OSM    H2F13676   1.904   0.569   2.429 -1.2084 -0.0516  1.9205
  128OSM    H2G13677   1.888   0.726   2.512 -1.3874 -0.3500 -1.0205
  128OSM    C3F13678   2.062   0.613   2.564 -0.3973  0.3999  0.4520
  128OSM    H3F13679   2.090   0.698   2.630 -1.7379  1.1734  0.0687
  128OSM    H3G13680   2.157   0.583   2.513  0.2739  2.0151  0.6669
  128OSM    C4F13681   2.018   0.497   2.646 -0.2065  0.2706 -0.3171
  128OSM    H4F13682   1.973   0.412   2.590  0.5357 -1.1755  1.1805
  128OSM    H4G13683   1.940   0.542   2.711  0.2996 -2.2448  2.2423
  128OSM    C5F13684   2.120   0.451   2.751 -0.0630  0.4085 -0.0719
  128OSM    H5F13685   2.161   0.543   2.798 -2.4011  1.1004  0.7654
  128OSM    H5G13686   2.193   0.397   2.686  0.2492  1.7021 -0.8542
  128OSM    C6F13687   2.061   0.363   2.863 -0.1542 -0.0719 -0.1371
  128OSM    H6F13688   2.106   0.262   2.876 -2.6581 -1.4527 -1.5093
  128OSM    H6G13689   1.951   0.356   2.847 -0.2316 -1.1015  0.7601
  128OSM    C7F13690   2.086   0.422   3.008 -0.6767 -0.5693 -0.2287
  128OSM    H7F13691   2.055   0.529   3.008  1.7874  0.2014  0.6124
  128OSM    H7G13692   2.190   0.402   3.040 -0.8728  0.7723  1.3342
  128OSM    C8F13693   2.008   0.347   3.122  0.0896 -0.1497 -0.5023
  128OSM    H8F13694   1.901   0.341   3.094 -0.5877  1.3256  1.5274
  128OSM    H8G13695   2.009   0.408   3.215 -1.6287 -1.9352  0.7614
  128OSM    C9F13696   2.060   0.206   3.125  0.1141 -0.0661 -0.9428
  128OSM    H9F13697   2.090   0.166   3.027  0.6290 -1.4176 -0.2575
  128OSM   C10F13698   2.095   0.131   3.231  0.5735  0.1303  0.6253
  128OSM   H10F13699   2.123   0.025   3.225  1.5554  0.3975  0.3754
  128OSM   C11F13700   2.089   0.172   3.377  0.4415 -0.5029 -0.2332
  128OSM   H11F13701   2.024   0.106   3.438  0.8768 -1.1518 -0.4617
  128OSM   H11G13702   2.058   0.279   3.383 -1.8923 -1.1243 -0.4680
  128OSM   C12F13703   2.229   0.160   3.438 -0.4122  0.2777 -0.0094
  128OSM   H12F13704   2.304   0.233   3.400 -1.8103  1.8818  0.2197
  128OSM   H12G13705   2.272   0.061   3.413 -0.1680  0.6917 -1.3250
  128OSM   C13F13706   2.227   0.164   3.593 -0.1186  0.2273 -0.2507
  128OSM   H13F13707   2.141   0.098   3.618 -0.8303  1.0095 -0.5852
  128OSM   H13G13708   2.208   0.269   3.625  3.0624  0.5241  0.9875
  128OSM   C14F13709   2.347   0.100   3.663  0.1102 -0.2057 -0.1695
  128OSM   H14F13710   2.444   0.150   3.642  0.2698 -0.2594  0.4284
  128OSM   H14G13711   2.369  -0.005   3.636  0.7276 -0.9944  3.0468
  128OSM   C15F13712   2.328   0.079   3.814 -0.1310 -0.1110 -0.1318
  128OSM   H15F13713   2.235   0.018   3.823  0.4600 -1.3849 -2.2097
  128OSM   H15G13714   2.321   0.171   3.877 -2.0427 -0.7258  0.6398
  128OSM   C16F13715   2.441   0.001   3.880  0.0105 -0.3474 -0.4997
  128OSM   H16F13716   2.529   0.069   3.875 -0.3410  0.2905  1.2908
  128OSM   H16G13717   2.474  -0.083   3.814  1.9725  0.3530 -0.4620
  128OSM   C17F13718   2.409  -0.041   4.029 -0.6057  0.0125  0.2399
  128OSM   H17F13719   2.498  -0.095   4.069 -0.8759 -0.6210 -0.0118
  128OSM   H17G13720   2.318  -0.104   4.030  1.4530 -3.2377 -1.2482
  128OSM   C18F13721   2.400   0.085   4.118 -1.1038  0.4971 -0.2782
  128OSM   H18F13722   2.321   0.158   4.092 -0.8743  0.2684 -1.6879
  128OSM   H18G13723   2.496   0.139   4.106  0.3824 -1.7195  0.9422
  128OSM   H18H13724   2.386   0.054   4.224 -0.2979 -1.4890 -0.6943
  129OSM      N13725   4.397   0.446   1.974  0.7194  0.1104 -1.0016
  129OSM    C1513726   4.367   0.586   2.034  0.1692  0.4420 -0.4866
  129OSM   H15A13727   4.261   0.603   2.034  0.0118 -0.2594  1.3679
  129OSM   H15B13728   4.423   0.660   1.978  3.0242 -1.3151 -0.1990
  129OSM   H15C13729   4.407   0.595   2.134 -1.8441  1.8384  0.2461
  129OSM    C1413730   4.342   0.447   1.836  0.4905 -0.2444  0.4384
  129OSM   H14A13731   4.384   0.520   1.768  0.1635 -0.7389 -0.3039
  129OSM   H14B13732   4.239   0.474   1.852  0.5428  0.6246 -0.5680
  129OSM   H14C13733   4.364   0.357   1.781 -0.3250 -0.5339  0.5722
  129OSM    C1313734   4.544   0.409   1.969  0.1473 -0.1124  0.2250
  129OSM   H13A13735   4.590   0.470   1.893  0.5217 -2.8628 -1.8873
  129OSM   H13B13736   4.564   0.306   1.946  2.1147  0.2179  0.2996
  129OSM   H13C13737   4.599   0.434   2.059  2.7224 -2.7139 -0.5101
  129OSM    C1213738   4.322   0.345   2.057 -0.4652  0.1203  0.3853
  129OSM   H12A13739   4.347   0.371   2.159 -0.6740  1.7779  0.0362
  129OSM   H12B13740   4.364   0.248   2.033 -1.1674 -0.7393  2.3717
  129OSM    C1113741   4.171   0.333   2.052  0.6534 -0.3404 -0.7173
  129OSM   H11A13742   4.144   0.247   2.119  0.0679 -1.4194 -2.2821
  129OSM   H11B13743   4.138   0.300   1.952 -1.3596 -0.3391 -0.1000
  129OSM      P13744   3.952   0.457   2.063  0.0308 -0.1654  0.4550
  129OSM    O1313745   3.934   0.535   1.936 -0.0109 -0.2303  0.1857
  129OSM    O1413746   3.899   0.318   2.052 -0.4526 -0.1582  0.5300
  129OSM    O1113747   3.894   0.530   2.184 -0.1992  0.1458 -0.8307
  129OSM    O1213748   4.104   0.456   2.096 -0.1874  0.3475 -0.0944
  129OSM    C1S13749   3.833   0.470   2.301 -0.9386 -0.5069  0.2981
  129OSM    H1S13750   3.817   0.361   2.295  0.2460 -0.6475 -0.9392
  129OSM    H1T13751   3.734   0.520   2.312 -0.1298  1.4196 -0.5535
  129OSM     NF13752   3.889   0.404   2.537  0.0439  0.2382 -0.0963
  129OSM    HNF13753   3.832   0.446   2.607  2.8025 -1.9030  3.8569
  129OSM    C2S13754   3.926   0.492   2.426 -0.1082  0.2446  0.4478
  129OSM    H2S13755   4.031   0.467   2.400 -1.3710 -4.3164 -1.2842
  129OSM    C3S13756   3.923   0.650   2.462  0.6103 -0.4909 -0.1822
  129OSM    H3S13757   3.815   0.672   2.473  0.6000  0.4811 -1.9433
  129OSM     O313758   3.958   0.725   2.345 -0.2449 -1.0643  0.0038
  129OSM    HO313759   3.957   0.658   2.277 -0.2314 -2.2867  1.1665
  129OSM    C4S13760   3.993   0.682   2.589 -0.1212  0.3007  0.0438
  129OSM    H4S13761   3.928   0.738   2.658 -0.6355  0.7453 -0.7806
  129OSM    C5S13762   4.125   0.697   2.604  0.8464 -0.2497 -0.4213
  129OSM    H5S13763   4.175   0.697   2.506 -1.1440  0.0425 -1.4856
  129OSM    C6S13764   4.201   0.755   2.717 -0.5457  0.3006 -0.5247
  129OSM    H6S13765   4.242   0.849   2.674  1.5768 -1.1653 -1.9209
  129OSM    H6T13766   4.287   0.684   2.721  0.3015  1.3056 -0.3859
  129OSM    C7S13767   4.135   0.778   2.849  0.3215  0.5627 -0.0798
  129OSM    H7S13768   4.033   0.820   2.837  1.0451  2.4186 -0.1627
  129OSM    H7T13769   4.180   0.852   2.919  0.7196  0.6821 -0.4663
  129OSM    C8S13770   4.109   0.648   2.931 -0.6526  0.7416  0.1411
  129OSM    H8S13771   4.210   0.603   2.931 -0.7937  0.4092  1.1278
  129OSM    H8T13772   4.040   0.581   2.875  0.6268  1.2815 -2.2351
  129OSM    C9S13773   4.063   0.665   3.073  0.7339 -0.1111 -0.5423
  129OSM    H9S13774   3.960   0.703   3.084 -0.4111 -2.8655 -0.9707
  129OSM    H9T13775   4.124   0.744   3.122 -0.6004  0.8829 -0.4239
  129OSM   C10S13776   4.101   0.543   3.157 -0.2254  0.2737 -0.7261
  129OSM   H10S13777   4.208   0.521   3.140 -0.1526  1.3403 -1.7822
  129OSM   H10T13778   4.051   0.451   3.122 -0.1826  0.9903 -2.8365
  129OSM   C11S13779   4.064   0.567   3.309 -0.0048 -0.1243  0.2280
  129OSM   H11S13780   3.956   0.588   3.322 -0.1968 -2.1564  2.4011
  129OSM   H11T13781   4.122   0.652   3.350 -3.2188  1.3594  2.0380
  129OSM   C12S13782   4.098   0.441   3.390 -0.5447  0.0321 -0.0120
  129OSM   H12S13783   4.191   0.402   3.343 -1.2856  0.9304 -2.3119
  129OSM   H12T13784   4.021   0.361   3.388 -1.6658  1.0800  0.0311
  129OSM   C13S13785   4.125   0.484   3.534 -0.7347 -0.4965  0.0316
  129OSM   H13S13786   4.161   0.589   3.532 -1.5934 -0.1562 -3.2584
  129OSM   H13T13787   4.191   0.402   3.569 -0.4340 -1.1379 -1.9010
  129OSM   C14S13788   4.001   0.461   3.626  0.4351  0.4672 -0.0243
  129OSM   H14S13789   3.971   0.354   3.628 -0.9141  0.7996 -1.0130
  129OSM   H14T13790   3.918   0.507   3.568  0.2854  0.1833 -0.0352
  129OSM   C15S13791   4.024   0.512   3.771  0.3176 -0.1909  0.2810
  129OSM   H15S13792   4.008   0.621   3.759  2.4680 -0.0024 -1.5330
  129OSM   H15T13793   4.120   0.488   3.821  0.1809  0.5025  0.8957
  129OSM   C16S13794   3.922   0.451   3.872  0.3292 -0.1349 -0.4168
  129OSM   H16S13795   3.932   0.340   3.874 -1.8202 -0.3620 -0.0804
  129OSM   H16T13796   3.816   0.476   3.849  0.2576  1.1582  1.1263
  129OSM   C17S13797   3.953   0.506   4.009  0.0473 -0.5540  0.1906
  129OSM   H17S13798   3.951   0.617   3.999  5.8622 -0.1365  0.1314
  129OSM   H17T13799   4.052   0.474   4.047  1.0413  0.6801 -1.2198
  129OSM   C18S13800   3.851   0.448   4.112  0.4630 -0.1786 -0.2949
  129OSM   H18S13801   3.862   0.500   4.210 -2.9396 -0.9051  0.5958
  129OSM   H18T13802   3.883   0.345   4.137  0.4217 -0.7861 -2.5233
  129OSM   H18U13803   3.746   0.460   4.077 -0.3285 -0.6206  1.7691
  129OSM    C1F13804   3.902   0.271   2.540  0.0976  0.9236 -0.1768
  129OSM     OF13805   3.961   0.208   2.449 -0.1654 -0.4480  0.2855
  129OSM    C2F13806   3.849   0.201   2.660 -0.1180  0.5617 -0.3056
  129OSM    H2F13807   3.830   0.274   2.741  1.6266 -1.4118  2.0291
  129OSM    H2G13808   3.929   0.141   2.708 -2.2651 -1.3196  1.1399
  129OSM    C3F13809   3.725   0.114   2.625 -0.3754 -0.3810 -0.0579
  129OSM    H3F13810   3.746   0.013   2.582  0.9178 -0.2184  0.1454
  129OSM    H3G13811   3.656   0.151   2.546 -1.3808 -0.2103  0.8634
  129OSM    C4F13812   3.650   0.082   2.754  0.3575  0.0046  0.8148
  129OSM    H4F13813   3.551   0.033   2.749  0.2814  0.1262  1.1003
  129OSM    H4G13814   3.628   0.182   2.797 -2.3235 -0.4886  0.7716
  129OSM    C5F13815   3.736   0.004   2.856  0.3164  0.4850 -0.0589
  129OSM    H5F13816   3.821   0.069   2.887  0.0520  0.7337  0.1444
  129OSM    H5G13817   3.775  -0.091   2.814 -2.0217  0.6225 -2.8782
  129OSM    C6F13818   3.651  -0.038   2.981  1.0186  0.1234 -0.6956
  129OSM    H6F13819   3.566  -0.095   2.939  1.1160  0.6216 -1.5989
  129OSM    H6G13820   3.618   0.046   3.046 -0.4641 -0.8781 -0.0982
  129OSM    C7F13821   3.741  -0.118   3.074  0.1101 -0.5243  0.1660
  129OSM    H7F13822   3.818  -0.057   3.126  0.1727 -2.1627  2.1057
  129OSM    H7G13823   3.792  -0.200   3.018  2.1565  1.3584 -0.9091
  129OSM    C8F13824   3.673  -0.183   3.193  0.2773 -0.3036 -0.4215
  129OSM    H8F13825   3.592  -0.249   3.153 -1.3275  0.5742  1.2242
  129OSM    H8G13826   3.618  -0.102   3.245  0.0929 -0.9973  0.4782
  129OSM    C9F13827   3.754  -0.278   3.273 -0.3505 -0.2758 -0.0603
  129OSM    H9F13828   3.835  -0.331   3.220 -0.4958 -3.5097  2.6429
  129OSM   C10F13829   3.738  -0.302   3.403  0.1561 -0.9006 -0.0083
  129OSM   H10F13830   3.805  -0.380   3.443  1.4108  1.1389  2.1760
  129OSM   C11F13831   3.647  -0.226   3.507 -0.3103  0.2636 -0.1544
  129OSM   H11F13832   3.542  -0.263   3.500 -0.0203 -0.7921  0.8689
  129OSM   H11G13833   3.646  -0.118   3.482 -0.6109  0.0291 -1.2297
  129OSM   C12F13834   3.689  -0.249   3.653  0.3060 -0.2113  0.0046
  129OSM   H12F13835   3.626  -0.177   3.710 -0.6175 -0.4633 -0.6812
  129OSM   H12G13836   3.795  -0.221   3.670 -0.0678  0.1831  1.8940
  129OSM   C13F13837   3.657  -0.396   3.704 -0.2256  0.6188  0.4822
  129OSM   H13F13838   3.712  -0.461   3.633  0.5020  0.9223  0.7561
  129OSM   H13G13839   3.546  -0.402   3.694 -0.3614  0.3013  1.9684
  129OSM   C14F13840   3.701  -0.417   3.844 -0.4685 -0.1820 -0.3405
  129OSM   H14F13841   3.806  -0.383   3.844 -0.1371 -1.1535 -1.1591
  129OSM   H14G13842   3.701  -0.526   3.866  0.3416  0.0034  0.5949
  129OSM   C15F13843   3.604  -0.343   3.936  0.2576 -0.3565 -0.2427
  129OSM   H15F13844   3.504  -0.369   3.895  0.5620 -0.1150 -1.1613
  129OSM   H15G13845   3.615  -0.233   3.925 -1.3295 -0.1661 -0.0646
  129OSM   C16F13846   3.629  -0.370   4.086  0.2475 -0.4149 -0.4511
  129OSM   H16F13847   3.630  -0.479   4.106 -0.3817 -0.9778 -3.1047
  129OSM   H16G13848   3.539  -0.333   4.140  0.6622 -0.3007  0.1752
  129OSM   C17F13849   3.757  -0.309   4.155 -0.3385  1.1197 -0.6333
  129OSM   H17F13850   3.776  -0.209   4.111  0.9567  1.0575 -0.2501
  129OSM   H17G13851   3.851  -0.366   4.140 -0.6779  0.9742 -2.4000
  129OSM   C18F13852   3.730  -0.301   4.306  0.2395  0.1997 -0.5591
  129OSM   H18F13853   3.642  -0.237   4.327  0.7472  0.6706  0.1676
  129OSM   H18G13854   3.818  -0.264   4.362  0.8019 -1.2073 -0.4716
  129OSM   H18H13855   3.705  -0.405   4.337 -0.9341  1.1095  1.8979
  130OSM      N13856   3.967   4.253   1.996  0.4991 -0.0644  0.0668
  130OSM    C1513857   3.991   4.255   1.844  0.5698  0.0834  0.0127
  130OSM   H15A13858   3.993   4.158   1.795  1.4051 -0.4285  1.0164
  130OSM   H15B13859   4.090   4.295   1.829 -0.6398  2.7207 -1.5311
  130OSM   H15C13860   3.921   4.320   1.794 -0.7381  0.1030  1.7951
  130OSM    C1413861   4.084   4.166   2.056 -0.1914 -0.4399  0.2541
  130OSM   H14A13862   4.180   4.209   2.031 -0.7073  0.5884 -0.0112
  130OSM   H14B13863   4.070   4.062   2.030  0.0652 -0.0211 -1.7069
  130OSM   H14C13864   4.072   4.158   2.163 -1.7497 -4.2893 -0.0431
  130OSM    C1313865   3.982   4.394   2.048  0.1045 -0.4565 -0.8289
  130OSM   H13A13866   4.075   4.436   2.012 -0.5199  1.0181 -0.7655
  130OSM   H13B13867   3.981   4.383   2.155 -0.8991  1.0553 -0.6588
  130OSM   H13C13868   3.899   4.459   2.026 -0.6424 -2.0038 -3.0160
  130OSM    C1213869   3.827   4.204   2.022  0.2398  0.1107  0.4268
  130OSM   H12A13870   3.752   4.250   1.959 -1.0988  0.6535  2.3017
  130OSM   H12B13871   3.797   4.233   2.122 -1.8915 -1.3088  0.2628
  130OSM    C1113872   3.801   4.051   2.015  0.2762 -0.1273 -0.2686
  130OSM   H11A13873   3.855   4.000   2.098 -0.0817 -0.1823 -0.0704
  130OSM   H11B13874   3.849   4.011   1.922 -2.0761 -0.4136 -1.4259
  130OSM      P13875   3.624   3.875   1.994  0.1370  0.2391  0.5514
  130OSM    O1313876   3.496   3.870   1.923  0.2136 -0.4211 -0.0117
  130OSM    O1413877   3.737   3.802   1.927 -0.3927 -0.0567 -0.1376
  130OSM    O1113878   3.605   3.814   2.137 -0.0085  0.1777 -0.0275
  130OSM    O1213879   3.660   4.030   2.028 -0.9807  0.0560 -0.0870
  130OSM    C1S13880   3.666   3.847   2.258 -0.4720  0.4059  0.6335
  130OSM    H1S13881   3.673   3.957   2.275  2.5730  0.2010  1.2735
  130OSM    H1T13882   3.768   3.804   2.267 -1.0886 -1.5152 -0.8178
  130OSM     NF13883   3.640   3.829   2.500 -0.0004  0.0702  0.6301
  130OSM    HNF13884   3.671   3.757   2.562 -1.5658  0.7592  2.2843
  130OSM    C2S13885   3.581   3.790   2.374 -0.4166  0.4880  0.2673
  130OSM    H2S13886   3.481   3.838   2.371 -0.1099  1.4502  2.7144
  130OSM    C3S13887   3.571   3.635   2.359  0.8228 -1.1371 -0.0654
  130OSM    H3S13888   3.671   3.589   2.370  0.2058 -2.5456 -0.0419
  130OSM     O313889   3.527   3.581   2.234 -0.3989  0.2949 -0.0535
  130OSM    HO313890   3.547   3.653   2.174 -2.3943  0.8293 -0.1440
  130OSM    C4S13891   3.481   3.580   2.472 -0.0525  0.0292 -0.3483
  130OSM    H4S13892   3.401   3.645   2.510 -1.0441 -2.0670  1.4023
  130OSM    C5S13893   3.493   3.464   2.532 -0.3343 -0.0789 -0.4559
  130OSM    H5S13894   3.575   3.394   2.510  1.3209  1.9311 -0.9429
  130OSM    C6S13895   3.403   3.420   2.646 -0.5688 -0.1703 -0.8537
  130OSM    H6S13896   3.386   3.311   2.651  0.1886 -0.2324  1.7369
  130OSM    H6T13897   3.302   3.464   2.638 -0.4718  0.4609  0.9447
  130OSM    C7S13898   3.466   3.468   2.780  0.0243  0.7481  0.2036
  130OSM    H7S13899   3.462   3.578   2.790 -0.4173  1.1099 -2.8535
  130OSM    H7T13900   3.576   3.454   2.769 -0.3138 -0.6210 -2.2733
  130OSM    C8S13901   3.417   3.384   2.902 -0.9228 -0.3105 -0.2909
  130OSM    H8S13902   3.433   3.277   2.873  0.0766  0.2382 -1.8876
  130OSM    H8T13903   3.310   3.409   2.917 -0.5446  0.2411  1.6947
  130OSM    C9S13904   3.489   3.426   3.031  0.0341 -0.1785  1.0898
  130OSM    H9S13905   3.481   3.534   3.057  2.2538 -0.2974  2.4494
  130OSM    H9T13906   3.597   3.403   3.019  0.2413  1.1890 -0.0634
  130OSM   C10S13907   3.442   3.358   3.161  0.5020  0.0974  0.1399
  130OSM   H10S13908   3.500   3.263   3.164 -0.3841 -0.4377  0.5247
  130OSM   H10T13909   3.336   3.330   3.145  0.7253 -1.1380  0.7211
  130OSM   C11S13910   3.466   3.445   3.277 -0.1029 -0.0464 -0.4989
  130OSM   H11S13911   3.403   3.537   3.274  0.7085  0.5499  0.0181
  130OSM   H11T13912   3.576   3.461   3.270 -0.1158  0.0170 -0.5597
  130OSM   C12S13913   3.446   3.404   3.421  0.4209  0.2525  0.0565
  130OSM   H12S13914   3.501   3.310   3.440 -0.5255 -0.1518  0.8658
  130OSM   H12T13915   3.339   3.377   3.432  0.4742  0.0784  0.1516
  130OSM   C13S13916   3.487   3.503   3.526 -0.4474 -0.2007 -0.8861
  130OSM   H13S13917   3.435   3.600   3.509 -0.6913  0.0712  1.1055
  130OSM   H13T13918   3.597   3.522   3.522 -0.3165 -1.1193 -3.1281
  130OSM   C14S13919   3.457   3.458   3.672  0.4523  0.6398 -0.0605
  130OSM   H14S13920   3.498   3.357   3.692  0.8034  1.0529  1.4173
  130OSM   H14T13921   3.348   3.444   3.690  0.7205 -0.3063  0.9268
  130OSM   C15S13922   3.503   3.573   3.771 -0.1709 -0.4116  0.3428
  130OSM   H15S13923   3.467   3.676   3.752  0.0732 -0.3124  0.4111
  130OSM   H15T13924   3.613   3.583   3.763 -0.1340  2.4205  2.8456
  130OSM   C16S13925   3.463   3.536   3.912  0.1022  0.4456  0.1016
  130OSM   H16S13926   3.511   3.442   3.948  0.6683  0.8852  0.5113
  130OSM   H16T13927   3.355   3.514   3.904  0.3516 -2.0973  2.2682
  130OSM   C17S13928   3.482   3.654   4.009  0.8544 -0.1873 -0.5602
  130OSM   H17S13929   3.429   3.745   3.974 -0.9762  0.5210  3.4178
  130OSM   H17T13930   3.592   3.671   4.010  1.0488 -1.2159  1.1913
  130OSM   C18S13931   3.431   3.627   4.151 -1.0113 -0.0469 -0.1440
  130OSM   H18S13932   3.469   3.535   4.199  0.6605  1.9449  2.6704
  130OSM   H18T13933   3.320   3.619   4.148 -1.1070  0.0291  1.6846
  130OSM   H18U13934   3.454   3.717   4.212 -1.4301  0.0319 -0.0954
  130OSM    C1F13935   3.655   3.954   2.533 -0.1417 -0.4789 -0.0218
  130OSM     OF13936   3.595   4.043   2.478  0.3194 -0.3499  0.0504
  130OSM    C2F13937   3.748   3.982   2.643  0.1585 -0.6729 -0.9358
  130OSM    H2F13938   3.855   3.956   2.628  0.8700  0.3675  1.6419
  130OSM    H2G13939   3.705   3.923   2.728  0.2752 -0.8999 -1.0331
  130OSM    C3F13940   3.744   4.133   2.688  0.3851 -0.1516  0.4015
  130OSM    H3F13941   3.642   4.158   2.725  0.4962 -1.5311  1.7284
  130OSM    H3G13942   3.776   4.200   2.605 -0.9703 -0.9758 -0.8364
  130OSM    C4F13943   3.840   4.168   2.800  0.2726 -0.7552 -0.0242
  130OSM    H4F13944   3.948   4.151   2.779  0.4330  0.2674 -0.0851
  130OSM    H4G13945   3.831   4.089   2.876  1.8669 -1.3155 -0.3612
  130OSM    C5F13946   3.807   4.305   2.847  0.6799  1.1376  0.1549
  130OSM    H5F13947   3.703   4.308   2.885  0.3661 -1.9640 -0.1695
  130OSM    H5G13948   3.811   4.376   2.762  0.9483  0.2625 -0.5925
  130OSM    C6F13949   3.901   4.361   2.957 -0.7018 -0.0238 -0.1065
  130OSM    H6F13950   3.861   4.460   2.986  1.1571  0.7041  0.1193
  130OSM    H6G13951   4.004   4.381   2.919  0.8883 -0.4967  3.5129
  130OSM    C7F13952   3.912   4.277   3.080  0.9719  0.2444 -0.7885
  130OSM    H7F13953   3.974   4.190   3.049  1.9402  1.6646 -3.0417
  130OSM    H7G13954   3.808   4.240   3.096  0.7258  0.6166 -1.5034
  130OSM    C8F13955   3.950   4.341   3.209  0.8822  0.0912 -0.1925
  130OSM    H8F13956   3.884   4.429   3.227  1.8328  0.6528  0.6578
  130OSM    H8G13957   4.050   4.385   3.187  0.8029  0.1800 -0.3845
  130OSM    C9F13958   3.959   4.256   3.335  0.8872  0.6062  0.2853
  130OSM    H9F13959   3.987   4.152   3.311 -0.3657  0.1556  0.7251
  130OSM   C10F13960   3.938   4.288   3.463 -0.4150 -0.4073  0.2193
  130OSM   H10F13961   3.949   4.209   3.538 -1.0585  0.7109  1.5417
  130OSM   C11F13962   3.899   4.421   3.527 -0.4963  0.0046 -0.6050
  130OSM   H11F13963   3.794   4.405   3.559 -0.6543 -0.1913 -1.2234
  130OSM   H11G13964   3.892   4.503   3.452  1.5270  0.4450 -0.3860
  130OSM   C12F13965   3.977   4.473   3.645  0.0545 -0.0585 -0.2288
  130OSM   H12F13966   3.935   4.567   3.688 -0.6358  0.8688 -2.7589
  130OSM   H12G13967   4.078   4.485   3.599  0.6373 -5.1275 -0.8448
  130OSM   C13F13968   3.991   4.381   3.767  0.4749 -0.5865  0.0014
  130OSM   H13F13969   4.015   4.277   3.735 -0.6840 -1.1060  0.7691
  130OSM   H13G13970   3.897   4.365   3.824  1.7053 -3.3899  1.4642
  130OSM   C14F13971   4.099   4.424   3.864 -0.6785  0.3773 -0.2102
  130OSM   H14F13972   4.198   4.433   3.813 -0.1177 -1.8196  0.3629
  130OSM   H14G13973   4.106   4.345   3.942 -0.8857  1.3390  0.8104
  130OSM   C15F13974   4.075   4.557   3.943 -0.1535  0.2464  0.0122
  130OSM   H15F13975   3.972   4.546   3.984 -0.7136  0.3440 -1.3026
  130OSM   H15G13976   4.075   4.648   3.880  0.2981  0.5059  0.3785
  130OSM   C16F13977   4.186   4.588   4.041 -0.4419  0.0845  0.0429
  130OSM   H16F13978   4.285   4.573   3.992 -1.2826  2.1742 -2.4600
  130OSM   H16G13979   4.168   4.513   4.122 -0.8245 -0.3652 -0.4491
  130OSM   C17F13980   4.182   4.729   4.093 -0.6645  0.2920 -0.8854
  130OSM   H17F13981   4.092   4.749   4.155  0.5040  0.8303  0.7336
  130OSM   H17G13982   4.163   4.808   4.017 -1.5711  1.5567  0.5802
  130OSM   C18F13983   4.310   4.753   4.165  0.2787  0.1245  0.4150
  130OSM   H18F13984   4.345   4.672   4.233 -2.4095 -0.3328  1.3472
  130OSM   H18G13985   4.302   4.841   4.233  0.9448  2.0811 -1.8734
  130OSM   H18H13986   4.390   4.771   4.090  0.0649  0.0743  0.1754
  131OSM      N13987   0.637   0.227   2.073  0.0350 -0.1945  0.2991
  131OSM    C1513988   0.711   0.093   2.071  0.0898 -0.6194  0.1938
  131OSM   H15A13989   0.648   0.017   2.117 -2.2355  0.6154 -0.7931
  131OSM   H15B13990   0.797   0.106   2.135  1.2535  0.2073 -1.4805
  131OSM   H15C13991   0.748   0.074   1.972  0.4358 -2.1713  0.5930
  131OSM    C1413992   0.508   0.204   1.998  0.3385  0.3011  0.3979
  131OSM   H14A13993   0.524   0.185   1.893 -0.2700 -0.3896  0.4189
  131OSM   H14B13994   0.455   0.298   2.006  2.2800  1.3581  1.5776
  131OSM   H14C13995   0.453   0.128   2.051  1.5761 -0.8242  0.1383
  131OSM    C1313996   0.606   0.271   2.211 -0.3801 -0.0321  0.1594
  131OSM   H13A13997   0.532   0.200   2.248  0.5471 -1.5953 -0.8847
  131OSM   H13B13998   0.565   0.370   2.225 -3.0126 -1.3426  3.0787
  131OSM   H13C13999   0.688   0.275   2.281 -0.6838  3.0197  0.4684
  131OSM    C1214000   0.726   0.336   2.008  0.8139 -0.0865  0.9205
  131OSM   H12A14001   0.671   0.429   1.997 -2.4146 -1.8746  0.9435
  131OSM   H12B14002   0.761   0.311   1.909 -1.0359 -1.8606  0.6678
  131OSM    C1114003   0.860   0.383   2.088  0.6658 -0.1900 -0.5226
  131OSM   H11A14004   0.842   0.429   2.188  1.5301  2.2289 -1.4011
  131OSM   H11B14005   0.904   0.463   2.025 -1.6171  0.8323 -0.9217
  131OSM      P14006   1.069   0.250   2.014  0.5736  0.2762  0.1049
  131OSM    O1314007   1.077   0.105   1.995 -0.1556 -0.1247 -0.5986
  131OSM    O1414008   1.060   0.328   1.889  0.2113 -0.3560  0.0267
  131OSM    O1114009   1.196   0.309   2.093 -0.1266  0.4501 -0.4902
  131OSM    O1214010   0.949   0.278   2.111 -0.1508  0.1903  0.1714
  131OSM    C1S14011   1.201   0.443   2.146  0.2437  0.2003 -0.5338
  131OSM    H1S14012   1.132   0.513   2.094 -2.1796 -0.1530  1.9602
  131OSM    H1T14013   1.303   0.483   2.128  0.9348 -0.6192  1.2859
  131OSM     NF14014   1.187   0.583   2.361  0.0632  0.0526  0.0949
  131OSM    HNF14015   1.262   0.593   2.426 -0.7434  0.1273  1.0404
  131OSM    C2S14016   1.175   0.451   2.307  0.1949 -0.3114  0.4276
  131OSM    H2S14017   1.069   0.422   2.321  0.5646 -2.5756 -0.8584
  131OSM    C3S14018   1.247   0.335   2.389  0.0089  0.1462 -0.2751
  131OSM    H3S14019   1.356   0.347   2.378  0.5074 -2.0212  1.5723
  131OSM     O314020   1.221   0.199   2.336 -0.6878 -0.2329  0.5728
  131OSM    HO314021   1.184   0.225   2.251  0.9394 -0.8185 -0.3632
  131OSM    C4S14022   1.221   0.337   2.540  0.3978  0.2992 -0.0720
  131OSM    H4S14023   1.290   0.405   2.591 -1.0173  0.7064  1.3893
  131OSM    C5S14024   1.127   0.270   2.611  0.2353  0.4847  0.1255
  131OSM    H5S14025   1.053   0.223   2.544  2.0030 -0.4479 -1.2440
  131OSM    C6S14026   1.110   0.270   2.760  0.0124  1.1594  0.3690
  131OSM    H6S14027   1.010   0.304   2.794  0.9001  2.4655  1.7840
  131OSM    H6T14028   1.184   0.341   2.802  0.9757 -0.2514  1.1656
  131OSM    C7S14029   1.150   0.127   2.812 -0.1703 -1.2896  0.1050
  131OSM    H7S14030   1.257   0.116   2.783 -0.8201 -1.5195 -2.4860
  131OSM    H7T14031   1.086   0.055   2.756 -1.8772 -0.7731  1.3085
  131OSM    C8S14032   1.116   0.101   2.964 -0.5621  0.2669 -0.9672
  131OSM    H8S14033   1.143  -0.003   2.992  0.6804  1.5347  3.1431
  131OSM    H8T14034   1.013   0.130   2.993 -0.2987 -0.3868  0.7359
  131OSM    C9S14035   1.194   0.198   3.067  0.2361 -0.1710 -0.3069
  131OSM    H9S14036   1.176   0.303   3.035 -0.4986 -0.5324 -1.1191
  131OSM    H9T14037   1.303   0.177   3.075 -0.1071 -1.5209  1.3915
  131OSM   C10S14038   1.142   0.177   3.215  0.7306  0.1593 -0.4768
  131OSM   H10S14039   1.154   0.067   3.224  2.8405  0.2048 -1.9544
  131OSM   H10T14040   1.032   0.198   3.212  0.0168 -2.4628  2.5444
  131OSM   C11S14041   1.226   0.242   3.312 -0.5917 -0.9468 -0.3170
  131OSM   H11S14042   1.198   0.347   3.286 -0.8632 -1.4045 -1.9767
  131OSM   H11T14043   1.332   0.224   3.285 -1.2638 -2.6960 -2.0163
  131OSM   C12S14044   1.193   0.223   3.457  0.1606  0.0712  0.3710
  131OSM   H12S14045   1.179   0.113   3.469 -1.3392 -0.1387 -2.5102
  131OSM   H12T14046   1.092   0.265   3.475  0.1320  1.1479 -2.0517
  131OSM   C13S14047   1.290   0.300   3.545  0.0896  0.0290 -0.8067
  131OSM   H13S14048   1.244   0.401   3.552  0.9710  0.3670  0.4423
  131OSM   H13T14049   1.389   0.332   3.507 -0.0467  1.8854  0.2820
  131OSM   C14S14050   1.291   0.239   3.690 -1.0335  0.1417  0.6152
  131OSM   H14S14051   1.349   0.144   3.690 -0.0691  0.7085 -0.2702
  131OSM   H14T14052   1.185   0.210   3.706 -0.4424 -1.7324  1.4707
  131OSM   C15S14053   1.340   0.328   3.802 -0.7934 -0.0967  0.4261
  131OSM   H15S14054   1.270   0.412   3.820  0.9475  1.5124  0.0264
  131OSM   H15T14055   1.436   0.373   3.768 -1.0256  1.8573  2.1725
  131OSM   C16S14056   1.352   0.254   3.935 -0.0461  0.3957 -0.3559
  131OSM   H16S14057   1.410   0.160   3.925  0.0638  0.6294 -2.0854
  131OSM   H16T14058   1.251   0.227   3.974 -0.7206  2.1453 -0.8154
  131OSM   C17S14059   1.432   0.322   4.041  0.7522 -0.1706  0.3784
  131OSM   H17S14060   1.536   0.347   4.011  0.3994 -0.5918 -1.3303
  131OSM   H17T14061   1.439   0.249   4.125  0.2463 -0.8612 -0.1663
  131OSM   C18S14062   1.370   0.452   4.084 -0.4411  0.3438  0.0990
  131OSM   H18S14063   1.333   0.510   3.997 -0.6852 -0.5558 -0.3967
  131OSM   H18T14064   1.437   0.516   4.147 -0.3569  0.7130 -0.3558
  131OSM   H18U14065   1.290   0.422   4.155 -0.1821 -1.6827 -0.4231
  131OSM    C1F14066   1.116   0.684   2.309  0.5442  0.2747 -0.1802
  131OSM     OF14067   1.021   0.666   2.232  0.0323  0.3615  0.2690
  131OSM    C2F14068   1.169   0.818   2.356 -1.2776  0.2198  0.3114
  131OSM    H2F14069   1.139   0.882   2.271 -0.4090 -0.5346 -0.5832
  131OSM    H2G14070   1.278   0.835   2.353 -1.4141  1.0165 -0.8933
  131OSM    C3F14071   1.115   0.872   2.491 -0.0613 -0.1828 -0.0703
  131OSM    H3F14072   1.117   0.785   2.560  1.1713 -0.7131 -0.7440
  131OSM    H3G14073   1.008   0.902   2.493 -0.2513 -0.8902  1.1450
  131OSM    C4F14074   1.193   1.000   2.536  0.9047  0.7083 -0.5877
  131OSM    H4F14075   1.181   1.074   2.454  1.3185  0.1429 -1.1731
  131OSM    H4G14076   1.303   0.993   2.552  0.6080  0.5798  1.7484
  131OSM    C5F14077   1.146   1.080   2.661  0.6408  0.0048  0.0437
  131OSM    H5F14078   1.039   1.060   2.685  0.5433  0.2328 -0.1990
  131OSM    H5G14079   1.154   1.189   2.640 -1.6709  0.4454  1.0788
  131OSM    C6F14080   1.224   1.047   2.792  0.5931 -0.2632 -0.5958
  131OSM    H6F14081   1.330   1.080   2.786  0.6804 -0.1854  1.0918
  131OSM    H6G14082   1.224   0.938   2.811  0.2142  0.1647  2.3144
  131OSM    C7F14083   1.169   1.121   2.916  0.1588  0.2551 -0.6250
  131OSM    H7F14084   1.066   1.082   2.931  0.5160 -0.2171  0.7517
  131OSM    H7G14085   1.162   1.229   2.888 -1.1602  0.2695 -0.2896
  131OSM    C8F14086   1.259   1.103   3.044  0.0893 -0.0924  0.2701
  131OSM    H8F14087   1.234   1.191   3.107  1.4115  1.9581 -1.9122
  131OSM    H8G14088   1.366   1.107   3.014 -0.4230 -2.0966 -2.1325
  131OSM    C9F14089   1.229   0.980   3.120 -0.5546 -0.3620 -0.0046
  131OSM    H9F14090   1.201   0.894   3.057 -0.3684 -0.6140  0.2527
  131OSM   C10F14091   1.233   0.974   3.254 -0.6415  1.0879 -0.0457
  131OSM   H10F14092   1.217   0.874   3.297 -1.7957  0.3269 -2.1059
  131OSM   C11F14093   1.274   1.086   3.345  0.4177 -0.2136  0.5956
  131OSM   H11F14094   1.201   1.170   3.348  0.8499  0.3416 -1.9482
  131OSM   H11G14095   1.379   1.111   3.316  1.6220 -3.7761  1.3758
  131OSM   C12F14096   1.300   1.040   3.488 -0.4070  0.7069  0.3141
  131OSM   H12F14097   1.370   0.955   3.494 -1.5454 -0.1768  1.7310
  131OSM   H12G14098   1.212   0.994   3.538 -0.1101  0.4420  0.5948
  131OSM   C13F14099   1.345   1.155   3.583 -0.3370 -0.1540 -0.6598
  131OSM   H13F14100   1.268   1.234   3.584  0.4162  0.7015 -3.3503
  131OSM   H13G14101   1.441   1.195   3.543 -0.8581 -0.3581 -2.1739
  131OSM   C14F14102   1.372   1.106   3.719  0.5598  0.1475  0.2651
  131OSM   H14F14103   1.461   1.039   3.721  0.1857 -0.4452 -1.4489
  131OSM   H14G14104   1.289   1.044   3.760  0.9388 -1.7975 -1.7166
  131OSM   C15F14105   1.397   1.222   3.820  0.7575  0.0978 -0.6967
  131OSM   H15F14106   1.310   1.290   3.834  1.1527  0.7325 -1.2496
  131OSM   H15G14107   1.469   1.296   3.779 -3.1076  2.8667 -3.1746
  131OSM   C16F14108   1.454   1.182   3.955 -0.0276  0.1482  0.0927
  131OSM   H16F14109   1.548   1.126   3.934  0.7033  0.0538  3.0802
  131OSM   H16G14110   1.379   1.113   4.000  1.0003 -0.4962  0.8807
  131OSM   C17F14111   1.495   1.286   4.058 -0.5819  0.0751 -0.3422
  131OSM   H17F14112   1.409   1.326   4.116  1.4259  1.8385  1.6309
  131OSM   H17G14113   1.543   1.375   4.013  2.6847 -1.5220 -0.2966
  131OSM   C18F14114   1.596   1.239   4.162  0.3296  0.3047 -0.8638
  131OSM   H18F14115   1.564   1.165   4.239  0.5764 -0.2507 -1.2850
  131OSM   H18G14116   1.628   1.329   4.218 -4.2629  0.4636  2.0431
  131OSM   H18H14117   1.673   1.187   4.100 -2.5772 -2.3046 -2.5808
  132OSM      N14118   6.135   6.812   2.179  0.2612  0.5638 -0.2000
  132OSM    C1514119   6.173   6.956   2.189 -0.7441  0.2988 -0.1578
  132OSM   H15A14120   6.249   6.973   2.114  0.0128 -0.7588  0.3499
  132OSM   H15B14121   6.222   6.980   2.282  1.0971 -0.8986 -0.7596
  132OSM   H15C14122   6.092   7.026   2.174 -0.6077  0.1648 -1.6485
  132OSM    C1414123   6.059   6.765   2.292  0.0572 -0.6538  0.0143
  132OSM   H14A14124   6.112   6.772   2.386 -0.4719  1.2539  0.2230
  132OSM   H14B14125   6.026   6.662   2.290  0.1771 -0.6868 -0.3750
  132OSM   H14C14126   5.967   6.822   2.294 -0.2960 -1.1196 -1.4881
  132OSM    C1314127   6.057   6.781   2.053  0.4431 -0.0293  0.3103
  132OSM   H13A14128   5.961   6.832   2.052  0.6297  0.3519  1.1396
  132OSM   H13B14129   6.040   6.675   2.052 -0.0252  0.0312 -1.3558
  132OSM   H13C14130   6.106   6.810   1.961 -1.5827  1.4153 -0.3965
  132OSM    C1214131   6.262   6.737   2.174  0.4716 -0.0966  0.1778
  132OSM   H12A14132   6.336   6.781   2.109  0.0744  1.8178  0.9504
  132OSM   H12B14133   6.257   6.642   2.123  3.5647 -0.5937  0.5835
  132OSM    C1114134   6.341   6.716   2.311  0.0392 -0.0415  0.3801
  132OSM   H11A14135   6.436   6.669   2.278 -0.4364  0.9349 -2.6680
  132OSM   H11B14136   6.290   6.640   2.374 -0.6726 -0.7632 -1.0357
  132OSM      P14137   6.488   6.914   2.403 -0.3606 -0.1368 -0.2630
  132OSM    O1314138   6.524   6.933   2.264 -0.2123 -0.1448 -0.1932
  132OSM    O1414139   6.477   7.032   2.495  0.1981  0.5160  0.0577
  132OSM    O1114140   6.585   6.806   2.465  0.6534  0.0011  0.4250
  132OSM    O1214141   6.352   6.830   2.389  0.3461  0.3956  0.1245
  132OSM    C1S14142   6.554   6.712   2.571 -0.3811  0.0628 -0.2559
  132OSM    H1S14143   6.521   6.613   2.534  0.5655 -1.3276  2.3959
  132OSM    H1T14144   6.477   6.749   2.641  0.8676  1.3901  0.4777
  132OSM     NF14145   6.652   6.584   2.749 -0.0219  0.5720  0.1483
  132OSM    HNF14146   6.615   6.611   2.838  0.5942  2.9504 -0.2393
  132OSM    C2S14147   6.686   6.693   2.660 -0.1862  0.0503  0.0535
  132OSM    H2S14148   6.766   6.647   2.598  0.5546  0.5125  0.6552
  132OSM    C3S14149   6.737   6.833   2.717  0.5633  0.2536  0.1100
  132OSM    H3S14150   6.641   6.873   2.757 -1.1468 -1.8800 -1.5532
  132OSM     O314151   6.782   6.927   2.618 -0.9069 -0.5628  0.4905
  132OSM    HO314152   6.743   6.896   2.535 -0.1222  1.4125 -0.7008
  132OSM    C4S14153   6.838   6.809   2.832 -0.1687 -0.4354  0.7301
  132OSM    H4S14154   6.807   6.805   2.937 -0.8516  1.4846  0.6484
  132OSM    C5S14155   6.971   6.798   2.811 -0.4384 -0.1912  0.1917
  132OSM    H5S14156   7.017   6.820   2.714  0.1822  0.5380  0.6330
  132OSM    C6S14157   7.086   6.778   2.910 -0.0347  0.6301 -0.7503
  132OSM    H6S14158   7.169   6.849   2.889 -1.9226  3.3450  0.4557
  132OSM    H6T14159   7.126   6.675   2.906  1.8775  1.3659 -2.3089
  132OSM    C7S14160   7.052   6.807   3.060  1.0492  0.0182  0.0888
  132OSM    H7S14161   6.976   6.734   3.094 -1.2075  2.6034  0.9766
  132OSM    H7T14162   6.999   6.904   3.063  1.9369  0.4903  1.5752
  132OSM    C8S14163   7.189   6.805   3.132  0.1759  0.3851  0.0888
  132OSM    H8S14164   7.266   6.881   3.106 -0.6418  1.4545  0.7566
  132OSM    H8T14165   7.234   6.711   3.094  0.6719  1.0025 -0.9031
  132OSM    C9S14166   7.177   6.782   3.285 -0.0430 -0.0734 -0.0956
  132OSM    H9S14167   7.273   6.757   3.335  1.3078  1.9677 -1.4744
  132OSM    H9T14168   7.109   6.695   3.292 -0.3575  0.0754 -1.0736
  132OSM   C10S14169   7.132   6.906   3.354 -0.1584 -0.1630  0.4131
  132OSM   H10S14170   7.033   6.950   3.328 -0.2670  1.1335  2.8110
  132OSM   H10T14171   7.206   6.988   3.341 -2.5489  1.8275 -1.8437
  132OSM   C11S14172   7.126   6.884   3.505 -0.1518  0.3228  0.1287
  132OSM   H11S14173   7.227   6.850   3.538  0.1870  2.7123  1.8481
  132OSM   H11T14174   7.038   6.818   3.517  1.3007 -1.8465 -0.5134
  132OSM   C12S14175   7.124   7.014   3.578  0.4181 -0.6819 -0.3467
  132OSM   H12S14176   7.034   7.076   3.555 -0.9731 -1.5921  2.1595
  132OSM   H12T14177   7.215   7.071   3.552 -1.3163  2.1986 -0.5827
  132OSM   C13S14178   7.121   6.991   3.736  0.3458  0.5189  0.5120
  132OSM   H13S14179   7.208   6.931   3.769 -0.7976 -0.9155  1.0624
  132OSM   H13T14180   7.031   6.928   3.751 -0.7456  1.6227 -1.0490
  132OSM   C14S14181   7.110   7.123   3.813  0.5835 -0.4253  0.0517
  132OSM   H14S14182   7.009   7.169   3.809  1.3416  1.3283  0.0917
  132OSM   H14T14183   7.174   7.204   3.773 -1.5530  0.5647 -1.5093
  132OSM   C15S14184   7.132   7.110   3.962 -0.4598  0.1505 -0.7861
  132OSM   H15S14185   7.130   7.210   4.010  1.2675  0.4507 -1.2698
  132OSM   H15T14186   7.237   7.079   3.980 -0.6768 -1.5306 -2.1734
  132OSM   C16S14187   7.034   7.017   4.032 -0.4820 -0.8405  0.3564
  132OSM   H16S14188   7.055   6.914   3.997 -0.6133 -1.1886  1.2866
  132OSM   H16T14189   6.931   7.049   4.002 -0.1211 -0.8873 -1.0350
  132OSM   C17S14190   7.053   7.014   4.179  0.1302  0.1385  0.3604
  132OSM   H17S14191   7.163   7.015   4.191  0.4168  0.4437 -1.9421
  132OSM   H17T14192   7.025   6.913   4.216 -1.0629  0.3007 -0.0621
  132OSM   C18S14193   6.976   7.117   4.258 -0.2713 -0.3366  0.4097
  132OSM   H18S14194   6.867   7.125   4.236 -0.2366  2.7903  0.9776
  132OSM   H18T14195   7.033   7.211   4.245  1.8945 -1.0618  3.4344
  132OSM   H18U14196   6.982   7.092   4.367 -1.4583 -2.2469  0.0833
  132OSM    C1F14197   6.662   6.457   2.711 -0.1235 -0.7105  0.9334
  132OSM     OF14198   6.697   6.433   2.593  0.3301 -0.1895 -0.9663
  132OSM    C2F14199   6.623   6.338   2.799 -0.3269 -0.2742  0.2043
  132OSM    H2F14200   6.542   6.275   2.757 -1.8656  0.9106  1.2556
  132OSM    H2G14201   6.581   6.378   2.894 -0.0980  1.7527 -0.4862
  132OSM    C3F14202   6.743   6.257   2.850  0.0551  0.0442 -0.0865
  132OSM    H3F14203   6.809   6.227   2.767 -0.1906  0.3312 -0.3900
  132OSM    H3G14204   6.713   6.160   2.895  1.2907 -0.3090 -0.0099
  132OSM    C4F14205   6.822   6.326   2.961 -1.1115 -0.1379  0.4215
  132OSM    H4F14206   6.874   6.419   2.930  1.1195 -1.7402 -0.9817
  132OSM    H4G14207   6.901   6.251   2.983 -2.3107 -1.4288  0.4844
  132OSM    C5F14208   6.734   6.358   3.086  0.2272 -0.2070  0.3398
  132OSM    H5F14209   6.667   6.272   3.107 -3.0344  1.6558 -1.6252
  132OSM    H5G14210   6.662   6.440   3.065 -1.8421 -2.3355 -1.4330
  132OSM    C6F14211   6.821   6.404   3.202  0.0569  0.3529  0.1253
  132OSM    H6F14212   6.905   6.468   3.168 -0.8857  1.1702 -0.7149
  132OSM    H6G14213   6.885   6.315   3.224 -1.3388 -1.0529 -1.2165
  132OSM    C7F14214   6.750   6.438   3.333 -1.1083 -0.1843  0.2224
  132OSM    H7F14215   6.646   6.402   3.343 -1.2339 -0.1073 -0.7031
  132OSM    H7G14216   6.738   6.548   3.337 -0.3283  0.0177 -1.7509
  132OSM    C8F14217   6.830   6.401   3.458  0.3261 -0.4142  0.1805
  132OSM    H8F14218   6.857   6.293   3.456 -1.0461 -0.8716  2.6198
  132OSM    H8G14219   6.768   6.415   3.549  1.2668  1.1100  0.6145
  132OSM    C9F14220   6.964   6.468   3.482 -0.0389 -0.0532  0.6139
  132OSM    H9F14221   7.037   6.451   3.402 -0.2095 -0.7556  0.5974
  132OSM   C10F14222   7.007   6.528   3.597 -0.1142  0.6783  0.3103
  132OSM   H10F14223   7.109   6.567   3.601 -0.3616  1.2356  2.6205
  132OSM   C11F14224   6.914   6.549   3.722 -0.1239 -0.6931 -0.2983
  132OSM   H11F14225   6.834   6.472   3.727  0.0198 -0.8700 -0.6529
  132OSM   H11G14226   6.857   6.644   3.715 -1.3915 -1.5003 -1.3163
  132OSM   C12F14227   7.005   6.564   3.859  0.5447 -0.1097  0.5274
  132OSM   H12F14228   7.069   6.651   3.837 -0.8915  0.7505 -0.4205
  132OSM   H12G14229   7.063   6.472   3.883 -0.2524  0.0509  3.4668
  132OSM   C13F14230   6.921   6.595   3.983 -0.4602 -0.1602  0.4321
  132OSM   H13F14231   6.859   6.505   4.000  0.5404 -0.5894  2.0573
  132OSM   H13G14232   6.853   6.681   3.968 -0.6641 -0.2326  0.9263
  132OSM   C14F14233   6.996   6.623   4.116  0.1050 -0.0376  0.7589
  132OSM   H14F14234   7.048   6.721   4.104 -2.2037  1.3302  1.2944
  132OSM   H14G14235   7.066   6.538   4.129  1.4445  1.0181  0.6895
  132OSM   C15F14236   6.899   6.646   4.235  0.1456 -0.3531  0.0419
  132OSM   H15F14237   6.809   6.587   4.209  0.9352 -0.7179 -2.0312
  132OSM   H15G14238   6.875   6.754   4.239 -0.6928 -0.5551  0.8338
  132OSM   C16F14239   6.953   6.590   4.366 -0.0136  0.0227 -0.3013
  132OSM   H16F14240   7.049   6.635   4.398 -0.5271  1.1030 -0.2290
  132OSM   H16G14241   6.970   6.482   4.350  0.6286 -0.0853  0.9874
  132OSM   C17F14242   6.845   6.606   4.478 -0.4352 -0.1131  0.3066
  132OSM   H17F14243   6.889   6.561   4.569  2.3195 -1.7036 -1.6628
  132OSM   H17G14244   6.744   6.569   4.452 -0.5562 -1.7458  2.7525
  132OSM   C18F14245   6.826   6.748   4.512  0.5988 -0.7110  0.7348
  132OSM   H18F14246   6.924   6.801   4.516  1.3488 -1.8556 -1.1911
  132OSM   H18G14247   6.778   6.759   4.611  2.1606  0.5720  1.4071
  132OSM   H18H14248   6.762   6.799   4.437  0.5893  0.5556  1.5817
  133OSM      N14249   4.628   3.206   2.394 -0.3263  0.4214 -0.1914
  133OSM    C1514250   4.635   3.258   2.531  0.5393 -0.2873 -0.3690
  133OSM   H15A14251   4.691   3.350   2.536 -0.2370  0.1359  0.9926
  133OSM   H15B14252   4.675   3.192   2.607  1.1051 -0.1159 -0.5157
  133OSM   H15C14253   4.538   3.294   2.564  1.6186  0.8127  1.8445
  133OSM    C1414254   4.497   3.130   2.384 -0.0791 -0.3970  0.9983
  133OSM   H14A14255   4.490   3.100   2.281  1.5210 -2.3928  1.3917
  133OSM   H14B14256   4.406   3.186   2.396 -1.1620 -2.1550  1.3972
  133OSM   H14C14257   4.499   3.044   2.449  1.0263 -0.5590  0.7752
  133OSM    C1314258   4.612   3.325   2.314 -0.0152  0.3034 -0.8906
  133OSM   H13A14259   4.537   3.384   2.363 -0.1910  0.5504 -1.4540
  133OSM   H13B14260   4.561   3.310   2.220 -1.1159  0.5378 -0.3482
  133OSM   H13C14261   4.704   3.382   2.308  0.6667 -0.6068  0.5427
  133OSM    C1214262   4.746   3.131   2.346  0.0789  0.0549 -0.3891
  133OSM   H12A14263   4.835   3.184   2.376 -1.9056  2.5315  1.5726
  133OSM   H12B14264   4.741   3.115   2.239  1.7782 -1.1187 -0.3454
  133OSM    C1114265   4.761   2.990   2.417  0.5106 -0.4382 -0.6385
  133OSM   H11A14266   4.662   2.938   2.420  0.9642 -1.3043 -0.4779
  133OSM   H11B14267   4.787   2.999   2.525 -0.8660 -3.0653  0.0093
  133OSM      P14268   5.004   2.929   2.384 -0.1074 -0.0866 -0.3085
  133OSM    O1314269   5.085   2.824   2.319  0.5295  0.1563  0.2045
  133OSM    O1414270   5.052   3.065   2.361 -0.6508  0.4605  1.0493
  133OSM    O1114271   4.997   2.919   2.541  0.2889 -0.0686 -0.0153
  133OSM    O1214272   4.853   2.906   2.345 -0.6130  0.1174 -0.4130
  133OSM    C1S14273   4.962   2.796   2.601  0.7662  0.4398 -0.0656
  133OSM    H1S14274   5.028   2.711   2.575  1.2669  0.7853  0.0737
  133OSM    H1T14275   4.862   2.768   2.561 -1.2757  2.7692  2.8629
  133OSM     NF14276   4.902   2.665   2.804  0.0168 -0.0403  0.2829
  133OSM    HNF14277   4.817   2.668   2.857 -0.0596  1.5176  0.1164
  133OSM    C2S14278   4.943   2.796   2.756 -0.0087 -0.3893 -0.2993
  133OSM    H2S14279   5.045   2.808   2.798 -0.4917 -2.0763  1.5102
  133OSM    C3S14280   4.853   2.909   2.808 -0.1755  0.7114  0.4793
  133OSM    H3S14281   4.750   2.898   2.767 -0.8070  1.1159  1.8700
  133OSM     O314282   4.893   3.041   2.778 -0.7995  0.0680 -0.3654
  133OSM    HO314283   4.938   3.029   2.694 -1.0689 -3.5755 -0.1487
  133OSM    C4S14284   4.834   2.903   2.960 -0.5786 -0.5765 -0.1356
  133OSM    H4S14285   4.748   2.848   3.001  1.6109 -3.1711  1.3058
  133OSM    C5S14286   4.924   2.940   3.062 -0.9122  0.4335  0.2950
  133OSM    H5S14287   5.026   2.972   3.036 -1.2536  0.1590 -1.5625
  133OSM    C6S14288   4.898   2.906   3.205  0.6126  0.0814  0.5914
  133OSM    H6S14289   4.798   2.865   3.230 -0.2840  2.7098  1.6568
  133OSM    H6T14290   4.896   3.003   3.260  1.5955  0.7065 -0.4025
  133OSM    C7S14291   5.004   2.825   3.276  0.6758 -0.5477  0.3585
  133OSM    H7S14292   5.100   2.877   3.257 -0.3859  1.0950 -0.8050
  133OSM    H7T14293   5.026   2.733   3.216  0.0556 -0.0280 -0.6999
  133OSM    C8S14294   4.972   2.814   3.427  0.0813 -0.4901 -0.6746
  133OSM    H8S14295   4.873   2.764   3.429 -0.5649  0.7495 -0.2765
  133OSM    H8T14296   4.949   2.916   3.467 -2.1321 -0.3771 -2.0732
  133OSM    C9S14297   5.084   2.747   3.508  0.4888 -0.1604  0.2721
  133OSM    H9S14298   5.183   2.786   3.475  0.7127 -0.6753  0.3154
  133OSM    H9T14299   5.094   2.641   3.474  2.5639  0.2890 -0.6801
  133OSM   C10S14300   5.072   2.745   3.663  0.0959 -0.0603 -0.8920
  133OSM   H10S14301   5.156   2.693   3.714  0.1403  0.3398 -0.5539
  133OSM   H10T14302   4.980   2.691   3.696 -1.3902  2.4919 -0.5645
  133OSM   C11S14303   5.062   2.885   3.729  0.0619 -0.1588 -0.0672
  133OSM   H11S14304   4.977   2.935   3.677 -1.2555 -2.4466 -0.2576
  133OSM   H11T14305   5.153   2.944   3.708 -0.3228  1.0951  1.5548
  133OSM   C12S14306   5.037   2.881   3.881  0.8008 -0.5080  0.2819
  133OSM   H12S14307   4.946   2.821   3.904  1.7513 -0.7476  4.1378
  133OSM   H12T14308   5.015   2.987   3.904 -0.0697 -0.0673 -2.2955
  133OSM   C13S14309   5.158   2.829   3.962 -0.8124  0.1025 -0.2213
  133OSM   H13S14310   5.247   2.895   3.957  1.4814 -2.8565 -2.7336
  133OSM   H13T14311   5.198   2.731   3.928 -0.9908 -0.3378  0.7926
  133OSM   C14S14312   5.113   2.803   4.105  0.2287  0.3568  0.1736
  133OSM   H14S14313   5.048   2.713   4.102  1.0976 -0.2476 -1.6322
  133OSM   H14T14314   5.047   2.886   4.137 -3.9313 -1.2773 -3.1596
  133OSM   C15S14315   5.232   2.763   4.191  0.2899 -0.7067 -0.0303
  133OSM   H15S14316   5.304   2.847   4.183  0.5826 -0.7333  1.8327
  133OSM   H15T14317   5.280   2.676   4.140  1.7027  0.7039 -1.2151
  133OSM   C16S14318   5.177   2.731   4.328 -0.3782 -0.4508  0.0191
  133OSM   H16S14319   5.104   2.648   4.317  0.5106 -1.3892  0.9731
  133OSM   H16T14320   5.135   2.829   4.358  1.6202  0.4856 -0.0900
  133OSM   C17S14321   5.283   2.687   4.435  0.1953 -0.2859  0.0674
  133OSM   H17S14322   5.327   2.591   4.403 -1.4783 -1.0073 -0.1427
  133OSM   H17T14323   5.226   2.674   4.530  0.0455 -2.0852 -0.2499
  133OSM   C18S14324   5.391   2.794   4.460 -0.1243  0.4391 -0.3049
  133OSM   H18S14325   5.339   2.892   4.455 -1.1782 -0.0315  0.9122
  133OSM   H18T14326   5.475   2.791   4.387 -0.9912 -2.0367 -1.2794
  133OSM   H18U14327   5.433   2.776   4.562 -0.9175  1.9651  0.3235
  133OSM    C1F14328   4.972   2.554   2.800  0.1987  0.6394  1.5719
  133OSM     OF14329   5.093   2.560   2.782  0.1164  0.4431 -0.4915
  133OSM    C2F14330   4.891   2.433   2.827  0.6377 -0.5912 -0.1948
  133OSM    H2F14331   4.855   2.395   2.729  0.5199  2.0653 -1.2774
  133OSM    H2G14332   4.810   2.444   2.902 -0.3877  0.2089 -1.3626
  133OSM    C3F14333   4.990   2.322   2.881 -0.1739  0.0624  0.2383
  133OSM    H3F14334   5.078   2.312   2.815  0.4801 -0.2210  1.1257
  133OSM    H3G14335   4.949   2.218   2.878  0.9778 -0.4073  0.0785
  133OSM    C4F14336   5.041   2.350   3.026  0.5033  0.2035  0.1168
  133OSM    H4F14337   5.076   2.456   3.031  1.4133  0.0595 -1.9003
  133OSM    H4G14338   5.134   2.296   3.051 -0.3868 -1.3560  0.1492
  133OSM    C5F14339   4.933   2.321   3.136 -0.4526  0.1288  0.1504
  133OSM    H5F14340   4.920   2.211   3.123  0.6653  0.0492 -0.4795
  133OSM    H5G14341   4.833   2.364   3.116 -1.7254 -2.2387  1.0685
  133OSM    C6F14342   4.975   2.361   3.281  0.1956 -0.4272 -0.3301
  133OSM    H6F14343   4.956   2.470   3.292 -2.5961 -0.7526 -1.2421
  133OSM    H6G14344   5.079   2.332   3.308  0.0669 -0.7581 -0.1810
  133OSM    C7F14345   4.881   2.295   3.386 -0.8539 -0.1720 -0.6321
  133OSM    H7F14346   4.865   2.188   3.360  3.8366 -1.7556  1.7808
  133OSM    H7G14347   4.782   2.343   3.368  0.0898  1.8543 -0.7232
  133OSM    C8F14348   4.924   2.306   3.536 -0.6251  0.3707 -0.7506
  133OSM    H8F14349   4.938   2.412   3.566 -0.1807 -0.4792  2.4768
  133OSM    H8G14350   5.015   2.245   3.550 -0.8116  0.1026 -0.6972
  133OSM    C9F14351   4.810   2.254   3.616 -0.5431 -0.1824 -0.4277
  133OSM    H9F14352   4.713   2.299   3.591 -0.9041 -0.7016  0.0119
  133OSM   C10F14353   4.813   2.186   3.731 -0.0458 -0.4241  0.8710
  133OSM   H10F14354   4.722   2.149   3.781  1.3749 -2.4492  2.1395
  133OSM   C11F14355   4.941   2.147   3.803 -0.0658 -0.7859 -0.2209
  133OSM   H11F14356   5.028   2.130   3.735  1.7018  0.8902  1.5182
  133OSM   H11G14357   4.950   2.054   3.864  3.0508  0.6656  1.8020
  133OSM   C12F14358   4.974   2.263   3.903  0.0045  0.5163  1.0204
  133OSM   H12F14359   5.015   2.353   3.851  3.4723 -1.3687  0.1081
  133OSM   H12G14360   5.067   2.235   3.958  1.1671 -0.5708 -1.3123
  133OSM   C13F14361   4.870   2.306   4.007  0.6208 -0.6372  0.0045
  133OSM   H13F14362   4.787   2.355   3.951 -1.6057 -2.7256  1.3135
  133OSM   H13G14363   4.914   2.369   4.087  0.2691  0.2468 -0.4794
  133OSM   C14F14364   4.808   2.188   4.089  0.5786 -0.2704 -0.2704
  133OSM   H14F14365   4.870   2.139   4.167  2.2026  0.2129 -1.2130
  133OSM   H14G14366   4.796   2.103   4.019  3.0391 -2.1377  1.4026
  133OSM   C15F14367   4.675   2.233   4.146 -0.0261  0.1927 -1.0699
  133OSM   H15F14368   4.602   2.235   4.062  0.0789 -1.7620 -1.2527
  133OSM   H15G14369   4.698   2.336   4.182  0.5153  0.1040 -1.1434
  133OSM   C16F14370   4.617   2.139   4.255  0.4414 -0.4406 -0.4284
  133OSM   H16F14371   4.674   2.158   4.348 -0.4740  1.4929 -0.2053
  133OSM   H16G14372   4.625   2.036   4.216  0.7702 -0.7735  0.5119
  133OSM   C17F14373   4.468   2.182   4.287 -0.4674  0.1026  0.1051
  133OSM   H17F14374   4.410   2.113   4.351 -0.5795  1.6865  1.8367
  133OSM   H17G14375   4.409   2.185   4.193 -2.3739 -1.5625  1.1898
  133OSM   C18F14376   4.477   2.315   4.364 -0.0489 -0.2316  0.1069
  133OSM   H18F14377   4.513   2.297   4.468  0.1108 -0.3425  0.0336
  133OSM   H18G14378   4.376   2.357   4.382  1.0961  2.5453  0.5440
  133OSM   H18H14379   4.532   2.395   4.308  0.4510 -0.2336  0.5841
  134OSM      N14380   5.749   6.072   2.139  0.1665  0.2576  0.2259
  134OSM    C1514381   5.746   6.198   2.227  0.4774 -0.7536  0.0355
  134OSM   H15A14382   5.669   6.200   2.302 -0.2475  0.4773 -0.7203
  134OSM   H15B14383   5.720   6.285   2.169 -0.2812 -0.6974  0.4510
  134OSM   H15C14384   5.840   6.222   2.276  1.6507  0.6812 -2.6745
  134OSM    C1414385   5.625   6.057   2.059  0.4649 -0.2943 -0.5950
  134OSM   H14A14386   5.534   6.053   2.117 -0.6064  1.2000 -2.0534
  134OSM   H14B14387   5.625   5.961   2.009  1.6690 -0.0053 -1.1976
  134OSM   H14C14388   5.624   6.131   1.980 -0.8917 -1.3305 -1.6241
  134OSM    C1314389   5.864   6.088   2.041  0.4674  0.6104  0.0176
  134OSM   H13A14390   5.853   6.178   1.983 -2.4890 -0.1639 -0.8114
  134OSM   H13B14391   5.864   6.003   1.974 -0.1288 -0.0177  0.7875
  134OSM   H13C14392   5.954   6.095   2.100 -0.1308  0.3136  0.9968
  134OSM    C1214393   5.759   5.951   2.225  0.1929 -0.5359  0.6190
  134OSM   H12A14394   5.680   5.944   2.298 -1.4746 -2.3163 -1.2191
  134OSM   H12B14395   5.853   5.962   2.276  1.0457 -0.6497 -0.8483
  134OSM    C1114396   5.753   5.817   2.146  0.2498  0.7724 -0.5214
  134OSM   H11A14397   5.813   5.743   2.204 -1.1597 -1.4699 -1.7394
  134OSM   H11B14398   5.824   5.832   2.062  1.0921  0.0929  0.0500
  134OSM      P14399   5.585   5.624   2.101 -0.4248 -0.3242 -0.0509
  134OSM    O1314400   5.472   5.606   2.012  0.0448 -0.6155 -0.6324
  134OSM    O1414401   5.710   5.554   2.071 -0.0095 -0.0693  0.2212
  134OSM    O1114402   5.546   5.578   2.243  0.4145  0.6935 -0.1937
  134OSM    O1214403   5.622   5.775   2.110 -0.7672  0.0111 -0.1688
  134OSM    C1S14404   5.526   5.678   2.346 -0.2570  0.0403 -0.4056
  134OSM    H1S14405   5.451   5.752   2.310 -1.1343 -0.4287  0.3886
  134OSM    H1T14406   5.616   5.737   2.372  0.6592 -1.7041  0.5230
  134OSM     NF14407   5.427   5.738   2.553  0.7942 -0.1265 -0.5656
  134OSM    HNF14408   5.494   5.757   2.624 -1.1393  0.2218  1.2997
  134OSM    C2S14409   5.462   5.619   2.477 -0.6732 -0.4301  0.3241
  134OSM    H2S14410   5.373   5.559   2.447  1.2676 -3.6536  0.6039
  134OSM    C3S14411   5.552   5.520   2.543  0.3281 -0.0119 -0.3492
  134OSM    H3S14412   5.658   5.553   2.547  0.7972 -1.4742 -0.1792
  134OSM     O314413   5.560   5.404   2.459  0.0906  0.0653  0.4077
  134OSM    HO314414   5.589   5.444   2.377 -2.9995  1.2167 -0.2709
  134OSM    C4S14415   5.494   5.482   2.672  0.8064 -0.2880  0.5235
  134OSM    H4S14416   5.402   5.422   2.666 -0.3541  1.1754  2.3624
  134OSM    C5S14417   5.539   5.510   2.793  0.4291 -0.0233  0.7462
  134OSM    H5S14418   5.629   5.574   2.798  0.7971 -0.5503  0.9276
  134OSM    C6S14419   5.468   5.483   2.929 -0.6135 -0.7605  0.0910
  134OSM    H6S14420   5.491   5.563   3.003 -0.0892 -0.8337  0.0104
  134OSM    H6T14421   5.503   5.385   2.969 -0.5161  0.3283  2.8933
  134OSM    C7S14422   5.309   5.471   2.933 -0.2761 -0.6964 -0.6995
  134OSM    H7S14423   5.279   5.385   2.869 -0.8079 -0.4413 -0.7993
  134OSM    H7T14424   5.265   5.563   2.889 -2.3000 -0.8614  0.8574
  134OSM    C8S14425   5.253   5.457   3.071 -0.5074 -0.6889 -0.7532
  134OSM    H8S14426   5.174   5.531   3.096  0.1073 -0.3360  0.2162
  134OSM    H8T14427   5.333   5.488   3.141 -1.9382  0.5552  0.4239
  134OSM    C9S14428   5.209   5.317   3.106  1.0924 -0.2731  0.4250
  134OSM    H9S14429   5.297   5.250   3.113 -0.1795 -2.1252 -0.3634
  134OSM    H9T14430   5.144   5.285   3.022 -0.1143 -1.4664  1.7482
  134OSM   C10S14431   5.128   5.320   3.242  0.5493  0.0564 -0.1363
  134OSM   H10S14432   5.029   5.368   3.227  1.8556  3.0714  0.2496
  134OSM   H10T14433   5.185   5.380   3.316  1.4539 -0.9139 -0.0100
  134OSM   C11S14434   5.122   5.179   3.300  0.3396  0.2687  0.6142
  134OSM   H11S14435   5.222   5.132   3.308  0.2761  0.1330  0.5987
  134OSM   H11T14436   5.063   5.118   3.228 -1.3905  0.5294  1.7480
  134OSM   C12S14437   5.062   5.171   3.442 -0.2444  0.3855  0.2130
  134OSM   H12S14438   4.972   5.237   3.442  0.3767  1.3022  2.1789
  134OSM   H12T14439   5.131   5.232   3.504 -0.4832  0.7020  0.1712
  134OSM   C13S14440   5.055   5.024   3.490 -0.6809 -0.3083  0.6553
  134OSM   H13S14441   5.156   4.977   3.484 -0.8487 -0.8129  1.5698
  134OSM   H13T14442   4.992   4.967   3.419  0.3595  0.1421 -0.6615
  134OSM   C14S14443   4.986   5.019   3.627 -0.4049  0.5373  0.2228
  134OSM   H14S14444   4.885   5.061   3.610  0.4807  2.6373 -0.1847
  134OSM   H14T14445   5.040   5.092   3.691  1.4615 -1.4661  1.0531
  134OSM   C15S14446   4.975   4.876   3.690 -0.6286 -0.7379  0.1237
  134OSM   H15S14447   5.079   4.836   3.693 -0.0199  0.7999  0.8536
  134OSM   H15T14448   4.924   4.816   3.612  1.3616 -0.8253 -1.1939
  134OSM   C16S14449   4.908   4.887   3.823  0.3769  0.3869 -0.4916
  134OSM   H16S14450   4.830   4.965   3.836 -1.0007 -0.9121 -0.7338
  134OSM   H16T14451   4.991   4.918   3.891  1.6871  0.5187 -2.0831
  134OSM   C17S14452   4.862   4.756   3.878  0.2382  0.1241  0.8314
  134OSM   H17S14453   4.793   4.704   3.808  1.9217  0.2099 -0.9445
  134OSM   H17T14454   4.789   4.762   3.962  0.0801  0.2493  0.6839
  134OSM   C18S14455   4.987   4.664   3.915 -0.5893  0.4005  0.1011
  134OSM   H18S14456   4.957   4.572   3.969  2.1452 -0.8473 -0.3348
  134OSM   H18T14457   5.058   4.720   3.979 -0.3324  0.0609  0.1124
  134OSM   H18U14458   5.040   4.635   3.821  0.2235  0.0317  0.6636
  134OSM    C1F14459   5.320   5.820   2.531 -1.0746  0.1938  0.2044
  134OSM     OF14460   5.240   5.785   2.442  0.5048  0.4667  0.0785
  134OSM    C2F14461   5.305   5.952   2.607  0.0425  0.0280  0.2635
  134OSM    H2F14462   5.269   6.033   2.540 -2.2059 -0.8877  0.2786
  134OSM    H2G14463   5.406   5.980   2.646  0.1607 -2.9254  2.5197
  134OSM    C3F14464   5.209   5.926   2.719 -0.0883 -0.0076 -0.2954
  134OSM    H3F14465   5.254   5.863   2.799  0.6261  2.3284  1.2788
  134OSM    H3G14466   5.114   5.876   2.690  0.2127 -0.2489 -0.8808
  134OSM    C4F14467   5.173   6.054   2.802 -0.4717 -0.7408  0.4409
  134OSM    H4F14468   5.141   6.136   2.734  1.3509 -0.8323 -0.5813
  134OSM    H4G14469   5.269   6.077   2.853 -0.1975  0.9903 -0.7580
  134OSM    C5F14470   5.075   6.009   2.915 -0.3253 -0.4549  0.5413
  134OSM    H5F14471   5.123   5.932   2.978 -1.5878 -0.4601  1.5429
  134OSM    H5G14472   4.983   5.959   2.878  0.5777 -1.0882 -0.9250
  134OSM    C6F14473   5.036   6.140   2.991 -0.5651 -0.1820 -0.6795
  134OSM    H6F14474   4.939   6.140   3.045 -0.2289  1.5361 -0.0028
  134OSM    H6G14475   5.045   6.214   2.909 -0.4794 -0.4601 -0.9208
  134OSM    C7F14476   5.138   6.181   3.100 -0.6040 -0.1803  0.0106
  134OSM    H7F14477   5.122   6.284   3.138 -2.2072 -0.6371  0.6660
  134OSM    H7G14478   5.246   6.183   3.073  0.4285  1.7392  3.6297
  134OSM    C8F14479   5.136   6.092   3.233 -0.9655  0.2160  0.0322
  134OSM    H8F14480   5.205   6.133   3.309 -0.6339  1.0899 -0.7230
  134OSM    H8G14481   5.171   5.991   3.202 -1.3879 -0.6497  2.1652
  134OSM    C9F14482   4.997   6.083   3.288  0.1951 -0.3769  0.3456
  134OSM    H9F14483   4.912   6.046   3.228 -0.7498  0.9885  0.8104
  134OSM   C10F14484   4.955   6.115   3.414 -0.3048  0.2378  0.0790
  134OSM   H10F14485   4.846   6.111   3.431 -0.2779 -0.5587  0.0763
  134OSM   C11F14486   5.046   6.169   3.525  0.4755  0.1836 -0.2753
  134OSM   H11F14487   5.082   6.272   3.505  2.8049 -0.4544  0.2713
  134OSM   H11G14488   5.138   6.106   3.531  1.7124  1.6482 -2.3564
  134OSM   C12F14489   4.969   6.191   3.660 -0.3708 -0.6937 -0.3339
  134OSM   H12F14490   4.914   6.096   3.674 -0.1569 -0.5659  1.7269
  134OSM   H12G14491   4.907   6.281   3.640  0.5927  0.0096 -0.2154
  134OSM   C13F14492   5.060   6.214   3.785 -0.4061 -0.0933  0.1229
  134OSM   H13F14493   5.113   6.312   3.785 -0.7971  0.1256 -0.5531
  134OSM   H13G14494   5.150   6.149   3.782 -0.5914 -0.3232 -0.4229
  134OSM   C14F14495   4.987   6.198   3.915  0.3982 -0.4155 -0.4368
  134OSM   H14F14496   4.997   6.090   3.940 -0.1084  0.0510  1.9862
  134OSM   H14G14497   4.881   6.221   3.892 -0.0559 -2.1589 -0.2615
  134OSM   C15F14498   5.038   6.288   4.033  1.3991  0.4822  0.6380
  134OSM   H15F14499   5.060   6.385   3.983  1.2737  0.0086 -0.3600
  134OSM   H15G14500   5.131   6.239   4.070 -0.9202 -3.9538  1.3622
  134OSM   C16F14501   4.937   6.291   4.145  0.0318 -0.6221 -0.2942
  134OSM   H16F14502   4.962   6.213   4.220  0.3944  0.0747  0.3329
  134OSM   H16G14503   4.834   6.287   4.105  0.0855  2.7647 -1.0810
  134OSM   C17F14504   4.950   6.427   4.225 -0.7668 -0.4669  0.8693
  134OSM   H17F14505   4.941   6.512   4.154  0.4809  1.1510  2.5465
  134OSM   H17G14506   5.057   6.434   4.254 -0.9973  0.4111  1.5353
  134OSM   C18F14507   4.862   6.433   4.348 -0.0067  0.0827  0.5009
  134OSM   H18F14508   4.894   6.524   4.403  2.1582 -1.2439  1.5746
  134OSM   H18G14509   4.875   6.348   4.419  0.0648 -0.6062 -0.3180
  134OSM   H18H14510   4.757   6.433   4.312  0.5491  0.0468 -1.2572
  135OSM      N14511   0.585   1.276   2.064  0.4331 -0.0603  0.0173
  135OSM    C1514512   0.488   1.339   1.968  0.0473  0.1501  0.5092
  135OSM   H15A14513   0.395   1.362   2.018  0.5708 -1.5708  2.4170
  135OSM   H15B14514   0.469   1.268   1.890  0.5795  2.3106 -1.7285
  135OSM   H15C14515   0.524   1.433   1.927 -0.5822  0.1756  0.0063
  135OSM    C1414516   0.582   1.126   2.062 -0.0807  0.1141 -0.0731
  135OSM   H14A14517   0.681   1.090   2.082 -0.6493 -1.9656 -0.7792
  135OSM   H14B14518   0.547   1.090   1.966 -0.9560 -0.1187  0.3206
  135OSM   H14C14519   0.510   1.083   2.130 -2.1407  0.2906 -1.9982
  135OSM    C1314520   0.717   1.317   2.018 -0.3747 -0.1370 -0.7028
  135OSM   H13A14521   0.807   1.290   2.071 -1.1470  0.4361  0.9502
  135OSM   H13B14522   0.713   1.424   2.008 -0.1800 -0.1740 -1.2399
  135OSM   H13C14523   0.731   1.284   1.916  1.4684  2.2006 -1.2926
  135OSM    C1214524   0.566   1.321   2.207 -0.4247 -0.2043 -0.7326
  135OSM   H12A14525   0.559   1.428   2.199 -1.8821 -0.1101  1.1132
  135OSM   H12B14526   0.650   1.297   2.270 -0.6720 -0.1337 -0.3719
  135OSM    C1114527   0.443   1.271   2.278 -0.2019  0.0857 -0.3860
  135OSM   H11A14528   0.456   1.297   2.385  0.9825  1.6820 -0.8693
  135OSM   H11B14529   0.438   1.160   2.273  0.1192  0.0943 -0.9450
  135OSM      P14530   0.279   1.471   2.251  0.2297  0.0050  0.5502
  135OSM    O1314531   0.374   1.554   2.165 -0.2259 -0.7045  0.6450
  135OSM    O1414532   0.133   1.491   2.221 -0.9034 -0.0654 -0.8476
  135OSM    O1114533   0.303   1.489   2.403 -0.1420  0.0133 -0.1144
  135OSM    O1214534   0.323   1.319   2.232 -0.2636 -0.0690 -0.3587
  135OSM    C1S14535   0.185   1.476   2.485 -0.2606 -0.2865 -0.1609
  135OSM    H1S14536   0.139   1.376   2.468  1.3829 -1.5996  2.3674
  135OSM    H1T14537   0.111   1.555   2.462 -0.2328 -0.7486 -1.9293
  135OSM     NF14538   0.099   1.466   2.709  0.1710 -0.1059 -0.4122
  135OSM    HNF14539   0.069   1.547   2.758  1.0054 -0.2644  0.3946
  135OSM    C2S14540   0.220   1.479   2.630 -0.5061  0.2585  0.0365
  135OSM    H2S14541   0.269   1.382   2.652 -1.7157  0.0797  2.2143
  135OSM    C3S14542   0.309   1.606   2.658 -0.2902 -0.0578 -1.0285
  135OSM    H3S14543   0.257   1.692   2.609  0.1237  1.3854  0.9575
  135OSM     O314544   0.442   1.611   2.600 -0.0561  0.0185 -0.1023
  135OSM    HO314545   0.430   1.544   2.532  0.7637 -1.9325  1.5616
  135OSM    C4S14546   0.324   1.632   2.809 -0.1526  0.0098 -0.5302
  135OSM    H4S14547   0.241   1.692   2.848 -1.9778 -2.6192 -0.1901
  135OSM    C5S14548   0.424   1.578   2.889 -0.1178  0.1809 -0.0456
  135OSM    H5S14549   0.500   1.512   2.844 -0.8730 -1.2310  0.6692
  135OSM    C6S14550   0.440   1.585   3.037  0.1913 -0.2335 -0.1222
  135OSM    H6S14551   0.376   1.668   3.071  0.7540  0.6761 -1.2175
  135OSM    H6T14552   0.542   1.613   3.071  1.2486 -0.6837 -2.6290
  135OSM    C7S14553   0.417   1.463   3.127 -0.0722  0.2231  0.2352
  135OSM    H7S14554   0.484   1.375   3.114  0.2475  0.1289  2.2412
  135OSM    H7T14555   0.309   1.435   3.126  0.1349 -0.6075  0.4021
  135OSM    C8S14556   0.444   1.508   3.274 -0.2169  0.4959 -0.3500
  135OSM    H8S14557   0.391   1.604   3.296  1.3735  1.2864  0.1577
  135OSM    H8T14558   0.551   1.528   3.296  0.3786  0.3050 -2.8447
  135OSM    C9S14559   0.392   1.385   3.363 -0.9695  0.0228  0.1422
  135OSM    H9S14560   0.458   1.301   3.335 -1.6693 -0.1601 -0.9961
  135OSM    H9T14561   0.294   1.351   3.322 -0.4790 -0.1132 -0.9351
  135OSM   C10S14562   0.398   1.418   3.514  0.1446 -0.3478 -0.7340
  135OSM   H10S14563   0.339   1.510   3.537  1.4357  0.1368  0.7477
  135OSM   H10T14564   0.503   1.441   3.542  0.2424 -1.5702 -0.0650
  135OSM   C11S14565   0.354   1.294   3.598 -0.2411  0.2588  0.0511
  135OSM   H11S14566   0.420   1.207   3.578 -0.9030 -0.5959  1.4363
  135OSM   H11T14567   0.254   1.258   3.563  1.0998 -1.1370 -2.7166
  135OSM   C12S14568   0.353   1.312   3.751 -0.6153  0.7990  0.2916
  135OSM   H12S14569   0.308   1.224   3.801  0.1640  0.2748  0.0888
  135OSM   H12T14570   0.275   1.388   3.772 -0.1997  0.8471  1.7717
  135OSM   C13S14571   0.486   1.341   3.822  0.2128  0.0020  0.2211
  135OSM   H13S14572   0.507   1.450   3.821  0.5743 -0.0674  0.3199
  135OSM   H13T14573   0.566   1.295   3.761  0.3207  0.7382 -0.2089
  135OSM   C14S14574   0.485   1.283   3.957 -0.7176 -0.9465  0.6711
  135OSM   H14S14575   0.447   1.179   3.962 -1.0516 -0.8767 -0.2333
  135OSM   H14T14576   0.415   1.347   4.016  1.2406  1.7264  0.2689
  135OSM   C15S14577   0.621   1.292   4.035 -0.4737  0.2074  0.0156
  135OSM   H15S14578   0.653   1.395   4.062 -1.7232  0.7353 -0.4574
  135OSM   H15T14579   0.707   1.253   3.976  0.0683  1.8555 -0.3452
  135OSM   C16S14580   0.605   1.212   4.171 -0.2280  0.0032 -0.0639
  135OSM   H16S14581   0.593   1.103   4.154 -0.5776 -0.0790  0.6703
  135OSM   H16T14582   0.519   1.258   4.223  0.1196 -0.1334  0.6457
  135OSM   C17S14583   0.722   1.232   4.266  0.1533 -0.0676 -0.4853
  135OSM   H17S14584   0.745   1.340   4.277 -1.7197  0.4643 -1.2939
  135OSM   H17T14585   0.809   1.180   4.220  0.2263 -0.3417 -0.0395
  135OSM   C18S14586   0.699   1.176   4.405  0.3416  0.3286 -0.9113
  135OSM   H18S14587   0.629   1.239   4.464  0.3211 -0.7048  0.1918
  135OSM   H18T14588   0.794   1.165   4.461 -0.7754  0.2406  1.0493
  135OSM   H18U14589   0.643   1.082   4.386  0.0146  0.2915  0.2203
  135OSM    C1F14590   0.021   1.357   2.729 -0.1218  0.6465  0.2821
  135OSM     OF14591   0.025   1.253   2.655 -0.0377  0.0281  0.3577
  135OSM    C2F14592  -0.078   1.372   2.846 -0.3381  0.5619  0.7368
  135OSM    H2F14593  -0.174   1.371   2.790 -0.2385 -0.6656  0.5698
  135OSM    H2G14594  -0.072   1.474   2.891 -1.3971  0.8248  0.3065
  135OSM    C3F14595  -0.071   1.258   2.951 -0.0089  0.6140  0.6522
  135OSM    H3F14596  -0.076   1.160   2.899 -0.7906  1.6081 -1.2141
  135OSM    H3G14597  -0.154   1.261   3.025  0.0178  0.2920  0.6960
  135OSM    C4F14598   0.062   1.269   3.029  0.2348 -0.7570  0.6746
  135OSM    H4F14599   0.056   1.194   3.112 -2.4313 -0.9377  0.3855
  135OSM    H4G14600   0.082   1.373   3.063 -0.6522 -0.5641  0.6194
  135OSM    C5F14601   0.193   1.233   2.950 -0.3582 -0.1694 -0.1412
  135OSM    H5F14602   0.230   1.328   2.909  0.4361 -0.4992 -0.1954
  135OSM    H5G14603   0.176   1.165   2.864  0.1740 -1.7934  0.9730
  135OSM    C6F14604   0.295   1.162   3.040  0.6582 -0.6134  0.2826
  135OSM    H6F14605   0.296   1.207   3.141 -0.8999 -0.5037  0.2738
  135OSM    H6G14606   0.390   1.182   2.987 -0.2884 -0.4264 -1.4169
  135OSM    C7F14607   0.273   1.010   3.047 -1.5169 -0.3249 -0.2222
  135OSM    H7F14608   0.282   0.967   2.945  2.0663 -1.9122  0.6128
  135OSM    H7G14609   0.173   0.980   3.086 -1.8458  2.8589  1.7365
  135OSM    C8F14610   0.395   0.943   3.132 -0.2076 -0.5335  0.2373
  135OSM    H8F14611   0.489   0.956   3.074 -0.7495 -1.4143 -0.8817
  135OSM    H8G14612   0.364   0.836   3.137 -1.6100 -0.1979 -0.5396
  135OSM    C9F14613   0.421   1.001   3.270 -0.0064  0.0004  0.0997
  135OSM    H9F14614   0.494   1.083   3.262 -2.1384  2.0579  0.5942
  135OSM   C10F14615   0.346   0.979   3.380 -1.0028 -0.4426  0.6015
  135OSM   H10F14616   0.376   1.027   3.474  1.3065  0.5950 -0.5766
  135OSM   C11F14617   0.224   0.878   3.390 -0.4205 -0.5835  0.3789
  135OSM   H11F14618   0.250   0.787   3.447 -0.0000 -0.3453  0.5778
  135OSM   H11G14619   0.191   0.846   3.289 -1.8435 -1.8019  1.1937
  135OSM   C12F14620   0.101   0.942   3.444 -0.6580 -1.1134 -0.5236
  135OSM   H12F14621   0.015   0.876   3.422 -1.1147 -0.0770 -2.0725
  135OSM   H12G14622   0.093   1.040   3.392  2.3875 -0.7195 -0.4444
  135OSM   C13F14623   0.097   0.965   3.596  0.5160 -0.2456  0.0273
  135OSM   H13F14624   0.183   1.016   3.644  1.7673 -2.3216  0.1044
  135OSM   H13G14625   0.096   0.870   3.654 -0.3536 -0.4779 -0.3410
  135OSM   C14F14626  -0.019   1.051   3.636  0.4477 -0.7066 -0.0362
  135OSM   H14F14627  -0.014   1.151   3.589 -2.1707  0.4721  1.9437
  135OSM   H14G14628   0.000   1.083   3.741 -1.1016  0.0945  0.0265
  135OSM   C15F14629  -0.146   0.972   3.635  0.0067 -0.9113 -0.0378
  135OSM   H15F14630  -0.133   0.870   3.675 -1.9425 -0.2543  2.5827
  135OSM   H15G14631  -0.177   0.959   3.529  0.6312 -2.3181 -0.0584
  135OSM   C16F14632  -0.270   1.035   3.710 -0.2286  0.1289  0.2506
  135OSM   H16F14633  -0.361   0.977   3.685  0.1600 -0.8960  1.1712
  135OSM   H16G14634  -0.283   1.137   3.668 -1.1636 -0.4049 -0.8140
  135OSM   C17F14635  -0.262   1.031   3.862 -0.4337  0.0123  0.1845
  135OSM   H17F14636  -0.164   1.071   3.896  1.1142 -0.7592 -3.0121
  135OSM   H17G14637  -0.272   0.925   3.894  1.8557 -0.2129  0.3288
  135OSM   C18F14638  -0.374   1.115   3.935 -0.2247  0.1820 -0.1384
  135OSM   H18F14639  -0.384   1.216   3.890  0.2327  1.3138  2.1233
  135OSM   H18G14640  -0.341   1.147   4.036  0.9756  3.0687 -1.3334
  135OSM   H18H14641  -0.473   1.064   3.936 -2.1002  3.4931  0.2923
  136OSM      N14642   2.377   5.295   1.646 -0.1581  0.1424 -0.4309
  136OSM    C1514643   2.327   5.178   1.728  0.7489 -0.0226 -0.4931
  136OSM   H15A14644   2.313   5.090   1.667  0.3181  1.8036 -3.1754
  136OSM   H15B14645   2.229   5.197   1.768  0.2193 -0.4101 -1.5936
  136OSM   H15C14646   2.382   5.152   1.818 -0.2960  0.5102  0.3263
  136OSM    C1414647   2.305   5.300   1.510 -0.2035 -0.1416  0.4184
  136OSM   H14A14648   2.208   5.343   1.530  0.6188  0.8267  2.5791
  136OSM   H14B14649   2.291   5.201   1.471  1.6923  0.9066 -3.4765
  136OSM   H14C14650   2.369   5.355   1.442 -0.3756 -0.0184  0.3531
  136OSM    C1314651   2.354   5.423   1.722  0.0644  0.7837  0.3967
  136OSM   H13A14652   2.380   5.407   1.826 -0.5080 -0.6913  0.3368
  136OSM   H13B14653   2.250   5.450   1.714 -0.1302  0.4226  1.6013
  136OSM   H13C14654   2.408   5.505   1.676  0.0534  1.1893  1.0820
  136OSM    C1214655   2.529   5.281   1.622 -0.4014 -0.0022 -0.3053
  136OSM   H12A14656   2.572   5.348   1.549  0.7676  0.9935  1.2247
  136OSM   H12B14657   2.549   5.183   1.582  0.3410  0.7774 -1.9463
  136OSM    C1114658   2.627   5.277   1.753 -0.4800  0.3981  0.2463
  136OSM   H11A14659   2.594   5.356   1.824  0.9448  0.8968  0.3887
  136OSM   H11B14660   2.730   5.311   1.730  0.5568  0.1745  3.9091
  136OSM      P14661   2.742   5.051   1.804  0.1279 -0.2677  0.5703
  136OSM    O1314662   2.710   4.910   1.808  0.0888  0.0475 -0.1744
  136OSM    O1414663   2.832   5.105   1.701  0.0475 -0.6706 -0.1909
  136OSM    O1114664   2.816   5.089   1.940  0.5709  0.3999 -0.0187
  136OSM    O1214665   2.622   5.149   1.813  0.1453  0.2086  0.2413
  136OSM    C1S14666   2.752   5.042   2.058  0.1533 -0.8901 -0.4934
  136OSM    H1S14667   2.642   5.029   2.048 -0.6764  3.2661  0.9887
  136OSM    H1T14668   2.771   5.122   2.133  1.1330 -2.1983  0.7058
  136OSM     NF14669   2.756   4.880   2.240 -0.2415  0.3129 -0.1372
  136OSM    HNF14670   2.809   4.894   2.324 -0.1391  2.8065 -0.5308
  136OSM    C2S14671   2.826   4.915   2.119  0.8934 -0.4159 -0.1869
  136OSM    H2S14672   2.813   4.825   2.056  0.8902  1.4468 -3.0530
  136OSM    C3S14673   2.984   4.922   2.129  0.1924 -0.6047 -0.4500
  136OSM    H3S14674   3.000   5.003   2.204 -3.1811 -0.1987 -0.0016
  136OSM     O314675   3.044   4.986   2.019 -0.9889  0.2415  0.6318
  136OSM    HO314676   2.965   5.025   1.980 -1.2136  0.2661  1.0979
  136OSM    C4S14677   3.049   4.798   2.184  0.9124  0.7866  0.1740
  136OSM    H4S14678   3.096   4.814   2.282 -1.1755  2.7405  0.9499
  136OSM    C5S14679   3.083   4.692   2.111 -0.4811  0.6604  0.1192
  136OSM    H5S14680   3.068   4.692   2.002 -0.6355  1.3303  0.1378
  136OSM    C6S14681   3.163   4.574   2.163 -0.4233 -0.3431 -0.0806
  136OSM    H6S14682   3.263   4.587   2.117 -1.1754  1.3169 -1.3688
  136OSM    H6T14683   3.119   4.480   2.124  0.1975 -0.7273  0.1315
  136OSM    C7S14684   3.194   4.561   2.309  0.2057 -0.4266 -0.0441
  136OSM    H7S14685   3.101   4.546   2.369  1.0535  1.6851  1.9393
  136OSM    H7T14686   3.243   4.652   2.349  0.1667 -1.4180  2.4126
  136OSM    C8S14687   3.283   4.436   2.338 -0.2462 -0.6634  0.5395
  136OSM    H8S14688   3.378   4.432   2.280 -1.1751 -1.3096 -1.0265
  136OSM    H8T14689   3.220   4.349   2.308 -2.5221  1.7336 -2.3072
  136OSM    C9S14690   3.302   4.419   2.489  0.1597 -0.0939 -0.2195
  136OSM    H9S14691   3.339   4.510   2.540 -0.4917  1.2159 -1.9692
  136OSM    H9T14692   3.386   4.347   2.496  1.0434  1.0212  1.1746
  136OSM   C10S14693   3.185   4.370   2.580 -0.0181  0.2373  0.5539
  136OSM   H10S14694   3.147   4.281   2.527 -0.5908  0.4208  0.6482
  136OSM   H10T14695   3.099   4.441   2.577 -0.4054 -0.2573 -1.3287
  136OSM   C11S14696   3.213   4.334   2.723 -0.2356  0.3118  0.2267
  136OSM   H11S14697   3.305   4.384   2.759 -1.0994  1.7106  0.5722
  136OSM   H11T14698   3.232   4.225   2.722  1.4634  0.5528  1.4824
  136OSM   C12S14699   3.086   4.345   2.817 -0.2527 -0.3848 -0.2272
  136OSM   H12S14700   3.010   4.284   2.765 -0.1045 -2.9456  2.3342
  136OSM   H12T14701   3.054   4.451   2.831  2.0097  0.6083 -1.8870
  136OSM   C13S14702   3.100   4.269   2.949  0.4166  0.5745 -0.1822
  136OSM   H13S14703   3.182   4.310   3.013 -0.2248  1.5145  0.0645
  136OSM   H13T14704   3.135   4.165   2.930 -1.7329 -0.1936 -0.1902
  136OSM   C14S14705   2.977   4.250   3.037  0.0987 -0.5760 -0.5908
  136OSM   H14S14706   2.903   4.198   2.973 -1.6758  1.3445 -0.2296
  136OSM   H14T14707   2.939   4.350   3.066  0.7501  0.0664 -1.8291
  136OSM   C15S14708   3.009   4.171   3.172  0.7008  0.0703  0.2407
  136OSM   H15S14709   3.101   4.217   3.215  2.0085 -1.9113 -0.3236
  136OSM   H15T14710   3.041   4.067   3.149  2.8057  0.6980  0.1236
  136OSM   C16S14711   2.893   4.160   3.273 -0.3438 -0.2573 -0.4287
  136OSM   H16S14712   2.798   4.128   3.224  0.2319 -0.7613 -1.2463
  136OSM   H16T14713   2.870   4.255   3.325 -2.3080 -0.8150 -0.2125
  136OSM   C17S14714   2.917   4.061   3.390  1.1045  0.5851  0.7181
  136OSM   H17S14715   2.990   4.110   3.458  1.9592  1.0353 -0.4819
  136OSM   H17T14716   2.957   3.966   3.347  0.3986  0.0380  1.2481
  136OSM   C18S14717   2.791   4.021   3.457  0.6028  0.2682 -0.3037
  136OSM   H18S14718   2.715   4.099   3.477 -0.4695 -0.9543  0.5840
  136OSM   H18T14719   2.805   3.965   3.551 -1.7166 -0.0151 -0.0721
  136OSM   H18U14720   2.738   3.951   3.388 -1.2677  1.8107 -0.5153
  136OSM    C1F14721   2.632   4.832   2.253  0.2269  0.2152  0.2229
  136OSM     OF14722   2.564   4.787   2.159 -0.5595 -0.6844 -0.8401
  136OSM    C2F14723   2.589   4.804   2.392 -0.2554  0.8203 -0.0331
  136OSM    H2F14724   2.588   4.902   2.445 -0.4281  1.2186 -0.7570
  136OSM    H2G14725   2.650   4.725   2.440 -1.8615 -0.5946 -0.2182
  136OSM    C3F14726   2.440   4.758   2.396 -0.4610 -0.7217  0.5504
  136OSM    H3F14727   2.410   4.666   2.342 -2.8871  0.4245 -0.2084
  136OSM    H3G14728   2.382   4.841   2.350  1.4026 -0.0255 -0.6847
  136OSM    C4F14729   2.386   4.758   2.541  0.0788 -0.1617  0.1210
  136OSM    H4F14730   2.411   4.858   2.583 -0.2052  0.5704 -1.3897
  136OSM    H4G14731   2.452   4.689   2.597  0.4981  0.7066  0.7151
  136OSM    C5F14732   2.238   4.718   2.553 -0.5090  0.0781 -0.0017
  136OSM    H5F14733   2.238   4.618   2.505 -0.7724 -1.3888  2.8431
  136OSM    H5G14734   2.175   4.789   2.495 -0.1346  1.4175  1.1728
  136OSM    C6F14735   2.193   4.720   2.696 -0.0911 -0.1364  0.3839
  136OSM    H6F14736   2.084   4.697   2.705  0.1588 -1.3450  0.5045
  136OSM    H6G14737   2.216   4.824   2.725  2.1479 -0.4414 -0.1093
  136OSM    C7F14738   2.270   4.636   2.799  1.2484  0.0327  0.0543
  136OSM    H7F14739   2.369   4.687   2.801  0.9855  0.5450  2.0526
  136OSM    H7G14740   2.277   4.531   2.764 -3.4635 -0.4027 -0.1711
  136OSM    C8F14741   2.208   4.646   2.942  0.2180 -0.2302 -0.7934
  136OSM    H8F14742   2.194   4.755   2.958 -3.1549 -0.4794 -1.2962
  136OSM    H8G14743   2.287   4.607   3.010 -1.5422 -1.8046  0.4819
  136OSM    C9F14744   2.077   4.562   2.965 -0.6193 -0.0009 -0.2443
  136OSM    H9F14745   2.002   4.585   2.888 -0.3121  1.4424 -0.1485
  136OSM   C10F14746   2.055   4.462   3.056  0.9289  0.8241  0.2832
  136OSM   H10F14747   1.953   4.421   3.053  1.1268 -0.0179  2.6824
  136OSM   C11F14748   2.142   4.406   3.170 -0.1445 -0.8018 -0.2567
  136OSM   H11F14749   2.227   4.477   3.179 -0.0279 -0.9735  0.0072
  136OSM   H11G14750   2.179   4.305   3.141  0.9812 -0.7213  0.8025
  136OSM   C12F14751   2.105   4.394   3.320  0.6237 -0.2954  0.7385
  136OSM   H12F14752   2.073   4.493   3.359  0.5161  0.0266 -0.1470
  136OSM   H12G14753   2.200   4.383   3.376  0.3673 -1.4178  0.9767
  136OSM   C13F14754   2.014   4.280   3.373 -0.2163  0.4551  0.3439
  136OSM   H13F14755   2.036   4.190   3.313 -1.7269  0.5297 -0.3868
  136OSM   H13G14756   1.908   4.309   3.355 -1.0010 -2.1627  0.3163
  136OSM   C14F14757   2.024   4.252   3.521 -0.2504  0.2770  0.0572
  136OSM   H14F14758   2.132   4.232   3.541 -0.6383 -1.0657  0.9018
  136OSM   H14G14759   1.962   4.163   3.544 -2.5711  1.7585 -0.1896
  136OSM   C15F14760   1.981   4.375   3.606  0.3977  0.3810  0.1686
  136OSM   H15F14761   2.053   4.459   3.601 -0.9832  1.8991  3.2029
  136OSM   H15G14762   1.976   4.338   3.710  0.6910 -1.4466 -0.4318
  136OSM   C16F14763   1.833   4.422   3.582  0.5297  0.2531  0.7977
  136OSM   H16F14764   1.753   4.347   3.602 -0.6814  1.3923  0.4225
  136OSM   H16G14765   1.823   4.458   3.477 -0.1546 -0.5645  0.5731
  136OSM   C17F14766   1.788   4.539   3.673 -0.0795 -0.3237 -0.0536
  136OSM   H17F14767   1.867   4.615   3.656 -0.7202  0.3878  0.1284
  136OSM   H17G14768   1.792   4.517   3.781  2.9314  1.8449  0.4029
  136OSM   C18F14769   1.655   4.594   3.644  0.0066 -0.0087  0.1348
  136OSM   H18F14770   1.647   4.624   3.537 -1.2875 -1.4442 -0.1912
  136OSM   H18G14771   1.647   4.689   3.701  0.5939  1.1956 -1.6587
  136OSM   H18H14772   1.567   4.531   3.667 -0.7764  0.2403 -1.9707
  137OSM      N14773   0.735   1.949   1.676  0.8923  0.0444  0.1172
  137OSM    C1514774   0.758   1.859   1.558 -0.3215 -0.4793 -0.1380
  137OSM   H15A14775   0.865   1.850   1.556  0.2692  3.6294  1.6913
  137OSM   H15B14776   0.716   1.911   1.473  0.0742  2.9740  1.6037
  137OSM   H15C14777   0.704   1.766   1.564 -1.0060 -0.0951 -0.2414
  137OSM    C1414778   0.790   2.079   1.641 -0.1183 -0.4255 -0.0025
  137OSM   H14A14779   0.897   2.072   1.631 -0.0476  1.1926 -0.6292
  137OSM   H14B14780   0.765   2.145   1.724  2.4809  0.1408  0.4093
  137OSM   H14C14781   0.748   2.118   1.550  0.8020  1.1017  0.1891
  137OSM    C1314782   0.587   1.956   1.700  0.1933  0.8575  0.7797
  137OSM   H13A14783   0.574   2.014   1.790 -1.8815  0.8160  0.5507
  137OSM   H13B14784   0.554   1.856   1.724 -1.5277  1.1843 -0.0184
  137OSM   H13C14785   0.530   2.005   1.623 -0.5249 -0.5477  0.3917
  137OSM    C1214786   0.809   1.890   1.795 -0.4201 -0.8617  0.6302
  137OSM   H12A14787   0.916   1.890   1.779 -0.0740  0.6234  2.6287
  137OSM   H12B14788   0.780   1.786   1.798  2.3927 -1.6934  2.9635
  137OSM    C1114789   0.787   1.949   1.934  0.4187 -0.1568 -0.2194
  137OSM   H11A14790   0.840   1.883   2.004 -0.9400  0.5539  1.5580
  137OSM   H11B14791   0.680   1.940   1.961  0.3593  1.3066  0.1568
  137OSM      P14792   0.994   2.110   1.957 -0.1111 -0.3409 -0.4275
  137OSM    O1314793   1.069   1.985   1.957  0.2709  0.3197 -0.1257
  137OSM    O1414794   1.034   2.209   1.859  0.0936  0.2082  0.4974
  137OSM    O1114795   1.017   2.167   2.103 -0.8819  0.0260 -0.4022
  137OSM    O1214796   0.837   2.081   1.946  0.6064 -0.5614  0.2697
  137OSM    C1S14797   0.911   2.155   2.203  0.0396  0.9514 -0.2100
  137OSM    H1S14798   0.882   2.047   2.206 -1.0341  1.1499 -1.8417
  137OSM    H1T14799   0.827   2.222   2.176 -0.9111  0.2792  0.9598
  137OSM     NF14800   0.880   2.179   2.446 -0.6791  0.4494 -0.0919
  137OSM    HNF14801   0.820   2.253   2.476 -0.2071  0.3545  1.1238
  137OSM    C2S14802   0.967   2.209   2.342  0.4427  0.8664  0.7297
  137OSM    H2S14803   1.062   2.153   2.360  0.6938  0.9448 -0.2814
  137OSM    C3S14804   0.992   2.366   2.326 -0.4330 -0.3885 -0.2072
  137OSM    H3S14805   0.893   2.409   2.352 -1.0425 -0.7110 -1.8859
  137OSM     O314806   1.006   2.414   2.195 -0.1045  0.1771 -0.0904
  137OSM    HO314807   0.989   2.337   2.141 -0.3929  0.7194 -0.7932
  137OSM    C4S14808   1.092   2.415   2.430 -0.1085 -0.1987 -0.1659
  137OSM    H4S14809   1.062   2.380   2.530 -0.7482  0.4234 -0.1363
  137OSM    C5S14810   1.216   2.463   2.406  0.5961 -0.1917  0.5285
  137OSM    H5S14811   1.245   2.488   2.303  1.7566  2.7396  1.4596
  137OSM    C6S14812   1.327   2.484   2.502 -0.0453  0.1272 -0.1246
  137OSM    H6S14813   1.415   2.532   2.453 -0.6944  0.4040 -1.0294
  137OSM    H6T14814   1.361   2.382   2.528 -1.3148 -0.3286 -0.2174
  137OSM    C7S14815   1.291   2.560   2.629  0.2455 -0.5351  0.2148
  137OSM    H7S14816   1.208   2.508   2.680  1.3976 -2.0706  0.5951
  137OSM    H7T14817   1.254   2.662   2.605  2.7015  0.1906 -0.8019
  137OSM    C8S14818   1.409   2.560   2.723 -0.0762 -0.5493  0.3140
  137OSM    H8S14819   1.502   2.613   2.694  0.8949 -0.2817  3.5582
  137OSM    H8T14820   1.423   2.452   2.745  0.3262 -0.3944  0.8409
  137OSM    C9S14821   1.363   2.612   2.866 -0.5461 -0.2725  0.1004
  137OSM    H9S14822   1.275   2.550   2.895 -0.2540  0.9151  4.0977
  137OSM    H9T14823   1.344   2.721   2.865  0.5740 -0.0656 -0.8723
  137OSM   C10S14824   1.465   2.569   2.978  0.4095  0.2875  0.7071
  137OSM   H10S14825   1.561   2.626   2.970 -1.3314  3.2356 -1.0872
  137OSM   H10T14826   1.481   2.461   2.956 -1.7657  0.1897 -0.6318
  137OSM   C11S14827   1.420   2.585   3.128 -0.0495  0.1596  0.3432
  137OSM   H11S14828   1.318   2.543   3.135 -0.6594  1.3159 -1.0175
  137OSM   H11T14829   1.413   2.693   3.156 -0.9458 -0.2650  1.8723
  137OSM   C12S14830   1.513   2.511   3.233  0.1877  0.3634  0.2539
  137OSM   H12S14831   1.615   2.555   3.237 -0.7632  2.6995  0.7766
  137OSM   H12T14832   1.526   2.404   3.206 -1.3991  0.2047  0.0256
  137OSM   C13S14833   1.458   2.532   3.371  0.2350  0.2573 -0.6299
  137OSM   H13S14834   1.358   2.484   3.372 -0.2648  1.2579  1.2034
  137OSM   H13T14835   1.433   2.640   3.379 -2.6123 -0.3109 -0.9060
  137OSM   C14S14836   1.547   2.480   3.482  0.2831  0.5015  0.5464
  137OSM   H14S14837   1.646   2.526   3.464 -0.2170  0.8216 -1.6267
  137OSM   H14T14838   1.540   2.369   3.475  0.8327  0.4726  0.3878
  137OSM   C15S14839   1.496   2.523   3.618 -0.2070 -0.4277 -0.1373
  137OSM   H15S14840   1.390   2.496   3.636 -0.1165 -0.2506  0.6868
  137OSM   H15T14841   1.512   2.632   3.629 -1.3773 -0.3712  1.3352
  137OSM   C16S14842   1.572   2.452   3.732  0.5251 -0.4221  0.4271
  137OSM   H16S14843   1.679   2.464   3.708  0.5622  1.2014  1.2614
  137OSM   H16T14844   1.553   2.343   3.716  2.1196 -0.7604  0.6978
  137OSM   C17S14845   1.537   2.480   3.881  0.0994 -0.7409  0.7857
  137OSM   H17S14846   1.605   2.428   3.952  0.6770 -1.4481 -0.2652
  137OSM   H17T14847   1.435   2.439   3.896 -0.6166  1.1814  1.6354
  137OSM   C18S14848   1.527   2.634   3.910 -0.0565  0.0784  0.2476
  137OSM   H18S14849   1.629   2.675   3.924  0.7285 -0.7783 -2.3477
  137OSM   H18T14850   1.474   2.655   4.005  0.2924  1.0207  0.2493
  137OSM   H18U14851   1.467   2.697   3.841  1.1491  1.1691  0.1495
  137OSM    C1F14852   0.855   2.060   2.496 -0.2793  0.0859  0.5964
  137OSM     OF14853   0.930   1.964   2.475  0.1368  0.3608  0.7928
  137OSM    C2F14854   0.743   2.056   2.590  0.6261 -0.0815  0.1047
  137OSM    H2F14855   0.659   2.102   2.532  0.3530 -2.8131 -1.8451
  137OSM    H2G14856   0.765   2.136   2.664  1.4231  0.5858 -0.8402
  137OSM    C3F14857   0.703   1.921   2.652 -0.0737  0.0518 -0.0575
  137OSM    H3F14858   0.781   1.875   2.717 -0.5421 -2.8471 -1.3687
  137OSM    H3G14859   0.696   1.850   2.566  1.7713 -0.8257  0.4560
  137OSM    C4F14860   0.575   1.934   2.738 -0.4468  0.3793  0.3320
  137OSM    H4F14861   0.541   1.829   2.754  2.0047 -1.1679 -3.1932
  137OSM    H4G14862   0.501   1.994   2.680  0.1802  0.6975 -0.1445
  137OSM    C5F14863   0.604   2.008   2.867  0.4706 -0.6935 -0.1956
  137OSM    H5F14864   0.636   2.111   2.841  2.1054 -0.7658  1.3503
  137OSM    H5G14865   0.692   1.974   2.926 -0.3582  0.6335  1.8964
  137OSM    C6F14866   0.485   2.028   2.960 -0.1311  0.0614 -0.4077
  137OSM    H6F14867   0.433   1.931   2.973 -0.9486  0.6484  0.8485
  137OSM    H6G14868   0.412   2.099   2.915 -1.3264 -0.1705  1.1072
  137OSM    C7F14869   0.525   2.087   3.098  0.3923 -0.2982  0.5782
  137OSM    H7F14870   0.425   2.120   3.134 -1.0773 -0.7798 -2.6908
  137OSM    H7G14871   0.588   2.174   3.073 -3.0198  1.9216 -1.1821
  137OSM    C8F14872   0.592   1.986   3.191 -0.1930  0.1531 -0.8371
  137OSM    H8F14873   0.679   1.949   3.134 -0.7280 -0.3203 -1.3592
  137OSM    H8G14874   0.520   1.903   3.209  2.0940 -1.9346 -0.7997
  137OSM    C9F14875   0.633   2.057   3.319 -0.1919 -0.4200  0.8121
  137OSM    H9F14876   0.713   2.130   3.303  0.1643 -0.7334  1.1548
  137OSM   C10F14877   0.589   2.039   3.441  0.1603  0.4373 -0.8445
  137OSM   H10F14878   0.617   2.111   3.519 -1.7047  1.0898 -0.7289
  137OSM   C11F14879   0.485   1.940   3.490  0.5935 -0.4191  0.0012
  137OSM   H11F14880   0.412   1.904   3.414  1.1668 -1.5307 -0.0489
  137OSM   H11G14881   0.431   1.982   3.577  3.3289  1.1529  1.0472
  137OSM   C12F14882   0.545   1.807   3.543 -0.4392  0.2813  0.0270
  137OSM   H12F14883   0.576   1.767   3.444 -0.9043  4.3105 -1.9676
  137OSM   H12G14884   0.454   1.758   3.583 -1.0022  1.0553 -0.2655
  137OSM   C13F14885   0.667   1.802   3.643  0.3749  0.0697 -0.4303
  137OSM   H13F14886   0.629   1.831   3.744  1.7485  0.5384 -0.0227
  137OSM   H13G14887   0.747   1.878   3.632  1.0960  0.0367  3.1839
  137OSM   C14F14888   0.721   1.662   3.662 -1.2872 -0.3226 -0.6560
  137OSM   H14F14889   0.746   1.626   3.560 -2.2633  2.5816 -2.0510
  137OSM   H14G14890   0.641   1.599   3.706  0.1950 -1.1926  0.9315
  137OSM   C15F14891   0.850   1.658   3.758 -0.0533  0.3167  0.6410
  137OSM   H15F14892   0.829   1.715   3.851  1.1612  1.3175  0.3233
  137OSM   H15G14893   0.936   1.706   3.707  0.2197 -2.8483 -2.2502
  137OSM   C16F14894   0.894   1.511   3.787  0.2042  0.6546  0.2373
  137OSM   H16F14895   0.920   1.461   3.691 -0.4271 -0.3749  0.5868
  137OSM   H16G14896   0.806   1.464   3.836 -0.5557 -0.1267 -1.7826
  137OSM   C17F14897   1.018   1.495   3.886 -0.6455 -0.0276  0.5611
  137OSM   H17F14898   0.997   1.541   3.985 -1.7468 -0.7349  0.6681
  137OSM   H17G14899   1.111   1.547   3.854 -0.6265  0.7026  1.7596
  137OSM   C18F14900   1.053   1.349   3.922  0.2867 -0.2679  0.5651
  137OSM   H18F14901   0.980   1.288   3.980  0.3707 -1.2421 -0.3118
  137OSM   H18G14902   1.153   1.344   3.970  0.0510 -1.4218  0.9860
  137OSM   H18H14903   1.058   1.286   3.830 -1.3047  0.5657 -0.1235
  138OSM      N14904   6.498   5.891   2.168  0.7207  0.1416  0.1226
  138OSM    C1514905   6.487   5.748   2.187 -0.9083  0.3268  0.7027
  138OSM   H15A14906   6.389   5.724   2.227 -2.5945 -0.8346 -3.6010
  138OSM   H15B14907   6.557   5.719   2.265 -2.1318  1.2246  2.2006
  138OSM   H15C14908   6.493   5.697   2.092 -0.7392 -0.1131  0.9451
  138OSM    C1414909   6.637   5.932   2.123 -0.3508  0.5376  0.2047
  138OSM   H14A14910   6.657   5.878   2.032 -2.7885  1.1678 -0.7904
  138OSM   H14B14911   6.708   5.909   2.202 -1.2888  0.2413  0.9826
  138OSM   H14C14912   6.642   6.039   2.109  2.0321  0.8001  2.2236
  138OSM    C1314913   6.397   5.934   2.062 -0.7023  0.2127 -0.0126
  138OSM   H13A14914   6.397   6.042   2.055 -1.1432  0.1336 -1.8862
  138OSM   H13B14915   6.297   5.895   2.079 -0.1326 -1.4957 -0.4141
  138OSM   H13C14916   6.422   5.894   1.965 -2.5663 -1.3689  0.1076
  138OSM    C1214917   6.466   5.968   2.301 -1.0656 -0.1211  0.5787
  138OSM   H12A14918   6.552   5.952   2.365 -2.8929 -0.5388  3.0999
  138OSM   H12B14919   6.380   5.922   2.346 -0.9116 -1.0112 -0.0225
  138OSM    C1114920   6.447   6.119   2.301  0.1503  0.0857  0.0658
  138OSM   H11A14921   6.539   6.167   2.262  1.3782 -0.5820  1.9702
  138OSM   H11B14922   6.421   6.146   2.406 -1.2564  2.3283 -0.7717
  138OSM      P14923   6.192   6.204   2.255 -0.0920  0.4651 -0.1520
  138OSM    O1314924   6.140   6.305   2.158  0.4311 -0.2234 -0.2125
  138OSM    O1414925   6.104   6.085   2.273 -0.3970 -0.1009 -0.4041
  138OSM    O1114926   6.211   6.272   2.398  0.4334  0.6181  0.3623
  138OSM    O1214927   6.334   6.155   2.214  0.2768 -0.0061  0.0631
  138OSM    C1S14928   6.100   6.337   2.455  0.4674  0.7608 -0.2307
  138OSM    H1S14929   6.013   6.269   2.445  0.9946 -0.3619  2.1844
  138OSM    H1T14930   6.077   6.439   2.417 -1.2425 -0.7642 -3.7503
  138OSM     NF14931   5.982   6.413   2.652 -0.4253  0.0722 -0.3400
  138OSM    HNF14932   5.969   6.512   2.653  2.9307  0.6619  1.0663
  138OSM    C2S14933   6.114   6.364   2.609  0.9508 -0.2973  0.6572
  138OSM    H2S14934   6.141   6.267   2.656  1.7700 -0.5769 -0.3544
  138OSM    C3S14935   6.233   6.460   2.629 -0.4101  0.1801 -0.4796
  138OSM    H3S14936   6.210   6.545   2.563 -1.1044 -0.4714 -1.0962
  138OSM     O314937   6.352   6.395   2.588  0.5506  0.4252 -0.8249
  138OSM    HO314938   6.320   6.324   2.532  1.0439  0.2747 -0.9167
  138OSM    C4S14939   6.240   6.483   2.776  0.4407 -0.5325  0.6927
  138OSM    H4S14940   6.255   6.388   2.830 -1.0063 -1.3543 -0.2827
  138OSM    C5S14941   6.224   6.597   2.843  0.1776  0.6366  0.0505
  138OSM    H5S14942   6.198   6.685   2.784  0.4366 -1.7373 -3.9761
  138OSM    C6S14943   6.238   6.605   2.990  0.6802  0.1383  0.4120
  138OSM    H6S14944   6.213   6.509   3.040 -1.5010 -0.3267 -1.3980
  138OSM    H6T14945   6.156   6.674   3.018 -1.5069 -1.9044 -0.6366
  138OSM    C7S14946   6.376   6.667   3.033 -0.2568  0.3010 -0.2532
  138OSM    H7S14947   6.382   6.762   2.975  1.2342 -1.0350 -2.4647
  138OSM    H7T14948   6.448   6.592   2.993 -0.8595 -1.7648  2.2330
  138OSM    C8S14949   6.395   6.689   3.180 -0.3502  0.5027  0.2585
  138OSM    H8S14950   6.326   6.763   3.227  0.2688  0.2856  1.5329
  138OSM    H8T14951   6.500   6.720   3.195  0.3086 -0.8153 -1.3607
  138OSM    C9S14952   6.367   6.562   3.266 -0.2180 -0.2095  0.0787
  138OSM    H9S14953   6.420   6.470   3.234 -0.8306 -0.8834  0.9492
  138OSM    H9T14954   6.259   6.538   3.259 -0.0270 -0.8819 -0.5780
  138OSM   C10S14955   6.406   6.593   3.417 -0.1444 -0.5438  0.0405
  138OSM   H10S14956   6.363   6.689   3.452 -0.3964 -1.3772  2.1862
  138OSM   H10T14957   6.515   6.598   3.396 -0.6954 -0.1850 -3.0890
  138OSM   C11S14958   6.355   6.490   3.524 -0.4258  0.3354  0.5332
  138OSM   H11S14959   6.366   6.389   3.477 -2.6483  0.6078 -0.6918
  138OSM   H11T14960   6.245   6.485   3.534 -0.5612 -1.3394 -1.0913
  138OSM   C12S14961   6.429   6.486   3.660  0.4353 -0.3287 -0.1679
  138OSM   H12S14962   6.533   6.449   3.650  0.0045 -1.6697  0.1049
  138OSM   H12T14963   6.381   6.412   3.727  1.1574  1.1031  2.0383
  138OSM   C13S14964   6.417   6.620   3.731 -0.5828  0.5375 -0.0687
  138OSM   H13S14965   6.309   6.645   3.721 -0.0527  2.0448 -3.1016
  138OSM   H13T14966   6.473   6.697   3.675  0.8546 -0.1690  0.3571
  138OSM   C14S14967   6.456   6.609   3.880  0.0976 -0.7740  0.1959
  138OSM   H14S14968   6.559   6.651   3.882 -0.0220 -0.0579 -2.8855
  138OSM   H14T14969   6.458   6.503   3.913 -0.0864 -0.8945 -0.1707
  138OSM   C15S14970   6.361   6.703   3.960 -0.2419 -0.5449 -0.3853
  138OSM   H15S14971   6.260   6.659   3.946  0.0848 -1.7709  0.8880
  138OSM   H15T14972   6.365   6.805   3.917  2.2270  0.0376  1.0115
  138OSM   C16S14973   6.403   6.693   4.109  0.2041  0.0250  0.0371
  138OSM   H16S14974   6.439   6.590   4.127  1.7153 -0.0556 -2.8158
  138OSM   H16T14975   6.315   6.724   4.169 -0.6544  0.9472 -1.6045
  138OSM   C17S14976   6.517   6.787   4.139  0.2407  0.1476  0.0294
  138OSM   H17S14977   6.504   6.879   4.078  1.4584  0.6476  0.4893
  138OSM   H17T14978   6.616   6.741   4.122  1.4433  1.7867  2.2124
  138OSM   C18S14979   6.509   6.831   4.291 -0.3196 -0.1135 -0.2521
  138OSM   H18S14980   6.407   6.874   4.306  0.6230  1.9080  0.7998
  138OSM   H18T14981   6.582   6.913   4.310 -0.3207  0.6199 -2.9853
  138OSM   H18U14982   6.528   6.750   4.364 -1.8705  0.3280  0.7045
  138OSM    C1F14983   5.875   6.340   2.670  0.1369 -0.3268 -0.4112
  138OSM     OF14984   5.878   6.221   2.647  0.0365  0.6415  0.4326
  138OSM    C2F14985   5.755   6.422   2.715 -0.2045 -0.3750 -0.8042
  138OSM    H2F14986   5.674   6.397   2.643 -1.6207 -0.5279  0.7832
  138OSM    H2G14987   5.787   6.528   2.710 -1.0099 -0.1042 -0.3468
  138OSM    C3F14988   5.689   6.396   2.855 -0.1888  0.1104 -0.5654
  138OSM    H3F14989   5.667   6.287   2.857 -0.3385  0.1384 -0.6762
  138OSM    H3G14990   5.597   6.458   2.858 -0.6252 -0.5663  0.6577
  138OSM    C4F14991   5.773   6.428   2.982  0.3953 -0.7061 -0.3476
  138OSM    H4F14992   5.871   6.376   2.975  0.0822 -1.2113 -1.1090
  138OSM    H4G14993   5.701   6.399   3.062 -1.7002  0.5557 -1.6781
  138OSM    C5F14994   5.792   6.581   3.008  0.5949  0.7292 -0.4668
  138OSM    H5F14995   5.693   6.632   3.013  1.7541  3.2208 -1.1172
  138OSM    H5G14996   5.839   6.627   2.918  0.9576  1.2052 -0.0444
  138OSM    C6F14997   5.867   6.620   3.137  0.3039 -0.9028 -0.3012
  138OSM    H6F14998   5.882   6.729   3.122  1.8462 -1.0196  0.2858
  138OSM    H6G14999   5.972   6.583   3.137  0.5883 -0.1135 -1.1761
  138OSM    C7F15000   5.798   6.594   3.276  0.2922 -0.4207 -0.3311
  138OSM    H7F15001   5.796   6.487   3.304 -0.0426  0.2872  2.6104
  138OSM    H7G15002   5.692   6.621   3.258  0.3879  0.6005  0.5533
  138OSM    C8F15003   5.853   6.680   3.395 -0.6460  0.2949  0.1080
  138OSM    H8F15004   5.766   6.670   3.465 -1.7588 -2.1835 -1.4911
  138OSM    H8G15005   5.863   6.784   3.358 -0.7496  0.3532  0.2407
  138OSM    C9F15006   5.972   6.616   3.465  0.1419 -0.3364  0.2075
  138OSM    H9F15007   6.028   6.542   3.405 -1.8781 -1.9864  0.2457
  138OSM   C10F15008   5.999   6.645   3.591  0.3580  0.9200 -0.2297
  138OSM   H10F15009   6.090   6.601   3.634  1.0188  2.0717 -0.4245
  138OSM   C11F15010   5.925   6.732   3.692 -0.0418  0.3228 -0.0469
  138OSM   H11F15011   5.835   6.779   3.646 -0.8945 -1.4757 -0.3373
  138OSM   H11G15012   5.993   6.808   3.736  0.6524  0.7855 -1.8448
  138OSM   C12F15013   5.891   6.629   3.808 -0.5421  0.0427  0.0951
  138OSM   H12F15014   5.979   6.563   3.824  1.4983  2.3137 -1.1205
  138OSM   H12G15015   5.809   6.566   3.768 -2.2868  1.0212  1.8930
  138OSM   C13F15016   5.857   6.698   3.939 -0.2739  0.5317 -0.2331
  138OSM   H13F15017   5.799   6.789   3.917 -0.7499 -0.1976 -2.2289
  138OSM   H13G15018   5.960   6.708   3.980 -0.1989 -0.6629 -0.0939
  138OSM   C14F15019   5.783   6.606   4.038 -0.5101  0.1597  0.5205
  138OSM   H14F15020   5.828   6.506   4.055  1.1970  0.6608 -0.7887
  138OSM   H14G15021   5.687   6.586   3.985  0.7138 -2.4907 -0.8433
  138OSM   C15F15022   5.760   6.674   4.170 -0.8579 -0.2920 -0.5798
  138OSM   H15F15023   5.706   6.769   4.151  1.1657  1.1748  0.6195
  138OSM   H15G15024   5.858   6.711   4.207 -0.2446 -1.8034 -0.6192
  138OSM   C16F15025   5.684   6.585   4.271  0.1308  0.5199 -0.5692
  138OSM   H16F15026   5.733   6.486   4.282  0.9908  1.0202  0.1651
  138OSM   H16G15027   5.573   6.577   4.259  0.0809 -2.5988  0.9392
  138OSM   C17F15028   5.689   6.639   4.415 -0.1352 -0.2257 -0.4460
  138OSM   H17F15029   5.680   6.749   4.415  0.5347 -0.1502  0.4323
  138OSM   H17G15030   5.787   6.616   4.463  0.2659  0.2553 -1.0223
  138OSM   C18F15031   5.587   6.587   4.523  0.1775 -0.3822  0.4452
  138OSM   H18F15032   5.575   6.668   4.598 -2.3546 -0.4708  0.2219
  138OSM   H18G15033   5.614   6.490   4.569 -0.9520 -0.9877 -0.1410
  138OSM   H18H15034   5.483   6.579   4.484 -0.7013 -0.2378  2.5744
  139OSM      N15035   1.247   1.008   1.681  0.4579 -0.3533  0.5995
  139OSM    C1515036   1.336   0.977   1.566 -0.3406 -0.7462 -0.0662
  139OSM   H15A15037   1.343   0.871   1.545  0.5293 -0.8013  0.4477
  139OSM   H15B15038   1.434   1.010   1.598 -0.3242 -0.3202 -0.5355
  139OSM   H15C15039   1.304   1.038   1.483 -1.9495 -0.7621  0.5023
  139OSM    C1415040   1.112   0.940   1.675  0.3835  0.1510  0.0117
  139OSM   H14A15041   1.057   0.971   1.588 -0.8821 -0.9720  0.3796
  139OSM   H14B15042   1.061   0.975   1.763  0.7473  0.7658 -0.0190
  139OSM   H14C15043   1.118   0.832   1.666 -0.9609  0.0788 -0.1976
  139OSM    C1315044   1.318   0.957   1.806  0.5084 -0.4203  0.6243
  139OSM   H13A15045   1.352   0.858   1.781  0.9468 -0.0253 -0.4452
  139OSM   H13B15046   1.246   0.943   1.885 -1.1482  0.9958 -0.5472
  139OSM   H13C15047   1.390   1.020   1.857 -0.5547 -0.8465  2.7390
  139OSM    C1215048   1.207   1.152   1.700  0.3903  0.4045  0.2195
  139OSM   H12A15049   1.135   1.181   1.624  0.0223 -0.6950  0.1427
  139OSM   H12B15050   1.296   1.209   1.680  0.3989  0.1864 -0.3893
  139OSM    C1115051   1.165   1.204   1.845  0.2448  0.2424  0.6418
  139OSM   H11A15052   1.152   1.314   1.835 -0.9485  0.0526 -0.0585
  139OSM   H11B15053   1.250   1.179   1.912 -1.2534 -2.6072  1.6441
  139OSM      P15054   1.032   1.082   2.030 -0.1816 -0.1255 -0.4752
  139OSM    O1315055   0.894   1.096   2.077  0.0109  0.3705 -0.3078
  139OSM    O1415056   1.088   0.947   2.022 -0.6316  0.1188  0.5790
  139OSM    O1115057   1.119   1.176   2.127 -0.5046  0.2956 -0.1651
  139OSM    O1215058   1.041   1.151   1.889  0.6294  0.1551 -0.0998
  139OSM    C1S15059   1.070   1.314   2.158  0.4426  0.3439  0.6579
  139OSM    H1S15060   0.961   1.329   2.146  0.2407 -0.9278  0.7137
  139OSM    H1T15061   1.118   1.384   2.087 -2.1292  0.1935 -1.3578
  139OSM     NF15062   1.015   1.448   2.358  0.5794  0.2654 -0.5343
  139OSM    HNF15063   1.048   1.541   2.373  0.7207 -0.2752  3.6738
  139OSM    C2S15064   1.104   1.351   2.299 -0.2543 -0.0117 -0.2691
  139OSM    H2S15065   1.090   1.256   2.355 -0.8856 -0.2243 -0.7792
  139OSM    C3S15066   1.253   1.398   2.298 -0.7585 -0.0433  0.2390
  139OSM    H3S15067   1.263   1.490   2.236 -0.9168 -1.5248 -2.1000
  139OSM     O315068   1.343   1.304   2.236 -0.1172 -0.1291 -0.0137
  139OSM    HO315069   1.289   1.228   2.216  1.2018 -0.7824 -1.3279
  139OSM    C4S15070   1.285   1.426   2.436  0.5559 -0.2296  0.6356
  139OSM    H4S15071   1.250   1.523   2.474 -2.5357 -0.6105 -0.9091
  139OSM    C5S15072   1.353   1.341   2.518 -0.5602  0.7232  1.1460
  139OSM    H5S15073   1.411   1.259   2.473  0.3914  1.4240  1.0630
  139OSM    C6S15074   1.401   1.379   2.650 -0.1505 -0.8057 -0.0691
  139OSM    H6S15075   1.506   1.415   2.643  0.0893 -1.4629  0.1249
  139OSM    H6T15076   1.406   1.291   2.718 -1.0660 -0.2735  0.7287
  139OSM    C7S15077   1.326   1.484   2.733 -0.1387 -0.0363  0.6881
  139OSM    H7S15078   1.228   1.449   2.770 -0.9648  1.0041 -0.4372
  139OSM    H7T15079   1.305   1.568   2.663  3.5899  1.9520  1.6882
  139OSM    C8S15080   1.394   1.539   2.856  0.2395 -0.1144 -0.5014
  139OSM    H8S15081   1.328   1.612   2.907  0.4649  0.6098 -1.2321
  139OSM    H8T15082   1.481   1.598   2.821  0.2567 -0.5406 -1.1863
  139OSM    C9S15083   1.445   1.442   2.952  0.0764 -0.1671  0.1878
  139OSM    H9S15084   1.522   1.376   2.906  3.0632  0.9143  3.1496
  139OSM    H9T15085   1.364   1.375   2.986  0.0796 -0.5546 -0.5475
  139OSM   C10S15086   1.505   1.511   3.072  0.1530  0.3322 -0.1101
  139OSM   H10S15087   1.420   1.563   3.122  0.1860  0.7961 -0.5245
  139OSM   H10T15088   1.578   1.590   3.042  0.3891  0.3363  0.4588
  139OSM   C11S15089   1.571   1.411   3.159  0.3030 -0.5269 -0.2340
  139OSM   H11S15090   1.650   1.353   3.105  0.8773 -1.2316  1.2931
  139OSM   H11T15091   1.486   1.342   3.181  1.2286 -1.6697 -0.0952
  139OSM   C12S15092   1.624   1.472   3.283  0.5271 -0.0572  0.1178
  139OSM   H12S15093   1.573   1.565   3.319 -0.0432 -0.2477 -0.1845
  139OSM   H12T15094   1.730   1.498   3.260  0.6797 -0.2040  0.6347
  139OSM   C13S15095   1.628   1.372   3.400 -0.4445 -0.2501  0.2776
  139OSM   H13S15096   1.648   1.276   3.347 -0.2210 -0.2906  0.4365
  139OSM   H13T15097   1.533   1.366   3.457 -0.9210 -0.7676 -0.5291
  139OSM   C14S15098   1.742   1.396   3.506  0.1238 -0.3430  0.3666
  139OSM   H14S15099   1.714   1.482   3.570  2.1167  2.1018 -1.7863
  139OSM   H14T15100   1.834   1.430   3.453 -0.3874  0.3522 -0.0852
  139OSM   C15S15101   1.753   1.269   3.589  0.0771  0.8019  1.0473
  139OSM   H15S15102   1.799   1.185   3.532  0.4245  0.8616  1.2332
  139OSM   H15T15103   1.657   1.236   3.633 -0.0234 -1.6446 -0.7798
  139OSM   C16S15104   1.845   1.298   3.710  0.4141 -0.2068  0.4516
  139OSM   H16S15105   1.790   1.372   3.771 -1.6217 -0.2242 -1.2171
  139OSM   H16T15106   1.940   1.340   3.671  3.3200 -4.0113  2.7073
  139OSM   C17S15107   1.870   1.155   3.775  0.6044 -0.9228 -0.2719
  139OSM   H17S15108   1.900   1.083   3.697 -1.2198 -0.1444 -1.7767
  139OSM   H17T15109   1.765   1.135   3.806  0.2997  1.7164  0.7225
  139OSM   C18S15110   1.948   1.157   3.904 -0.1317  0.8743 -0.4244
  139OSM   H18S15111   2.051   1.196   3.888 -0.6271  2.3583 -0.1135
  139OSM   H18T15112   1.957   1.057   3.951  0.7437  1.2765  0.3056
  139OSM   H18U15113   1.900   1.228   3.975 -2.0362 -0.2213 -0.5727
  139OSM    C1F15114   0.887   1.416   2.405  0.8012  0.2890  0.0281
  139OSM     OF15115   0.841   1.306   2.394  0.3460 -0.1794 -0.0268
  139OSM    C2F15116   0.788   1.527   2.445 -0.4339 -0.3789  0.1873
  139OSM    H2F15117   0.689   1.509   2.397 -0.7461 -2.6181  1.4949
  139OSM    H2G15118   0.827   1.625   2.411 -2.8420  1.3072  1.9221
  139OSM    C3F15119   0.774   1.546   2.598 -0.3083  0.3194 -0.7125
  139OSM    H3F15120   0.725   1.459   2.647 -0.6253  0.2757 -1.0974
  139OSM    H3G15121   0.706   1.633   2.610  1.0732  1.3806 -0.3286
  139OSM    C4F15122   0.906   1.591   2.677 -0.2619  0.0004 -0.2050
  139OSM    H4F15123   0.933   1.686   2.624 -3.5912  1.6722  0.8335
  139OSM    H4G15124   0.988   1.517   2.671  0.2779  0.6885 -3.4046
  139OSM    C5F15125   0.873   1.619   2.825 -1.0123  0.1898 -0.3296
  139OSM    H5F15126   0.846   1.523   2.874 -0.5045  0.3951  0.3777
  139OSM    H5G15127   0.782   1.683   2.820 -1.4308 -0.3843 -0.0541
  139OSM    C6F15128   0.994   1.684   2.906 -0.3599  0.0569  0.2789
  139OSM    H6F15129   1.020   1.776   2.849  1.1736 -1.4520 -1.6273
  139OSM    H6G15130   1.072   1.608   2.885 -0.8792  0.3602 -3.4376
  139OSM    C7F15131   0.948   1.719   3.047 -0.0276 -0.0920 -0.2021
  139OSM    H7F15132   0.931   1.620   3.093  0.8493 -0.7708 -1.2990
  139OSM    H7G15133   0.861   1.787   3.042  0.2181  0.3724  1.2423
  139OSM    C8F15134   1.063   1.772   3.129  0.0512 -1.0551 -0.7458
  139OSM    H8F15135   1.102   1.870   3.096 -0.1813 -1.2187 -1.5185
  139OSM    H8G15136   1.144   1.697   3.143  0.4086 -0.6303 -0.4958
  139OSM    C9F15137   1.006   1.781   3.271  0.0754 -0.6484 -0.3689
  139OSM    H9F15138   0.930   1.860   3.280 -0.6029 -1.5068  2.2188
  139OSM   C10F15139   1.044   1.710   3.378 -0.1267  0.1315 -0.0540
  139OSM   H10F15140   0.978   1.712   3.466 -3.7735  0.2813 -2.5521
  139OSM   C11F15141   1.144   1.595   3.388 -0.1385  0.4293 -1.1532
  139OSM   H11F15142   1.162   1.555   3.286  0.1209  0.9739 -1.3226
  139OSM   H11G15143   1.103   1.510   3.446  1.1189 -1.2582 -2.6237
  139OSM   C12F15144   1.282   1.642   3.435  0.0295  0.3088 -0.1364
  139OSM   H12F15145   1.300   1.747   3.404  0.0552  0.3977  0.1765
  139OSM   H12G15146   1.352   1.582   3.372 -0.6848  2.0231 -2.7299
  139OSM   C13F15147   1.297   1.625   3.585  0.3390 -0.2779  0.8089
  139OSM   H13F15148   1.280   1.519   3.610  0.2459 -0.7546 -1.0952
  139OSM   H13G15149   1.228   1.693   3.639 -0.9918  2.4454 -3.7038
  139OSM   C14F15150   1.441   1.661   3.634 -0.5218  1.0918 -0.2603
  139OSM   H14F15151   1.455   1.769   3.611 -1.4531  1.1454 -0.6183
  139OSM   H14G15152   1.510   1.600   3.572 -1.4765 -0.6558  0.3241
  139OSM   C15F15153   1.477   1.629   3.781  0.3292  0.1959  0.8387
  139OSM   H15F15154   1.586   1.651   3.786  0.4364 -0.5426  2.2809
  139OSM   H15G15155   1.464   1.521   3.805 -0.7676  0.3929  1.1636
  139OSM   C16F15156   1.399   1.718   3.879 -0.5884 -0.2938 -0.0058
  139OSM   H16F15157   1.290   1.705   3.858 -0.6104 -2.6610  1.2390
  139OSM   H16G15158   1.421   1.826   3.872  1.8180 -0.5304  2.3701
  139OSM   C17F15159   1.430   1.678   4.023  0.1425 -0.0227 -0.3309
  139OSM   H17F15160   1.539   1.687   4.041  0.3559 -2.7356  0.1280
  139OSM   H17G15161   1.399   1.572   4.038 -1.4245  0.4462  0.0003
  139OSM   C18F15162   1.368   1.762   4.133  0.3353 -0.5825  0.4194
  139OSM   H18F15163   1.268   1.785   4.091  0.8980 -1.4103 -1.4978
  139OSM   H18G15164   1.429   1.854   4.141  0.6213 -0.7637  0.3716
  139OSM   H18H15165   1.368   1.724   4.238 -0.7886  1.4224  1.1968
  140OSM      N15166   4.969   0.910   2.100  0.6817  0.3457 -0.1624
  140OSM    C1515167   4.895   0.892   1.970  0.1339 -0.0089  0.1532
  140OSM   H15A15168   4.807   0.954   1.960  1.4714  1.6554 -2.4553
  140OSM   H15B15169   4.878   0.786   1.960  0.5969 -0.1372  0.6769
  140OSM   H15C15170   4.959   0.921   1.888  0.5369 -1.1400  0.0592
  140OSM    C1415171   5.013   1.046   2.131 -0.0038  0.2086  0.7931
  140OSM   H14A15172   5.068   1.082   2.045 -0.1700 -0.5095  0.3839
  140OSM   H14B15173   5.084   1.046   2.212  0.8425  2.6170  0.1457
  140OSM   H14C15174   4.925   1.108   2.136 -2.4351 -2.0532 -4.9199
  140OSM    C1315175   4.871   0.862   2.206  0.0172 -0.5083 -0.1780
  140OSM   H13A15176   4.907   0.879   2.306 -1.1696  0.3390  0.1191
  140OSM   H13B15177   4.836   0.761   2.189 -0.6430 -0.0673 -1.6199
  140OSM   H13C15178   4.783   0.923   2.194  1.2877  2.0111  2.1298
  140OSM    C1215179   5.088   0.812   2.094  0.5854  0.2642 -0.4492
  140OSM   H12A15180   5.140   0.827   2.000  0.4564 -1.2784 -0.7928
  140OSM   H12B15181   5.058   0.708   2.099 -1.2698  0.6465 -2.1307
  140OSM    C1115182   5.191   0.834   2.200 -0.1402  0.1460 -0.6383
  140OSM   H11A15183   5.149   0.868   2.297  1.0582  0.4433 -0.1971
  140OSM   H11B15184   5.258   0.916   2.165  0.8359 -0.8106 -1.0733
  140OSM      P15185   5.204   0.576   2.262 -0.0459  0.0326  0.2930
  140OSM    O1315186   5.131   0.512   2.142  0.3364  0.5525  0.3480
  140OSM    O1415187   5.307   0.489   2.327  0.4551 -0.5678  0.4462
  140OSM    O1115188   5.087   0.621   2.361  0.0662 -0.0172 -0.1619
  140OSM    O1215189   5.274   0.716   2.218  0.2903 -0.2407 -0.1099
  140OSM    C1S15190   4.995   0.543   2.439 -0.6061  0.1702 -0.1738
  140OSM    H1S15191   5.026   0.437   2.428 -1.6407 -0.4335  2.1660
  140OSM    H1T15192   4.890   0.544   2.406 -0.0719  0.8600 -1.9343
  140OSM     NF15193   4.966   0.490   2.676 -0.0072 -0.6359 -0.1581
  140OSM    HNF15194   4.874   0.511   2.707  0.6318 -1.0342  2.2649
  140OSM    C2S15195   5.017   0.592   2.583  0.2390  0.5750 -0.1677
  140OSM    H2S15196   5.126   0.598   2.606  0.2185  2.0795 -0.3472
  140OSM    C3S15197   4.960   0.732   2.606  0.2086  0.3279 -0.5517
  140OSM    H3S15198   4.851   0.724   2.587 -0.7316  0.7130  3.5850
  140OSM     O315199   4.997   0.822   2.499 -0.1410  1.0277 -0.8611
  140OSM    HO315200   5.018   0.763   2.426 -0.1122 -2.0475  1.4426
  140OSM    C4S15201   4.972   0.798   2.744 -0.9326  0.0043 -0.1038
  140OSM    H4S15202   4.896   0.760   2.814 -2.2526  2.3033 -0.1889
  140OSM    C5S15203   5.059   0.891   2.785 -0.1951 -0.2812 -0.6553
  140OSM    H5S15204   5.129   0.930   2.710  0.2352  1.5679  0.6358
  140OSM    C6S15205   5.073   0.947   2.923  0.0269  0.8175  0.0744
  140OSM    H6S15206   5.025   1.047   2.935  2.4128  1.9423  0.7782
  140OSM    H6T15207   5.182   0.952   2.944  0.5658 -3.6851 -0.6506
  140OSM    C7S15208   5.003   0.861   3.032 -0.0556 -0.2779 -0.1557
  140OSM    H7S15209   5.052   0.761   3.037 -2.4740 -1.5190 -0.0157
  140OSM    H7T15210   4.896   0.864   3.001  0.2726  0.2431 -1.2861
  140OSM    C8S15211   5.000   0.927   3.173  0.1893  0.3462  0.0228
  140OSM    H8S15212   4.956   1.028   3.162  1.2570  0.8107 -0.1066
  140OSM    H8T15213   5.105   0.925   3.208 -0.3284 -0.4095  1.6286
  140OSM    C9S15214   4.915   0.856   3.278  0.0976  0.6654 -0.3505
  140OSM    H9S15215   4.946   0.750   3.285  0.0134  0.5360 -1.8002
  140OSM    H9T15216   4.813   0.852   3.236 -0.1614 -1.1320  0.3639
  140OSM   C10S15217   4.930   0.922   3.425 -0.8106  0.3709  0.2199
  140OSM   H10S15218   4.906   1.031   3.415  1.2770  0.6619 -3.6863
  140OSM   H10T15219   5.037   0.918   3.454 -0.6174 -0.1213 -0.5217
  140OSM   C11S15220   4.838   0.851   3.523 -0.2870  0.7961 -0.0031
  140OSM   H11S15221   4.885   0.751   3.532  1.4801  1.4668 -1.2125
  140OSM   H11T15222   4.738   0.839   3.476  0.5864 -0.3901 -1.6678
  140OSM   C12S15223   4.836   0.922   3.656 -0.1182  0.3736  0.2745
  140OSM   H12S15224   4.783   1.019   3.651 -4.5163 -1.7603  0.9112
  140OSM   H12T15225   4.938   0.950   3.692  0.2665 -1.1051  0.4291
  140OSM   C13S15226   4.743   0.843   3.753 -0.6406 -0.0626 -0.2678
  140OSM   H13S15227   4.775   0.736   3.756  1.9118  0.6377  2.5649
  140OSM   H13T15228   4.638   0.854   3.719 -0.6435  1.5910  0.2071
  140OSM   C14S15229   4.764   0.892   3.901  0.2052  0.4547  0.0528
  140OSM   H14S15230   4.682   0.839   3.955  0.6892 -0.0217  0.3249
  140OSM   H14T15231   4.746   1.001   3.914  1.5528  0.4693  2.2304
  140OSM   C15S15232   4.895   0.857   3.963 -0.0187  0.1885  0.1971
  140OSM   H15S15233   4.971   0.915   3.906 -1.2609  1.7732  0.0835
  140OSM   H15T15234   4.913   0.749   3.941  0.7024  0.5098 -0.8429
  140OSM   C16S15235   4.902   0.873   4.119 -0.0537  0.6479 -0.6261
  140OSM   H16S15236   4.863   0.973   4.146 -0.3327  0.3349  0.1727
  140OSM   H16T15237   5.007   0.877   4.157 -0.8253 -0.5151  1.8590
  140OSM   C17S15238   4.832   0.765   4.199  0.0521  0.1625  0.3121
  140OSM   H17S15239   4.875   0.666   4.172  2.2647  1.4430 -1.1141
  140OSM   H17T15240   4.722   0.752   4.187  0.1338 -0.1332 -0.1378
  140OSM   C18S15241   4.855   0.793   4.354  0.2962  0.1043 -0.5411
  140OSM   H18S15242   4.773   0.751   4.417 -2.0733  2.3428 -1.9105
  140OSM   H18T15243   4.863   0.901   4.378  0.0844  0.1644 -0.7375
  140OSM   H18U15244   4.952   0.758   4.394 -0.6431 -1.1328  0.7595
  140OSM    C1F15245   5.017   0.365   2.700  0.0081 -0.1824  0.5592
  140OSM     OF15246   5.135   0.337   2.658  0.3869  0.1186 -0.8140
  140OSM    C2F15247   4.929   0.262   2.756 -0.1456 -0.8193 -0.3568
  140OSM    H2F15248   4.884   0.216   2.666  0.6214  0.4766 -1.4467
  140OSM    H2G15249   4.847   0.312   2.812 -0.0383 -0.2967 -0.6638
  140OSM    C3F15250   4.988   0.143   2.844 -0.3844 -0.8059 -0.1114
  140OSM    H3F15251   5.073   0.103   2.784 -0.8597 -0.0569 -1.3358
  140OSM    H3G15252   4.902   0.074   2.843 -1.1488  0.1162 -0.9238
  140OSM    C4F15253   5.036   0.182   2.979  0.3658  0.1537 -0.0995
  140OSM    H4F15254   4.952   0.209   3.047  0.6156 -0.1322  0.3196
  140OSM    H4G15255   5.098   0.274   2.980  2.7324 -1.3655 -0.6304
  140OSM    C5F15256   5.108   0.068   3.041 -0.5230  0.4687 -0.7970
  140OSM    H5F15257   5.190   0.034   2.974  1.2454  2.8352  0.0289
  140OSM    H5G15258   5.036  -0.017   3.044  1.5232 -1.3338  0.2958
  140OSM    C6F15259   5.168   0.096   3.177  0.6243 -0.5968 -0.0496
  140OSM    H6F15260   5.219   0.195   3.172  0.3331 -0.3992  0.7011
  140OSM    H6G15261   5.236   0.016   3.214 -0.0191 -0.6311  1.1032
  140OSM    C7F15262   5.054   0.095   3.279  0.1071  0.2492  0.2281
  140OSM    H7F15263   5.012  -0.007   3.286  1.9182 -0.6626 -1.1994
  140OSM    H7G15264   4.969   0.155   3.241  0.5782  0.9726  0.2954
  140OSM    C8F15265   5.093   0.168   3.409 -0.5117 -0.1479  0.3632
  140OSM    H8F15266   5.009   0.159   3.481 -1.1987  3.4343  0.2151
  140OSM    H8G15267   5.104   0.278   3.394  0.4166 -0.4851 -1.8441
  140OSM    C9F15268   5.213   0.109   3.489  0.3487  1.1003 -1.1817
  140OSM    H9F15269   5.312   0.116   3.441 -0.6258  1.7860 -3.2456
  140OSM   C10F15270   5.203   0.044   3.607 -0.1997  0.4713  0.3644
  140OSM   H10F15271   5.299   0.012   3.650  0.4928  0.6954 -0.9624
  140OSM   C11F15272   5.091  -0.008   3.692  0.0628  0.2706 -0.7586
  140OSM   H11F15273   5.118  -0.084   3.769 -3.1999  0.2931  0.5617
  140OSM   H11G15274   5.011  -0.052   3.629 -0.7508  0.2280  0.2719
  140OSM   C12F15275   5.029   0.099   3.785  0.0494 -1.0049 -0.0018
  140OSM   H12F15276   4.938   0.053   3.830 -0.2345  1.8889  2.7928
  140OSM   H12G15277   4.996   0.190   3.730  0.5013 -1.5885 -1.2754
  140OSM   C13F15278   5.127   0.143   3.891 -0.4086 -0.2356  0.5274
  140OSM   H13F15279   5.218   0.195   3.854 -0.4895  0.1193  0.8114
  140OSM   H13G15280   5.165   0.050   3.938  1.8289  0.7765  0.8511
  140OSM   C14F15281   5.056   0.236   3.983  0.4857 -0.3209 -0.2121
  140OSM   H14F15282   4.955   0.192   4.001 -0.0835 -0.2230 -2.6969
  140OSM   H14G15283   5.049   0.338   3.938 -0.0768 -0.7490 -1.1396
  140OSM   C15F15284   5.131   0.255   4.110 -0.5828  0.5714 -0.4962
  140OSM   H15F15285   5.217   0.325   4.099 -0.5821  0.3041 -2.6993
  140OSM   H15G15286   5.189   0.165   4.138  0.3178 -0.0235 -3.8301
  140OSM   C16F15287   5.039   0.301   4.219  0.0134 -0.3733 -0.1539
  140OSM   H16F15288   4.962   0.224   4.242 -1.4297  0.8175 -0.7902
  140OSM   H16G15289   4.997   0.402   4.203  1.6694  0.1597 -1.3900
  140OSM   C17F15290   5.119   0.313   4.357  0.4921 -0.4307  0.1675
  140OSM   H17F15291   5.202   0.387   4.358  0.8016 -0.7679 -0.2102
  140OSM   H17G15292   5.161   0.213   4.377 -1.7576 -1.6207 -0.7012
  140OSM   C18F15293   5.028   0.340   4.479 -0.7015  0.2899 -0.3592
  140OSM   H18F15294   5.090   0.351   4.570 -0.2926  0.6125 -0.6731
  140OSM   H18G15295   4.958   0.255   4.486 -1.6676  1.1920  1.6531
  140OSM   H18H15296   4.960   0.428   4.472  0.1678  1.0016  0.0312
  141OSM      N15297   0.565   3.876   1.706  0.0333  0.6015  0.0196
  141OSM    C1515298   0.471   3.942   1.611  0.1249 -0.4453 -0.1514
  141OSM   H15A15299   0.507   4.037   1.576 -0.0735  0.0891  1.0348
  141OSM   H15B15300   0.372   3.945   1.655  0.4544  0.6608  0.5535
  141OSM   H15C15301   0.460   3.888   1.518  3.1322  0.5712 -1.2033
  141OSM    C1415302   0.513   3.741   1.733 -0.4375  0.7618  0.0367
  141OSM   H14A15303   0.508   3.693   1.637  4.1698  0.7808 -0.4270
  141OSM   H14B15304   0.413   3.743   1.773 -1.0150  2.0146 -1.3911
  141OSM   H14C15305   0.575   3.685   1.801  1.2496  3.2308  0.6569
  141OSM    C1315306   0.694   3.857   1.627 -0.2873  0.3302  0.2962
  141OSM   H13A15307   0.774   3.813   1.685 -0.0676  1.0501  0.5428
  141OSM   H13B15308   0.732   3.953   1.597  1.0058  0.0180  0.8588
  141OSM   H13C15309   0.669   3.796   1.542  1.8065  0.8998 -0.7850
  141OSM    C1215310   0.595   3.965   1.832 -0.2305 -0.0353 -0.1331
  141OSM   H12A15311   0.565   4.065   1.805 -0.6619 -0.8744 -3.0672
  141OSM   H12B15312   0.701   3.957   1.854 -0.2921 -2.4175 -0.3920
  141OSM    C1115313   0.528   3.908   1.956  0.2472 -0.2303 -0.3670
  141OSM   H11A15314   0.418   3.903   1.942 -0.0253  1.3234  0.8456
  141OSM   H11B15315   0.542   3.985   2.035 -1.9749  0.9895 -1.0753
  141OSM      P15316   0.713   3.755   2.061 -0.1948 -0.0645  0.5508
  141OSM    O1315317   0.715   3.610   2.074 -0.2738 -0.4727  0.4176
  141OSM    O1415318   0.812   3.825   1.974 -0.0624 -0.3447  0.4185
  141OSM    O1115319   0.706   3.820   2.204 -0.3152  0.2558  0.6937
  141OSM    O1215320   0.567   3.779   2.010 -0.0083  0.7629 -0.4573
  141OSM    C1S15321   0.780   3.761   2.309  0.3548 -0.2415 -0.1278
  141OSM    H1S15322   0.886   3.755   2.277  0.2225 -0.1144 -0.5968
  141OSM    H1T15323   0.739   3.660   2.331 -2.9951  0.5693 -1.9298
  141OSM     NF15324   0.857   3.825   2.535 -0.2341 -0.0022  0.6895
  141OSM    HNF15325   0.816   3.778   2.613 -0.5022 -0.7389  0.1117
  141OSM    C2S15326   0.767   3.855   2.432  0.1119  0.4795 -0.4741
  141OSM    H2S15327   0.790   3.958   2.398  2.4451  0.3385  0.5103
  141OSM    C3S15328   0.618   3.856   2.481 -0.4719  0.1907 -0.7707
  141OSM    H3S15329   0.582   3.758   2.521 -1.5909  0.1809 -1.7295
  141OSM     O315330   0.521   3.884   2.382  0.5786 -0.2342  0.2979
  141OSM    HO315331   0.566   3.878   2.298 -3.2246  2.8852 -2.3354
  141OSM    C4S15332   0.601   3.958   2.593  0.2033 -0.6810 -0.1928
  141OSM    H4S15333   0.599   3.910   2.692  1.8806  1.1702  0.7975
  141OSM    C5S15334   0.604   4.092   2.584 -0.3398 -0.4477  0.2645
  141OSM    H5S15335   0.613   4.148   2.490 -1.0377  1.1409  1.0994
  141OSM    C6S15336   0.598   4.197   2.694 -0.0027  0.2888 -0.1561
  141OSM    H6S15337   0.516   4.270   2.678 -1.6418 -1.6128 -0.6649
  141OSM    H6T15338   0.701   4.240   2.703  0.3679 -0.8435  1.3542
  141OSM    C7S15339   0.566   4.135   2.824 -0.5416  0.0901  0.2345
  141OSM    H7S15340   0.637   4.052   2.846  2.5007  2.8263  1.8062
  141OSM    H7T15341   0.465   4.090   2.829 -0.7511  0.6776  2.6882
  141OSM    C8S15342   0.577   4.244   2.933  0.0832  0.3424  0.0853
  141OSM    H8S15343   0.491   4.311   2.910 -2.5722 -1.8606  2.7571
  141OSM    H8T15344   0.660   4.317   2.920  0.9378 -0.6831 -0.3393
  141OSM    C9S15345   0.552   4.175   3.068 -0.0393 -0.4009  0.4409
  141OSM    H9S15346   0.652   4.159   3.113  1.2380 -0.0852 -2.0804
  141OSM    H9T15347   0.501   4.077   3.054  1.7380 -1.3013  0.0422
  141OSM   C10S15348   0.484   4.264   3.173  0.3873 -0.2209  0.3565
  141OSM   H10S15349   0.381   4.293   3.142 -0.5662 -1.3888  2.2235
  141OSM   H10T15350   0.539   4.359   3.188 -0.6381  0.5988 -0.8346
  141OSM   C11S15351   0.470   4.195   3.304 -0.2330  0.4602 -0.6327
  141OSM   H11S15352   0.573   4.181   3.345  0.0983 -0.4945 -1.6999
  141OSM   H11T15353   0.426   4.096   3.281  0.7349 -0.0366 -0.4192
  141OSM   C12S15354   0.381   4.273   3.401 -0.3521 -0.1731  0.0442
  141OSM   H12S15355   0.278   4.270   3.358  0.4890 -1.5265 -2.0283
  141OSM   H12T15356   0.417   4.378   3.394 -1.0651  0.0025 -1.3640
  141OSM   C13S15357   0.385   4.215   3.546 -0.1295  0.0740  0.1939
  141OSM   H13S15358   0.492   4.193   3.563  0.3522  0.4006 -2.0290
  141OSM   H13T15359   0.341   4.113   3.550 -0.1997  0.1472  2.2169
  141OSM   C14S15360   0.351   4.314   3.654 -0.3627 -0.2907  0.6401
  141OSM   H14S15361   0.241   4.330   3.643 -0.2920  1.1723  1.8468
  141OSM   H14T15362   0.405   4.408   3.633  0.3397 -0.4443  1.6935
  141OSM   C15S15363   0.365   4.249   3.797  0.6083  0.6773  0.0733
  141OSM   H15S15364   0.470   4.217   3.806  0.8004  1.2930  0.0605
  141OSM   H15T15365   0.309   4.153   3.800  2.0660 -0.1901  0.5040
  141OSM   C16S15366   0.331   4.331   3.917 -0.7427  0.0924 -0.8677
  141OSM   H16S15367   0.220   4.339   3.920 -0.7180  0.1886  1.1606
  141OSM   H16T15368   0.394   4.422   3.924  1.5081 -1.4995  1.5434
  141OSM   C17S15369   0.369   4.252   4.046 -0.2182 -0.1415  0.0071
  141OSM   H17S15370   0.478   4.234   4.055 -0.7395 -3.2763  1.3558
  141OSM   H17T15371   0.319   4.152   4.047 -1.1421  0.3134  0.3142
  141OSM   C18S15372   0.324   4.324   4.173 -0.5213 -0.0599  0.5609
  141OSM   H18S15373   0.350   4.432   4.177  0.8973 -0.0127 -3.9448
  141OSM   H18T15374   0.354   4.266   4.262 -1.1558 -2.3256 -0.6225
  141OSM   H18U15375   0.214   4.315   4.162 -0.3343 -1.2077 -0.6603
  141OSM    C1F15376   0.988   3.850   2.541 -0.5222 -0.2103  0.1246
  141OSM     OF15377   1.036   3.929   2.458  0.5430 -0.2091 -0.4739
  141OSM    C2F15378   1.070   3.790   2.652  0.1408  0.1007 -1.1522
  141OSM    H2F15379   1.150   3.725   2.612  1.9273  0.8846  0.9702
  141OSM    H2G15380   1.004   3.726   2.714  1.1005  1.3373  1.2990
  141OSM    C3F15381   1.147   3.889   2.741 -0.2065  0.3190 -0.2445
  141OSM    H3F15382   1.176   3.966   2.666  0.9905 -0.4536 -0.5967
  141OSM    H3G15383   1.240   3.848   2.785  0.1401  1.6886  0.3421
  141OSM    C4F15384   1.071   3.946   2.864 -0.3148 -0.3094  0.2386
  141OSM    H4F15385   0.981   4.002   2.831 -0.7942 -1.2594 -0.1117
  141OSM    H4G15386   1.138   4.019   2.915 -1.7214  1.6496 -0.5783
  141OSM    C5F15387   1.025   3.848   2.974 -0.2968 -0.0050 -0.1917
  141OSM    H5F15388   1.108   3.787   3.017  0.4244 -0.4580 -2.0995
  141OSM    H5G15389   0.964   3.767   2.929  0.3683 -0.6716  0.0711
  141OSM    C6F15390   0.937   3.929   3.074 -0.3061 -0.3288 -0.6761
  141OSM    H6F15391   0.861   3.853   3.104  0.6425 -2.1310 -2.5548
  141OSM    H6G15392   0.869   3.996   3.018 -1.6125 -1.4510 -0.4933
  141OSM    C7F15393   1.017   3.999   3.185  0.1151 -0.2062 -0.0522
  141OSM    H7F15394   1.074   4.081   3.137  3.5917 -2.2820  0.2522
  141OSM    H7G15395   1.096   3.927   3.216 -0.2195 -0.5626 -0.0076
  141OSM    C8F15396   0.922   4.049   3.298  0.5805  0.1266  0.0347
  141OSM    H8F15397   0.869   3.955   3.326 -0.3093  0.5497 -0.2139
  141OSM    H8G15398   0.840   4.121   3.275 -0.2997 -0.3173  1.6011
  141OSM    C9F15399   1.007   4.100   3.409  0.9690  0.0431 -0.3823
  141OSM    H9F15400   1.001   4.210   3.418 -0.8296 -0.0051 -0.6672
  141OSM   C10F15401   1.067   4.034   3.502 -0.4338  0.0766  0.2468
  141OSM   H10F15402   1.112   4.085   3.589  0.6039  2.1338 -1.4091
  141OSM   C11F15403   1.072   3.882   3.505 -0.0675  0.0478  0.6410
  141OSM   H11F15404   1.170   3.855   3.460 -0.3429 -1.7747  1.0701
  141OSM   H11G15405   0.985   3.835   3.456 -0.3886 -1.1708  2.2821
  141OSM   C12F15406   1.079   3.826   3.648 -0.4449  0.2006  0.1470
  141OSM   H12F15407   1.023   3.731   3.648  0.6327 -0.5046  2.2508
  141OSM   H12G15408   1.019   3.894   3.712 -0.0502 -0.3665  1.1447
  141OSM   C13F15409   1.222   3.826   3.693 -1.0858 -0.0860 -0.8222
  141OSM   H13F15410   1.275   3.918   3.661  0.1585 -1.6651 -3.6608
  141OSM   H13G15411   1.276   3.739   3.649 -1.5250 -1.2489  0.8530
  141OSM   C14F15412   1.233   3.808   3.847  0.0115  1.1928  0.2560
  141OSM   H14F15413   1.339   3.783   3.870 -0.7206 -0.6029  1.9804
  141OSM   H14G15414   1.168   3.730   3.893  0.6221  0.9984  0.8064
  141OSM   C15F15415   1.195   3.932   3.923 -0.3697  0.2724 -0.8708
  141OSM   H15F15416   1.088   3.961   3.921 -0.0383  1.7199  0.7458
  141OSM   H15G15417   1.248   4.022   3.885 -0.4353  2.0876  2.9177
  141OSM   C16F15418   1.227   3.927   4.073 -0.0880  0.3606  0.2799
  141OSM   H16F15419   1.145   3.874   4.127 -1.4107  0.7893 -1.1962
  141OSM   H16G15420   1.232   4.032   4.107 -2.0526  0.0895  1.5545
  141OSM   C17F15421   1.356   3.864   4.119  0.1089 -0.3615 -0.1211
  141OSM   H17F15422   1.428   3.936   4.076 -2.1215  1.9353 -0.1976
  141OSM   H17G15423   1.371   3.763   4.074 -0.4263 -0.1129 -0.8674
  141OSM   C18F15424   1.377   3.866   4.277 -1.2790  0.4442  0.6157
  141OSM   H18F15425   1.377   3.970   4.313  1.0982  1.1115 -1.0854
  141OSM   H18G15426   1.471   3.813   4.302 -2.5085 -1.3633  1.6745
  141OSM   H18H15427   1.290   3.818   4.327 -1.2593 -0.1919  0.0659
  142OSM      N15428   1.348   5.668   2.160 -0.0551  0.6708 -0.4929
  142OSM    C1515429   1.351   5.558   2.067  0.3534  0.8151 -0.6324
  142OSM   H15A15430   1.248   5.538   2.038 -0.9418  0.0143  3.7732
  142OSM   H15B15431   1.397   5.471   2.112 -0.2267 -0.4725 -2.4133
  142OSM   H15C15432   1.413   5.578   1.981 -0.5228  0.6415 -1.3299
  142OSM    C1415433   1.322   5.795   2.093 -0.7425  0.2153  0.0822
  142OSM   H14A15434   1.391   5.803   2.010  0.9345  0.5069  1.4484
  142OSM   H14B15435   1.327   5.888   2.147 -0.6331  0.9774 -1.1979
  142OSM   H14C15436   1.227   5.805   2.042  0.6035  4.4670 -2.0306
  142OSM    C1315437   1.239   5.645   2.259 -0.3091  0.0163 -0.3417
  142OSM   H13A15438   1.236   5.721   2.336 -2.8669 -2.3213  2.1223
  142OSM   H13B15439   1.254   5.554   2.314  1.0663  0.3418 -0.1506
  142OSM   H13C15440   1.143   5.647   2.209 -0.5450  4.2120 -0.0809
  142OSM    C1215441   1.479   5.675   2.233  0.4649 -0.3283  0.0442
  142OSM   H12A15442   1.476   5.759   2.301  0.9239 -0.7554  0.6047
  142OSM   H12B15443   1.550   5.705   2.158  0.2428  1.0676  0.3617
  142OSM    C1115444   1.539   5.557   2.297  0.8722  0.6044  0.3701
  142OSM   H11A15445   1.465   5.520   2.371  0.9916 -0.7197 -0.1507
  142OSM   H11B15446   1.631   5.586   2.351  3.3546  0.4716 -3.4001
  142OSM      P15447   1.618   5.313   2.252  0.2393 -0.1867 -0.5746
  142OSM    O1315448   1.521   5.220   2.194  0.3620 -0.0327  0.7224
  142OSM    O1415449   1.763   5.291   2.233 -0.2336 -0.4071 -0.1120
  142OSM    O1115450   1.583   5.313   2.410  0.0198 -0.3679  0.0666
  142OSM    O1215451   1.589   5.461   2.201 -0.3679 -0.4703 -0.1799
  142OSM    C1S15452   1.688   5.345   2.503  0.3547 -0.2317 -0.0857
  142OSM    H1S15453   1.712   5.452   2.487 -1.2052  0.1479 -0.0790
  142OSM    H1T15454   1.780   5.293   2.472 -0.4419 -0.7363 -1.7091
  142OSM     NF15455   1.731   5.405   2.747  0.1110  0.5769  0.4587
  142OSM    HNF15456   1.760   5.333   2.809  0.0444 -0.6891 -0.9149
  142OSM    C2S15457   1.649   5.332   2.650  0.2735 -0.1151  0.2619
  142OSM    H2S15458   1.550   5.383   2.656 -0.3306 -0.9694 -1.6759
  142OSM    C3S15459   1.624   5.190   2.692  0.3178 -1.1560 -0.6138
  142OSM    H3S15460   1.723   5.140   2.697  0.9615 -0.2407 -3.1395
  142OSM     O315461   1.537   5.107   2.615 -0.3586 -0.0289 -0.8026
  142OSM    HO315462   1.526   5.152   2.531  0.4394 -1.3388 -1.6419
  142OSM    C4S15463   1.567   5.187   2.838 -1.3883 -0.2319 -0.3792
  142OSM    H4S15464   1.459   5.204   2.846 -1.4970 -1.1446  0.1388
  142OSM    C5S15465   1.645   5.163   2.948  0.2133 -0.3563  1.4906
  142OSM    H5S15466   1.741   5.112   2.934 -0.2050 -1.3454  2.1675
  142OSM    C6S15467   1.593   5.166   3.088 -0.0120  0.0507  0.2826
  142OSM    H6S15468   1.654   5.097   3.150 -0.2414  0.9583  1.5613
  142OSM    H6T15469   1.490   5.127   3.081  0.0257  0.0903 -0.5618
  142OSM    C7S15470   1.589   5.309   3.153 -0.0917  0.3832  0.5408
  142OSM    H7S15471   1.505   5.296   3.224 -0.1751 -1.1558  0.1924
  142OSM    H7T15472   1.556   5.375   3.070  1.1809  0.3180 -0.0368
  142OSM    C8S15473   1.719   5.353   3.215  0.1082 -0.2051 -0.0042
  142OSM    H8S15474   1.798   5.354   3.137 -1.3200  1.7980 -1.5352
  142OSM    H8T15475   1.759   5.281   3.289  2.5796 -0.0677 -1.0971
  142OSM    C9S15476   1.714   5.500   3.269 -0.5974 -0.4803 -0.7510
  142OSM    H9S15477   1.610   5.500   3.307 -1.4772 -2.5101 -2.9222
  142OSM    H9T15478   1.699   5.575   3.188 -0.7588 -0.9189 -1.1256
  142OSM   C10S15479   1.821   5.535   3.374 -0.0311  0.0257 -0.3076
  142OSM   H10S15480   1.924   5.529   3.332  1.3796 -0.3359  2.8940
  142OSM   H10T15481   1.825   5.450   3.446  1.5156 -0.5728 -1.0644
  142OSM   C11S15482   1.796   5.663   3.453 -0.5538  0.3702 -0.1891
  142OSM   H11S15483   1.714   5.628   3.519  1.6060 -0.6087  2.1532
  142OSM   H11T15484   1.768   5.753   3.395 -0.7069  0.8659  0.6428
  142OSM   C12S15485   1.918   5.699   3.538  0.6584  0.7142  0.1603
  142OSM   H12S15486   2.003   5.748   3.485 -1.0611  0.0297 -3.5602
  142OSM   H12T15487   1.972   5.609   3.576  0.2230  0.7165  0.7971
  142OSM   C13S15488   1.869   5.788   3.650  0.0580  0.4892  0.1183
  142OSM   H13S15489   1.798   5.721   3.704 -0.1212  1.1211  0.6881
  142OSM   H13T15490   1.803   5.870   3.615  3.5879  3.1484 -0.8113
  142OSM   C14S15491   1.978   5.820   3.752  0.1263  0.1590  0.1076
  142OSM   H14S15492   1.995   5.929   3.740  0.6539  0.1708  0.8959
  142OSM   H14T15493   2.070   5.761   3.730 -0.9343 -0.8568 -1.8870
  142OSM   C15S15494   1.930   5.794   3.893  0.5008  0.0320 -0.3148
  142OSM   H15S15495   1.901   5.687   3.906  0.6312 -0.1839 -1.6535
  142OSM   H15T15496   1.853   5.873   3.900  0.7557  0.6339 -3.1018
  142OSM   C16S15497   2.039   5.840   3.990  0.6215 -0.1735 -0.0474
  142OSM   H16S15498   2.066   5.947   3.978 -1.2247  0.3609  0.3437
  142OSM   H16T15499   2.135   5.789   3.966  0.2789 -0.2530 -1.3207
  142OSM   C17S15500   2.001   5.817   4.139  0.0884 -0.1195  0.9788
  142OSM   H17S15501   2.086   5.843   4.206  0.9576 -2.2370  0.7772
  142OSM   H17T15502   1.977   5.710   4.154 -1.2793 -0.4891 -2.7289
  142OSM   C18S15503   1.876   5.900   4.181 -0.1200  1.3572 -0.1283
  142OSM   H18S15504   1.788   5.878   4.116  1.9445  0.4292 -2.8161
  142OSM   H18T15505   1.901   6.007   4.163 -0.7569  1.0820 -3.2184
  142OSM   H18U15506   1.847   5.900   4.288 -0.2385  0.6001 -0.1574
  142OSM    C1F15507   1.747   5.539   2.754 -0.1420  0.1463 -0.3292
  142OSM     OF15508   1.701   5.622   2.678 -0.3908  0.4048 -0.4162
  142OSM    C2F15509   1.842   5.583   2.866  0.1286  0.0960 -0.7319
  142OSM    H2F15510   1.945   5.552   2.837  0.3778  0.1583  0.0617
  142OSM    H2G15511   1.818   5.524   2.957 -0.8612  0.1957 -0.9219
  142OSM    C3F15512   1.853   5.731   2.893 -0.4435 -0.4387 -0.2570
  142OSM    H3F15513   1.751   5.771   2.912  0.4493  0.5198  3.3884
  142OSM    H3G15514   1.897   5.775   2.802  1.8950 -1.5865  0.2409
  142OSM    C4F15515   1.945   5.760   3.016  0.6741  0.2379 -0.1398
  142OSM    H4F15516   2.033   5.692   3.020  0.4284 -0.1748 -1.3759
  142OSM    H4G15517   1.879   5.746   3.104  0.6796 -0.8424 -0.2930
  142OSM    C5F15518   1.998   5.897   3.008  0.7128  0.2660  0.1091
  142OSM    H5F15519   1.908   5.962   3.012 -0.8013 -1.5790 -1.7353
  142OSM    H5G15520   2.044   5.919   2.909  2.9420  1.0315  1.2384
  142OSM    C6F15521   2.101   5.947   3.111 -0.6960 -0.1073 -0.0369
  142OSM    H6F15522   2.155   5.862   3.158 -1.5814  0.3284  1.9083
  142OSM    H6G15523   2.044   5.985   3.199  1.6685  1.2191  1.0030
  142OSM    C7F15524   2.194   6.065   3.062  0.4866  0.5071 -0.3726
  142OSM    H7F15525   2.125   6.130   3.005  0.9550  0.5077 -0.9554
  142OSM    H7G15526   2.259   6.036   2.976  1.8033  1.0031  0.4327
  142OSM    C8F15527   2.268   6.143   3.172  0.3089  0.0563 -0.1193
  142OSM    H8F15528   2.191   6.156   3.251  0.5352  0.5407  0.0258
  142OSM    H8G15529   2.295   6.247   3.146  0.5866 -0.2794 -1.2361
  142OSM    C9F15530   2.393   6.078   3.211  0.1274 -0.1650  0.4068
  142OSM    H9F15531   2.473   6.064   3.136  0.3780  1.1520  0.4046
  142OSM   C10F15532   2.411   6.027   3.336 -0.0555  1.0003 -0.1977
  142OSM   H10F15533   2.493   5.956   3.354 -1.5542 -0.7556 -0.0273
  142OSM   C11F15534   2.311   6.012   3.442 -0.3497 -0.0084  0.1687
  142OSM   H11F15535   2.308   5.910   3.487 -2.7818  0.5460  1.4006
  142OSM   H11G15536   2.206   6.040   3.418 -0.5020  1.0778  1.9273
  142OSM   C12F15537   2.351   6.112   3.553  0.4420 -1.0999 -1.0231
  142OSM   H12F15538   2.348   6.214   3.508 -1.5054 -0.1557  1.0460
  142OSM   H12G15539   2.457   6.104   3.584  0.1179 -1.0224  0.1407
  142OSM   C13F15540   2.258   6.102   3.676  0.0570 -0.3704  0.5207
  142OSM   H13F15541   2.276   6.015   3.743  1.3146 -1.8825 -1.6504
  142OSM   H13G15542   2.156   6.084   3.637  0.7978  0.5299 -2.0632
  142OSM   C14F15543   2.260   6.235   3.755  0.3749 -0.0757 -0.7463
  142OSM   H14F15544   2.248   6.329   3.696  0.6620  1.2688  1.2101
  142OSM   H14G15545   2.358   6.250   3.805 -1.0175 -1.0285  2.5417
  142OSM   C15F15546   2.173   6.241   3.881 -0.0365  0.0900 -0.6102
  142OSM   H15F15547   2.172   6.141   3.931 -0.4964  0.3663 -0.0519
  142OSM   H15G15548   2.069   6.273   3.858 -0.3406  0.7076  1.3938
  142OSM   C16F15549   2.208   6.359   3.974  0.0235  0.7718  0.9085
  142OSM   H16F15550   2.235   6.450   3.917  0.6389 -0.7862 -1.4265
  142OSM   H16G15551   2.308   6.332   4.014 -0.1294 -0.5276  0.4758
  142OSM   C17F15552   2.105   6.396   4.083 -0.1389  0.0650  0.1696
  142OSM   H17F15553   2.003   6.376   4.043 -1.1723  0.4013  2.4496
  142OSM   H17G15554   2.116   6.504   4.105  1.4483  0.2125 -1.1344
  142OSM   C18F15555   2.120   6.302   4.204 -0.2128 -0.4569  0.1450
  142OSM   H18F15556   2.218   6.308   4.254  0.6450 -1.8636 -1.2629
  142OSM   H18G15557   2.110   6.194   4.179  0.7199 -0.4861 -0.1206
  142OSM   H18H15558   2.038   6.321   4.276 -0.1262 -3.0623  1.0505
  143OSM      N15559   1.264   3.951   2.141 -0.2144 -0.0815  0.7400
  143OSM    C1515560   1.287   3.967   1.991 -0.2976 -0.0683  0.0514
  143OSM   H15A15561   1.238   3.890   1.934  0.6420 -0.0509 -0.7968
  143OSM   H15B15562   1.392   3.961   1.971 -0.7648  0.8226 -3.1565
  143OSM   H15C15563   1.253   4.067   1.967  0.8810  0.4637  0.5244
  143OSM    C1415564   1.123   3.946   2.182  0.4925 -0.0156 -0.4126
  143OSM   H14A15565   1.070   4.035   2.153  1.6004  0.4677 -0.9794
  143OSM   H14B15566   1.107   3.930   2.288  0.9192 -0.3370 -0.3943
  143OSM   H14C15567   1.066   3.866   2.137 -0.3952 -0.8673  2.0233
  143OSM    C1315568   1.329   3.815   2.178 -0.1839 -0.0555 -0.9563
  143OSM   H13A15569   1.319   3.802   2.285  1.8443  0.5345 -0.6634
  143OSM   H13B15570   1.433   3.813   2.149  0.2124 -0.1767  0.4270
  143OSM   H13C15571   1.270   3.737   2.131 -1.3935  0.1056  0.2349
  143OSM    C1215572   1.335   4.057   2.218  0.1720 -0.3552  0.2016
  143OSM   H12A15573   1.442   4.058   2.210  0.3603 -0.8417  2.2654
  143OSM   H12B15574   1.319   4.033   2.322 -0.8117  3.0004  0.9400
  143OSM    C1115575   1.286   4.211   2.205 -0.5524 -0.3151  0.0299
  143OSM   H11A15576   1.306   4.264   2.301  0.0411 -0.5080  0.0207
  143OSM   H11B15577   1.176   4.223   2.201 -0.4652  1.3736  1.3027
  143OSM      P15578   1.502   4.320   2.079  0.3057  0.2830  0.1130
  143OSM    O1315579   1.565   4.198   2.134  0.3808  0.5470  0.0897
  143OSM    O1415580   1.533   4.357   1.942  0.1376 -0.4560 -0.0946
  143OSM    O1115581   1.534   4.443   2.169 -0.1340  0.1500  0.2842
  143OSM    O1215582   1.346   4.289   2.097  0.0046  0.3342 -0.6793
  143OSM    C1S15583   1.458   4.562   2.189  0.3334 -0.8429 -0.8568
  143OSM    H1S15584   1.364   4.559   2.130  0.5137  1.3894 -1.3611
  143OSM    H1T15585   1.509   4.654   2.153 -0.1497  0.5091  1.6388
  143OSM     NF15586   1.327   4.682   2.367 -0.0239  0.2549  0.6222
  143OSM    HNF15587   1.339   4.776   2.395 -1.2550  1.0263 -1.2216
  143OSM    C2S15588   1.430   4.590   2.342 -0.2646 -0.1917 -0.7436
  143OSM    H2S15589   1.397   4.500   2.397  1.0067  0.9253  2.0264
  143OSM    C3S15590   1.562   4.622   2.414  0.4068 -0.1491 -0.2712
  143OSM    H3S15591   1.607   4.710   2.363 -1.2643 -0.2727 -2.0779
  143OSM     O315592   1.669   4.531   2.393  0.3625  0.0201  0.0399
  143OSM    HO315593   1.644   4.508   2.303  0.1677 -3.2634  0.8094
  143OSM    C4S15594   1.544   4.650   2.559  0.4487  0.8036 -1.0867
  143OSM    H4S15595   1.515   4.563   2.619 -0.6591  1.2735 -0.9208
  143OSM    C5S15596   1.573   4.766   2.619  0.1434  0.4872  0.0691
  143OSM    H5S15597   1.617   4.843   2.554  0.2465 -1.2774 -2.0854
  143OSM    C6S15598   1.558   4.802   2.764 -0.4366  0.3610  0.0911
  143OSM    H6S15599   1.475   4.875   2.772 -0.6504  0.3152 -1.3055
  143OSM    H6T15600   1.654   4.849   2.794  0.1019 -0.9117  0.4557
  143OSM    C7S15601   1.539   4.671   2.848  0.0314 -1.1871  0.1872
  143OSM    H7S15602   1.617   4.595   2.825 -0.6505 -1.3550 -1.7420
  143OSM    H7T15603   1.443   4.623   2.818 -1.0120  0.8072  0.1376
  143OSM    C8S15604   1.540   4.697   2.996 -0.2695  0.3088 -0.2304
  143OSM    H8S15605   1.635   4.746   3.028 -0.0483 -0.5210  0.4251
  143OSM    H8T15606   1.524   4.602   3.052 -0.0327  0.0577 -0.5880
  143OSM    C9S15607   1.445   4.802   3.054  0.5118  0.1301  0.0759
  143OSM    H9S15608   1.342   4.770   3.025  0.3761  0.5335  0.1144
  143OSM    H9T15609   1.471   4.895   3.000  1.9746 -0.3717 -0.1226
  143OSM   C10S15610   1.466   4.805   3.204 -0.9715 -0.1223  0.4303
  143OSM   H10S15611   1.572   4.832   3.225 -0.1036 -0.1706 -3.3110
  143OSM   H10T15612   1.454   4.699   3.238 -2.2528  0.1445  0.8615
  143OSM   C11S15613   1.364   4.888   3.282  0.0061  0.3914 -0.0598
  143OSM   H11S15614   1.260   4.862   3.251  0.9180 -1.5873 -1.6594
  143OSM   H11T15615   1.384   4.996   3.264  0.1093 -0.0615 -3.0730
  143OSM   C12S15616   1.380   4.865   3.435 -0.3377 -0.5758  0.0516
  143OSM   H12S15617   1.395   4.759   3.462  0.4735 -0.5679 -0.3445
  143OSM   H12T15618   1.279   4.890   3.476 -0.9125  1.0896 -2.1607
  143OSM   C13S15619   1.467   4.969   3.505 -0.1045  0.3333 -0.0891
  143OSM   H13S15620   1.438   5.069   3.467  0.2066 -0.0440 -1.3753
  143OSM   H13T15621   1.570   4.939   3.473  0.2921 -0.5785  1.9044
  143OSM   C14S15622   1.458   4.960   3.648  0.5666 -0.6067 -0.4644
  143OSM   H14S15623   1.461   4.852   3.675  0.3400  0.3463  4.2836
  143OSM   H14T15624   1.362   5.001   3.688  1.1113 -1.9355  2.4631
  143OSM   C15S15625   1.571   5.024   3.723 -0.5658  0.5115 -0.0451
  143OSM   H15S15626   1.662   4.961   3.712 -0.5765  0.2534  1.2359
  143OSM   H15T15627   1.558   5.027   3.833  2.4920  1.8654  0.3855
  143OSM   C16S15628   1.614   5.163   3.671  0.0155  0.6579 -0.2088
  143OSM   H16S15629   1.639   5.166   3.563  0.4289  0.1163 -0.1311
  143OSM   H16T15630   1.694   5.184   3.746 -1.4227  0.5554  1.4228
  143OSM   C17S15631   1.509   5.272   3.698  0.0487  1.0218 -0.2496
  143OSM   H17S15632   1.498   5.279   3.808  0.1973  0.0708 -0.1703
  143OSM   H17T15633   1.418   5.231   3.649 -0.2978  2.9246 -1.2774
  143OSM   C18S15634   1.529   5.404   3.631 -0.5704 -0.3527  0.3634
  143OSM   H18S15635   1.459   5.483   3.666  0.5506  0.7171  0.2578
  143OSM   H18T15636   1.522   5.402   3.520  0.9146  1.3748  0.1918
  143OSM   H18U15637   1.632   5.441   3.652  0.4739 -2.7221 -0.2287
  143OSM    C1F15638   1.200   4.654   2.323  0.7427  0.3600 -0.6200
  143OSM     OF15639   1.171   4.535   2.317 -0.9414  0.1828  0.4860
  143OSM    C2F15640   1.103   4.771   2.287  0.3101  0.9822 -0.1758
  143OSM    H2F15641   1.110   4.784   2.177  0.5750 -1.8705 -0.5599
  143OSM    H2G15642   1.135   4.861   2.344 -0.4018  0.3730  1.2551
  143OSM    C3F15643   0.958   4.729   2.316  0.0948  0.8721  0.0017
  143OSM    H3F15644   0.941   4.631   2.268  2.4953 -0.7902  2.3004
  143OSM    H3G15645   0.884   4.801   2.276 -1.2215  0.7042  1.9627
  143OSM    C4F15646   0.939   4.726   2.462  0.2178 -1.1564  0.3619
  143OSM    H4F15647   0.953   4.827   2.508 -1.1755 -0.8940  0.2641
  143OSM    H4G15648   1.021   4.670   2.511  0.2825 -1.9433 -0.6221
  143OSM    C5F15649   0.806   4.670   2.498 -0.6501  0.2565 -0.1838
  143OSM    H5F15650   0.814   4.559   2.485  0.7278  0.2478  0.4902
  143OSM    H5G15651   0.720   4.710   2.441 -0.4338  0.2991 -0.4842
  143OSM    C6F15652   0.775   4.681   2.649 -0.6651  0.1119  0.1329
  143OSM    H6F15653   0.812   4.777   2.692  0.0583  0.5169 -1.3249
  143OSM    H6G15654   0.825   4.592   2.692  0.2985 -0.0549 -1.2844
  143OSM    C7F15655   0.629   4.651   2.688  0.1406 -0.5274  0.7350
  143OSM    H7F15656   0.595   4.567   2.625 -0.2331  0.7939 -0.8904
  143OSM    H7G15657   0.561   4.736   2.663  1.0729 -0.3162 -1.2131
  143OSM    C8F15658   0.612   4.622   2.835 -0.0687  0.2405  0.7850
  143OSM    H8F15659   0.667   4.699   2.893 -1.8789 -0.0230  3.0492
  143OSM    H8G15660   0.653   4.520   2.847 -0.2379 -0.1951 -1.8211
  143OSM    C9F15661   0.462   4.616   2.865 -0.0646 -1.1353 -0.2919
  143OSM    H9F15662   0.398   4.594   2.778 -3.2059 -0.0870  1.6025
  143OSM   C10F15663   0.404   4.662   2.976 -0.1781 -0.0275 -0.3724
  143OSM   H10F15664   0.297   4.648   2.993 -0.3008  0.8816 -0.3376
  143OSM   C11F15665   0.470   4.707   3.103 -0.1673 -0.8035 -0.3297
  143OSM   H11F15666   0.579   4.690   3.113 -0.2511 -0.4939  1.5663
  143OSM   H11G15667   0.421   4.668   3.195  1.4475 -1.3758  0.3324
  143OSM   C12F15668   0.448   4.856   3.125 -0.4564 -0.2038 -0.9345
  143OSM   H12F15669   0.476   4.907   3.030 -0.1415  0.8520 -0.2810
  143OSM   H12G15670   0.526   4.886   3.198  0.8988 -0.4736 -2.2190
  143OSM   C13F15671   0.304   4.905   3.167 -0.1953  0.2350 -0.5264
  143OSM   H13F15672   0.232   4.854   3.098  3.0441 -0.0799 -3.9991
  143OSM   H13G15673   0.292   5.014   3.152  0.7361  0.2700 -1.0859
  143OSM   C14F15674   0.255   4.861   3.304  0.3980  0.0776  0.3505
  143OSM   H14F15675   0.290   4.757   3.325 -0.8195 -0.5431 -0.5635
  143OSM   H14G15676   0.144   4.851   3.311  0.4886 -2.0698 -0.5948
  143OSM   C15F15677   0.294   4.966   3.406  0.6260 -0.2008  0.6347
  143OSM   H15F15678   0.245   5.064   3.389  0.2737 -0.4352  0.3017
  143OSM   H15G15679   0.405   4.964   3.398  0.5304 -2.6422 -0.8178
  143OSM   C16F15680   0.260   4.935   3.551  0.5243 -0.9027 -0.3587
  143OSM   H16F15681   0.324   4.849   3.577  0.4081 -2.0616 -3.4511
  143OSM   H16G15682   0.155   4.901   3.566  1.0888 -1.8300  1.8672
  143OSM   C17F15683   0.295   5.045   3.655 -0.5364  0.2918  0.2343
  143OSM   H17F15684   0.240   5.140   3.637 -1.2391 -0.3767 -1.3649
  143OSM   H17G15685   0.402   5.070   3.642 -0.6503  0.0895 -1.2840
  143OSM   C18F15686   0.255   5.001   3.794 -0.1764 -0.0432  0.3011
  143OSM   H18F15687   0.146   5.012   3.818 -0.0496  0.4059  0.6940
  143OSM   H18G15688   0.305   5.067   3.868  0.9148  0.6384 -1.0262
  143OSM   H18H15689   0.292   4.899   3.818  0.8019  0.1014 -0.5402
  144OSM      N15690   0.818   5.548   1.674 -0.6980 -0.0811 -0.2190
  144OSM    C1515691   0.888   5.480   1.558  0.6138  0.0273 -0.1980
  144OSM   H15A15692   0.951   5.403   1.599 -0.2075 -0.9981 -0.7904
  144OSM   H15B15693   0.942   5.550   1.495 -0.0596  0.2897 -0.5010
  144OSM   H15C15694   0.810   5.446   1.491 -1.1084  0.0415  1.7007
  144OSM    C1415695   0.746   5.672   1.620  0.1629 -0.3923 -0.2180
  144OSM   H14A15696   0.662   5.646   1.557  1.5920 -1.4993 -1.7455
  144OSM   H14B15697   0.816   5.730   1.563 -1.8339  2.0154 -0.3992
  144OSM   H14C15698   0.703   5.728   1.702 -0.4416 -0.1087 -0.7237
  144OSM    C1315699   0.718   5.466   1.737 -0.3110 -0.1227  0.2775
  144OSM   H13A15700   0.674   5.518   1.821 -1.5678 -1.4477  0.4722
  144OSM   H13B15701   0.750   5.370   1.773  0.5575  0.0892  0.0935
  144OSM   H13C15702   0.633   5.453   1.673 -2.2063  2.2166  2.1115
  144OSM    C1215703   0.929   5.601   1.773  0.3005  0.7123  0.4814
  144OSM   H12A15704   0.998   5.659   1.714  1.0834  0.1017  0.7757
  144OSM   H12B15705   0.991   5.518   1.803  1.3543  0.0465 -3.0918
  144OSM    C1115706   0.883   5.685   1.892  0.2216 -0.3296 -0.2402
  144OSM   H11A15707   0.817   5.768   1.858 -0.9743 -1.1044  0.1285
  144OSM   H11B15708   0.966   5.738   1.943 -0.0050 -1.6379  1.5838
  144OSM      P15709   0.897   5.500   2.080 -0.2462  0.3092 -0.3428
  144OSM    O1315710   0.805   5.395   2.128 -0.1737 -0.3034  0.2126
  144OSM    O1415711   1.028   5.455   2.018 -0.1933  0.3506  0.8661
  144OSM    O1115712   0.940   5.579   2.203 -0.1552 -0.2494 -0.4823
  144OSM    O1215713   0.816   5.597   1.981 -0.1348 -0.4640 -0.4251
  144OSM    C1S15714   0.895   5.709   2.252  0.4809  0.6218  0.2553
  144OSM    H1S15715   0.834   5.760   2.174 -3.3872 -0.1672  2.5174
  144OSM    H1T15716   0.984   5.773   2.270 -0.2676  1.8268 -0.1371
  144OSM     NF15717   0.742   5.832   2.408  0.3975  0.4856 -0.4370
  144OSM    HNF15718   0.775   5.885   2.486  0.3735  2.4724 -1.6833
  144OSM    C2S15719   0.806   5.700   2.378  0.3363 -0.1779 -0.7433
  144OSM    H2S15720   0.720   5.633   2.358 -0.5965  1.0858 -1.0964
  144OSM    C3S15721   0.889   5.631   2.496  0.2120 -0.4454 -0.1462
  144OSM    H3S15722   0.985   5.680   2.523  0.3189 -0.7516  0.0374
  144OSM     O315723   0.940   5.500   2.458  0.2873 -0.0568  0.2385
  144OSM    HO315724   0.940   5.509   2.363 -0.4093  0.7686  0.3096
  144OSM    C4S15725   0.807   5.624   2.625  0.6446 -0.2114  0.1759
  144OSM    H4S15726   0.819   5.705   2.698 -0.3836 -1.0652  1.3266
  144OSM    C5S15727   0.721   5.530   2.662  0.0809  0.3822 -0.5864
  144OSM    H5S15728   0.710   5.441   2.598  0.1741  0.3544 -0.5638
  144OSM    C6S15729   0.645   5.540   2.790 -0.0955  0.3968  0.6546
  144OSM    H6S15730   0.653   5.450   2.856  2.1156  0.2178  0.1958
  144OSM    H6T15731   0.536   5.553   2.768  0.3188  0.5020 -1.5413
  144OSM    C7S15732   0.681   5.647   2.898 -0.1695  0.1897 -0.5431
  144OSM    H7S15733   0.675   5.748   2.851 -0.5240  1.1903  1.4958
  144OSM    H7T15734   0.779   5.629   2.948  1.4260  3.3840 -2.2080
  144OSM    C8S15735   0.577   5.639   3.014  0.0999 -0.3629  0.0341
  144OSM    H8S15736   0.563   5.538   3.058  0.2462  0.1245  1.2120
  144OSM    H8T15737   0.485   5.667   2.960  0.1180  0.5306  0.4610
  144OSM    C9S15738   0.592   5.741   3.118 -0.1822  0.5023 -1.2516
  144OSM    H9S15739   0.593   5.841   3.068  0.3599  0.6039 -1.0445
  144OSM    H9T15740   0.695   5.740   3.159 -0.8473 -0.1237  0.5067
  144OSM   C10S15741   0.491   5.732   3.238 -0.4896  0.2573  0.6233
  144OSM   H10S15742   0.471   5.622   3.242  1.7912 -0.1782  2.9309
  144OSM   H10T15743   0.396   5.786   3.223  0.0025  1.5938  2.0146
  144OSM   C11S15744   0.547   5.779   3.371 -0.5551  0.1729 -0.7031
  144OSM   H11S15745   0.571   5.888   3.376 -0.7258  0.1956 -0.3662
  144OSM   H11T15746   0.638   5.716   3.384  1.0688  2.5615  0.2486
  144OSM   C12S15747   0.454   5.762   3.488  0.7623 -0.3775 -0.7790
  144OSM   H12S15748   0.417   5.658   3.498 -0.7116  0.3471  2.4162
  144OSM   H12T15749   0.363   5.820   3.462  1.6350  1.2058 -0.4297
  144OSM   C13S15750   0.505   5.806   3.626 -0.2522 -0.1544  0.5081
  144OSM   H13S15751   0.583   5.884   3.609 -1.0094  0.5577  0.2634
  144OSM   H13T15752   0.570   5.722   3.660 -1.0421 -1.6447 -1.4918
  144OSM   C14S15753   0.403   5.846   3.735  0.2141 -0.0223  0.5813
  144OSM   H14S15754   0.335   5.763   3.764 -0.4733  0.1852 -0.3935
  144OSM   H14T15755   0.337   5.925   3.694  0.2761 -0.7295 -0.9454
  144OSM   C15S15756   0.468   5.902   3.860  0.6184  0.2010  0.1649
  144OSM   H15S15757   0.521   5.997   3.837  1.1620 -0.5886 -2.1516
  144OSM   H15T15758   0.553   5.833   3.879  0.4215  0.4266  2.0750
  144OSM   C16S15759   0.387   5.909   3.986  0.0503 -0.5252 -0.0533
  144OSM   H16S15760   0.334   5.818   4.022 -0.7930  0.5464  1.5442
  144OSM   H16T15761   0.306   5.983   3.971  1.7488  1.2855 -0.6580
  144OSM   C17S15762   0.469   5.950   4.112 -0.2518 -0.3904  0.1893
  144OSM   H17S15763   0.406   5.962   4.203 -2.1886 -2.6807 -0.7088
  144OSM   H17T15764   0.506   6.053   4.097  2.3508 -0.8351  2.6280
  144OSM   C18S15765   0.585   5.860   4.138 -0.3102  0.0252 -0.2354
  144OSM   H18S15766   0.657   5.842   4.055  0.6782 -1.6387  0.9377
  144OSM   H18T15767   0.543   5.760   4.164  0.7241 -0.2181  0.5692
  144OSM   H18U15768   0.645   5.896   4.224 -0.3753 -0.2761 -0.0608
  144OSM    C1F15769   0.642   5.879   2.332 -0.0280 -0.1065  0.5902
  144OSM     OF15770   0.613   5.831   2.222  0.3447  0.0065  0.0320
  144OSM    C2F15771   0.556   5.998   2.381  0.1884 -0.1561 -0.3494
  144OSM    H2F15772   0.449   5.979   2.358 -0.3349  0.2311  1.6035
  144OSM    H2G15773   0.606   6.081   2.326  2.5725 -1.1100  0.2159
  144OSM    C3F15774   0.567   6.058   2.527 -0.3585  0.4345  1.2091
  144OSM    H3F15775   0.517   6.157   2.529  0.5215  0.9108  0.5248
  144OSM    H3G15776   0.671   6.089   2.548  0.6175 -1.6348 -0.1172
  144OSM    C4F15777   0.513   5.967   2.638 -0.6843 -0.3577  0.3696
  144OSM    H4F15778   0.556   5.865   2.627  0.3442  0.0541  0.4696
  144OSM    H4G15779   0.407   5.961   2.607 -1.0662 -0.9335  1.7351
  144OSM    C5F15780   0.541   6.009   2.783  0.1000  0.5069 -1.0669
  144OSM    H5F15781   0.650   6.004   2.802 -0.3343 -1.4082  1.3833
  144OSM    H5G15782   0.493   5.937   2.852 -0.7307 -1.0994 -3.2083
  144OSM    C6F15783   0.487   6.145   2.820 -0.4087 -1.0359 -0.1306
  144OSM    H6F15784   0.379   6.123   2.809 -0.2739 -1.2252 -1.1067
  144OSM    H6G15785   0.519   6.218   2.742 -0.4192 -1.1215 -0.2143
  144OSM    C7F15786   0.537   6.207   2.954  0.4839  0.0098  0.0387
  144OSM    H7F15787   0.493   6.309   2.958 -2.2206 -1.0788  0.5968
  144OSM    H7G15788   0.647   6.222   2.946  0.5832 -0.9646 -0.5706
  144OSM    C8F15789   0.508   6.132   3.093 -0.3608  0.0382 -0.2697
  144OSM    H8F15790   0.574   6.185   3.164 -1.4860  1.8043 -0.4850
  144OSM    H8G15791   0.543   6.027   3.079 -0.2981  0.4329 -4.2781
  144OSM    C9F15792   0.364   6.153   3.135 -0.2182 -0.7167 -0.1437
  144OSM    H9F15793   0.284   6.129   3.064  1.1319 -1.9639 -1.2967
  144OSM   C10F15794   0.317   6.198   3.252 -0.1642  0.5649 -0.2190
  144OSM   H10F15795   0.212   6.224   3.269  0.4596  1.5112  2.7151
  144OSM   C11F15796   0.398   6.222   3.372 -0.0049  0.0814  0.5258
  144OSM   H11F15797   0.391   6.332   3.387 -1.7738  0.2003 -0.8186
  144OSM   H11G15798   0.502   6.189   3.352 -0.8878 -2.3244 -0.4579
  144OSM   C12F15799   0.349   6.158   3.504 -0.4118  0.1870 -0.2892
  144OSM   H12F15800   0.384   6.053   3.495 -0.0726  0.3037 -0.3441
  144OSM   H12G15801   0.239   6.157   3.517 -0.4027 -4.3292  1.1395
  144OSM   C13F15802   0.393   6.230   3.639  0.3125  0.7773 -0.1045
  144OSM   H13F15803   0.357   6.167   3.723  0.0533 -0.4686 -1.1199
  144OSM   H13G15804   0.339   6.327   3.642 -0.0879  0.6037 -1.2440
  144OSM   C14F15805   0.542   6.242   3.655 -0.5732  0.2688  0.2643
  144OSM   H14F15806   0.584   6.293   3.566  0.5139  0.2032  0.7262
  144OSM   H14G15807   0.587   6.141   3.654 -1.1635 -0.0237 -2.2667
  144OSM   C15F15808   0.599   6.300   3.789  0.2358  0.1696  0.2532
  144OSM   H15F15809   0.542   6.256   3.873  2.9166 -0.1647  2.0147
  144OSM   H15G15810   0.599   6.411   3.799  1.9772  0.5294 -2.4585
  144OSM   C16F15811   0.745   6.258   3.807 -0.7741 -0.1838  0.0054
  144OSM   H16F15812   0.809   6.296   3.724 -0.8337 -0.1477 -0.0241
  144OSM   H16G15813   0.750   6.147   3.801 -0.6048 -0.1866  0.2047
  144OSM   C17F15814   0.810   6.318   3.936  0.2721  0.2998  0.3182
  144OSM   H17F15815   0.796   6.428   3.947 -0.6200  0.1748  0.4992
  144OSM   H17G15816   0.920   6.306   3.920  0.6096 -1.4605  3.2631
  144OSM   C18F15817   0.757   6.257   4.063 -0.4051 -0.4967 -0.0709
  144OSM   H18F15818   0.814   6.283   4.154 -1.7477 -2.0828  1.2963
  144OSM   H18G15819   0.753   6.146   4.058  0.3821 -0.4758 -1.8631
  144OSM   H18H15820   0.653   6.298   4.071 -0.6230 -0.4130 -2.5049
  145SAPE     N15821   0.897   1.229   6.834  0.1451  0.3590  0.0995
  145SAPE   HN115822   0.933   1.234   6.931 -1.6543 -2.1031  1.0157
  145SAPE   HN215823   0.816   1.294   6.822  1.5604  1.9458 -1.2375
  145SAPE   HN315824   0.871   1.132   6.807  1.0382 -0.2989  1.5368
  145SAPE   C1215825   1.018   1.251   6.741 -0.9171  0.1188 -0.2389
  145SAPE  H12A15826   1.096   1.186   6.785  0.0911  0.6988 -1.1286
  145SAPE  H12B15827   1.029   1.361   6.749 -3.9679  0.5903 -1.1868
  145SAPE   C1115828   0.991   1.204   6.590  0.5837  0.1302 -0.5702
  145SAPE  H11A15829   1.086   1.198   6.533  2.6395 -3.2930  2.6885
  145SAPE  H11B15830   0.917   1.278   6.553  1.9623  0.8954 -1.9208
  145SAPE     P15831   0.875   1.014   6.447  0.1590 -0.3750  0.0740
  145SAPE   O1315832   0.901   0.869   6.442  0.1914 -0.1341 -0.5355
  145SAPE   O1415833   0.736   1.056   6.446  0.5446  0.6661  0.0535
  145SAPE   O1215834   0.941   1.072   6.581 -0.1909 -0.0288 -0.0749
  145SAPE   O1115835   0.958   1.088   6.332 -0.2680 -0.2381  0.5018
  145SAPE    C115836   1.050   1.027   6.245  1.0057  0.0478  0.3892
  145SAPE    HA15837   1.151   1.047   6.285  0.8127 -1.2768  1.6446
  145SAPE    HB15838   1.046   0.916   6.252  2.6610  0.0011  1.0876
  145SAPE    C215839   1.040   1.075   6.099  0.1602 -0.4681  0.1112
  145SAPE    HS15840   1.050   1.185   6.101 -2.1133 -0.1724 -1.6622
  145SAPE   O2115841   0.903   1.044   6.050  0.2544  0.2045 -0.1256
  145SAPE   C2115842   0.852   1.097   5.945 -0.2235  0.1656 -0.4227
  145SAPE   O2215843   0.896   1.199   5.892 -0.1504 -0.6145 -0.2336
  145SAPE   C2215844   0.746   1.003   5.890 -0.4116 -0.1242  0.7254
  145SAPE   H2R15845   0.759   0.892   5.890 -1.3163 -0.2449 -0.5398
  145SAPE   H2S15846   0.654   1.028   5.945 -0.0290  1.0754  0.8424
  145SAPE    C315847   1.153   1.010   6.012 -0.0022 -0.5257  0.0976
  145SAPE    HX15848   1.158   0.900   6.024 -0.5405 -0.6546 -0.7973
  145SAPE    HY15849   1.250   1.044   6.055 -0.8955 -0.8049  2.5275
  145SAPE   O3115850   1.147   1.042   5.868  0.3532 -1.3167 -0.2461
  145SAPE   C3115851   1.181   1.172   5.844 -0.1698  0.7162 -0.0248
  145SAPE   O3215852   1.236   1.243   5.929  0.4314 -0.0945 -0.1791
  145SAPE   C3215853   1.182   1.199   5.697 -0.3641  0.6468  0.3918
  145SAPE   H2X15854   1.088   1.179   5.641  0.8127  1.5434 -2.0270
  145SAPE   H2Y15855   1.257   1.136   5.646 -0.4698  1.6468 -1.0505
  145SAPE   C2315856   0.715   1.036   5.739  0.6838 -0.2358  0.3124
  145SAPE   H3R15857   0.680   1.141   5.748 -0.9217 -0.5793 -1.2348
  145SAPE   H3S15858   0.621   0.984   5.710  1.7495 -1.1467 -1.7687
  145SAPE   C2415859   0.827   1.001   5.638 -0.5316  0.1678  0.2024
  145SAPE   H4R15860   0.812   0.896   5.606  0.6481 -0.3597  1.3193
  145SAPE   H4S15861   0.924   1.015   5.690  0.4166 -0.7055 -1.2551
  145SAPE   C2515862   0.824   1.088   5.515  0.2186 -0.0340 -0.3236
  145SAPE   H5R15863   0.810   1.194   5.537  2.9173  0.3546 -0.1515
  145SAPE   C2615864   0.839   1.053   5.387 -0.1364  0.1372  0.0081
  145SAPE   H6R15865   0.845   1.130   5.309 -1.1254 -2.4584 -2.8652
  145SAPE   C2715866   0.878   0.917   5.322  0.1996 -0.3542  0.6007
  145SAPE   H7R15867   0.789   0.865   5.280 -0.6528  0.0245  1.8644
  145SAPE   H7S15868   0.909   0.846   5.402  1.3762 -1.5251 -0.8513
  145SAPE   C2815869   0.977   0.930   5.212 -0.0833  0.2258  0.6328
  145SAPE   H8R15870   1.077   0.955   5.252  1.1681 -1.4611 -1.2398
  145SAPE   C2915871   0.960   0.930   5.080 -0.0560 -0.2232 -1.4146
  145SAPE   H9R15872   1.050   0.934   5.017  0.4703 -0.0524 -0.6629
  145SAPE  C21015873   0.826   0.908   5.011 -0.0481  0.0160 -0.3775
  145SAPE  H10R15874   0.762   0.838   5.069  0.1867  0.6412  0.6555
  145SAPE  H10S15875   0.855   0.852   4.919  0.2981  1.2983 -1.0793
  145SAPE  C21115876   0.739   1.034   4.978  0.2733  0.0577 -0.0178
  145SAPE  H11R15877   0.717   1.113   5.051 -2.6805  0.7833 -1.5349
  145SAPE  C21215878   0.692   1.059   4.854  0.4106  0.0730  0.6393
  145SAPE  H12R15879   0.648   1.157   4.830 -1.4432 -1.0411 -0.8412
  145SAPE  C21315880   0.714   0.970   4.731  0.2420  0.2874 -0.4384
  145SAPE  H13R15881   0.823   0.948   4.735  0.0912 -0.2778  2.4565
  145SAPE  H13S15882   0.697   1.037   4.644  0.2995  1.6758  0.5775
  145SAPE  C21415883   0.639   0.850   4.738 -0.0880  0.5674  0.2683
  145SAPE  H14R15884   0.545   0.844   4.794 -0.3244 -2.5567 -0.2659
  145SAPE  C21515885   0.670   0.729   4.683 -0.5144 -0.2000  0.1544
  145SAPE  H15R15886   0.607   0.643   4.710 -0.5824  0.5929  2.8826
  145SAPE  C21615887   0.794   0.691   4.610 -0.4393 -0.7809 -0.8897
  145SAPE  H16R15888   0.853   0.602   4.643 -2.7044 -2.1942 -0.4446
  145SAPE  H16S15889   0.862   0.776   4.586  0.2825 -0.8765  0.6940
  145SAPE  C21715890   0.751   0.634   4.472  0.3885  0.8116 -0.2497
  145SAPE  H17R15891   0.686   0.547   4.494 -0.5275  1.9304  1.8298
  145SAPE  H17S15892   0.846   0.606   4.423 -0.9546 -0.9743 -1.9728
  145SAPE  C21815893   0.684   0.738   4.377  0.8300  1.2754 -0.7730
  145SAPE  H18R15894   0.760   0.819   4.366  2.9870 -0.6160 -0.4875
  145SAPE  H18S15895   0.583   0.774   4.406 -0.5451 -2.0430 -1.0352
  145SAPE  C21915896   0.649   0.679   4.237 -0.1333  0.0196 -0.1224
  145SAPE  H19R15897   0.571   0.602   4.258  1.1240 -0.6374  2.5779
  145SAPE  H19S15898   0.734   0.619   4.199 -0.3522 -1.3706  1.4592
  145SAPE  C22015899   0.597   0.788   4.144  0.0009  0.5445  0.2537
  145SAPE  H20R15900   0.589   0.739   4.045 -2.0171  0.0277  0.6350
  145SAPE  H20S15901   0.655   0.883   4.146  1.5219 -0.3464 -0.0132
  145SAPE  H20T15902   0.493   0.807   4.180 -0.2769  1.6311 -1.0214
  145SAPE   C3315903   1.236   1.345   5.666  0.1371 -0.2330  0.4621
  145SAPE   H3X15904   1.341   1.342   5.704 -0.0244 -2.6236  0.8950
  145SAPE   H3Y15905   1.177   1.416   5.728  0.7812 -0.5454  1.4674
  145SAPE   C3415906   1.230   1.384   5.513 -0.3698  0.1181 -0.1841
  145SAPE   H4X15907   1.278   1.307   5.450  2.2501  0.2856  1.4381
  145SAPE   H4Y15908   1.297   1.471   5.495  1.8944 -2.1290 -4.0742
  145SAPE   C3515909   1.079   1.419   5.481  0.3779 -0.7772 -0.0022
  145SAPE   H5X15910   1.046   1.485   5.564  3.6854 -0.1639  0.9679
  145SAPE   H5Y15911   1.013   1.330   5.471 -2.3705  0.8534  1.9396
  145SAPE   C3615912   1.068   1.488   5.345 -0.5835 -0.4617  0.0643
  145SAPE   H6X15913   1.170   1.523   5.317  0.3746 -2.0094  1.4319
  145SAPE   H6Y15914   1.010   1.583   5.351 -1.2007 -0.5706 -2.7518
  145SAPE   C3715915   1.008   1.390   5.235  0.6128 -0.5747  0.4416
  145SAPE   H7X15916   0.909   1.347   5.259 -0.3098  0.8876 -0.5798
  145SAPE   H7Y15917   1.074   1.301   5.234  1.4543  0.0220  0.8197
  145SAPE   C3815918   0.999   1.456   5.095 -0.4947  1.3355  0.3666
  145SAPE   H8X15919   1.089   1.521   5.093 -1.0306  2.0733 -0.8866
  145SAPE   H8Y15920   0.917   1.531   5.088 -1.2701  0.4536 -0.1634
  145SAPE   C3915921   1.002   1.354   4.977 -0.3702 -0.3791  0.1444
  145SAPE   H9X15922   0.909   1.294   4.978 -0.0256 -1.1017 -2.5064
  145SAPE   H9Y15923   1.095   1.295   4.991 -1.1243 -1.7336 -0.3619
  145SAPE  C31015924   1.003   1.428   4.837  0.3818  0.1089 -0.5920
  145SAPE  H10X15925   1.107   1.454   4.808  0.8127 -0.0077  0.7774
  145SAPE  H10Y15926   0.938   1.517   4.850 -0.5381 -0.8334  2.2339
  145SAPE  C31115927   0.927   1.352   4.726  0.0879  0.3058 -0.8168
  145SAPE  H11X15928   0.939   1.411   4.633  3.5847  1.0835 -0.0287
  145SAPE  H11Y15929   0.818   1.343   4.744  0.1711  0.3810 -0.2309
  145SAPE  C31215930   0.979   1.207   4.702 -0.5491  0.4392  0.0200
  145SAPE  H12X15931   0.920   1.156   4.623  0.1042  1.0871 -0.9101
  145SAPE  H12Y15932   0.965   1.146   4.794  3.1478  0.6659  0.8900
  145SAPE  C31315933   1.128   1.188   4.671 -0.5035 -0.2346 -0.8361
  145SAPE  H13X15934   1.203   1.238   4.736 -0.4574 -0.1065 -0.9863
  145SAPE  H13Y15935   1.143   1.238   4.573  0.5096  1.1747  0.0009
  145SAPE  C31415936   1.158   1.036   4.657 -0.2712 -0.2680 -0.0207
  145SAPE  H14X15937   1.118   0.984   4.746  2.0862 -1.1373  0.5944
  145SAPE  H14Y15938   1.268   1.043   4.671 -0.3483  0.5512  0.1706
  145SAPE  C31515939   1.140   0.973   4.523 -0.5006 -0.0849 -0.2644
  145SAPE  H15X15940   1.173   1.036   4.437  1.2629 -1.2659 -0.5145
  145SAPE  H15Y15941   1.033   0.945   4.510 -0.8194  1.6729 -1.9165
  145SAPE  C31615942   1.210   0.834   4.527  0.3644  0.2460 -0.2248
  145SAPE  H16X15943   1.178   0.775   4.615  0.2694 -0.5315 -0.7715
  145SAPE  H16Y15944   1.319   0.834   4.547  0.0142 -0.4864  1.8656
  145SAPE  C31715945   1.184   0.763   4.395 -0.1879  0.1087  0.2731
  145SAPE  H17X15946   1.260   0.805   4.325  0.5150 -0.8546  0.4385
  145SAPE  H17Y15947   1.081   0.781   4.357 -0.7274  1.5352  2.2489
  145SAPE  C31815948   1.215   0.609   4.408  0.2757 -0.4457  0.1303
  145SAPE  H18X15949   1.139   0.550   4.464  0.1873 -1.4537 -1.0045
  145SAPE  H18Y15950   1.314   0.599   4.459  1.1100  2.1936 -0.8260
  145SAPE  H18Z15951   1.226   0.561   4.309 -0.2882 -1.0147  0.3374
  146SAPE     N15952   3.719   0.347   6.505  0.1007 -0.7591 -0.5434
  146SAPE   HN115953   3.737   0.449   6.499  2.5253 -0.8066  2.9799
  146SAPE   HN215954   3.617   0.329   6.498 -0.6461  2.9484 -1.1879
  146SAPE   HN315955   3.733   0.330   6.606 -2.5698  0.0234  0.0315
  146SAPE   C1215956   3.791   0.270   6.393  0.4046  0.0843 -0.0903
  146SAPE  H12A15957   3.761   0.331   6.305 -1.4034 -0.0146  0.4020
  146SAPE  H12B15958   3.753   0.167   6.382 -0.0343  0.3827 -1.6576
  146SAPE   C1115959   3.944   0.271   6.414  1.0027 -0.0974  0.3067
  146SAPE  H11A15960   3.990   0.241   6.317 -1.4409 -0.0089 -0.9452
  146SAPE  H11B15961   3.959   0.203   6.500 -2.0329 -1.1367  0.1210
  146SAPE     P15962   4.126   0.439   6.516 -0.3412  0.2798 -0.0090
  146SAPE   O1315963   4.134   0.590   6.526 -0.8642  0.8032  0.1915
  146SAPE   O1415964   4.141   0.359   6.639  0.3276 -0.2158 -0.1039
  146SAPE   O1215965   3.984   0.403   6.436 -0.5799  0.8007  0.0216
  146SAPE   O1115966   4.235   0.385   6.416  0.0995 -0.0174  0.3014
  146SAPE    C115967   4.317   0.455   6.327  0.6703 -0.3603  0.5996
  146SAPE    HA15968   4.271   0.553   6.304  1.3088 -0.0570  0.6135
  146SAPE    HB15969   4.415   0.476   6.374  0.9086 -2.2751  1.0648
  146SAPE    C215970   4.316   0.372   6.193  0.1389 -0.1483 -0.8332
  146SAPE    HS15971   4.385   0.429   6.126  1.2528  1.9687  1.9379
  146SAPE   O2115972   4.180   0.359   6.140  0.2926 -0.2264  0.2833
  146SAPE   C2115973   4.147   0.466   6.070 -0.1454 -0.9557 -0.3973
  146SAPE   O2215974   4.221   0.558   6.040  0.4175 -0.0963 -0.2292
  146SAPE   C2215975   3.992   0.459   6.034 -0.9126 -0.0999 -0.0553
  146SAPE   H2R15976   3.960   0.353   6.032 -0.5499 -0.2334  0.9255
  146SAPE   H2S15977   3.946   0.527   6.109  0.1364 -1.4877  1.9127
  146SAPE    C315978   4.365   0.235   6.210  0.1246  0.6751  0.3785
  146SAPE    HX15979   4.288   0.173   6.260 -0.1001 -1.3784 -2.3275
  146SAPE    HY15980   4.458   0.234   6.271 -0.4513 -3.1847  1.4312
  146SAPE   O3115981   4.393   0.166   6.087  0.3392 -0.0384 -0.0933
  146SAPE   C3115982   4.486   0.208   6.012 -0.3658  0.2288 -0.0683
  146SAPE   O3215983   4.567   0.300   6.033  0.3653  0.8884  0.5477
  146SAPE   C3215984   4.484   0.129   5.883 -0.5513 -0.0786  0.8464
  146SAPE   H2X15985   4.445   0.029   5.912 -3.5392  1.0980  1.2618
  146SAPE   H2Y15986   4.589   0.129   5.849 -0.1788 -1.0514  1.9411
  146SAPE   C2315987   3.969   0.516   5.890  0.3681  0.0102 -0.6099
  146SAPE   H3R15988   4.008   0.620   5.887 -1.1191  0.5975 -0.4009
  146SAPE   H3S15989   3.863   0.516   5.858  0.2612 -0.2855 -0.2558
  146SAPE   C2415990   4.047   0.439   5.777 -0.2135  0.1130 -0.5800
  146SAPE   H4R15991   4.150   0.432   5.817  0.1282 -0.2382 -1.4925
  146SAPE   H4S15992   4.037   0.504   5.687 -1.6014  1.5776  0.5851
  146SAPE   C2515993   3.991   0.303   5.745 -0.4804  0.1997 -0.3265
  146SAPE   H5R15994   4.043   0.235   5.815  1.4984  0.4831 -1.4520
  146SAPE   C2615995   3.922   0.241   5.646  0.2474  0.0181  0.5257
  146SAPE   H6R15996   3.896   0.134   5.651  0.2914 -0.0463 -0.3731
  146SAPE   C2715997   3.857   0.321   5.540 -0.5566 -0.0537  0.0007
  146SAPE   H7R15998   3.836   0.421   5.584  2.6638  1.7201 -2.0695
  146SAPE   H7S15999   3.768   0.269   5.498 -0.0761 -1.6687  0.8979
  146SAPE   C2816000   3.961   0.350   5.432  0.7702 -0.4336  0.0593
  146SAPE   H8R16001   4.047   0.415   5.455 -0.7138  2.1303 -1.1437
  146SAPE   C2916002   3.938   0.317   5.304 -0.3941  0.3941 -0.4204
  146SAPE   H9R16003   4.009   0.352   5.227  1.1108  0.0692  0.7874
  146SAPE  C21016004   3.818   0.254   5.236 -0.0084 -0.3903  0.1490
  146SAPE  H10R16005   3.737   0.330   5.239  2.3510  2.3139 -0.3420
  146SAPE  H10S16006   3.792   0.162   5.292  0.3998 -0.8695 -0.4331
  146SAPE  C21116007   3.862   0.212   5.096  0.2296 -0.1197 -0.8786
  146SAPE  H11R16008   3.956   0.156   5.089  1.3346  1.4359  0.7350
  146SAPE  C21216009   3.798   0.243   4.984  0.3062 -0.3783 -0.1666
  146SAPE  H12R16010   3.834   0.213   4.885  0.5780  0.8903 -0.4687
  146SAPE  C21316011   3.679   0.332   4.962 -0.3744  0.6411  0.5979
  146SAPE  H13R16012   3.594   0.313   5.031  0.8859  1.5989  2.5299
  146SAPE  H13S16013   3.645   0.291   4.865 -0.0734 -1.0467  1.1572
  146SAPE  C21416014   3.702   0.483   4.939 -0.1456 -0.1071  0.4058
  146SAPE  H14R16015   3.767   0.521   5.018 -0.1010 -2.2494  1.4579
  146SAPE  C21516016   3.668   0.566   4.831  0.0544  0.5002 -0.6952
  146SAPE  H15R16017   3.681   0.675   4.835  2.0797  0.2682  0.9458
  146SAPE  C21616018   3.599   0.531   4.705  0.1132 -0.9961 -0.0016
  146SAPE  H16R16019   3.643   0.436   4.666  0.2263 -0.6332 -0.7762
  146SAPE  H16S16020   3.608   0.616   4.634 -0.8400  0.7123  1.8321
  146SAPE  C21716021   3.448   0.509   4.732 -0.3545 -0.1654  0.5060
  146SAPE  H17R16022   3.392   0.593   4.777 -2.2007 -0.3661 -1.2831
  146SAPE  H17S16023   3.438   0.413   4.787  2.0930  0.3552  1.9956
  146SAPE  C21816024   3.372   0.473   4.597  0.3602  0.1404  0.2954
  146SAPE  H18R16025   3.438   0.404   4.541 -0.1813  0.9895 -1.4568
  146SAPE  H18S16026   3.366   0.567   4.537 -2.1454  1.4969  2.4601
  146SAPE  C21916027   3.234   0.412   4.627 -0.4958 -0.4625 -0.0746
  146SAPE  H19R16028   3.170   0.400   4.537 -0.6134 -3.2286  0.2974
  146SAPE  H19S16029   3.177   0.484   4.691 -0.9589  0.0523 -1.0338
  146SAPE  C22016030   3.232   0.268   4.685 -0.7067 -0.0240  0.0781
  146SAPE  H20R16031   3.131   0.224   4.676 -1.9290  2.5880 -0.0370
  146SAPE  H20S16032   3.265   0.263   4.791 -1.2951  0.8544  0.3128
  146SAPE  H20T16033   3.300   0.199   4.631 -2.4771 -1.4995 -0.3305
  146SAPE   C3316034   4.400   0.194   5.768  0.4596  0.5014 -0.3115
  146SAPE   H3X16035   4.444   0.292   5.739 -0.1212  0.6597 -0.6830
  146SAPE   H3Y16036   4.296   0.207   5.807  0.4679  0.8430 -0.3983
  146SAPE   C3416037   4.388   0.094   5.652  0.4536 -0.5147 -0.0949
  146SAPE   H4X16038   4.325   0.010   5.687  1.8144 -1.2759  0.6344
  146SAPE   H4Y16039   4.482   0.052   5.611 -0.7959 -0.6889 -2.9969
  146SAPE   C3516040   4.316   0.151   5.529  0.3968 -0.0351  0.3678
  146SAPE   H5X16041   4.360   0.249   5.501 -1.3659  0.3602 -1.2074
  146SAPE   H5Y16042   4.216   0.184   5.566  0.4649  3.1255 -1.8311
  146SAPE   C3616043   4.299   0.064   5.405  0.2510  0.0469  0.1769
  146SAPE   H6X16044   4.190   0.065   5.385  0.0489  0.6478  1.2610
  146SAPE   H6Y16045   4.317  -0.044   5.428  2.2276 -0.0977 -1.7424
  146SAPE   C3716046   4.382   0.093   5.282 -0.3228 -0.4393  0.1627
  146SAPE   H7X16047   4.358   0.017   5.205  0.9904 -0.0300 -0.6858
  146SAPE   H7Y16048   4.491   0.078   5.300 -0.0475 -0.4450 -1.4233
  146SAPE   C3816049   4.358   0.237   5.231 -0.7529  0.3703 -0.1145
  146SAPE   H8X16050   4.301   0.290   5.310 -1.3499 -0.4398  0.0176
  146SAPE   H8Y16051   4.287   0.226   5.145  1.5428 -1.9090 -1.8703
  146SAPE   C3916052   4.477   0.319   5.179  0.7522  0.2663  0.3504
  146SAPE   H9X16053   4.512   0.276   5.083  0.3184  1.9012 -0.5703
  146SAPE   H9Y16054   4.553   0.304   5.260 -1.1708 -2.2272  1.8609
  146SAPE  C31016055   4.450   0.474   5.170 -0.2615  0.8331 -0.1557
  146SAPE  H10X16056   4.401   0.511   5.262  0.9418  0.7552  0.5236
  146SAPE  H10Y16057   4.387   0.491   5.079 -2.1505 -3.1341  0.1838
  146SAPE  C31116058   4.583   0.554   5.150  0.3162  0.1977  0.1594
  146SAPE  H11X16059   4.645   0.508   5.070  1.5554  0.0530  1.1743
  146SAPE  H11Y16060   4.641   0.525   5.240 -2.3659 -2.6183  1.1453
  146SAPE  C31216061   4.553   0.703   5.131 -0.4469  0.1345 -0.5503
  146SAPE  H12X16062   4.467   0.739   5.192 -1.2047  2.3497 -2.7546
  146SAPE  H12Y16063   4.520   0.697   5.025 -0.0516 -1.1510 -0.6129
  146SAPE  C31316064   4.672   0.804   5.141  0.2780  0.2384  0.5786
  146SAPE  H13X16065   4.643   0.883   5.067  0.8699 -0.3116 -0.2586
  146SAPE  H13Y16066   4.756   0.741   5.108  0.8398  1.1764  0.1607
  146SAPE  C31416067   4.713   0.866   5.282 -0.1403  0.4686 -1.1097
  146SAPE  H14X16068   4.711   0.779   5.352  0.9973  1.1423 -0.1976
  146SAPE  H14Y16069   4.635   0.938   5.313 -3.2354 -2.9425 -0.2672
  146SAPE  C31516070   4.856   0.911   5.271 -0.1825  0.1130  0.0076
  146SAPE  H15X16071   4.862   0.990   5.193  2.4017  0.4195  0.4278
  146SAPE  H15Y16072   4.921   0.833   5.225 -0.2426  0.0701 -0.0051
  146SAPE  C31616073   4.900   0.971   5.401 -0.0815 -0.1111 -0.1737
  146SAPE  H16X16074   4.810   1.025   5.439  0.9895  1.7157 -0.1105
  146SAPE  H16Y16075   4.986   1.041   5.393 -1.0836  1.2000  0.1399
  146SAPE  C31716076   4.934   0.863   5.501 -0.1791 -0.5006 -0.7623
  146SAPE  H17X16077   5.017   0.799   5.465 -0.2855 -0.6857 -0.6835
  146SAPE  H17Y16078   4.849   0.790   5.494  0.7656 -1.6788 -0.3477
  146SAPE  C31816079   4.946   0.898   5.648 -0.9996  0.0056 -0.8873
  146SAPE  H18X16080   4.859   0.938   5.704 -0.4587 -1.7537  1.3409
  146SAPE  H18Y16081   5.034   0.965   5.651 -0.7496 -0.3507  1.3347
  146SAPE  H18Z16082   4.980   0.807   5.701  0.5042  1.8029  1.4312
  147SAPE     N16083   5.384   5.323   6.936  0.6212  0.0544 -0.1447
  147SAPE   HN116084   5.437   5.344   7.023 -1.0469  1.7117  0.5503
  147SAPE   HN216085   5.416   5.232   6.897 -0.1022 -0.6580  0.8586
  147SAPE   HN316086   5.404   5.398   6.868 -1.2835  0.7473 -0.0176
  147SAPE   C1216087   5.238   5.326   6.974 -0.5211  0.8283  0.8051
  147SAPE  H12A16088   5.224   5.420   7.031 -0.7038  0.7673  0.8626
  147SAPE  H12B16089   5.214   5.233   7.029  1.7442 -0.1633  0.2372
  147SAPE   C1116090   5.167   5.337   6.840 -0.1025  0.6949  0.3818
  147SAPE  H11A16091   5.109   5.243   6.826 -0.8330  1.0892  0.7155
  147SAPE  H11B16092   5.234   5.347   6.752  0.3041 -2.3105  0.2142
  147SAPE     P16093   5.088   5.575   6.753  0.0581 -0.0939 -0.1409
  147SAPE   O1316094   4.955   5.636   6.753 -0.4202 -0.1914 -0.0085
  147SAPE   O1416095   5.201   5.650   6.816 -0.0390 -0.6473  0.1519
  147SAPE   O1216096   5.068   5.435   6.829 -0.2246 -0.1599  0.2213
  147SAPE   O1116097   5.122   5.551   6.597  0.0656  0.3397 -0.3235
  147SAPE    C116098   5.054   5.439   6.534  0.3359 -0.4373 -0.4655
  147SAPE    HA16099   5.072   5.348   6.595  0.2105 -2.4860 -3.2739
  147SAPE    HB16100   4.945   5.461   6.527  0.1767 -0.4124  1.6086
  147SAPE    C216101   5.107   5.413   6.391  0.8968  0.0124 -0.8028
  147SAPE    HS16102   5.210   5.382   6.417  0.3431 -0.1525  1.4499
  147SAPE   O2116103   5.107   5.532   6.315 -0.3833 -0.0515 -0.0676
  147SAPE   C2116104   5.186   5.517   6.214  0.8837 -0.5033 -0.2546
  147SAPE   O2216105   5.268   5.429   6.196  0.6957 -0.0181 -0.0591
  147SAPE   C2216106   5.159   5.635   6.113  0.1834 -0.4614 -0.3604
  147SAPE   H2R16107   5.050   5.657   6.114  0.6099  1.8431  0.9300
  147SAPE   H2S16108   5.211   5.726   6.150 -2.1467  0.4520  0.8632
  147SAPE    C316109   5.028   5.297   6.323  0.0435 -0.3070  0.7197
  147SAPE    HX16110   4.980   5.242   6.407 -0.0177 -1.5196 -0.0889
  147SAPE    HY16111   5.095   5.218   6.284  0.2388 -0.4292  1.2976
  147SAPE   O3116112   4.938   5.347   6.219 -0.6938  0.9224  0.4099
  147SAPE   C3116113   4.817   5.385   6.256 -0.2099  0.3811  0.1248
  147SAPE   O3216114   4.767   5.367   6.366 -0.3823 -0.2256  0.0832
  147SAPE   C3216115   4.748   5.449   6.139 -0.6301 -0.7093 -0.0966
  147SAPE   H2X16116   4.788   5.552   6.138 -0.7404 -0.6100 -3.0799
  147SAPE   H2Y16117   4.639   5.447   6.155 -1.0377 -0.7073 -2.4529
  147SAPE   C2316118   5.212   5.587   5.973  0.1399 -0.3536  0.0739
  147SAPE   H3R16119   5.176   5.489   5.935 -0.1808 -0.3306  0.3138
  147SAPE   H3S16120   5.320   5.568   5.990  0.1907  0.8769  1.2885
  147SAPE   C2416121   5.210   5.697   5.863 -0.1691  0.1020 -0.1886
  147SAPE   H4R16122   5.297   5.689   5.793 -1.0559 -1.5410 -1.1469
  147SAPE   H4S16123   5.221   5.791   5.921  1.4560  0.3289 -0.8001
  147SAPE   C2516124   5.076   5.691   5.783  0.0918 -0.7841  0.3035
  147SAPE   H5R16125   4.985   5.661   5.837 -0.0787  0.8466  0.9613
  147SAPE   C2616126   5.069   5.702   5.650 -0.1246 -0.3676 -0.1921
  147SAPE   H6R16127   4.966   5.713   5.613  0.3010 -0.8186 -1.5812
  147SAPE   C2716128   5.175   5.731   5.552  0.0509 -0.3613 -0.0790
  147SAPE   H7R16129   5.276   5.733   5.597  0.1426  1.9530 -0.2478
  147SAPE   H7S16130   5.167   5.837   5.519 -1.1257 -0.2293  0.5487
  147SAPE   C2816131   5.172   5.636   5.433 -0.0740 -0.4612 -0.8419
  147SAPE   H8R16132   5.121   5.539   5.446 -3.3967  1.4551  2.0695
  147SAPE   C2916133   5.235   5.659   5.314 -0.3663 -0.7565  0.0304
  147SAPE   H9R16134   5.213   5.588   5.233  1.7909  1.0623 -2.3125
  147SAPE  C21016135   5.323   5.776   5.279 -0.1540 -0.1954 -0.4380
  147SAPE  H10R16136   5.411   5.757   5.214 -0.1062  1.4494 -0.8886
  147SAPE  H10S16137   5.379   5.814   5.367  0.4999 -1.4015 -0.3004
  147SAPE  C21116138   5.234   5.887   5.218 -0.0599 -0.0081 -0.1110
  147SAPE  H11R16139   5.175   5.948   5.287 -1.3034 -0.7733 -0.4480
  147SAPE  C21216140   5.225   5.911   5.084  0.0858 -0.1823 -0.0496
  147SAPE  H12R16141   5.159   5.993   5.050 -2.2161 -1.3131  1.4012
  147SAPE  C21316142   5.287   5.837   4.971  0.2112 -0.1036  0.1759
  147SAPE  H13R16143   5.368   5.787   5.028  1.7428 -0.6828 -2.3479
  147SAPE  H13S16144   5.316   5.905   4.888 -1.6892  0.7748  0.1605
  147SAPE  C21416145   5.210   5.720   4.921 -0.0980  0.5956 -0.5849
  147SAPE  H14R16146   5.193   5.643   4.998 -1.7418 -0.3763 -1.8526
  147SAPE  C21516147   5.174   5.685   4.795  0.2370  0.5142 -0.1110
  147SAPE  H15R16148   5.109   5.596   4.787  1.8874 -1.0223  2.2668
  147SAPE  C21616149   5.203   5.767   4.674  0.2510 -0.4939  0.0664
  147SAPE  H16R16150   5.230   5.875   4.679 -1.2903 -0.0572 -0.4307
  147SAPE  H16S16151   5.114   5.772   4.608  1.1102  0.8213 -1.0622
  147SAPE  C21716152   5.311   5.694   4.589 -0.6931 -0.7438 -0.3526
  147SAPE  H17R16153   5.405   5.675   4.646  0.0398  0.3376 -1.1770
  147SAPE  H17S16154   5.351   5.768   4.517  0.2087  0.4809  1.3131
  147SAPE  C21816155   5.273   5.566   4.530 -0.4236  0.9624  0.0007
  147SAPE  H18R16156   5.264   5.493   4.613  0.9910 -1.8131 -2.0971
  147SAPE  H18S16157   5.356   5.513   4.477 -0.5767 -1.5456  2.0355
  147SAPE  C21916158   5.167   5.586   4.419  0.3699 -0.0628 -0.2265
  147SAPE  H19R16159   5.188   5.667   4.346 -1.2671  1.7540  1.2137
  147SAPE  H19S16160   5.070   5.608   4.469 -0.0628 -0.0189 -1.0667
  147SAPE  C22016161   5.165   5.459   4.338 -0.0217  0.3624  0.2881
  147SAPE  H20R16162   5.103   5.471   4.246  0.7917  1.6971 -0.1059
  147SAPE  H20S16163   5.130   5.373   4.399  0.2551  0.3153  0.3768
  147SAPE  H20T16164   5.267   5.436   4.300 -0.9504 -1.3593 -1.3681
  147SAPE   C3316165   4.798   5.392   6.005 -0.3054  0.1176  0.2743
  147SAPE   H3X16166   4.789   5.282   5.990  1.4135  0.0540 -0.6322
  147SAPE   H3Y16167   4.909   5.400   5.999 -0.1025 -2.2938 -0.6018
  147SAPE   C3416168   4.749   5.473   5.883  0.1708  0.2887 -0.2317
  147SAPE   H4X16169   4.782   5.578   5.891 -1.3802  0.7537  0.2561
  147SAPE   H4Y16170   4.639   5.480   5.888  0.2080  0.2028  0.7959
  147SAPE   C3516171   4.807   5.418   5.748 -0.0772 -1.3754  0.1016
  147SAPE   H5X16172   4.793   5.308   5.734 -1.8958 -1.1716  0.0777
  147SAPE   H5Y16173   4.918   5.424   5.752 -0.1118  1.1207 -0.8462
  147SAPE   C3616174   4.753   5.495   5.626  0.3880 -0.6369  0.1817
  147SAPE   H6X16175   4.783   5.598   5.656  1.8086 -1.2755  1.0862
  147SAPE   H6Y16176   4.644   5.482   5.609  0.4360 -1.4162  0.4192
  147SAPE   C3716177   4.819   5.463   5.492 -0.0090  0.3762 -1.0785
  147SAPE   H7X16178   4.804   5.357   5.461 -1.5718 -0.2036  1.4280
  147SAPE   H7Y16179   4.929   5.466   5.512 -0.5892  1.4134  2.6562
  147SAPE   C3816180   4.775   5.557   5.386  0.0055  0.8417  0.1225
  147SAPE   H8X16181   4.791   5.660   5.423 -0.8001  0.4682  1.5620
  147SAPE   H8Y16182   4.664   5.549   5.381 -0.0658 -0.6903  2.6702
  147SAPE   C3916183   4.856   5.549   5.256  0.0073 -0.5660 -0.2985
  147SAPE   H9X16184   4.964   5.536   5.278 -0.1292 -0.6016  0.3909
  147SAPE   H9Y16185   4.845   5.647   5.204 -0.5648 -0.3203  0.2735
  147SAPE  C31016186   4.809   5.442   5.159  0.4230 -0.1036  0.0273
  147SAPE  H10X16187   4.712   5.472   5.114 -0.3864 -0.3864  1.5190
  147SAPE  H10Y16188   4.799   5.339   5.199  3.0245  0.0313  1.2563
  147SAPE  C31116189   4.917   5.427   5.045 -0.5161 -0.1557 -0.9356
  147SAPE  H11X16190   5.004   5.379   5.095 -1.0087  2.1069  2.5006
  147SAPE  H11Y16191   4.945   5.534   5.033 -0.9233  0.2678  1.3847
  147SAPE  C31216192   4.883   5.376   4.908 -0.4754  0.2888  0.6022
  147SAPE  H12X16193   4.850   5.270   4.919  0.5560 -0.0434  0.6177
  147SAPE  H12Y16194   4.979   5.375   4.852 -0.0543 -1.4021  1.2880
  147SAPE  C31316195   4.774   5.453   4.816  0.3349  0.3724 -0.1900
  147SAPE  H13X16196   4.817   5.551   4.784  3.4710 -0.9263 -0.2377
  147SAPE  H13Y16197   4.686   5.472   4.880  1.0064  2.1273  0.2651
  147SAPE  C31416198   4.723   5.375   4.700 -0.2632  0.4794 -0.6119
  147SAPE  H14X16199   4.664   5.284   4.723  0.6224 -0.1678 -0.8320
  147SAPE  H14Y16200   4.810   5.342   4.639  1.4391  1.6901  1.0718
  147SAPE  C31516201   4.631   5.455   4.617  0.3855  0.9658 -0.2405
  147SAPE  H15X16202   4.591   5.529   4.689  1.0208 -0.2391  1.4278
  147SAPE  H15Y16203   4.544   5.397   4.579  0.7760 -0.2265  0.6075
  147SAPE  C31616204   4.698   5.535   4.509 -0.0580  0.3080  0.4861
  147SAPE  H16X16205   4.787   5.591   4.544  1.9596 -2.1213 -0.4258
  147SAPE  H16Y16206   4.622   5.605   4.469  0.3823 -0.8701 -2.7249
  147SAPE  C31716207   4.733   5.441   4.385  0.6282  0.1245  0.8400
  147SAPE  H17X16208   4.637   5.391   4.362  1.1548 -0.7140  0.3763
  147SAPE  H17Y16209   4.805   5.362   4.417 -0.0265 -0.8104  0.0809
  147SAPE  C31816210   4.809   5.512   4.275  0.2959 -0.2753  0.0594
  147SAPE  H18X16211   4.849   5.447   4.194 -0.4913  0.6929 -1.1363
  147SAPE  H18Y16212   4.897   5.562   4.322  0.9775  1.2504 -2.6323
  147SAPE  H18Z16213   4.742   5.584   4.223  2.3113  2.5771  1.1832
  148SAPE     N16214   1.807   0.105   6.387 -0.3654 -0.3755  0.4453
  148SAPE   HN116215   1.746   0.127   6.306  1.4295 -0.9627 -1.1318
  148SAPE   HN216216   1.774   0.015   6.428  0.6802 -0.6105  0.7806
  148SAPE   HN316217   1.776   0.186   6.445  1.4642  1.1168 -0.5529
  148SAPE   C1216218   1.952   0.125   6.375 -1.0399 -1.2871 -0.2565
  148SAPE  H12A16219   1.964   0.219   6.316 -1.7453 -1.7844 -1.2375
  148SAPE  H12B16220   2.003   0.048   6.314  1.4043  0.1952 -0.1924
  148SAPE   C1116221   2.014   0.130   6.515 -0.1358  0.4412 -0.7363
  148SAPE  H11A16222   1.975   0.222   6.564  0.6746 -1.4018  3.9040
  148SAPE  H11B16223   2.124   0.140   6.514 -0.1306  0.3936 -0.6665
  148SAPE     P16224   2.053  -0.077   6.673  0.2455  0.1732 -0.0185
  148SAPE   O1316225   2.166  -0.006   6.733 -0.0854 -0.6033 -0.3212
  148SAPE   O1416226   1.959  -0.144   6.764  0.0569 -0.0578 -0.3629
  148SAPE   O1216227   1.971   0.015   6.581  0.4065  0.2483 -0.1858
  148SAPE   O1116228   2.110  -0.183   6.575  0.2992 -0.0297  0.1857
  148SAPE    C116229   2.039  -0.244   6.469  0.5720 -0.6643  0.3837
  148SAPE    HA16230   2.034  -0.354   6.483  1.8321 -0.7049  0.6966
  148SAPE    HB16231   1.941  -0.197   6.448  1.5640  0.5528 -1.9459
  148SAPE    C216232   2.131  -0.235   6.338 -0.1645 -0.0755  0.4553
  148SAPE    HS16233   2.211  -0.310   6.357  0.8888  0.6924 -0.8019
  148SAPE   O2116234   2.189  -0.103   6.329  0.2948 -0.1648  0.0384
  148SAPE   C2116235   2.308  -0.095   6.263  0.1866  0.1978 -0.0222
  148SAPE   O2216236   2.352  -0.192   6.204 -0.4322  0.3103 -0.7525
  148SAPE   C2216237   2.359   0.051   6.262  0.4826  0.3166  0.6503
  148SAPE   H2R16238   2.286   0.110   6.321 -0.7794  0.2511 -0.7775
  148SAPE   H2S16239   2.460   0.051   6.307  0.3112  1.0946  1.0446
  148SAPE    C316240   2.046  -0.270   6.206  0.1544 -0.3865  0.2910
  148SAPE    HX16241   2.021  -0.376   6.228 -2.4872  0.1582  0.2171
  148SAPE    HY16242   2.106  -0.262   6.113  1.8130 -2.1496  1.1455
  148SAPE   O3116243   1.926  -0.190   6.200 -0.2321  0.5722  0.0697
  148SAPE   C3116244   1.851  -0.207   6.095 -0.0495  0.4164  0.8834
  148SAPE   O3216245   1.870  -0.298   6.017  0.0610  0.2399 -0.4724
  148SAPE   C3216246   1.725  -0.118   6.099 -0.0309 -0.0291 -0.4627
  148SAPE   H2X16247   1.757  -0.012   6.107 -1.1818  0.4208 -1.4541
  148SAPE   H2Y16248   1.675  -0.149   6.193  0.6944 -0.3344 -0.1788
  148SAPE   C2316249   2.360   0.109   6.117 -0.6950 -0.0019 -0.0423
  148SAPE   H3R16250   2.401   0.037   6.042  1.0274  1.2138 -0.3411
  148SAPE   H3S16251   2.419   0.203   6.130  1.1997 -1.2098  0.5249
  148SAPE   C2416252   2.223   0.168   6.084  0.4756 -1.2425 -0.2735
  148SAPE   H4R16253   2.245   0.251   6.013  1.4963 -0.6778  0.6714
  148SAPE   H4S16254   2.180   0.226   6.169 -1.3117  0.1765 -2.0172
  148SAPE   C2516255   2.127   0.066   6.038  0.1438  0.2710 -0.4130
  148SAPE   H5R16256   2.157  -0.039   6.049  3.3665  1.1708  0.2972
  148SAPE   C2616257   2.034   0.094   5.947  0.0667 -0.1872 -0.0200
  148SAPE   H6R16258   1.969   0.012   5.913 -1.2644  0.7665  0.1037
  148SAPE   C2716259   2.012   0.239   5.889  0.3933  0.0073  0.1124
  148SAPE   H7R16260   2.108   0.273   5.845  1.0184  1.2487  2.2854
  148SAPE   H7S16261   1.970   0.312   5.962 -0.3961  2.1516 -2.3210
  148SAPE   C2816262   1.905   0.229   5.780  0.1821 -0.7355  0.0275
  148SAPE   H8R16263   1.872   0.127   5.755  1.8168 -0.8646 -1.8709
  148SAPE   C2916264   1.857   0.326   5.696  0.1279 -0.1092 -0.2894
  148SAPE   H9R16265   1.793   0.285   5.617 -0.3476 -0.8757  0.4758
  148SAPE  C21016266   1.882   0.471   5.709  0.2221  0.1221  0.3616
  148SAPE  H10R16267   1.946   0.484   5.799  0.3571  1.2165  0.1271
  148SAPE  H10S16268   1.787   0.528   5.716 -1.2179 -2.1482  0.1776
  148SAPE  C21116269   1.967   0.532   5.595  0.0466  0.1754 -0.1035
  148SAPE  H11R16270   2.075   0.534   5.616 -0.0160 -0.2474  0.2983
  148SAPE  C21216271   1.925   0.569   5.472 -0.1510  0.6648  0.0598
  148SAPE  H12R16272   2.001   0.610   5.404  0.2560 -1.1684 -0.6549
  148SAPE  C21316273   1.784   0.567   5.422  0.1990 -0.5944  0.1897
  148SAPE  H13R16274   1.765   0.651   5.352 -2.3340  0.2841  1.7944
  148SAPE  H13S16275   1.715   0.606   5.499  0.4129 -0.3036  0.2362
  148SAPE  C21416276   1.735   0.436   5.373 -0.2174  0.4234 -0.4255
  148SAPE  H14R16277   1.805   0.352   5.376 -1.5386 -0.7301 -0.6965
  148SAPE  C21516278   1.617   0.422   5.298 -0.3740 -0.3973  0.1583
  148SAPE  H15R16279   1.592   0.320   5.266 -3.7020  0.5168 -0.4636
  148SAPE  C21616280   1.513   0.522   5.258  0.6752 -0.6768  0.5357
  148SAPE  H16R16281   1.564   0.621   5.262 -2.4095  1.1857 -1.7465
  148SAPE  H16S16282   1.419   0.532   5.316  1.0720  0.1316  1.0506
  148SAPE  C21716283   1.460   0.514   5.113  0.0732  0.1173  0.6128
  148SAPE  H17R16284   1.377   0.587   5.103 -0.6645 -0.9933 -2.1828
  148SAPE  H17S16285   1.429   0.409   5.096 -2.2679  0.8603  0.0446
  148SAPE  C21816286   1.571   0.558   5.016 -0.1813 -0.4556  0.7513
  148SAPE  H18R16287   1.673   0.524   5.046  0.1642  0.4658  0.6532
  148SAPE  H18S16288   1.563   0.669   5.020 -3.7395 -0.5510 -0.2491
  148SAPE  C21916289   1.548   0.511   4.868 -0.6025 -0.1785 -0.2991
  148SAPE  H19R16290   1.550   0.400   4.857 -1.8038 -0.2633  0.1637
  148SAPE  H19S16291   1.636   0.545   4.810 -1.5383  1.2272 -0.9258
  148SAPE  C22016292   1.419   0.549   4.802 -0.3513 -0.0892 -0.2572
  148SAPE  H20R16293   1.390   0.655   4.816 -0.4403  0.2107 -2.4898
  148SAPE  H20S16294   1.345   0.474   4.840  1.5131 -2.5616 -1.2177
  148SAPE  H20T16295   1.418   0.522   4.695  2.8449 -1.4351 -0.0803
  148SAPE   C3316296   1.642  -0.140   5.976 -0.5521 -0.1714  0.0356
  148SAPE   H3X16297   1.535  -0.118   5.999 -1.2755 -1.5485 -1.7437
  148SAPE   H3Y16298   1.637  -0.247   5.948 -3.0018 -0.6050  1.7350
  148SAPE   C3416299   1.697  -0.055   5.858  0.0229  0.8080 -0.2319
  148SAPE   H4X16300   1.800  -0.078   5.824  0.1730  0.5655  0.3789
  148SAPE   H4Y16301   1.703   0.053   5.885  2.2052  0.7673 -0.3393
  148SAPE   C3516302   1.601  -0.061   5.737 -0.2825 -0.2975 -0.1853
  148SAPE   H5X16303   1.494  -0.043   5.760 -0.4497 -0.0464 -1.1231
  148SAPE   H5Y16304   1.615  -0.158   5.686  2.0028  0.4652 -1.1437
  148SAPE   C3616305   1.640   0.050   5.631  0.1938 -0.4136 -0.9798
  148SAPE   H6X16306   1.750   0.061   5.645  0.2227 -1.2725 -0.4291
  148SAPE   H6Y16307   1.587   0.139   5.668  0.6000 -1.2361  1.8698
  148SAPE   C3716308   1.599   0.015   5.489  0.1127 -0.3467  0.0843
  148SAPE   H7X16309   1.578   0.103   5.423  0.3773 -1.4304 -1.4971
  148SAPE   H7Y16310   1.502  -0.036   5.502  1.1123 -1.5963  3.9858
  148SAPE   C3816311   1.694  -0.081   5.414 -0.0694  0.0125 -0.8287
  148SAPE   H8X16312   1.708  -0.163   5.488 -0.3679  1.3056  0.7247
  148SAPE   H8Y16313   1.790  -0.026   5.407 -0.8206  1.7228  1.1375
  148SAPE   C3916314   1.647  -0.150   5.284 -0.0940  0.7622  0.2742
  148SAPE   H9X16315   1.634  -0.071   5.208 -0.3550  0.4489 -0.0091
  148SAPE   H9Y16316   1.544  -0.186   5.305 -0.2168  1.4877  0.9889
  148SAPE  C31016317   1.745  -0.258   5.246  0.1785  0.0271 -0.4262
  148SAPE  H10X16318   1.749  -0.339   5.322  1.8459 -1.1317 -1.6831
  148SAPE  H10Y16319   1.850  -0.224   5.254  0.9957 -2.6265  1.6045
  148SAPE  C31116320   1.713  -0.327   5.114 -0.1507  0.4223  1.1013
  148SAPE  H11X16321   1.670  -0.246   5.052  1.3025 -0.4132 -1.1316
  148SAPE  H11Y16322   1.629  -0.396   5.135 -0.9621  1.2426  0.5845
  148SAPE  C31216323   1.821  -0.398   5.033 -0.1128  0.0082 -0.2461
  148SAPE  H12X16324   1.857  -0.484   5.095 -3.0820 -1.1073  0.1516
  148SAPE  H12Y16325   1.901  -0.323   5.022 -0.5998  1.3199  3.6605
  148SAPE  C31316326   1.767  -0.445   4.897 -0.0345  0.7460  0.1512
  148SAPE  H13X16327   1.698  -0.372   4.850 -0.7434 -0.6674 -1.1214
  148SAPE  H13Y16328   1.693  -0.528   4.910 -0.4834  0.9704 -0.8861
  148SAPE  C31416329   1.884  -0.490   4.803  0.0824 -0.3631  0.1438
  148SAPE  H14X16330   1.928  -0.579   4.852  3.5237 -0.3144 -2.4725
  148SAPE  H14Y16331   1.959  -0.408   4.804  0.6360 -0.8637 -0.0396
  148SAPE  C31516332   1.847  -0.503   4.653  0.4402 -0.1719 -0.1387
  148SAPE  H15X16333   1.935  -0.508   4.586  2.2226  0.8458  1.9853
  148SAPE  H15Y16334   1.782  -0.415   4.635  0.2572 -0.4265 -0.7515
  148SAPE  C31616335   1.745  -0.616   4.632  0.2628  1.1549 -0.3357
  148SAPE  H16X16336   1.648  -0.576   4.670  0.4365  0.4213  0.9358
  148SAPE  H16Y16337   1.767  -0.704   4.695 -3.0072  1.0501  0.8529
  148SAPE  C31716338   1.746  -0.687   4.492 -0.7375  0.1891 -0.3420
  148SAPE  H17X16339   1.668  -0.766   4.490  0.1113 -0.7410  0.8383
  148SAPE  H17Y16340   1.843  -0.742   4.487 -0.4356  0.8024 -1.6398
  148SAPE  C31816341   1.727  -0.593   4.368 -1.2642  0.2080  0.5603
  148SAPE  H18X16342   1.819  -0.537   4.344 -0.4171 -1.5525 -0.4737
  148SAPE  H18Y16343   1.649  -0.522   4.404 -0.0827 -0.1520  4.2530
  148SAPE  H18Z16344   1.691  -0.644   4.277 -0.8942  2.7169 -1.0920
  149SAPE     N16345   2.242   2.245   6.728  0.0702 -0.1908 -0.2219
  149SAPE   HN116346   2.233   2.142   6.731 -3.4790  0.0223  2.1604
  149SAPE   HN216347   2.220   2.275   6.631  0.8412 -0.9255 -0.6393
  149SAPE   HN316348   2.340   2.266   6.757 -0.1275  1.2596 -0.5184
  149SAPE   C1216349   2.146   2.299   6.824 -0.4550  0.6289  0.0573
  149SAPE  H12A16350   2.169   2.401   6.862 -0.7020  1.1281 -1.0644
  149SAPE  H12B16351   2.126   2.224   6.903  0.4250 -0.3074 -0.5901
  149SAPE   C1116352   2.003   2.308   6.756 -0.2370  0.2554  0.5973
  149SAPE  H11A16353   2.009   2.388   6.680  1.1265  1.3475  1.7941
  149SAPE  H11B16354   1.932   2.344   6.833  0.2010 -1.0127  1.6409
  149SAPE     P16355   1.849   2.093   6.753 -0.3676 -0.5107  0.2105
  149SAPE   O1316356   1.856   1.964   6.685  0.6279  0.6632  0.5313
  149SAPE   O1416357   1.854   2.086   6.901  1.0853  0.1684  0.2334
  149SAPE   O1216358   1.961   2.186   6.691 -0.5080  0.3021 -0.2869
  149SAPE   O1116359   1.710   2.151   6.721  0.4709 -1.1648 -0.0595
  149SAPE    C116360   1.698   2.247   6.612 -0.8227 -0.7277 -0.0876
  149SAPE    HA16361   1.621   2.323   6.641 -0.5083 -1.0032  1.5529
  149SAPE    HB16362   1.793   2.303   6.606 -0.9886 -0.2623  1.1535
  149SAPE    C216363   1.644   2.206   6.478 -0.2886 -0.7225 -0.0642
  149SAPE    HS16364   1.538   2.175   6.486 -0.1163 -1.1061  0.8416
  149SAPE   O2116365   1.723   2.106   6.411  0.2367 -0.1545 -0.2011
  149SAPE   C2116366   1.646   2.014   6.345 -0.0365 -0.5173 -0.3301
  149SAPE   O2216367   1.528   2.022   6.328 -0.4196  0.0090 -0.2006
  149SAPE   C2216368   1.733   1.899   6.302  0.4814 -0.0221  0.4992
  149SAPE   H2R16369   1.843   1.916   6.299  0.9361 -2.6795 -1.2516
  149SAPE   H2S16370   1.725   1.817   6.376  1.6053 -2.0825 -1.5393
  149SAPE    C316371   1.640   2.331   6.385  0.1902  0.2661  0.8262
  149SAPE    HX16372   1.741   2.360   6.349 -0.1396  0.4342  0.0082
  149SAPE    HY16373   1.600   2.417   6.443  0.7721  0.7033  0.5840
  149SAPE   O3116374   1.548   2.308   6.275  0.5976 -0.1982 -0.3796
  149SAPE   C3116375   1.423   2.351   6.275 -0.4668  0.4183 -0.5134
  149SAPE   O3216376   1.371   2.398   6.374  0.1952 -0.0442 -0.3760
  149SAPE   C3216377   1.358   2.346   6.139 -0.3253 -0.5001  0.2373
  149SAPE   H2X16378   1.348   2.451   6.103 -2.0674 -0.7884 -0.1688
  149SAPE   H2Y16379   1.256   2.309   6.158 -1.0820  0.0366 -2.3807
  149SAPE   C2316380   1.687   1.848   6.160  0.1949 -0.0319 -0.1144
  149SAPE   H3R16381   1.576   1.855   6.161  0.1981  0.1573 -0.6619
  149SAPE   H3S16382   1.714   1.741   6.153  0.5814 -0.1737  2.4870
  149SAPE   C2416383   1.727   1.928   6.036 -0.1138 -0.5226 -0.9430
  149SAPE   H4R16384   1.715   2.038   6.048 -1.3989 -0.7828  0.5188
  149SAPE   H4S16385   1.664   1.891   5.953 -1.0513 -1.5622  0.1988
  149SAPE   C2516386   1.876   1.905   6.005  0.1223 -0.4943  0.0063
  149SAPE   H5R16387   1.952   1.900   6.085 -0.8719 -0.2167  0.9835
  149SAPE   C2616388   1.919   1.911   5.875 -0.2883  0.5036  0.1628
  149SAPE   H6R16389   2.017   1.864   5.858  0.0162  0.3468  2.1301
  149SAPE   C2716390   1.839   1.919   5.755 -0.0442  0.3077 -0.0763
  149SAPE   H7R16391   1.749   1.975   5.789  0.0801  0.9658 -0.8107
  149SAPE   H7S16392   1.815   1.816   5.720 -0.1433  0.7162 -1.2552
  149SAPE   C2816393   1.898   2.006   5.652  0.6297  0.7965  0.3552
  149SAPE   H8R16394   1.917   2.111   5.676  0.1051  1.0310 -0.2353
  149SAPE   C2916395   1.927   1.966   5.524  0.7317  0.2782  0.1035
  149SAPE   H9R16396   1.963   2.039   5.451 -1.8303  1.2022 -0.3496
  149SAPE  C21016397   1.903   1.828   5.468  0.4664  0.0285 -0.3028
  149SAPE  H10R16398   1.831   1.836   5.383 -1.0328  1.1487  0.9934
  149SAPE  H10S16399   1.850   1.758   5.536 -0.1795 -1.6597 -2.4342
  149SAPE  C21116400   2.033   1.762   5.420  0.0458 -0.4335 -0.2709
  149SAPE  H11R16401   2.076   1.685   5.486  3.0601 -1.4071 -3.1221
  149SAPE  C21216402   2.095   1.785   5.308  0.1869  0.3324  0.4353
  149SAPE  H12R16403   2.192   1.734   5.294 -0.1156 -0.1061 -0.0910
  149SAPE  C21316404   2.065   1.896   5.213  0.1915  0.7262  0.1743
  149SAPE  H13R16405   2.155   1.924   5.155 -0.0798  0.3123 -0.4579
  149SAPE  H13S16406   2.034   1.988   5.266 -1.8747  1.1692 -1.6590
  149SAPE  C21416407   1.952   1.866   5.118  0.3065  0.0915  0.7760
  149SAPE  H14R16408   1.850   1.870   5.159  0.3694  2.3767  0.8283
  149SAPE  C21516409   1.960   1.825   4.995 -0.0608 -0.0604  0.0263
  149SAPE  H15R16410   1.871   1.806   4.933 -1.1263 -0.2478  1.5821
  149SAPE  C21616411   2.092   1.803   4.929 -0.0694 -0.5764  0.5192
  149SAPE  H16R16412   2.094   1.731   4.844  3.6952 -1.2829  1.0225
  149SAPE  H16S16413   2.147   1.756   5.014 -1.9276 -0.6771  1.7036
  149SAPE  C21716414   2.175   1.931   4.877  0.9143 -0.3413 -0.0740
  149SAPE  H17R16415   2.241   1.896   4.795  0.6224 -0.5880 -0.2046
  149SAPE  H17S16416   2.231   1.979   4.961 -0.4811  0.0430  0.6764
  149SAPE  C21816417   2.099   2.047   4.806 -0.6368  0.8673 -0.4007
  149SAPE  H18R16418   2.011   2.075   4.869 -0.5711 -0.5318  0.3422
  149SAPE  H18S16419   2.058   2.006   4.712 -3.0009  2.1057  0.0165
  149SAPE  C21916420   2.180   2.173   4.765 -0.7667 -0.0841 -0.6344
  149SAPE  H19R16421   2.212   2.238   4.848  0.0198 -0.1853 -0.8563
  149SAPE  H19S16422   2.109   2.233   4.704 -1.0978  0.3328  0.1472
  149SAPE  C22016423   2.308   2.143   4.682  0.2265 -0.4159  0.0060
  149SAPE  H20R16424   2.279   2.113   4.579  0.1783  0.5673 -0.2791
  149SAPE  H20S16425   2.356   2.055   4.729 -0.2643  0.7411  2.8970
  149SAPE  H20T16426   2.384   2.223   4.679 -0.8059  0.5608 -1.1090
  149SAPE   C3316427   1.434   2.260   6.035  0.0023 -0.5387 -0.4575
  149SAPE   H3X16428   1.428   2.156   6.074  3.7204 -0.6318  0.2049
  149SAPE   H3Y16429   1.540   2.293   6.029  0.2558 -1.5262 -3.9726
  149SAPE   C3416430   1.370   2.274   5.892  0.6129 -0.0628  0.6628
  149SAPE   H4X16431   1.365   2.381   5.865  0.6759 -0.3300 -0.4330
  149SAPE   H4Y16432   1.263   2.243   5.892 -0.1194  2.2632  0.2770
  149SAPE   C3516433   1.451   2.196   5.787  0.2563  0.1036 -0.2427
  149SAPE   H5X16434   1.464   2.090   5.816 -1.8235  0.0955  0.8320
  149SAPE   H5Y16435   1.550   2.245   5.784  0.3936 -0.2097 -1.2152
  149SAPE   C3616436   1.402   2.218   5.642 -0.1670 -0.2417 -0.1004
  149SAPE   H6X16437   1.379   2.324   5.616 -0.3589 -0.6086 -1.5718
  149SAPE   H6Y16438   1.314   2.154   5.618 -0.2171 -0.4869  0.7353
  149SAPE   C3716439   1.522   2.188   5.551 -0.4211 -0.6501  0.3301
  149SAPE   H7X16440   1.555   2.085   5.576  0.7107 -0.5302 -0.5744
  149SAPE   H7Y16441   1.604   2.254   5.587  0.6953 -2.4979  1.3823
  149SAPE   C3816442   1.496   2.187   5.398 -0.6318 -0.0166 -0.0311
  149SAPE   H8X16443   1.488   2.292   5.363 -1.6334  0.2390  0.9109
  149SAPE   H8Y16444   1.404   2.126   5.389 -1.0548  0.6432 -0.2723
  149SAPE   C3916445   1.600   2.117   5.313  0.0520 -0.2683 -0.7186
  149SAPE   H9X16446   1.615   2.014   5.353 -2.1045  0.4511  2.2450
  149SAPE   H9Y16447   1.700   2.165   5.325  1.3556 -2.9338 -0.1249
  149SAPE  C31016448   1.559   2.130   5.162 -0.5670  0.3223  0.4678
  149SAPE  H10X16449   1.552   2.237   5.132  1.0547  0.6301  1.0996
  149SAPE  H10Y16450   1.458   2.085   5.148 -0.8530  0.3801  2.1745
  149SAPE  C31116451   1.646   2.050   5.061  0.4787 -0.1722 -1.2189
  149SAPE  H11X16452   1.641   1.939   5.073 -1.9372  0.2024  3.6634
  149SAPE  H11Y16453   1.750   2.085   5.077  0.2784 -0.2120  0.3806
  149SAPE  C31216454   1.607   2.096   4.920  0.4564 -0.4254  1.1229
  149SAPE  H12X16455   1.638   2.202   4.915  0.0989 -0.3232  1.0458
  149SAPE  H12Y16456   1.498   2.088   4.904  0.4932 -0.5997  0.9542
  149SAPE  C31316457   1.688   2.025   4.802 -0.4135  0.4801 -0.0084
  149SAPE  H13X16458   1.680   1.915   4.817  1.4967 -0.1096 -2.5527
  149SAPE  H13Y16459   1.797   2.045   4.812 -0.5299  0.4043  1.5058
  149SAPE  C31416460   1.666   2.075   4.659  0.0877 -0.0448 -0.1695
  149SAPE  H14X16461   1.677   2.185   4.656 -0.7482  0.0488 -0.1867
  149SAPE  H14Y16462   1.575   2.041   4.606  1.2978 -1.0996 -1.6430
  149SAPE  C31516463   1.772   2.020   4.563  0.3785 -0.0131  0.0240
  149SAPE  H15X16464   1.875   2.051   4.588  0.3020 -0.0456  0.3901
  149SAPE  H15Y16465   1.752   2.071   4.467 -1.4790  0.5741  0.6814
  149SAPE  C31616466   1.773   1.866   4.543 -0.2897 -0.2918 -0.7759
  149SAPE  H16X16467   1.670   1.832   4.519 -0.7169  0.9111 -0.7257
  149SAPE  H16Y16468   1.811   1.812   4.633  1.8641  1.4598 -0.5585
  149SAPE  C31716469   1.892   1.834   4.445 -0.5051  0.5520 -0.3321
  149SAPE  H17X16470   1.902   1.724   4.448  0.4901  0.5751 -1.8229
  149SAPE  H17Y16471   1.981   1.881   4.494 -0.4526 -0.1951  0.3029
  149SAPE  C31816472   1.882   1.871   4.300  0.7577  0.9036  0.3882
  149SAPE  H18X16473   1.883   1.982   4.289  1.1051  0.9056  0.4038
  149SAPE  H18Y16474   1.787   1.831   4.259  0.0088  0.9567  2.0195
  149SAPE  H18Z16475   1.967   1.828   4.241  0.6022 -0.4865  1.1491
  150SAPE     N16476   4.377   3.035   6.502  0.0135  0.0552 -0.5053
  150SAPE   HN116477   4.315   3.117   6.520 -0.4691 -0.1992 -0.9686
  150SAPE   HN216478   4.436   3.015   6.585 -2.1840 -3.0901  0.5007
  150SAPE   HN316479   4.427   3.072   6.419 -1.4639  1.5077 -0.7993
  150SAPE   C1216480   4.297   2.911   6.465 -0.0655  0.6696  0.5852
  150SAPE  H12A16481   4.223   2.939   6.387  0.4224  0.5085  0.0570
  150SAPE  H12B16482   4.250   2.867   6.555 -1.7639 -0.4476 -0.7885
  150SAPE   C1116483   4.391   2.807   6.399 -0.5596  0.0063 -0.4060
  150SAPE  H11A16484   4.467   2.844   6.326 -1.6300  2.0013 -0.5752
  150SAPE  H11B16485   4.316   2.751   6.341 -0.4399  0.8374 -1.3917
  150SAPE     P16486   4.586   2.767   6.580 -0.3373 -0.1323 -0.5218
  150SAPE   O1316487   4.570   2.909   6.622 -0.0615  0.0433  0.3643
  150SAPE   O1416488   4.630   2.669   6.681  0.3841  0.1614  0.0204
  150SAPE   O1216489   4.455   2.718   6.500 -0.7457 -0.4327  0.0692
  150SAPE   O1116490   4.689   2.768   6.457 -0.0962  0.0322 -0.0771
  150SAPE    C116491   4.711   2.636   6.404 -0.5764  0.2801 -1.1803
  150SAPE    HA16492   4.633   2.564   6.436 -1.3700  1.8630  0.7039
  150SAPE    HB16493   4.711   2.641   6.293 -3.8361 -0.3232 -1.3109
  150SAPE    C216494   4.850   2.577   6.446  0.3829 -0.1646 -0.5719
  150SAPE    HS16495   4.858   2.592   6.556 -1.8576 -0.2791 -0.3361
  150SAPE   O2116496   4.952   2.650   6.378  0.1881 -0.3608 -0.2514
  150SAPE   C2116497   5.072   2.626   6.419  0.4638  0.4289  0.1944
  150SAPE   O2216498   5.106   2.559   6.514  0.1337  0.7170 -0.0829
  150SAPE   C2216499   5.170   2.683   6.320 -0.8160  0.4641  0.6113
  150SAPE   H2R16500   5.225   2.750   6.389 -0.8831  1.4286 -0.2448
  150SAPE   H2S16501   5.219   2.592   6.276 -4.3271 -0.4010 -1.9534
  150SAPE    C316502   4.857   2.428   6.409 -0.2422 -0.2395 -0.3904
  150SAPE    HX16503   4.776   2.388   6.473  0.7154 -0.6514  0.6075
  150SAPE    HY16504   4.953   2.381   6.440 -0.4705 -0.7888 -0.5098
  150SAPE   O3116505   4.824   2.396   6.272  0.1800 -0.1367  0.0326
  150SAPE   C3116506   4.928   2.372   6.193  0.0301  0.5284  0.7288
  150SAPE   O3216507   5.044   2.386   6.226 -0.7588 -0.4493  0.1625
  150SAPE   C3216508   4.880   2.340   6.055 -1.1564  0.4918  0.0611
  150SAPE   H2X16509   4.832   2.431   6.013 -1.6728 -0.5907 -1.8098
  150SAPE   H2Y16510   4.800   2.264   6.062  0.3945 -1.0817  1.4037
  150SAPE   C2316511   5.126   2.765   6.200  0.7489 -0.5996 -0.0336
  150SAPE   H3R16512   5.054   2.837   6.246 -0.3155 -1.4016 -0.3875
  150SAPE   H3S16513   5.076   2.698   6.127  0.7975 -1.2377  0.5012
  150SAPE   C2416514   5.246   2.841   6.144 -0.9959 -0.1103  0.0980
  150SAPE   H4R16515   5.309   2.760   6.102  0.3098  1.4612 -1.0895
  150SAPE   H4S16516   5.303   2.887   6.228  0.6775 -0.7421 -0.6530
  150SAPE   C2516517   5.222   2.938   6.031 -0.3046  0.2579  0.1277
  150SAPE   H5R16518   5.151   3.021   6.045 -1.9054 -1.0100 -0.1987
  150SAPE   C2616519   5.270   2.931   5.907 -0.5349  0.0409  0.1291
  150SAPE   H6R16520   5.235   3.004   5.833 -0.4778  0.7634  0.8055
  150SAPE   C2716521   5.359   2.822   5.852  0.0171 -0.1008 -0.2950
  150SAPE   H7R16522   5.417   2.773   5.932 -0.9223 -1.1324 -0.2130
  150SAPE   H7S16523   5.443   2.875   5.803  1.8980 -0.3156  2.4805
  150SAPE   C2816524   5.297   2.710   5.767  0.2300  0.9702 -0.9105
  150SAPE   H8R16525   5.226   2.651   5.828  0.4964 -0.4430 -1.9123
  150SAPE   C2916526   5.290   2.694   5.637 -0.2628 -0.2498 -0.0623
  150SAPE   H9R16527   5.232   2.611   5.593  1.1926 -2.5135  2.0279
  150SAPE  C21016528   5.365   2.775   5.533  0.1173  0.6221 -0.5429
  150SAPE  H10R16529   5.463   2.726   5.512  0.3756  1.6775 -1.9619
  150SAPE  H10S16530   5.393   2.870   5.583 -0.6875 -0.5567  2.3154
  150SAPE  C21116531   5.278   2.801   5.411  0.0072  0.1861 -0.2000
  150SAPE  H11R16532   5.204   2.882   5.415  1.1066  1.1523  2.2062
  150SAPE  C21216533   5.296   2.736   5.291 -0.4483 -0.6763 -0.4019
  150SAPE  H12R16534   5.234   2.763   5.203 -1.2997  1.4111  0.7591
  150SAPE  C21316535   5.407   2.654   5.252 -0.4222  0.3266  0.1551
  150SAPE  H13R16536   5.429   2.563   5.312  0.0982  0.4745  0.1955
  150SAPE  H13S16537   5.505   2.707   5.255  0.2659 -0.9436  2.6278
  150SAPE  C21416538   5.392   2.596   5.111 -0.2983 -0.6965  0.3061
  150SAPE  H14R16539   5.356   2.492   5.109  0.8008 -1.0914 -1.0918
  150SAPE  C21516540   5.427   2.644   4.991 -0.6122 -0.8289 -0.0347
  150SAPE  H15R16541   5.393   2.593   4.899 -0.1386  1.2126 -1.3890
  150SAPE  C21616542   5.501   2.768   4.971  0.4574  0.0794  0.1044
  150SAPE  H16R16543   5.599   2.734   4.933  1.1818 -0.9792  2.7185
  150SAPE  H16S16544   5.517   2.832   5.060 -1.3823  1.2880 -0.3703
  150SAPE  C21716545   5.427   2.852   4.866 -0.0886  0.2856  0.0204
  150SAPE  H17R16546   5.419   2.801   4.768  0.2148 -0.1550  0.2210
  150SAPE  H17S16547   5.500   2.934   4.846  0.9788 -0.2575  1.5362
  150SAPE  C21816548   5.297   2.911   4.922 -0.2348  0.0828  0.0182
  150SAPE  H18R16549   5.303   2.926   5.032 -1.0366 -0.4053  0.1385
  150SAPE  H18S16550   5.218   2.833   4.922 -0.9713  0.7623  2.1470
  150SAPE  C21916551   5.254   3.034   4.842  0.4267  0.2659  0.3793
  150SAPE  H19R16552   5.330   3.114   4.836 -0.6346  1.2129 -0.8960
  150SAPE  H19S16553   5.176   3.069   4.914 -1.8060  1.2135 -2.3191
  150SAPE  C22016554   5.177   3.008   4.709  0.2268  0.2961 -0.2887
  150SAPE  H20R16555   5.135   2.905   4.714 -0.3650  0.5881  1.6094
  150SAPE  H20S16556   5.238   3.025   4.618 -0.8618 -0.9621 -1.2922
  150SAPE  H20T16557   5.086   3.072   4.696  0.4093  0.2412 -2.2088
  150SAPE   C3316558   4.993   2.310   5.956 -0.0769  0.2092 -0.5021
  150SAPE   H3X16559   5.072   2.246   6.001 -0.7388  0.2516  0.7993
  150SAPE   H3Y16560   5.053   2.401   5.935 -0.5718  0.2969 -1.6051
  150SAPE   C3416561   4.933   2.250   5.836  0.4551 -0.7482  0.0924
  150SAPE   H4X16562   4.847   2.314   5.808 -0.0401  0.2871  3.4723
  150SAPE   H4Y16563   4.890   2.149   5.854 -0.4996 -0.4061 -0.2185
  150SAPE   C3516564   5.025   2.237   5.709  0.5218  0.3411  0.6722
  150SAPE   H5X16565   4.973   2.188   5.623  1.3868 -0.0129  0.3428
  150SAPE   H5Y16566   5.111   2.175   5.741  0.1925 -0.0873  0.7406
  150SAPE   C3616567   5.067   2.372   5.654 -0.9360  0.6779 -0.2215
  150SAPE   H6X16568   5.176   2.386   5.670 -0.3908 -3.1706  0.3699
  150SAPE   H6Y16569   5.014   2.456   5.702 -1.3839 -2.0443  4.6610
  150SAPE   C3716570   5.047   2.391   5.499 -0.0453 -0.2228  1.1120
  150SAPE   H7X16571   5.055   2.500   5.481 -1.0777 -0.2373  0.4981
  150SAPE   H7Y16572   4.949   2.361   5.455  1.2147 -0.2604 -1.9112
  150SAPE   C3816573   5.146   2.306   5.418  0.3200  0.6466  0.1931
  150SAPE   H8X16574   5.121   2.198   5.429 -1.6397  0.9769 -0.4674
  150SAPE   H8Y16575   5.247   2.322   5.461  1.0530 -0.2618 -1.1059
  150SAPE   C3916576   5.156   2.331   5.273  0.2294 -0.6171  0.0075
  150SAPE   H9X16577   5.182   2.438   5.261  0.5093 -0.7870 -1.0795
  150SAPE   H9Y16578   5.054   2.317   5.231 -1.4580  1.3801  3.0866
  150SAPE  C31016579   5.264   2.247   5.210  0.5033  0.6989 -0.4371
  150SAPE  H10X16580   5.363   2.269   5.255  2.0797 -1.3715 -2.6361
  150SAPE  H10Y16581   5.271   2.271   5.102  0.1700 -0.4174 -0.7246
  150SAPE  C31116582   5.239   2.097   5.214  0.1642  0.2532  0.2405
  150SAPE  H11X16583   5.132   2.077   5.193  0.5248 -0.0888 -1.3472
  150SAPE  H11Y16584   5.255   2.064   5.319  1.2395  2.3006  0.7736
  150SAPE  C31216585   5.312   2.015   5.112  0.1711  0.7208 -0.3339
  150SAPE  H12X16586   5.361   1.924   5.150  0.3684  0.4863 -1.1209
  150SAPE  H12Y16587   5.396   2.075   5.070  1.5360 -0.8969 -0.0050
  150SAPE  C31316588   5.214   1.972   5.003  0.3962  0.0458 -0.3106
  150SAPE  H13X16589   5.167   2.066   4.966 -2.7491 -2.2863 -2.7047
  150SAPE  H13Y16590   5.129   1.909   5.035 -0.8978  1.3181 -1.1033
  150SAPE  C31416591   5.292   1.912   4.886 -0.1306 -0.2256  0.5266
  150SAPE  H14X16592   5.344   1.822   4.924 -3.6596 -2.2215  1.1016
  150SAPE  H14Y16593   5.350   1.992   4.836 -1.5611 -0.4761 -1.7229
  150SAPE  C31516594   5.187   1.861   4.782 -0.4698  0.3932 -0.4181
  150SAPE  H15X16595   5.237   1.839   4.685  3.2211  1.1499  1.1529
  150SAPE  H15Y16596   5.101   1.931   4.776  0.6202  1.9608  1.1244
  150SAPE  C31616597   5.132   1.721   4.840  0.2442 -0.4651  0.1423
  150SAPE  H16X16598   5.080   1.734   4.938 -0.9659  0.2907 -0.5884
  150SAPE  H16Y16599   5.222   1.657   4.856  0.6099 -0.4078 -1.5482
  150SAPE  C31716600   5.044   1.648   4.737  0.0027  0.2956 -0.3457
  150SAPE  H17X16601   5.076   1.638   4.631  0.3191  1.1765 -0.3385
  150SAPE  H17Y16602   4.951   1.708   4.725  1.2864  2.0380 -2.4227
  150SAPE  C31816603   5.016   1.501   4.780  0.2038 -0.0358  0.5694
  150SAPE  H18X16604   4.975   1.487   4.882  0.1303  0.8032  0.6634
  150SAPE  H18Y16605   5.109   1.440   4.774 -0.0185 -0.5291  1.8506
  150SAPE  H18Z16606   4.942   1.463   4.706  1.7926 -1.8348 -0.2063
  151SAPE     N16607   4.318   6.591   6.450 -0.9506 -0.2012 -0.6503
  151SAPE   HN116608   4.406   6.581   6.503  0.5689  0.5393 -2.8829
  151SAPE   HN216609   4.280   6.685   6.473  1.5509  0.2112  2.3290
  151SAPE   HN316610   4.243   6.528   6.486 -0.0540  0.1464  2.0009
  151SAPE   C1216611   4.335   6.560   6.301  0.3664 -0.4260 -1.2115
  151SAPE  H12A16612   4.234   6.551   6.255 -0.2806  1.7896 -0.3248
  151SAPE  H12B16613   4.389   6.464   6.287  0.5491 -0.4177 -0.5954
  151SAPE   C1116614   4.412   6.674   6.238 -0.3423 -0.0529  0.4240
  151SAPE  H11A16615   4.362   6.770   6.260 -1.8857 -0.6097 -0.4512
  151SAPE  H11B16616   4.403   6.669   6.127 -1.2833  3.1797  0.2689
  151SAPE     P16617   4.665   6.768   6.211  0.0344 -0.3610  0.3424
  151SAPE   O1316618   4.631   6.906   6.242  0.1199  0.2624  0.1046
  151SAPE   O1416619   4.794   6.721   6.258  0.4145 -0.5125  0.3378
  151SAPE   O1216620   4.554   6.669   6.270  0.3249  0.4818  0.0612
  151SAPE   O1116621   4.653   6.739   6.060 -0.2033 -0.3899 -0.1700
  151SAPE    C116622   4.690   6.609   6.012 -0.0211  0.5120 -0.3058
  151SAPE    HA16623   4.781   6.570   6.063  0.0966  1.7571  0.5026
  151SAPE    HB16624   4.614   6.530   6.029  2.8911 -2.5989 -0.7801
  151SAPE    C216625   4.717   6.617   5.858  0.3359  0.6382 -0.1202
  151SAPE    HS16626   4.763   6.521   5.823  1.7350  0.0730  2.9579
  151SAPE   O2116627   4.805   6.721   5.835  0.2857 -0.5073 -0.3582
  151SAPE   C2116628   4.929   6.699   5.875 -0.1571  0.4866 -1.1290
  151SAPE   O2216629   4.979   6.590   5.901 -0.4240 -0.2303  0.1782
  151SAPE   C2216630   5.000   6.832   5.879  0.0358  0.3207 -0.1968
  151SAPE   H2R16631   5.092   6.824   5.818 -0.1535 -0.0546 -0.4329
  151SAPE   H2S16632   4.926   6.906   5.843 -1.8987 -1.5723 -0.3132
  151SAPE    C316633   4.585   6.632   5.776  0.2554  0.3794 -0.1835
  151SAPE    HX16634   4.564   6.739   5.797 -1.5543  0.1774 -0.7322
  151SAPE    HY16635   4.502   6.578   5.827 -0.4024  1.1211 -0.4501
  151SAPE   O3116636   4.600   6.599   5.640  0.0056  0.0056  0.2737
  151SAPE   C3116637   4.490   6.581   5.579 -0.0423 -0.2792 -0.2969
  151SAPE   O3216638   4.378   6.588   5.626  0.0503 -0.0462  0.1561
  151SAPE   C3216639   4.517   6.557   5.431  0.3990 -0.5896  0.2090
  151SAPE   H2X16640   4.417   6.558   5.382  0.7211 -0.0229 -0.4579
  151SAPE   H2Y16641   4.558   6.454   5.423  1.6467 -0.0055 -4.5552
  151SAPE   C2316642   5.042   6.886   6.018  0.1745  1.2390  0.4193
  151SAPE   H3R16643   5.094   6.802   6.069 -0.6456  0.3135 -0.2270
  151SAPE   H3S16644   4.951   6.911   6.077 -0.7657 -0.2927 -0.3118
  151SAPE   C2416645   5.135   7.013   6.022  0.4222  0.5638 -0.5673
  151SAPE   H4R16646   5.234   6.995   5.976  0.7285 -0.3268  0.3976
  151SAPE   H4S16647   5.161   7.030   6.129 -1.2893  0.8798 -0.1565
  151SAPE   C2516648   5.056   7.133   5.972 -0.6805  0.5373  1.2213
  151SAPE   H5R16649   4.969   7.169   6.029 -3.2265  0.0490 -2.0304
  151SAPE   C2616650   5.089   7.208   5.863  0.5191  0.0971 -0.4992
  151SAPE   H6R16651   5.021   7.291   5.839  0.9596  0.7716  0.5246
  151SAPE   C2716652   5.206   7.176   5.773 -0.5532 -0.8262 -0.4678
  151SAPE   H7R16653   5.187   7.189   5.664  2.1577 -0.0256 -0.9230
  151SAPE   H7S16654   5.228   7.068   5.767  1.2636 -0.4101 -2.3674
  151SAPE   C2816655   5.323   7.260   5.809  0.1671  0.7103  0.0710
  151SAPE   H8R16656   5.366   7.234   5.907 -0.1260 -1.2386 -0.2616
  151SAPE   C2916657   5.397   7.340   5.736  0.6348  0.0303  0.3264
  151SAPE   H9R16658   5.481   7.381   5.795  1.8822  0.0744 -1.4082
  151SAPE  C21016659   5.375   7.372   5.587 -0.2647  0.0646  0.3371
  151SAPE  H10R16660   5.429   7.465   5.560  0.8926 -0.7458 -0.2593
  151SAPE  H10S16661   5.270   7.403   5.567  0.6996  1.1381 -4.4609
  151SAPE  C21116662   5.408   7.265   5.483 -0.0758 -0.5896 -0.6943
  151SAPE  H11R16663   5.468   7.181   5.521 -1.5979 -0.9703  1.0362
  151SAPE  C21216664   5.368   7.257   5.352 -0.5799 -0.4719  0.2609
  151SAPE  H12R16665   5.401   7.171   5.293 -0.7897  0.8294 -1.8568
  151SAPE  C21316666   5.282   7.362   5.286 -0.1715 -0.1504  0.4264
  151SAPE  H13R16667   5.351   7.419   5.220 -1.4358 -1.6643 -2.4195
  151SAPE  H13S16668   5.228   7.428   5.357 -0.8354  1.4113 -1.4416
  151SAPE  C21416669   5.180   7.310   5.187 -0.0483 -0.5163  0.7136
  151SAPE  H14R16670   5.202   7.330   5.081  0.9990 -0.7652  0.8691
  151SAPE  C21516671   5.068   7.241   5.215  0.0186 -0.3708  0.2775
  151SAPE  H15R16672   5.011   7.211   5.126 -0.2403  3.0828 -0.9000
  151SAPE  C21616673   5.010   7.207   5.351 -0.4649  0.2777  0.0821
  151SAPE  H16R16674   5.071   7.240   5.438  1.0015  1.1601 -1.2247
  151SAPE  H16S16675   5.013   7.096   5.355 -0.8907  0.2553 -0.0877
  151SAPE  C21716676   4.867   7.262   5.365  0.0677  0.0757  0.1611
  151SAPE  H17R16677   4.816   7.187   5.300  0.6629 -1.0990  0.9962
  151SAPE  H17S16678   4.866   7.362   5.318  1.9109  0.6070  1.1404
  151SAPE  C21816679   4.824   7.279   5.510  0.4369 -0.5476  0.0668
  151SAPE  H18R16680   4.726   7.330   5.513  1.8981  2.6104 -0.9501
  151SAPE  H18S16681   4.897   7.352   5.550  3.2804 -2.2064 -1.7265
  151SAPE  C21916682   4.820   7.147   5.592  0.3489 -0.0608  0.2458
  151SAPE  H19R16683   4.803   7.178   5.698  0.9359 -0.8820  0.5854
  151SAPE  H19S16684   4.916   7.094   5.606  0.8310  0.6440 -0.3314
  151SAPE  C22016685   4.733   7.029   5.550  0.1826  0.2933  0.2101
  151SAPE  H20R16686   4.783   6.988   5.459 -0.3085  1.2429 -0.5003
  151SAPE  H20S16687   4.630   7.056   5.520 -0.2107  0.1564  1.3933
  151SAPE  H20T16688   4.744   6.945   5.621  2.3641 -0.6395 -1.1239
  151SAPE   C3316689   4.609   6.669   5.370  0.4793 -0.4039  0.3771
  151SAPE   H3X16690   4.713   6.634   5.382  0.6771 -0.3412 -0.9787
  151SAPE   H3Y16691   4.591   6.767   5.419  0.8940 -0.3296  0.3793
  151SAPE   C3416692   4.585   6.680   5.218 -0.8541  0.6647  0.4173
  151SAPE   H4X16693   4.487   6.726   5.194 -0.6273  1.0604  0.2425
  151SAPE   H4Y16694   4.597   6.578   5.174  1.1857  1.5340 -1.1884
  151SAPE   C3516695   4.695   6.771   5.147  0.0241  0.2749  0.7979
  151SAPE   H5X16696   4.787   6.717   5.179  1.2173  0.8271 -1.5004
  151SAPE   H5Y16697   4.706   6.873   5.190 -0.1450 -0.3953  2.5328
  151SAPE   C3616698   4.689   6.779   4.989  0.0879  0.5552  0.0089
  151SAPE   H6X16699   4.589   6.818   4.959 -0.8706 -2.0767 -0.5122
  151SAPE   H6Y16700   4.693   6.674   4.951 -1.9061  0.7866 -0.9954
  151SAPE   C3716701   4.809   6.867   4.941  0.9821 -0.1357 -0.1008
  151SAPE   H7X16702   4.839   6.827   4.842 -0.9922 -0.8917 -0.4467
  151SAPE   H7Y16703   4.900   6.871   5.005  1.6488 -0.5067 -0.9967
  151SAPE   C3816704   4.765   7.011   4.909 -0.5123  0.2554  0.9896
  151SAPE   H8X16705   4.723   7.058   5.001 -0.1764  1.4900  0.5200
  151SAPE   H8Y16706   4.688   7.008   4.829  0.9975 -1.3426 -0.4698
  151SAPE   C3916707   4.869   7.111   4.857 -0.0188  0.3292  0.1469
  151SAPE   H9X16708   4.885   7.107   4.747  1.6265  1.7819  0.2937
  151SAPE   H9Y16709   4.965   7.086   4.908 -1.6614 -3.4359  1.7719
  151SAPE  C31016710   4.828   7.265   4.877  0.1234 -0.3985 -0.6963
  151SAPE  H10X16711   4.827   7.297   4.983 -1.3506 -2.1950 -0.1123
  151SAPE  H10Y16712   4.725   7.277   4.835  0.3618  0.8410 -0.9732
  151SAPE  C31116713   4.909   7.372   4.800  0.4177 -0.2210 -0.3000
  151SAPE  H11X16714   4.884   7.338   4.698 -0.9274  0.9789 -0.3972
  151SAPE  H11Y16715   5.012   7.334   4.818  0.3558 -2.2010 -3.3556
  151SAPE  C31216716   4.882   7.515   4.837 -0.3859 -0.0754 -0.0319
  151SAPE  H12X16717   4.920   7.538   4.938  0.8062  0.6246 -0.6230
  151SAPE  H12Y16718   4.772   7.525   4.846 -0.5139 -2.1533  1.3579
  151SAPE  C31316719   4.933   7.617   4.734 -0.2494 -0.4856 -0.7544
  151SAPE  H13X16720   4.896   7.585   4.635 -0.4708 -0.2636 -0.7459
  151SAPE  H13Y16721   5.043   7.620   4.742 -0.3786 -0.1831  1.6541
  151SAPE  C31416722   4.876   7.762   4.762 -0.5786  0.3680  0.3491
  151SAPE  H14X16723   4.879   7.787   4.870 -1.8393  3.0095 -0.1436
  151SAPE  H14Y16724   4.768   7.772   4.737 -0.5708  2.9923  1.0548
  151SAPE  C31516725   4.957   7.878   4.695 -0.5270  0.3663  0.4883
  151SAPE  H15X16726   4.964   7.853   4.587  2.9452  1.3155  0.3992
  151SAPE  H15Y16727   5.061   7.888   4.732 -0.4428 -2.5392  1.3214
  151SAPE  C31616728   4.898   8.019   4.705  0.5755 -0.3269  0.1634
  151SAPE  H16X16729   4.975   8.084   4.658  0.3769 -0.1242  0.1124
  151SAPE  H16Y16730   4.876   8.052   4.809  1.3175  0.6149  0.0421
  151SAPE  C31716731   4.763   8.044   4.630 -0.4180 -0.0822 -0.2724
  151SAPE  H17X16732   4.676   7.995   4.679 -0.8943 -1.4677 -2.3883
  151SAPE  H17Y16733   4.774   8.005   4.526 -1.1508  0.3686 -0.5249
  151SAPE  C31816734   4.716   8.189   4.616  0.6914  0.4530 -0.1733
  151SAPE  H18X16735   4.680   8.231   4.713 -1.7510 -0.0643 -0.7858
  151SAPE  H18Y16736   4.641   8.198   4.534 -0.2299  1.5916  0.7522
  151SAPE  H18Z16737   4.806   8.248   4.586  0.4473 -0.1282 -2.1785
  152SAPE     N16738   0.402   1.785   6.823 -0.4778  0.3109 -0.0968
  152SAPE   HN116739   0.351   1.876   6.821 -0.3336  0.3739 -1.3486
  152SAPE   HN216740   0.458   1.784   6.911  0.8084 -0.4271 -0.8961
  152SAPE   HN316741   0.455   1.772   6.734 -1.4381  1.2488 -0.8263
  152SAPE   C1216742   0.302   1.676   6.838 -0.0492 -0.4978  0.0547
  152SAPE  H12A16743   0.247   1.689   6.934 -1.3759  0.5218 -0.8144
  152SAPE  H12B16744   0.357   1.579   6.841  2.4614  0.8308  0.2090
  152SAPE   C1116745   0.197   1.679   6.721  0.2628 -0.6354 -0.6578
  152SAPE  H11A16746   0.119   1.606   6.751  1.3608 -0.8131  2.0310
  152SAPE  H11B16747   0.263   1.653   6.635  1.7785  0.1929  0.2197
  152SAPE     P16748   0.025   1.827   6.605 -0.0547  0.3555  0.0481
  152SAPE   O1316749  -0.095   1.747   6.632  0.3954 -0.0687 -0.4484
  152SAPE   O1416750   0.009   1.974   6.612  0.6865 -0.1019 -0.2839
  152SAPE   O1216751   0.134   1.805   6.711 -0.3496  0.3275 -0.6305
  152SAPE   O1116752   0.096   1.790   6.475  0.2918  0.7507 -0.4945
  152SAPE    C116753   0.217   1.845   6.442 -0.5082  0.3253 -0.7186
  152SAPE    HA16754   0.280   1.885   6.525  2.4520 -0.8930 -2.2239
  152SAPE    HB16755   0.290   1.767   6.409  1.2950  1.2228  0.8976
  152SAPE    C216756   0.191   1.954   6.341  0.3702 -0.5130  1.0850
  152SAPE    HS16757   0.095   2.004   6.364  1.6236  2.7232 -0.0152
  152SAPE   O2116758   0.185   1.897   6.212 -0.0385  0.2980 -0.7569
  152SAPE   C2116759   0.069   1.852   6.169  0.1513  0.0474  0.6738
  152SAPE   O2216760  -0.034   1.860   6.232  0.2067 -0.3858  0.3412
  152SAPE   C2216761   0.095   1.765   6.042 -0.0472 -0.9331  0.3851
  152SAPE   H2R16762   0.123   1.838   5.963 -0.5838 -2.0758 -0.9072
  152SAPE   H2S16763   0.183   1.702   6.066  0.2683 -0.0595  1.6233
  152SAPE    C316764   0.306   2.056   6.338  0.0094 -0.7069  0.1997
  152SAPE    HX16765   0.405   2.011   6.316  0.7240  0.3016  1.1852
  152SAPE    HY16766   0.323   2.094   6.441  0.4239 -1.2703  0.3439
  152SAPE   O3116767   0.267   2.166   6.250 -0.0412 -0.3723 -0.3310
  152SAPE   C3116768   0.245   2.288   6.307 -0.2620 -1.1018 -0.3295
  152SAPE   O3216769   0.273   2.321   6.423  0.6941  0.4766  0.0495
  152SAPE   C3216770   0.174   2.373   6.192 -0.0370 -0.2777 -0.0993
  152SAPE   H2X16771   0.232   2.348   6.101 -0.1003 -1.5418  0.1958
  152SAPE   H2Y16772   0.195   2.481   6.211  3.5224 -0.1413 -3.5492
  152SAPE   C2316773  -0.021   1.677   5.996  0.2981 -0.0776  0.3811
  152SAPE   H3R16774  -0.102   1.732   5.944 -0.3218  0.8707  2.2400
  152SAPE   H3S16775  -0.063   1.618   6.080 -3.0384  0.9115 -0.4499
  152SAPE   C2416776   0.033   1.577   5.887  0.3887  0.1448  0.0071
  152SAPE   H4R16777  -0.038   1.495   5.864  0.2908  0.5726 -1.3178
  152SAPE   H4S16778   0.122   1.524   5.928  1.1884  2.0210  0.7860
  152SAPE   C2516779   0.069   1.649   5.756  0.4769  0.6830 -0.4521
  152SAPE   H5R16780   0.146   1.727   5.762  2.5952 -1.0275 -2.9288
  152SAPE   C2616781   0.043   1.603   5.634  0.2142  0.4320  0.0611
  152SAPE   H6R16782   0.068   1.663   5.545  0.7979 -1.3558 -1.0281
  152SAPE   C2716783  -0.048   1.489   5.595  0.4574 -0.1840 -0.4719
  152SAPE   H7R16784  -0.127   1.486   5.673 -0.7001 -0.1319 -1.6050
  152SAPE   H7S16785   0.011   1.397   5.610  0.7302 -0.0500 -0.7060
  152SAPE   C2816786  -0.118   1.480   5.462  0.1835 -0.5499  0.2265
  152SAPE   H8R16787  -0.208   1.543   5.463  0.0519 -0.5901 -2.0951
  152SAPE   C2916788  -0.058   1.475   5.338 -0.2660  0.4655  0.1873
  152SAPE   H9R16789  -0.115   1.480   5.244  3.4287 -0.1884 -2.3118
  152SAPE  C21016790   0.073   1.409   5.307 -0.3866 -0.2263 -0.3056
  152SAPE  H10R16791   0.126   1.391   5.403  1.8188  2.4833 -0.9043
  152SAPE  H10S16792   0.137   1.473   5.243 -0.3208 -0.9996 -1.0306
  152SAPE  C21116793   0.043   1.272   5.245  0.5502  0.0186 -0.6825
  152SAPE  H11R16794  -0.041   1.220   5.292 -0.8024 -0.8603 -3.7808
  152SAPE  C21216795   0.102   1.213   5.139 -0.4311 -0.3083  0.6597
  152SAPE  H12R16796   0.068   1.118   5.094  0.5236  0.0500 -0.9155
  152SAPE  C21316797   0.231   1.261   5.078  0.4761  0.0460  0.3699
  152SAPE  H13R16798   0.283   1.319   5.157  2.2402 -1.9226  0.7561
  152SAPE  H13S16799   0.219   1.326   4.988  0.3927  0.3763  0.6192
  152SAPE  C21416800   0.337   1.158   5.041 -0.4696  0.0118 -0.2616
  152SAPE  H14R16801   0.416   1.150   5.117 -0.3135  1.6163 -0.2260
  152SAPE  C21516802   0.338   1.069   4.950 -0.5011  0.5533 -0.3580
  152SAPE  H15R16803   0.433   1.013   4.945  0.9740  2.8479  0.2731
  152SAPE  C21616804   0.238   1.042   4.845  0.5048 -0.3128  0.0333
  152SAPE  H16R16805   0.156   1.117   4.839  1.9992  1.4255  0.6686
  152SAPE  H16S16806   0.192   0.943   4.866 -0.4740 -0.0611 -0.7810
  152SAPE  C21716807   0.299   1.055   4.702 -0.2368  0.0242  0.1626
  152SAPE  H17R16808   0.381   0.984   4.681 -1.5636 -1.4945 -0.1007
  152SAPE  H17S16809   0.345   1.156   4.694  0.3724 -0.2382  0.3582
  152SAPE  C21816810   0.187   1.026   4.591  0.1554 -0.0058  0.4625
  152SAPE  H18R16811   0.107   1.103   4.601 -1.9489 -1.5975 -2.5030
  152SAPE  H18S16812   0.140   0.926   4.606 -1.7880  0.4392 -2.0118
  152SAPE  C21916813   0.237   1.041   4.446  0.1053 -0.5465  0.2788
  152SAPE  H19R16814   0.291   1.138   4.459  1.3189 -1.2306  0.4635
  152SAPE  H19S16815   0.157   1.070   4.374  0.6938  1.6444  0.4154
  152SAPE  C22016816   0.328   0.928   4.390  0.3908  0.2746  0.4806
  152SAPE  H20R16817   0.419   0.923   4.453  3.0923  3.1951 -2.7642
  152SAPE  H20S16818   0.347   0.936   4.281 -1.6367 -5.5546 -0.6734
  152SAPE  H20T16819   0.275   0.832   4.409  0.2146  0.7987  2.9621
  152SAPE   C3316820   0.035   2.321   6.169  0.4903 -0.7836  0.1891
  152SAPE   H3X16821  -0.029   2.358   6.252 -0.5374  1.5722 -1.5521
  152SAPE   H3Y16822   0.037   2.210   6.172  1.1712 -0.8792  5.2795
  152SAPE   C3416823  -0.023   2.380   6.038 -0.5793 -0.9653  0.0871
  152SAPE   H4X16824  -0.020   2.491   6.051  0.4756 -1.1555  1.8377
  152SAPE   H4Y16825  -0.131   2.357   6.030 -0.5363 -1.3279  0.5053
  152SAPE   C3516826   0.036   2.335   5.908 -0.4909  0.1715 -0.1317
  152SAPE   H5X16827   0.040   2.224   5.895 -0.3961  0.2663 -0.9666
  152SAPE   H5Y16828   0.146   2.354   5.909 -0.6660  1.3479 -1.3525
  152SAPE   C3616829  -0.029   2.399   5.784 -0.1843 -0.5147 -0.3194
  152SAPE   H6X16830  -0.033   2.510   5.787 -1.0285 -0.4063 -3.1285
  152SAPE   H6Y16831  -0.134   2.364   5.774 -0.0991 -0.4944 -1.4249
  152SAPE   C3716832   0.043   2.358   5.654  0.2849 -0.3599 -0.1939
  152SAPE   H7X16833   0.061   2.249   5.648  2.7231  0.0293 -1.2119
  152SAPE   H7Y16834   0.150   2.387   5.666 -0.1079  1.0301  0.1619
  152SAPE   C3816835  -0.016   2.415   5.524  0.1194 -0.1605 -0.1176
  152SAPE   H8X16836  -0.038   2.523   5.538  0.1098 -0.2682  0.8125
  152SAPE   H8Y16837  -0.115   2.365   5.516  0.7130 -1.3128 -0.5691
  152SAPE   C3916838   0.066   2.387   5.407  0.0629  0.2773 -0.3740
  152SAPE   H9X16839   0.088   2.278   5.406 -1.9526 -0.2187  1.6961
  152SAPE   H9Y16840   0.164   2.439   5.413 -1.1629  2.5519  1.3971
  152SAPE  C31016841  -0.008   2.438   5.283  0.6837  0.6061 -0.6132
  152SAPE  H10X16842  -0.044   2.544   5.287  3.2624  1.5100  1.4694
  152SAPE  H10Y16843  -0.091   2.364   5.277  1.2565 -0.2889  1.5570
  152SAPE  C31116844   0.091   2.426   5.164 -0.2656  0.3899 -0.0465
  152SAPE  H11X16845   0.140   2.328   5.180 -0.9021  0.3272  1.7837
  152SAPE  H11Y16846   0.172   2.500   5.180  2.1648 -2.2840  0.9473
  152SAPE  C31216847   0.026   2.440   5.024 -0.1839  0.3193  0.4768
  152SAPE  H12X16848  -0.014   2.542   5.008  1.0255  0.7991  0.4653
  152SAPE  H12Y16849  -0.060   2.369   5.023  0.8445 -1.0356  1.7526
  152SAPE  C31316850   0.108   2.410   4.895  0.4430  0.0055 -0.6231
  152SAPE  H13X16851   0.142   2.305   4.891  1.3783  0.3037 -0.7671
  152SAPE  H13Y16852   0.197   2.476   4.896 -0.0805  0.7933  1.8651
  152SAPE  C31416853   0.026   2.436   4.773 -0.0107  0.6435 -0.6274
  152SAPE  H14X16854  -0.016   2.539   4.771  1.1177  1.2664  2.3963
  152SAPE  H14Y16855  -0.055   2.360   4.779  1.4598 -0.9385  4.7538
  152SAPE  C31516856   0.098   2.411   4.637  1.5520  0.0397 -0.1316
  152SAPE  H15X16857   0.124   2.305   4.614  0.5836 -0.4250  0.8388
  152SAPE  H15Y16858   0.195   2.464   4.631  2.7185 -2.0871 -1.2835
  152SAPE  C31616859   0.004   2.466   4.522 -0.6604  0.2604  0.5874
  152SAPE  H16X16860  -0.016   2.574   4.532  2.1159  0.8005  1.2975
  152SAPE  H16Y16861  -0.094   2.413   4.517 -0.2262 -0.5681  0.5800
  152SAPE  C31716862   0.068   2.437   4.390  0.8643  0.1363  0.6035
  152SAPE  H17X16863   0.093   2.329   4.382 -0.1521  0.0048 -2.1627
  152SAPE  H17Y16864   0.158   2.499   4.372  1.2220 -0.9063 -1.5417
  152SAPE  C31816865  -0.027   2.472   4.276 -0.5544  0.2743 -0.4345
  152SAPE  H18X16866  -0.116   2.407   4.291  0.6973 -1.9406 -2.0477
  152SAPE  H18Y16867   0.012   2.446   4.175 -0.4053 -0.7099 -0.1316
  152SAPE  H18Z16868  -0.049   2.581   4.267  0.9429  0.5278 -1.4864
  153SAPE     N16869   6.515   1.805   6.570 -0.2426  0.4116 -0.1439
  153SAPE   HN116870   6.601   1.768   6.615  0.2335  0.4969 -0.9605
  153SAPE   HN216871   6.549   1.858   6.488 -1.7886 -2.4787 -2.8396
  153SAPE   HN316872   6.477   1.870   6.642  1.6914  0.2744  1.0840
  153SAPE   C1216873   6.427   1.695   6.527  0.7108  0.8369  0.4361
  153SAPE  H12A16874   6.469   1.637   6.442  1.7853 -1.3442  2.3553
  153SAPE  H12B16875   6.329   1.737   6.495  0.1872 -1.0547 -0.5546
  153SAPE   C1116876   6.405   1.587   6.634 -0.6830  0.4652  0.5045
  153SAPE  H11A16877   6.496   1.528   6.656 -0.2066  1.4455  1.2483
  153SAPE  H11B16878   6.349   1.513   6.574  1.5468 -0.5207 -0.4883
  153SAPE     P16879   6.302   1.533   6.867  0.0949  0.0243  0.2298
  153SAPE   O1316880   6.414   1.544   6.963  1.1654 -0.5944  0.1289
  153SAPE   O1416881   6.167   1.560   6.913  0.2858  0.1254 -0.0005
  153SAPE   O1216882   6.320   1.628   6.745 -0.1721  0.0995  0.7128
  153SAPE   O1116883   6.305   1.386   6.819 -0.4252 -0.6560 -0.3888
  153SAPE    C116884   6.210   1.316   6.734  0.5334 -0.2068  0.7576
  153SAPE    HA16885   6.122   1.282   6.792  1.0739 -3.7343 -0.2923
  153SAPE    HB16886   6.170   1.387   6.658 -0.9132 -0.6060  1.1213
  153SAPE    C216887   6.271   1.207   6.647 -0.2140  0.8046  0.4096
  153SAPE    HS16888   6.307   1.122   6.710 -1.6145 -1.6901 -1.9263
  153SAPE   O2116889   6.373   1.265   6.560  0.4903  0.0846  0.2884
  153SAPE   C2116890   6.472   1.182   6.530  0.7140  0.3128  0.0485
  153SAPE   O2216891   6.488   1.073   6.575 -0.2152 -0.0440  0.2415
  153SAPE   C2216892   6.558   1.239   6.411  1.0693  0.1210  0.1477
  153SAPE   H2R16893   6.547   1.350   6.414  0.6630  0.0881  3.0205
  153SAPE   H2S16894   6.662   1.218   6.442  0.2248 -0.6007  2.8395
  153SAPE    C316895   6.157   1.151   6.558 -0.2809 -0.4635 -0.0350
  153SAPE    HX16896   6.113   1.240   6.508 -0.3531 -1.6503 -2.2083
  153SAPE    HY16897   6.076   1.115   6.625 -2.1383  1.8482 -0.8582
  153SAPE   O3116898   6.178   1.063   6.446 -0.8691 -0.3146  0.1713
  153SAPE   C3116899   6.208   0.940   6.480  0.4911  1.3445 -0.8408
  153SAPE   O3216900   6.211   0.891   6.592 -0.4845 -0.3199  0.2895
  153SAPE   C3216901   6.216   0.860   6.354  0.4230 -0.0355 -0.2194
  153SAPE   H2X16902   6.248   0.757   6.381  1.8704  0.1990 -0.8810
  153SAPE   H2Y16903   6.319   0.890   6.322  1.2304 -0.2975  1.9673
  153SAPE   C2316904   6.530   1.177   6.279 -0.3671 -0.0008  0.2578
  153SAPE   H3R16905   6.511   1.068   6.287 -2.6574  0.2429 -1.1296
  153SAPE   H3S16906   6.620   1.204   6.219  0.5557  0.2153  1.6867
  153SAPE   C2416907   6.401   1.241   6.217 -0.7267 -0.7992  0.5810
  153SAPE   H4R16908   6.326   1.240   6.299 -1.2600  0.8765  0.1524
  153SAPE   H4S16909   6.369   1.175   6.134 -0.6687 -0.8419  0.5921
  153SAPE   C2516910   6.415   1.387   6.167  0.5677 -0.3221  0.2912
  153SAPE   H5R16911   6.512   1.424   6.130  0.5976 -0.8272 -0.1326
  153SAPE   C2616912   6.314   1.474   6.199 -0.1860  0.5935  0.1259
  153SAPE   H6R16913   6.330   1.573   6.154  0.4168 -0.2149 -1.5310
  153SAPE   C2716914   6.178   1.443   6.249 -1.0309  0.4087 -0.7528
  153SAPE   H7R16915   6.157   1.333   6.246 -1.4874  0.5120 -2.0293
  153SAPE   H7S16916   6.115   1.482   6.166 -0.1015  0.2656 -1.5346
  153SAPE   C2816917   6.131   1.481   6.388 -0.3819 -0.3222  0.6845
  153SAPE   H8R16918   6.175   1.425   6.471 -0.3590 -1.4001 -0.0426
  153SAPE   C2916919   6.038   1.571   6.414 -0.2853 -0.0787 -0.0646
  153SAPE   H9R16920   6.020   1.583   6.522  0.1816 -3.7036  0.5222
  153SAPE  C21016921   5.968   1.658   6.317  0.4677 -0.7041  1.0670
  153SAPE  H10R16922   5.878   1.697   6.369  0.4143  1.1124 -0.2868
  153SAPE  H10S16923   5.930   1.585   6.243  0.3663 -0.9073  1.3170
  153SAPE  C21116924   6.032   1.784   6.257 -0.2752  0.3708  0.2655
  153SAPE  H11R16925   6.062   1.864   6.327 -0.2182  1.3337 -0.8253
  153SAPE  C21216926   6.031   1.815   6.129  0.0588 -0.8888  0.5860
  153SAPE  H12R16927   6.067   1.916   6.107  1.4885 -1.3342  0.7456
  153SAPE  C21316928   6.004   1.720   6.011 -0.4168 -0.5861  0.5197
  153SAPE  H13R16929   5.925   1.774   5.955 -0.1868  0.8490  1.5143
  153SAPE  H13S16930   5.975   1.616   6.037  2.8121 -1.6013  0.5446
  153SAPE  C21416931   6.124   1.709   5.917  0.2740 -0.2692  0.0641
  153SAPE  H14R16932   6.219   1.685   5.966  0.5265  1.4881  0.5148
  153SAPE  C21516933   6.128   1.733   5.782 -0.2045 -0.8319 -0.0361
  153SAPE  H15R16934   6.222   1.707   5.731  0.1143 -0.6610  0.4556
  153SAPE  C21616935   6.013   1.777   5.695 -0.8696  0.1829 -0.4389
  153SAPE  H16R16936   5.940   1.848   5.739 -0.2882  0.7781 -0.3992
  153SAPE  H16S16937   5.961   1.689   5.653 -0.1852 -0.0904 -0.7374
  153SAPE  C21716938   6.058   1.849   5.572 -0.1325 -0.6145 -0.1487
  153SAPE  H17R16939   6.120   1.940   5.588  0.0605  0.3843 -5.0000
  153SAPE  H17S16940   5.972   1.891   5.515 -0.3752  0.5146  0.9947
  153SAPE  C21816941   6.123   1.749   5.472 -0.1533 -0.0656 -0.6498
  153SAPE  H18R16942   6.050   1.666   5.468  1.2245 -1.3711  0.3016
  153SAPE  H18S16943   6.217   1.698   5.504 -0.6119 -2.5201 -2.9055
  153SAPE  C21916944   6.129   1.805   5.330  0.4919  0.3135  0.1800
  153SAPE  H19R16945   6.200   1.890   5.322 -1.2195  1.6680 -1.6005
  153SAPE  H19S16946   6.030   1.843   5.298 -0.6170 -3.0172 -0.7779
  153SAPE  C22016947   6.190   1.698   5.233  0.1527 -0.3068  0.2917
  153SAPE  H20R16948   6.288   1.664   5.273  0.5332 -1.5476 -1.5815
  153SAPE  H20S16949   6.196   1.750   5.135  1.5212 -1.1834 -0.1212
  153SAPE  H20T16950   6.125   1.609   5.221  1.8710 -1.6007  0.2916
  153SAPE   C3316951   6.115   0.884   6.249  0.3830  0.2662 -0.0584
  153SAPE   H3X16952   6.110   0.989   6.214  0.0691  0.0066 -0.8176
  153SAPE   H3Y16953   6.014   0.862   6.291  1.3915 -0.3979  2.1928
  153SAPE   C3416954   6.139   0.805   6.116  0.6894  0.2565 -0.4785
  153SAPE   H4X16955   6.046   0.812   6.056  0.1111 -1.9114  0.0994
  153SAPE   H4Y16956   6.152   0.698   6.144  1.5659  0.8250  1.5393
  153SAPE   C3516957   6.270   0.839   6.048  0.5528 -0.0090 -0.7998
  153SAPE   H5X16958   6.357   0.805   6.108  1.4026  2.6485 -0.4045
  153SAPE   H5Y16959   6.264   0.949   6.041  0.4209  0.0549  0.1671
  153SAPE   C3616960   6.282   0.773   5.914  0.7959 -0.2513 -0.7442
  153SAPE   H6X16961   6.205   0.821   5.849  1.1615 -0.0314 -1.0180
  153SAPE   H6Y16962   6.264   0.664   5.924  1.1930 -0.3041 -0.6010
  153SAPE   C3716963   6.418   0.780   5.850  0.3090  0.2561 -0.6431
  153SAPE   H7X16964   6.492   0.756   5.929 -2.9202 -0.6211  2.3761
  153SAPE   H7Y16965   6.426   0.890   5.834 -0.2204  0.3007 -0.6051
  153SAPE   C3816966   6.433   0.691   5.729  0.0564  0.6812  0.4572
  153SAPE   H8X16967   6.420   0.582   5.744  1.5529  0.4384  0.2004
  153SAPE   H8Y16968   6.539   0.716   5.706 -0.6614  2.4520 -1.2070
  153SAPE   C3916969   6.355   0.727   5.611 -0.2984 -0.1817  0.2577
  153SAPE   H9X16970   6.362   0.837   5.596 -1.1802 -0.1739 -0.1565
  153SAPE   H9Y16971   6.248   0.699   5.618 -0.3025  0.2107  2.7189
  153SAPE  C31016972   6.402   0.653   5.482  0.2356  0.3389  0.7239
  153SAPE  H10X16973   6.402   0.543   5.495 -0.8311  0.2107 -0.1978
  153SAPE  H10Y16974   6.503   0.687   5.453  0.3833  0.5242  1.4402
  153SAPE  C31116975   6.307   0.686   5.366  0.5856 -0.2224  0.5854
  153SAPE  H11X16976   6.290   0.795   5.375 -0.3751 -0.4368  1.6122
  153SAPE  H11Y16977   6.215   0.629   5.389  0.3230 -0.2679 -0.5343
  153SAPE  C31216978   6.355   0.656   5.227 -0.7459 -0.8422  0.9234
  153SAPE  H12X16979   6.415   0.562   5.218 -2.8412 -2.1713  0.2382
  153SAPE  H12Y16980   6.432   0.732   5.201 -2.3623  1.1401  1.6323
  153SAPE  C31316981   6.255   0.652   5.116 -0.7188  0.0918 -0.0107
  153SAPE  H13X16982   6.215   0.753   5.090 -2.1800  0.3309  2.7405
  153SAPE  H13Y16983   6.173   0.585   5.149  1.1970 -2.2930  0.1333
  153SAPE  C31416984   6.323   0.582   5.000 -0.3960  0.3298  0.8473
  153SAPE  H14X16985   6.326   0.472   5.010  0.6147  0.2194 -0.3858
  153SAPE  H14Y16986   6.427   0.622   4.998 -0.6624  1.0917  1.3293
  153SAPE  C31516987   6.253   0.623   4.866  0.2342  0.1562 -0.0762
  153SAPE  H15X16988   6.266   0.732   4.851  0.5647 -0.1889 -2.7076
  153SAPE  H15Y16989   6.145   0.601   4.881  0.2556  0.1144  0.0262
  153SAPE  C31616990   6.306   0.542   4.745  0.1193  0.1883  0.0330
  153SAPE  H16X16991   6.417   0.537   4.749  0.2264 -0.3853 -2.2206
  153SAPE  H16Y16992   6.272   0.590   4.650  1.7299 -0.5153 -0.9460
  153SAPE  C31716993   6.263   0.393   4.744 -0.4198  0.6917  0.1916
  153SAPE  H17X16994   6.154   0.403   4.762 -0.1552  1.5397  1.5164
  153SAPE  H17Y16995   6.310   0.344   4.832 -0.0217 -2.1990 -1.5206
  153SAPE  C31816996   6.297   0.315   4.614 -0.2392  0.2543  0.3637
  153SAPE  H18X16997   6.405   0.293   4.605 -0.0739  1.2694 -0.3090
  153SAPE  H18Y16998   6.261   0.363   4.520  0.7841 -1.4687 -0.9670
  153SAPE  H18Z16999   6.243   0.218   4.613  0.5591 -0.3377 -3.6218
  154SAPE     N17000   4.091   0.836   6.435  0.7288  0.2396  0.1544
  154SAPE   HN117001   4.140   0.753   6.472 -1.4117 -1.2380 -0.1269
  154SAPE   HN217002   4.130   0.921   6.479 -0.3673  0.3659  0.9382
  154SAPE   HN317003   3.992   0.831   6.468  0.3060 -0.7275 -1.1474
  154SAPE   C1217004   4.075   0.833   6.280 -0.2534  0.7971 -0.9094
  154SAPE  H12A17005   4.104   0.731   6.246  0.7923  0.2618  1.4595
  154SAPE  H12B17006   4.133   0.918   6.239  3.3078 -0.3380  1.4081
  154SAPE   C1117007   3.922   0.836   6.242  1.0425  0.6969 -0.3257
  154SAPE  H11A17008   3.906   0.836   6.132 -1.5827 -1.5805 -0.0587
  154SAPE  H11B17009   3.874   0.929   6.279 -0.5137 -1.0651  2.3976
  154SAPE     P17010   3.745   0.718   6.413 -0.0790 -0.1267 -0.0093
  154SAPE   O1317011   3.671   0.593   6.432  0.1149 -0.1220 -0.4090
  154SAPE   O1417012   3.827   0.752   6.532 -0.1184 -0.8744 -0.3596
  154SAPE   O1217013   3.858   0.713   6.295  0.0443 -0.1632  0.7965
  154SAPE   O1117014   3.647   0.829   6.371  0.0533  0.4549 -0.1701
  154SAPE    C117015   3.599   0.862   6.241 -0.3572  0.2903  0.4788
  154SAPE    HA17016   3.607   0.972   6.227  1.5684  0.3773  1.8818
  154SAPE    HB17017   3.673   0.819   6.170  0.5784  0.3537  1.3903
  154SAPE    C217018   3.461   0.799   6.217  0.1166 -0.6069 -0.3823
  154SAPE    HS17019   3.448   0.715   6.289 -1.5523 -0.6574 -0.7032
  154SAPE   O2117020   3.456   0.767   6.082 -0.2023 -0.1053  0.3110
  154SAPE   C2117021   3.391   0.663   6.048  0.0476 -0.2627 -0.6592
  154SAPE   O2217022   3.349   0.578   6.127  0.0677 -0.2494 -0.2459
  154SAPE   C2217023   3.376   0.658   5.896 -0.7328  0.1104 -0.2580
  154SAPE   H2R17024   3.331   0.753   5.860 -1.4977 -0.4813 -0.8849
  154SAPE   H2S17025   3.478   0.650   5.852 -1.8202 -3.7811 -2.5368
  154SAPE    C317026   3.340   0.897   6.246  0.2405 -0.3745  0.4879
  154SAPE    HX17027   3.340   0.918   6.355  1.4382 -1.5988  0.7475
  154SAPE    HY17028   3.246   0.843   6.225  1.5123 -2.4416 -0.1308
  154SAPE   O3117029   3.372   1.023   6.182 -0.3489 -0.1518 -0.2472
  154SAPE   C3117030   3.291   1.049   6.091 -0.1069  0.7433 -0.9878
  154SAPE   O3217031   3.194   0.981   6.062 -0.5126 -0.0126  0.4514
  154SAPE   C3217032   3.336   1.173   6.016 -0.4115  0.5603 -0.3578
  154SAPE   H2X17033   3.447   1.170   6.010 -0.4796  0.1932 -1.7004
  154SAPE   H2Y17034   3.313   1.262   6.078 -0.1095  3.0094 -3.5539
  154SAPE   C2317035   3.293   0.533   5.850 -0.3175  0.0114  0.5314
  154SAPE   H3R17036   3.293   0.548   5.740  0.9066  0.8490  0.6259
  154SAPE   H3S17037   3.189   0.545   5.886 -1.8962 -0.2870 -3.4962
  154SAPE   C2417038   3.344   0.392   5.886 -0.7069  0.0130  0.3464
  154SAPE   H4R17039   3.267   0.318   5.856 -0.4544  0.1898 -0.7867
  154SAPE   H4S17040   3.348   0.378   5.996  1.9452  0.3089  0.3569
  154SAPE   C2517041   3.475   0.353   5.825  0.1215  0.5566  0.4724
  154SAPE   H5R17042   3.476   0.347   5.716 -1.3327 -1.7146  0.5120
  154SAPE   C2617043   3.589   0.323   5.897  0.4767  0.1921 -0.1995
  154SAPE   H6R17044   3.683   0.297   5.845 -0.0236 -0.5582 -0.7461
  154SAPE   C2717045   3.603   0.319   6.050  0.0114 -0.5057 -0.9085
  154SAPE   H7R17046   3.553   0.408   6.092 -0.0047  0.1421 -2.2544
  154SAPE   H7S17047   3.713   0.334   6.060 -0.6006  3.9822  1.6159
  154SAPE   C2817048   3.544   0.192   6.100  0.7918  0.2948  0.3824
  154SAPE   H8R17049   3.437   0.181   6.123  0.6491 -0.6004 -0.6263
  154SAPE   C2917050   3.614   0.084   6.116 -0.2522  0.6451  0.8983
  154SAPE   H9R17051   3.562  -0.002   6.161  0.3983 -0.8442 -1.0420
  154SAPE  C21017052   3.760   0.050   6.078  0.7760 -0.0491  0.1449
  154SAPE  H10R17053   3.813   0.148   6.068 -0.5892  0.7063  0.1594
  154SAPE  H10S17054   3.760   0.022   5.970  1.9986 -0.0128  0.1200
  154SAPE  C21117055   3.843  -0.050   6.161  0.1831  0.5134  0.2150
  154SAPE  H11R17056   3.788  -0.108   6.236 -0.1298 -1.8719 -1.7449
  154SAPE  C21217057   3.974  -0.062   6.162 -0.4339  0.7933  0.3022
  154SAPE  H12R17058   4.021  -0.132   6.233  1.3086 -2.6442 -3.8185
  154SAPE  C21317059   4.074   0.005   6.079 -0.0458 -0.7041 -0.5085
  154SAPE  H13R17060   4.126   0.066   6.156 -0.5235 -0.1094 -0.6416
  154SAPE  H13S17061   4.023   0.088   6.026  1.4692  2.0668  2.0218
  154SAPE  C21417062   4.164  -0.044   5.970 -0.0976  0.7405 -0.6082
  154SAPE  H14R17063   4.250   0.021   5.952  1.5369 -0.3432  2.4885
  154SAPE  C21517064   4.141  -0.156   5.891  0.3358  0.1929  0.3474
  154SAPE  H15R17065   4.216  -0.173   5.813 -2.0595 -0.3655 -1.9580
  154SAPE  C21617066   4.019  -0.242   5.883  0.6108  0.3014 -0.0342
  154SAPE  H16R17067   3.932  -0.173   5.882 -0.9683 -1.5880 -1.6148
  154SAPE  H16S17068   4.021  -0.311   5.970 -0.1891 -1.2800 -1.2211
  154SAPE  C21717069   4.020  -0.322   5.747 -0.1816  0.2542 -0.3897
  154SAPE  H17R17070   3.937  -0.395   5.747 -1.2259  1.2741  2.7208
  154SAPE  H17S17071   4.113  -0.382   5.746 -1.3746 -1.7074  1.1603
  154SAPE  C21817072   4.015  -0.234   5.624 -0.7878  0.6268  0.0256
  154SAPE  H18R17073   4.025  -0.303   5.537 -0.8190  0.0067  0.5038
  154SAPE  H18S17074   4.099  -0.162   5.627 -0.1338 -0.0897 -0.6114
  154SAPE  C21917075   3.888  -0.147   5.617  0.8871  0.2127 -0.3117
  154SAPE  H19R17076   3.884  -0.065   5.691 -0.3245  0.3254 -0.4854
  154SAPE  H19S17077   3.804  -0.220   5.626 -2.1600  3.4895 -0.0254
  154SAPE  C22017078   3.871  -0.073   5.484  0.6607 -0.3691 -0.3298
  154SAPE  H20R17079   3.766  -0.037   5.484  0.5573 -0.6411  0.3964
  154SAPE  H20S17080   3.888  -0.142   5.399 -1.4577 -1.5537  0.1201
  154SAPE  H20T17081   3.951   0.004   5.481 -0.3571  0.7111 -0.4132
  154SAPE   C3317082   3.264   1.185   5.884  0.0274  0.1391 -0.2203
  154SAPE   H3X17083   3.269   1.292   5.852  2.2081  0.2285  0.2870
  154SAPE   H3Y17084   3.158   1.151   5.884 -1.0611  2.8789 -3.5676
  154SAPE   C3417085   3.328   1.102   5.771  0.0087 -0.4411 -0.3620
  154SAPE   H4X17086   3.328   0.994   5.797 -0.0594 -0.0423  1.3906
  154SAPE   H4Y17087   3.436   1.126   5.769 -0.0570 -0.1521 -0.5362
  154SAPE   C3517088   3.268   1.109   5.626 -0.1139 -0.5523  0.2042
  154SAPE   H5X17089   3.158   1.098   5.625 -0.2931  0.9857 -1.1747
  154SAPE   H5Y17090   3.304   1.015   5.578  0.3891 -0.9013  1.2306
  154SAPE   C3617091   3.311   1.244   5.548  1.3553 -0.6171  0.1932
  154SAPE   H6X17092   3.422   1.248   5.555  1.3091  1.3561  0.3395
  154SAPE   H6Y17093   3.259   1.336   5.582 -0.7696 -2.2278  1.5895
  154SAPE   C3717094   3.265   1.230   5.400  0.0076 -0.3572  0.1382
  154SAPE   H7X17095   3.155   1.210   5.397 -0.4732  2.0973 -1.4888
  154SAPE   H7Y17096   3.318   1.147   5.349 -0.7774 -0.7552 -0.0510
  154SAPE   C3817097   3.296   1.355   5.311  0.1454  0.8153 -0.1713
  154SAPE   H8X17098   3.247   1.443   5.359 -0.2538  1.5258 -1.8233
  154SAPE   H8Y17099   3.247   1.343   5.212 -1.9692  0.1371  0.8973
  154SAPE   C3917100   3.448   1.373   5.283 -0.2752 -0.5007 -0.2771
  154SAPE   H9X17101   3.497   1.279   5.249  1.0549  0.8725 -2.3535
  154SAPE   H9Y17102   3.498   1.397   5.379  1.0567 -0.4236 -0.9754
  154SAPE  C31017103   3.480   1.477   5.179  0.2021  0.2148  0.0697
  154SAPE  H10X17104   3.584   1.509   5.199  1.2237 -3.4826  1.4241
  154SAPE  H10Y17105   3.416   1.568   5.185 -2.4880 -1.4099 -1.8495
  154SAPE  C31117106   3.483   1.428   5.034 -0.0566 -0.1453  0.4027
  154SAPE  H11X17107   3.384   1.382   5.015  0.1862 -1.3651  1.8603
  154SAPE  H11Y17108   3.556   1.344   5.022 -3.1626 -2.8995 -0.9956
  154SAPE  C31217109   3.513   1.536   4.932 -0.3600  0.1743 -0.0818
  154SAPE  H12X17110   3.620   1.543   4.901 -1.1048  0.2789 -2.9132
  154SAPE  H12Y17111   3.475   1.631   4.975  0.3311 -0.9819  3.4301
  154SAPE  C31317112   3.452   1.510   4.793 -0.6056 -0.3927  0.5469
  154SAPE  H13X17113   3.342   1.517   4.804 -0.8376  1.8110 -2.2136
  154SAPE  H13Y17114   3.468   1.404   4.762  0.3843 -0.1357  0.1528
  154SAPE  C31417115   3.504   1.611   4.693 -0.6880 -0.0420  0.1228
  154SAPE  H14X17116   3.615   1.617   4.702 -0.4931  1.0966 -2.2482
  154SAPE  H14Y17117   3.455   1.707   4.721 -0.3963 -0.1290  0.9477
  154SAPE  C31517118   3.470   1.575   4.553 -0.3624 -0.6223  0.3123
  154SAPE  H15X17119   3.361   1.564   4.534 -1.3554  3.0551  2.8055
  154SAPE  H15Y17120   3.511   1.478   4.517 -0.3542 -0.0489 -1.3162
  154SAPE  C31617121   3.531   1.687   4.464 -0.1708  0.8286  0.1646
  154SAPE  H16X17122   3.641   1.698   4.468  0.2240 -2.3658  0.9405
  154SAPE  H16Y17123   3.479   1.781   4.494  0.3059  1.5039 -1.0502
  154SAPE  C31717124   3.508   1.669   4.308 -0.7612 -0.0880 -0.1149
  154SAPE  H17X17125   3.402   1.644   4.285 -0.0381 -3.0115 -0.6174
  154SAPE  H17Y17126   3.568   1.586   4.267  2.9548  1.3342  1.9499
  154SAPE  C31817127   3.538   1.807   4.250  0.3026 -0.3555  0.6246
  154SAPE  H18X17128   3.449   1.872   4.260  0.6009  0.8354 -3.0895
  154SAPE  H18Y17129   3.574   1.804   4.145  0.4448  0.3314  0.6468
  154SAPE  H18Z17130   3.619   1.847   4.315 -0.6386  0.1004  1.5339
  155SAPE     N17131   6.126   5.729   6.398  0.4408 -0.1934 -0.2334
  155SAPE   HN117132   6.180   5.678   6.472  0.4363 -0.0345 -0.1195
  155SAPE   HN217133   6.036   5.756   6.443  0.5315 -2.1209  1.2218
  155SAPE   HN317134   6.109   5.661   6.322 -2.5492 -1.6161  1.5375
  155SAPE   C1217135   6.197   5.834   6.324 -0.1396  0.9061 -0.7570
  155SAPE  H12A17136   6.150   5.838   6.223 -1.2485 -0.2898 -0.3033
  155SAPE  H12B17137   6.306   5.813   6.326 -0.2371  0.4194  1.2100
  155SAPE   C1117138   6.167   5.966   6.399 -0.4363  0.0811 -0.4255
  155SAPE  H11A17139   6.205   6.045   6.331  0.1550  0.2132  0.0519
  155SAPE  H11B17140   6.230   5.960   6.490  0.3012 -1.9632 -1.0156
  155SAPE     P17141   5.982   6.111   6.509 -0.0925 -0.4830  0.0262
  155SAPE   O1317142   5.942   6.069   6.642 -0.2042 -0.4427 -0.5826
  155SAPE   O1417143   6.081   6.216   6.493 -0.2693  0.0662 -0.7701
  155SAPE   O1217144   6.025   5.984   6.431 -0.3928  0.3034 -0.2213
  155SAPE   O1117145   5.857   6.154   6.431  0.1018 -0.3484 -0.7469
  155SAPE    C117146   5.765   6.065   6.371  0.5600  0.6079 -0.2080
  155SAPE    HA17147   5.757   5.959   6.404  1.0895  1.5070  3.1966
  155SAPE    HB17148   5.667   6.116   6.379 -0.1765 -0.9878  2.0430
  155SAPE    C217149   5.794   6.064   6.224  0.0796  1.1284 -0.2824
  155SAPE    HS17150   5.892   6.014   6.210  0.5843  1.0580  2.7896
  155SAPE   O2117151   5.790   6.203   6.181  0.0043 -0.1868 -0.3599
  155SAPE   C2117152   5.872   6.222   6.076 -0.0198  0.2719  0.2215
  155SAPE   O2217153   5.948   6.140   6.027  0.7099  0.0545 -0.0744
  155SAPE   C2217154   5.839   6.355   6.009  0.7318 -0.3361 -0.1823
  155SAPE   H2R17155   5.806   6.421   6.092 -1.5466 -0.4356 -0.9403
  155SAPE   H2S17156   5.924   6.400   5.954  0.8232 -1.6467 -1.1722
  155SAPE    C317157   5.690   5.976   6.152  0.5190 -0.4835  0.1473
  155SAPE    HX17158   5.600   6.042   6.151 -1.5144 -3.0813 -0.3333
  155SAPE    HY17159   5.662   5.888   6.213  0.4256 -0.3740  0.2638
  155SAPE   O3117160   5.727   5.944   6.015 -0.4918 -0.8205  0.3751
  155SAPE   C3117161   5.815   5.841   5.995  0.4521  0.0187  0.5546
  155SAPE   O3217162   5.846   5.768   6.090 -0.6184 -0.1601  0.3853
  155SAPE   C3217163   5.878   5.849   5.862  0.0200 -0.4801  0.5749
  155SAPE   H2X17164   5.973   5.791   5.862 -0.3063 -1.0652 -1.3999
  155SAPE   H2Y17165   5.905   5.953   5.834  0.7191 -0.8968 -0.3642
  155SAPE   C2317166   5.713   6.341   5.915 -0.0259  0.0337 -0.1337
  155SAPE   H3R17167   5.637   6.419   5.936  0.2431  0.6039 -1.1878
  155SAPE   H3S17168   5.647   6.257   5.943 -0.5322 -0.3105 -2.1748
  155SAPE   C2417169   5.740   6.349   5.766 -0.3256  0.0265 -0.0564
  155SAPE   H4R17170   5.804   6.438   5.751  0.7111 -0.6053  0.5483
  155SAPE   H4S17171   5.653   6.354   5.696  0.0583 -2.4112 -0.7960
  155SAPE   C2517172   5.822   6.220   5.737 -0.1912 -0.4347 -0.3339
  155SAPE   H5R17173   5.815   6.143   5.815  4.4930 -0.7119  0.1180
  155SAPE   C2617174   5.890   6.193   5.625  0.0401 -0.8273 -0.0017
  155SAPE   H6R17175   5.960   6.108   5.626  0.2350 -0.6573  1.4059
  155SAPE   C2717176   5.885   6.283   5.500  1.2210 -0.4907  0.6240
  155SAPE   H7R17177   5.897   6.391   5.523  0.3870 -0.1076 -0.6423
  155SAPE   H7S17178   5.780   6.280   5.464  0.9481  1.3944  1.1391
  155SAPE   C2817179   5.989   6.245   5.388  0.6147 -0.1808  0.4682
  155SAPE   H8R17180   6.097   6.244   5.406  0.9129  1.6862 -0.9891
  155SAPE   C2917181   5.965   6.221   5.262  0.4584  0.3021  0.5980
  155SAPE   H9R17182   6.048   6.189   5.196  0.6057 -1.9937  1.8081
  155SAPE  C21017183   5.835   6.215   5.187 -0.1457 -0.2843  0.4668
  155SAPE  H10R17184   5.746   6.221   5.254 -1.3974 -0.9990 -1.0527
  155SAPE  H10S17185   5.826   6.115   5.138 -1.0729 -0.4914  1.0333
  155SAPE  C21117186   5.832   6.325   5.077  0.3026  0.3026  1.5867
  155SAPE  H11R17187   5.917   6.394   5.068  0.6196 -0.3155 -1.2864
  155SAPE  C21217188   5.735   6.334   4.980  0.3433 -0.0394 -0.9532
  155SAPE  H12R17189   5.745   6.412   4.903  0.0113  0.0467 -0.9113
  155SAPE  C21317190   5.611   6.249   4.967 -0.3782  0.5884 -0.4456
  155SAPE  H13R17191   5.529   6.311   5.010 -1.6381 -0.2040 -1.6021
  155SAPE  H13S17192   5.606   6.159   5.031  0.3904  0.5126 -0.4900
  155SAPE  C21417193   5.589   6.207   4.824 -0.1022 -0.6698 -0.2298
  155SAPE  H14R17194   5.656   6.124   4.797  0.3452 -0.5771  0.5766
  155SAPE  C21517195   5.486   6.256   4.750 -0.1984 -0.3427 -0.2040
  155SAPE  H15R17196   5.474   6.210   4.651 -0.9827 -1.6880  0.4914
  155SAPE  C21617197   5.392   6.367   4.791  0.4361 -0.2859  0.5682
  155SAPE  H16R17198   5.452   6.456   4.817  0.1227 -0.3811  1.6576
  155SAPE  H16S17199   5.352   6.340   4.891 -0.6499  0.0666  0.2335
  155SAPE  C21717200   5.271   6.389   4.697  0.3313  0.4871 -0.0269
  155SAPE  H17R17201   5.196   6.308   4.706  0.0747  0.2988 -3.0102
  155SAPE  H17S17202   5.308   6.386   4.593 -0.6936  2.2920 -0.4960
  155SAPE  C21817203   5.205   6.515   4.722  0.4004 -0.1148 -0.6188
  155SAPE  H18R17204   5.271   6.601   4.700 -1.2624  1.4389  0.2086
  155SAPE  H18S17205   5.191   6.529   4.832 -0.1927 -1.6944 -0.4724
  155SAPE  C21917206   5.073   6.524   4.643 -0.1190 -0.1753  0.8798
  155SAPE  H19R17207   5.011   6.435   4.666  0.1943 -0.8258 -0.6366
  155SAPE  H19S17208   5.094   6.514   4.534  1.8812  0.2706  1.1959
  155SAPE  C22017209   5.014   6.659   4.671  0.7669 -0.0454  0.3538
  155SAPE  H20R17210   5.068   6.746   4.626 -0.5769  0.0406 -1.2129
  155SAPE  H20S17211   4.996   6.668   4.780  0.8957 -1.3405  0.4957
  155SAPE  H20T17212   4.914   6.657   4.622  0.1795  2.1819  1.3331
  155SAPE   C3317213   5.786   5.788   5.749  0.0240  0.2409  0.3207
  155SAPE   H3X17214   5.680   5.796   5.783 -0.7337  0.4645 -1.9373
  155SAPE   H3Y17215   5.822   5.684   5.742  1.9844  0.8964 -0.0084
  155SAPE   C3417216   5.799   5.850   5.611  0.0935  0.1837 -0.1097
  155SAPE   H4X17217   5.904   5.880   5.592  0.4539 -1.6778 -1.3705
  155SAPE   H4Y17218   5.736   5.941   5.600 -0.1001 -0.0007 -0.5667
  155SAPE   C3517219   5.763   5.754   5.499  0.3230  0.9419 -0.2511
  155SAPE   H5X17220   5.662   5.714   5.523  1.1124 -0.5266  0.7834
  155SAPE   H5Y17221   5.835   5.670   5.504 -1.3927 -0.6766 -1.5657
  155SAPE   C3617222   5.752   5.807   5.355 -0.4551  0.1472  0.7987
  155SAPE   H6X17223   5.842   5.863   5.322 -0.6188  0.5893  1.0899
  155SAPE   H6Y17224   5.668   5.879   5.349  0.1473  0.7534 -1.1208
  155SAPE   C3717225   5.723   5.693   5.254 -0.7617 -0.0203 -0.0443
  155SAPE   H7X17226   5.620   5.652   5.263 -1.3853  1.5934  0.6473
  155SAPE   H7Y17227   5.799   5.612   5.261 -0.2665  0.4841  0.6645
  155SAPE   C3817228   5.714   5.735   5.108 -0.8505  0.0747  0.2591
  155SAPE   H8X17229   5.816   5.743   5.063 -1.0930  0.8007 -0.1874
  155SAPE   H8Y17230   5.661   5.832   5.117 -1.8002 -0.5371  1.5294
  155SAPE   C3917231   5.628   5.647   5.012 -0.2489  0.3709 -0.4332
  155SAPE   H9X17232   5.525   5.651   5.053 -0.2451 -1.0214 -0.2598
  155SAPE   H9Y17233   5.647   5.539   5.027 -1.9531  0.2871  1.7186
  155SAPE  C31017234   5.602   5.677   4.865  0.0295  0.0644  0.3515
  155SAPE  H10X17235   5.593   5.788   4.860  0.7695  0.0714 -1.0319
  155SAPE  H10Y17236   5.498   5.646   4.841 -0.2667 -0.1231  1.7443
  155SAPE  C31117237   5.712   5.633   4.773 -0.0689  0.2782  0.1636
  155SAPE  H11X17238   5.670   5.584   4.682 -0.7344  2.0310 -0.5236
  155SAPE  H11Y17239   5.770   5.565   4.840 -1.2190  0.6009  1.5147
  155SAPE  C31217240   5.795   5.752   4.719 -0.3110  0.0774 -0.0231
  155SAPE  H12X17241   5.865   5.792   4.796  0.4743 -2.4304  0.6790
  155SAPE  H12Y17242   5.716   5.821   4.684  0.4665  0.3631 -1.3008
  155SAPE  C31317243   5.885   5.706   4.604 -0.5815  0.6455 -0.3037
  155SAPE  H13X17244   5.822   5.634   4.547 -0.8541 -1.1157  2.0981
  155SAPE  H13Y17245   5.970   5.648   4.646 -0.9022 -1.5805 -2.4653
  155SAPE  C31417246   5.952   5.813   4.518  0.3099 -0.3977  0.2882
  155SAPE  H14X17247   5.881   5.837   4.435 -1.9780 -1.2465  1.8984
  155SAPE  H14Y17248   6.044   5.769   4.474  1.2561  2.1403 -0.4174
  155SAPE  C31517249   5.977   5.946   4.593 -0.0334  0.6624 -0.1150
  155SAPE  H15X17250   6.047   5.932   4.679 -2.7166  0.3402  2.1723
  155SAPE  H15Y17251   5.880   5.970   4.643 -0.6697 -0.7236 -0.6397
  155SAPE  C31617252   6.010   6.072   4.506 -0.0378  0.4032 -0.3240
  155SAPE  H16X17253   5.925   6.080   4.435  0.6864 -0.7897 -1.3746
  155SAPE  H16Y17254   6.109   6.057   4.457  2.1689 -2.4070  4.2953
  155SAPE  C31717255   6.007   6.208   4.573  0.1520 -0.3176 -0.1421
  155SAPE  H17X17256   6.010   6.290   4.498  2.5414  0.4653  0.7143
  155SAPE  H17Y17257   6.100   6.215   4.633  0.2477  1.2866 -0.4340
  155SAPE  C31817258   5.902   6.241   4.673 -1.1760 -0.5875  0.0958
  155SAPE  H18X17259   5.905   6.163   4.752  0.4808 -0.5052  0.1572
  155SAPE  H18Y17260   5.803   6.251   4.624 -0.4904  0.1850 -1.1853
  155SAPE  H18Z17261   5.919   6.339   4.722  1.5959 -1.2263  0.5842
  156SAPE     N17262   0.537   0.031   6.440 -0.4590 -0.0585  0.5342
  156SAPE   HN117263   0.436   0.054   6.432 -0.5179 -0.4356  0.1563
  156SAPE   HN217264   0.574   0.066   6.349  0.2367 -2.5464 -0.2357
  156SAPE   HN317265   0.556  -0.071   6.436  1.0952  0.2295 -0.6265
  156SAPE   C1217266   0.615   0.098   6.546 -0.5079  0.0294 -0.9167
  156SAPE  H12A17267   0.723   0.072   6.548 -0.1471  1.4279  0.9359
  156SAPE  H12B17268   0.575   0.045   6.635  1.7903 -0.5795 -0.1939
  156SAPE   C1117269   0.607   0.245   6.557 -0.3550 -0.0283  0.2643
  156SAPE  H11A17270   0.670   0.277   6.642  0.7834  3.0135 -1.5703
  156SAPE  H11B17271   0.500   0.276   6.555 -1.1060 -2.2546 -3.4632
  156SAPE     P17272   0.698   0.456   6.422 -0.5395 -0.3376  0.1295
  156SAPE   O1317273   0.720   0.511   6.560  0.0087  0.4947 -0.2225
  156SAPE   O1417274   0.810   0.471   6.329  0.3117  0.0207 -0.3086
  156SAPE   O1217275   0.662   0.299   6.436  0.2069 -0.0337  0.1555
  156SAPE   O1117276   0.577   0.522   6.361  0.2287 -0.1412  0.3639
  156SAPE    C117277   0.450   0.463   6.302  0.0511  0.6160  0.2317
  156SAPE    HA17278   0.441   0.356   6.332 -0.1772  0.7305  0.5879
  156SAPE    HB17279   0.363   0.524   6.334  0.4434  2.2856 -1.6995
  156SAPE    C217280   0.448   0.468   6.145 -0.2727 -0.0789  0.1659
  156SAPE    HS17281   0.545   0.427   6.111  0.2230  0.6027  0.7452
  156SAPE   O2117282   0.418   0.600   6.095 -0.0739  0.0810  0.2472
  156SAPE   C2117283   0.478   0.627   5.984 -0.3568 -1.0866  0.0627
  156SAPE   O2217284   0.557   0.554   5.922  0.2054 -0.1255 -0.0709
  156SAPE   C2217285   0.448   0.772   5.948  0.0100  0.7135  0.5379
  156SAPE   H2R17286   0.350   0.802   5.991 -1.4462 -0.6469 -1.6043
  156SAPE   H2S17287   0.533   0.832   5.986 -0.8452  1.0263  2.0535
  156SAPE    C317288   0.337   0.370   6.097  0.5328 -0.8115  0.4064
  156SAPE    HX17289   0.246   0.416   6.141  1.0975  0.9522 -0.2141
  156SAPE    HY17290   0.345   0.273   6.151 -0.0878 -1.5172 -0.7360
  156SAPE   O3117291   0.305   0.362   5.955  0.2740 -0.3419  0.0480
  156SAPE   C3117292   0.380   0.273   5.894 -0.0559  0.0248  0.4273
  156SAPE   O3217293   0.449   0.188   5.950 -0.0783 -0.4587  0.2219
  156SAPE   C3217294   0.347   0.275   5.748 -1.1768 -0.4409  0.3686
  156SAPE   H2X17295   0.432   0.329   5.701 -1.5233 -0.0927  0.1244
  156SAPE   H2Y17296   0.250   0.329   5.734 -0.2554  1.4633  0.9633
  156SAPE   C2317297   0.445   0.775   5.793 -0.5203  0.2733  0.2952
  156SAPE   H3R17298   0.547   0.758   5.752  0.5358  1.2376  2.3455
  156SAPE   H3S17299   0.427   0.878   5.757 -1.3399 -0.3014 -1.0001
  156SAPE   C2417300   0.344   0.681   5.726  0.2048  0.8414  0.1442
  156SAPE   H4R17301   0.368   0.574   5.747  0.9361  1.0598  0.4308
  156SAPE   H4S17302   0.351   0.685   5.615  0.8340 -0.5076  0.1138
  156SAPE   C2517303   0.203   0.702   5.784  0.3191  0.0487  0.4107
  156SAPE   H5R17304   0.198   0.662   5.887 -0.4358 -3.3681 -0.8164
  156SAPE   C2617305   0.094   0.752   5.718 -0.2598 -0.0455  0.2178
  156SAPE   H6R17306   0.009   0.771   5.785  0.2709  0.7794  0.6788
  156SAPE   C2717307   0.098   0.800   5.576  0.6570 -0.3717  0.4694
  156SAPE   H7R17308   0.052   0.731   5.502 -0.8629  2.4736 -1.4113
  156SAPE   H7S17309   0.204   0.817   5.546 -0.2669  3.5462 -1.2011
  156SAPE   C2817310   0.028   0.929   5.574 -0.2514 -0.3411 -0.4020
  156SAPE   H8R17311   0.064   0.995   5.655  0.1103 -1.9798  0.8394
  156SAPE   C2917312  -0.052   0.968   5.480 -0.6780  0.1295 -0.0305
  156SAPE   H9R17313  -0.098   1.068   5.490 -1.4100 -0.2447  0.4570
  156SAPE  C21017314  -0.103   0.888   5.362 -0.6071  0.2278 -0.0752
  156SAPE  H10R17315  -0.202   0.920   5.323 -0.8359 -1.8748 -1.4391
  156SAPE  H10S17316  -0.122   0.779   5.374  0.3214 -0.1166 -1.4693
  156SAPE  C21117317  -0.005   0.898   5.245 -0.1981 -0.7125 -0.5523
  156SAPE  H11R17318   0.090   0.950   5.266 -1.1480  0.3977  1.2241
  156SAPE  C21217319  -0.039   0.872   5.118  0.4706 -0.6700  0.6982
  156SAPE  H12R17320   0.037   0.871   5.038 -0.7118  0.3992 -0.5111
  156SAPE  C21317321  -0.174   0.820   5.070  0.0723  0.1475  0.4660
  156SAPE  H13R17322  -0.249   0.894   5.034  1.0362 -0.8466 -4.3423
  156SAPE  H13S17323  -0.217   0.773   5.161 -4.0978  1.6030 -0.5188
  156SAPE  C21417324  -0.155   0.720   4.955  0.4414 -0.4156 -1.1482
  156SAPE  H14R17325  -0.090   0.633   4.974  0.4256 -0.2381 -0.2330
  156SAPE  C21517326  -0.209   0.732   4.830 -0.4109 -0.3751  0.4458
  156SAPE  H15R17327  -0.183   0.658   4.753 -3.8803  0.8869 -2.2060
  156SAPE  C21617328  -0.304   0.841   4.781  0.7091  0.4708 -0.4210
  156SAPE  H16R17329  -0.255   0.934   4.816 -0.4708  0.1587  2.2548
  156SAPE  H16S17330  -0.405   0.837   4.827  0.8488 -2.7566 -0.1771
  156SAPE  C21717331  -0.322   0.836   4.632  0.0083 -0.4900 -0.3329
  156SAPE  H17R17332  -0.390   0.919   4.600 -2.5712 -1.8295  1.2908
  156SAPE  H17S17333  -0.372   0.741   4.605  0.9087 -0.5145 -2.0434
  156SAPE  C21817334  -0.190   0.838   4.551 -0.1309 -0.0806 -0.0848
  156SAPE  H18R17335  -0.123   0.756   4.586  0.9088  1.1799  1.0182
  156SAPE  H18S17336  -0.136   0.935   4.557  2.0493 -1.2147 -0.3023
  156SAPE  C21917337  -0.225   0.805   4.406 -0.3766  0.3700  0.4282
  156SAPE  H19R17338  -0.300   0.872   4.359  0.5280  2.1680  1.4584
  156SAPE  H19S17339  -0.268   0.703   4.418  1.1864 -0.2955  0.6399
  156SAPE  C22017340  -0.100   0.787   4.315  0.9309 -0.2583  0.4761
  156SAPE  H20R17341  -0.035   0.702   4.343 -0.3114 -1.0013  1.1776
  156SAPE  H20S17342  -0.038   0.879   4.327 -0.7766  1.0689 -0.2765
  156SAPE  H20T17343  -0.135   0.768   4.211 -0.7774 -1.5417  1.2284
  156SAPE   C3317344   0.339   0.139   5.675  0.2952 -0.0719  0.0061
  156SAPE   H3X17345   0.233   0.105   5.684  0.1573  0.3308 -0.0222
  156SAPE   H3Y17346   0.396   0.070   5.741  1.8241  2.1049  1.0864
  156SAPE   C3417347   0.375   0.127   5.531 -0.6690  0.4419 -0.1806
  156SAPE   H4X17348   0.335   0.029   5.496  0.5793  0.7195 -2.6097
  156SAPE   H4Y17349   0.486   0.126   5.526 -0.6298 -2.0080  0.0124
  156SAPE   C3517350   0.323   0.228   5.436 -0.5594  0.5441 -0.5647
  156SAPE   H5X17351   0.320   0.335   5.466  1.1056  0.6639 -0.7307
  156SAPE   H5Y17352   0.222   0.199   5.400  0.1228 -0.9324 -1.3602
  156SAPE   C3617353   0.407   0.213   5.308 -0.0640  0.3687  0.3700
  156SAPE   H6X17354   0.416   0.104   5.291 -0.2729  0.7067 -2.3765
  156SAPE   H6Y17355   0.502   0.259   5.341  0.0431  0.0203  0.5484
  156SAPE   C3717356   0.341   0.283   5.190 -0.3290 -0.2422  0.6966
  156SAPE   H7X17357   0.344   0.394   5.191 -0.7218 -0.1567 -1.4852
  156SAPE   H7Y17358   0.237   0.251   5.170 -1.1298  2.5845 -0.1974
  156SAPE   C3817359   0.426   0.256   5.062  0.6930 -0.1741 -0.1238
  156SAPE   H8X17360   0.532   0.247   5.093  1.0505 -0.3538 -1.3601
  156SAPE   H8Y17361   0.405   0.344   4.997  0.9336  0.1906  0.2896
  156SAPE   C3917362   0.394   0.117   4.996 -0.0933 -0.2354  0.8291
  156SAPE   H9X17363   0.414   0.034   5.068  3.4309 -0.7284 -0.5289
  156SAPE   H9Y17364   0.483   0.108   4.931 -0.1406 -1.7318  0.9290
  156SAPE  C31017365   0.263   0.090   4.921 -0.2316 -0.1651 -0.2141
  156SAPE  H10X17366   0.235   0.183   4.865 -1.1620 -0.4922 -0.3135
  156SAPE  H10Y17367   0.182   0.070   4.994 -0.5256 -0.5136 -0.6287
  156SAPE  C31117368   0.257  -0.018   4.820  0.7260  0.5490 -0.5926
  156SAPE  H11X17369   0.165   0.006   4.762 -0.1597  1.8890  1.2371
  156SAPE  H11Y17370   0.239  -0.123   4.851 -1.5526  1.6115  2.1588
  156SAPE  C31217371   0.376  -0.008   4.722  0.8355  0.2909  0.0448
  156SAPE  H12X17372   0.381  -0.087   4.643  0.5441  0.7699 -0.4531
  156SAPE  H12Y17373   0.469  -0.029   4.780 -0.7457 -1.7945  2.0416
  156SAPE  C31317374   0.401   0.134   4.657  0.6021 -0.1557  0.2056
  156SAPE  H13X17375   0.440   0.199   4.738  0.4255  0.6596 -0.3462
  156SAPE  H13Y17376   0.302   0.176   4.629  1.1500 -0.2269 -2.0766
  156SAPE  C31417377   0.497   0.147   4.538  0.0215 -0.0037 -0.2721
  156SAPE  H14X17378   0.438   0.132   4.445  0.3394  1.0159 -0.6484
  156SAPE  H14Y17379   0.569   0.062   4.545  0.5371  0.5763  2.1168
  156SAPE  C31517380   0.572   0.280   4.512  0.3630  0.5035  0.0519
  156SAPE  H15X17381   0.612   0.314   4.610  2.2139  1.6587 -1.0432
  156SAPE  H15Y17382   0.503   0.358   4.471 -0.3497 -1.0048 -1.7728
  156SAPE  C31617383   0.687   0.261   4.411 -0.0323  0.8152 -0.2198
  156SAPE  H16X17384   0.748   0.179   4.455 -0.5478  0.6180  0.1387
  156SAPE  H16Y17385   0.750   0.352   4.408  0.9040  0.1692 -0.9502
  156SAPE  C31717386   0.650   0.220   4.261 -0.5165  0.6719 -0.3880
  156SAPE  H17X17387   0.576   0.290   4.217  0.9533  2.0642 -0.7245
  156SAPE  H17Y17388   0.616   0.115   4.273 -1.2998  1.1755  2.6833
  156SAPE  C31817389   0.770   0.212   4.164  0.3773  0.1514 -0.2552
  156SAPE  H18X17390   0.849   0.153   4.216  1.2804  1.5300 -0.0040
  156SAPE  H18Y17391   0.814   0.314   4.154 -1.4196  1.3788  2.9855
  156SAPE  H18Z17392   0.738   0.162   4.070 -0.4911  0.9081 -0.3704
  157SAPE     N17393   0.589   5.907   6.757  0.1856  0.5299 -0.0636
  157SAPE   HN117394   0.598   5.905   6.860 -1.4367  2.8465  0.2126
  157SAPE   HN217395   0.677   5.875   6.713 -0.8875  0.6450 -2.4861
  157SAPE   HN317396   0.581   6.007   6.727 -1.3362  0.1197 -1.1778
  157SAPE   C1217397   0.475   5.822   6.702 -0.6557  0.3101  0.0074
  157SAPE  H12A17398   0.470   5.729   6.762 -1.7095 -0.9604 -1.9465
  157SAPE  H12B17399   0.498   5.793   6.597 -1.6651 -2.2607  0.4142
  157SAPE   C1117400   0.342   5.901   6.702 -0.7305  0.4576 -0.6225
  157SAPE  H11A17401   0.298   5.900   6.804  0.2728  1.6007 -0.1577
  157SAPE  H11B17402   0.271   5.839   6.643 -0.4137 -2.2141  1.6011
  157SAPE     P17403   0.361   6.081   6.505  0.2530 -0.1563  0.4457
  157SAPE   O1317404   0.223   6.100   6.471  0.2884 -0.3523 -0.2911
  157SAPE   O1417405   0.441   6.203   6.493  0.1315 -0.6096  0.0730
  157SAPE   O1217406   0.369   6.031   6.655 -0.3048 -0.1619  0.2584
  157SAPE   O1117407   0.431   5.963   6.421  0.9385 -0.4550 -0.1207
  157SAPE    C117408   0.500   6.015   6.304 -0.0023  0.1629  0.5668
  157SAPE    HA17409   0.576   6.090   6.333 -0.8427  1.5189 -0.5555
  157SAPE    HB17410   0.554   5.928   6.262 -0.2306  1.2980 -2.3586
  157SAPE    C217411   0.393   6.050   6.192 -0.3039 -0.5848 -0.2847
  157SAPE    HS17412   0.328   6.132   6.230  0.7420 -0.3723  1.1297
  157SAPE   O2117413   0.319   5.928   6.156 -0.0578  0.2854  0.2912
  157SAPE   C2117414   0.194   5.929   6.106 -0.1554 -0.0172  0.5369
  157SAPE   O2217415   0.130   6.031   6.092 -0.4508  0.7373 -0.8143
  157SAPE   C2217416   0.158   5.791   6.058 -0.2186  0.5694  0.2552
  157SAPE   H2R17417   0.200   5.714   6.126 -1.2855  0.5721  0.9343
  157SAPE   H2S17418   0.048   5.780   6.059 -0.2852  1.2723  1.1330
  157SAPE    C317419   0.461   6.106   6.065 -0.2521 -0.2666  0.8130
  157SAPE    HX17420   0.390   6.138   5.987 -0.6450  3.3637  2.4468
  157SAPE    HY17421   0.530   6.021   6.044 -0.4783 -0.0643 -0.8913
  157SAPE   O3117422   0.535   6.223   6.092  0.0597  0.1402  0.1756
  157SAPE   C3117423   0.467   6.339   6.109 -0.0495 -0.2768 -0.0942
  157SAPE   O3217424   0.349   6.352   6.095 -0.3097 -0.0325  0.6921
  157SAPE   C3217425   0.556   6.449   6.133 -0.1677 -0.1079 -0.2622
  157SAPE   H2X17426   0.655   6.418   6.174 -0.6012  0.4277  1.2658
  157SAPE   H2Y17427   0.520   6.519   6.212 -1.0487 -2.9344  2.0060
  157SAPE   C2317428   0.229   5.754   5.923  0.6777  0.1513 -0.5094
  157SAPE   H3R17429   0.232   5.643   5.916  2.0986  0.1136  0.2827
  157SAPE   H3S17430   0.337   5.782   5.929  0.5904  0.2807  0.8118
  157SAPE   C2417431   0.158   5.812   5.801 -0.4651  0.0794  0.2350
  157SAPE   H4R17432   0.051   5.824   5.827 -1.3786 -2.5587 -1.7740
  157SAPE   H4S17433   0.159   5.728   5.728  1.7507  0.2649 -0.0357
  157SAPE   C2517434   0.230   5.938   5.761 -0.4558 -0.0713 -0.4601
  157SAPE   H5R17435   0.190   6.024   5.817 -2.9903 -2.2204  1.2836
  157SAPE   C2617436   0.346   5.946   5.683 -0.1324  0.1700  0.2262
  157SAPE   H6R17437   0.402   6.040   5.673 -0.5158  0.9827  4.1016
  157SAPE   C2717438   0.421   5.820   5.640 -0.3563  0.1954 -0.5735
  157SAPE   H7R17439   0.392   5.735   5.706  0.1757 -0.1279 -0.7439
  157SAPE   H7S17440   0.531   5.832   5.653 -0.7042  2.2997  0.8305
  157SAPE   C2817441   0.404   5.796   5.496  0.2111  0.0380  0.4184
  157SAPE   H8R17442   0.322   5.724   5.478  1.5466 -1.2155 -1.0453
  157SAPE   C2917443   0.446   5.858   5.387  0.9212 -0.0981  0.1991
  157SAPE   H9R17444   0.406   5.810   5.296  0.2993 -1.8380  1.3406
  157SAPE  C21017445   0.528   5.986   5.383  0.5080  0.8992 -0.2891
  157SAPE  H10R17446   0.529   6.035   5.482 -0.8578 -1.6688  1.1106
  157SAPE  H10S17447   0.468   6.049   5.314 -2.3730  0.9229  2.0201
  157SAPE  C21117448   0.669   5.964   5.329 -0.8064  0.0871  0.5965
  157SAPE  H11R17449   0.736   5.903   5.392  0.1786  0.7240  0.1854
  157SAPE  C21217450   0.723   6.033   5.223 -0.3881 -0.2091  0.1253
  157SAPE  H12R17451   0.825   6.009   5.190  0.2663 -0.8255  2.3689
  157SAPE  C21317452   0.645   6.116   5.124 -0.2831  0.2352  0.0557
  157SAPE  H13R17453   0.555   6.165   5.168 -0.8662 -1.8443  1.2901
  157SAPE  H13S17454   0.607   6.047   5.046  0.2861  1.3775 -1.2826
  157SAPE  C21417455   0.726   6.221   5.049 -0.2933  0.3933 -0.6452
  157SAPE  H14R17456   0.718   6.320   5.094 -0.0608  1.0019 -1.8949
  157SAPE  C21517457   0.795   6.206   4.933 -0.3868  0.1352 -0.5891
  157SAPE  H15R17458   0.849   6.288   4.882 -1.6991  0.0187 -2.2399
  157SAPE  C21617459   0.816   6.074   4.868 -0.0925 -0.4871  0.2452
  157SAPE  H16R17460   0.756   5.991   4.911 -2.7534  1.0580 -0.2779
  157SAPE  H16S17461   0.922   6.043   4.854 -0.5646 -0.8949 -3.4297
  157SAPE  C21717462   0.766   6.097   4.726 -0.4432  0.3799  0.4904
  157SAPE  H17R17463   0.810   6.190   4.685 -0.3165 -0.7463 -2.1361
  157SAPE  H17S17464   0.655   6.102   4.734 -0.6499 -1.0897 -0.9740
  157SAPE  C21817465   0.790   5.984   4.627  0.5611  0.5482  0.6050
  157SAPE  H18R17466   0.739   5.890   4.657  2.8673 -0.6713  0.9361
  157SAPE  H18S17467   0.897   5.955   4.630  0.1802 -0.8329  2.3214
  157SAPE  C21917468   0.744   6.034   4.486  0.2734 -0.2287  0.7219
  157SAPE  H19R17469   0.643   6.081   4.491 -0.2998 -1.3317  0.0370
  157SAPE  H19S17470   0.727   5.937   4.434  0.2551  1.0914 -1.9279
  157SAPE  C22017471   0.841   6.116   4.399 -0.4365  0.0244 -0.0018
  157SAPE  H20R17472   0.815   6.106   4.291  1.6209  0.7789 -0.6150
  157SAPE  H20S17473   0.945   6.090   4.428 -1.4446 -1.4379  2.7173
  157SAPE  H20T17474   0.827   6.222   4.429  0.5632  0.2456 -0.2757
  157SAPE   C3317475   0.582   6.538   6.000  0.0808 -0.1113 -0.9861
  157SAPE   H3X17476   0.479   6.563   5.964 -0.6746 -1.9170 -0.2449
  157SAPE   H3Y17477   0.637   6.481   5.922  0.6636 -1.8790  0.6437
  157SAPE   C3417478   0.649   6.666   6.035 -0.5480 -0.1495 -0.3316
  157SAPE   H4X17479   0.751   6.633   6.065  0.4845 -0.9859 -4.2441
  157SAPE   H4Y17480   0.594   6.714   6.119 -2.8716 -1.1764 -1.1611
  157SAPE   C3517481   0.672   6.772   5.926  0.6623  0.1707  0.0203
  157SAPE   H5X17482   0.725   6.858   5.974 -0.3362  0.0259  1.4453
  157SAPE   H5Y17483   0.569   6.800   5.897  0.4303  1.2804  1.7925
  157SAPE   C3617484   0.745   6.720   5.802  0.4143  0.7759 -0.4416
  157SAPE   H6X17485   0.695   6.625   5.772  0.4736 -0.1071  2.0216
  157SAPE   H6Y17486   0.849   6.689   5.823  0.9603  0.4618 -3.1852
  157SAPE   C3717487   0.747   6.811   5.679  0.5199 -0.7407 -0.2313
  157SAPE   H7X17488   0.810   6.902   5.691 -0.7879  0.2550 -0.7175
  157SAPE   H7Y17489   0.644   6.852   5.670  0.5825 -0.7166 -0.8488
  157SAPE   C3817490   0.794   6.748   5.547  0.1634  0.0391 -0.7311
  157SAPE   H8X17491   0.729   6.658   5.536  0.3053 -0.2631  0.6500
  157SAPE   H8Y17492   0.899   6.714   5.560  0.7996  2.6507  2.0088
  157SAPE   C3917493   0.787   6.844   5.427 -0.2979 -0.8404  0.3207
  157SAPE   H9X17494   0.835   6.942   5.450  1.7100 -1.6400 -0.1808
  157SAPE   H9Y17495   0.683   6.868   5.399  0.5445 -0.4327 -2.8023
  157SAPE  C31017496   0.859   6.791   5.297 -0.3646 -0.0696  0.1210
  157SAPE  H10X17497   0.963   6.756   5.313 -1.1805 -2.1629  1.1479
  157SAPE  H10Y17498   0.875   6.876   5.227 -2.0251 -1.9070 -2.6565
  157SAPE  C31117499   0.768   6.692   5.218 -0.4387  0.7805  0.5364
  157SAPE  H11X17500   0.677   6.735   5.172 -0.1615 -1.9308 -2.9722
  157SAPE  H11Y17501   0.741   6.611   5.289  0.2821 -0.5201 -0.6294
  157SAPE  C31217502   0.847   6.616   5.115  0.1523 -0.4049  0.1819
  157SAPE  H12X17503   0.819   6.509   5.109  0.3445 -0.5492  1.5147
  157SAPE  H12Y17504   0.955   6.627   5.142 -0.0349 -2.7240  2.1525
  157SAPE  C31317505   0.825   6.670   4.970  0.6410  0.0274  0.1629
  157SAPE  H13X17506   0.878   6.767   4.980  0.3513  0.0783  1.4322
  157SAPE  H13Y17507   0.714   6.682   4.964  0.2936 -3.0176 -1.5121
  157SAPE  C31417508   0.872   6.586   4.853 -0.4086 -0.1920  0.7027
  157SAPE  H14X17509   0.828   6.485   4.838 -0.2291 -0.1633 -0.0798
  157SAPE  H14Y17510   0.982   6.573   4.858 -0.4337 -0.7832 -0.0601
  157SAPE  C31517511   0.853   6.661   4.719 -0.6008 -0.0451 -0.1715
  157SAPE  H15X17512   0.914   6.754   4.730  1.7081 -1.5762  0.8512
  157SAPE  H15Y17513   0.744   6.678   4.719 -0.6857 -0.2363  2.1234
  157SAPE  C31617514   0.894   6.587   4.584 -0.0098 -0.4807  0.3912
  157SAPE  H16X17515   0.842   6.489   4.574 -1.2230 -0.0672  2.1975
  157SAPE  H16Y17516   1.000   6.556   4.593 -0.2891 -2.4998 -2.0256
  157SAPE  C31717517   0.871   6.676   4.461 -0.3046 -0.6043 -0.2513
  157SAPE  H17X17518   0.895   6.779   4.495  2.8349 -0.4516 -2.4088
  157SAPE  H17Y17519   0.762   6.666   4.444 -0.2105 -0.9929 -0.6247
  157SAPE  C31817520   0.936   6.642   4.327 -0.4540  0.1193  0.3197
  157SAPE  H18X17521   0.916   6.535   4.303 -1.0065  0.6079 -1.6131
  157SAPE  H18Y17522   1.044   6.659   4.346 -0.3339  0.7112 -0.7781
  157SAPE  H18Z17523   0.915   6.710   4.241  2.1823 -0.3047 -0.7457
  158SAPE     N17524   3.150   5.116   6.519  0.3260 -0.5549 -0.2443
  158SAPE   HN117525   3.143   5.028   6.574  1.4614 -0.8516 -0.5302
  158SAPE   HN217526   3.125   5.198   6.578 -0.4776  1.3588 -3.0225
  158SAPE   HN317527   3.088   5.116   6.436 -0.2380 -0.0280  0.1758
  158SAPE   C1217528   3.296   5.140   6.495 -0.5738  0.0137 -0.6196
  158SAPE  H12A17529   3.348   5.041   6.487  0.8906  0.7236 -0.2480
  158SAPE  H12B17530   3.338   5.184   6.588 -2.5824  0.1108  0.2841
  158SAPE   C1117531   3.306   5.222   6.367 -0.2174 -0.3765 -0.2070
  158SAPE  H11A17532   3.273   5.151   6.288 -1.5299 -0.7596  0.6550
  158SAPE  H11B17533   3.411   5.252   6.349  0.3876 -0.0073  3.1843
  158SAPE     P17534   3.245   5.482   6.330 -0.0582  0.0418  0.1553
  158SAPE   O1317535   3.263   5.556   6.457  0.4098  0.0247 -0.9418
  158SAPE   O1417536   3.364   5.486   6.240 -0.3681  0.2032  0.5391
  158SAPE   O1217537   3.212   5.331   6.364  0.4310  0.4063  0.1202
  158SAPE   O1117538   3.115   5.538   6.248  0.4668 -0.7691 -0.4198
  158SAPE    C117539   3.015   5.441   6.210 -0.2282 -0.0282 -0.0974
  158SAPE    HA17540   3.006   5.356   6.282 -2.7306 -1.2546 -1.7110
  158SAPE    HB17541   2.917   5.493   6.212 -0.0719  0.3322 -1.2466
  158SAPE    C217542   3.029   5.382   6.071  0.2479 -0.3775  0.5868
  158SAPE    HS17543   3.130   5.336   6.068  0.2444 -0.3410 -0.7455
  158SAPE   O2117544   3.004   5.484   5.969  0.2090  0.2797 -0.1863
  158SAPE   C2117545   3.113   5.503   5.886 -0.4823  1.0290  0.2340
  158SAPE   O2217546   3.217   5.438   5.884 -0.0356  0.1282 -0.3448
  158SAPE   C2217547   3.100   5.629   5.801  0.3516  0.2215  0.2416
  158SAPE   H2R17548   3.203   5.672   5.795  0.3510  0.0759 -1.4823
  158SAPE   H2S17549   3.060   5.596   5.702  3.7464  0.2687 -1.3028
  158SAPE    C317550   2.932   5.263   6.051 -0.0836 -0.2426  0.3023
  158SAPE    HX17551   2.832   5.308   6.071 -0.7992 -0.9070 -1.5680
  158SAPE    HY17552   2.938   5.186   6.131  0.0063 -2.3641 -1.6496
  158SAPE   O3117553   2.959   5.215   5.917 -0.1039 -0.5469  0.3596
  158SAPE   C3117554   3.059   5.122   5.909  0.6962  0.3529  0.0940
  158SAPE   O3217555   3.109   5.071   6.007 -0.0041  0.2870  0.0307
  158SAPE   C3217556   3.092   5.080   5.763  0.2902  0.5608 -0.6739
  158SAPE   H2X17557   2.996   5.056   5.713  0.1650  2.8769 -1.6401
  158SAPE   H2Y17558   3.158   4.992   5.776  0.0623  0.6547  1.5496
  158SAPE   C2317559   3.009   5.741   5.863 -0.3309  0.5223  0.4097
  158SAPE   H3R17560   3.056   5.785   5.953 -1.9244  0.7579  1.1564
  158SAPE   H3S17561   2.911   5.691   5.879 -0.0643 -1.0536 -2.2624
  158SAPE   C2417562   2.983   5.852   5.768 -0.1449  0.3775 -0.7399
  158SAPE   H4R17563   2.918   5.919   5.828  0.1913 -0.0586  0.1192
  158SAPE   H4S17564   2.919   5.834   5.678  1.1040  0.2294 -1.6185
  158SAPE   C2517565   3.105   5.942   5.743 -0.7200  0.0275  0.0689
  158SAPE   H5R17566   3.128   5.986   5.841  1.8201  0.3324 -0.5876
  158SAPE   C2617567   3.181   5.963   5.631 -0.5441 -0.0301  0.4321
  158SAPE   H6R17568   3.267   6.031   5.637 -1.0234  0.5237  1.2368
  158SAPE   C2717569   3.156   5.901   5.495 -0.2112 -0.1771  0.0502
  158SAPE   H7R17570   3.085   5.817   5.511 -0.4378 -0.3009 -1.4292
  158SAPE   H7S17571   3.241   5.835   5.467  0.8929  0.5218  1.6622
  158SAPE   C2817572   3.100   5.989   5.392 -0.2000 -0.5500 -0.1891
  158SAPE   H8R17573   3.008   6.040   5.424 -1.9814 -3.7147  0.0927
  158SAPE   C2917574   3.145   5.990   5.265 -0.0057  0.0808  0.3663
  158SAPE   H9R17575   3.099   6.060   5.194  1.4180 -1.9798 -2.7747
  158SAPE  C21017576   3.252   5.895   5.208  0.2127 -0.0392 -0.5866
  158SAPE  H10R17577   3.228   5.893   5.100 -0.0970 -0.0597 -0.5174
  158SAPE  H10S17578   3.246   5.792   5.248  0.1392  0.6849  1.4006
  158SAPE  C21117579   3.396   5.934   5.221  0.1302  0.5073 -0.7256
  158SAPE  H11R17580   3.423   5.986   5.314  3.1462  2.6992 -2.6358
  158SAPE  C21217581   3.483   5.910   5.126 -0.0152 -0.0523 -0.3338
  158SAPE  H12R17582   3.583   5.950   5.149 -0.7112  1.2147  0.6389
  158SAPE  C21317583   3.462   5.838   4.995  0.2795  1.1205 -0.7610
  158SAPE  H13R17584   3.399   5.901   4.928  1.0073  4.1702  1.1732
  158SAPE  H13S17585   3.412   5.740   5.009  2.0385  0.4544  1.5819
  158SAPE  C21417586   3.584   5.808   4.912  0.6895 -0.1110  0.3419
  158SAPE  H14R17587   3.654   5.742   4.965  0.1412  0.0039  1.2407
  158SAPE  C21517588   3.597   5.859   4.783  0.3470  0.3260 -0.2631
  158SAPE  H15R17589   3.683   5.821   4.725  0.8295  1.8128 -0.5628
  158SAPE  C21617590   3.505   5.937   4.701 -0.1808  0.1006  0.3776
  158SAPE  H16R17591   3.577   5.992   4.637  0.5135  0.2490  1.2781
  158SAPE  H16S17592   3.445   6.012   4.758  0.0710  0.1784  0.5433
  158SAPE  C21717593   3.421   5.854   4.604 -0.2754 -0.0561 -0.2513
  158SAPE  H17R17594   3.350   5.922   4.553 -1.5844 -1.0625  0.1906
  158SAPE  H17S17595   3.349   5.790   4.659 -2.0215 -0.0214 -2.3609
  158SAPE  C21817596   3.494   5.771   4.490  0.2679 -0.1170 -0.3392
  158SAPE  H18R17597   3.428   5.710   4.425 -0.1614 -0.5381  0.4769
  158SAPE  H18S17598   3.560   5.706   4.551  0.8720  0.3774 -0.4494
  158SAPE  C21917599   3.584   5.863   4.399  0.3516  0.2755 -0.8206
  158SAPE  H19R17600   3.666   5.800   4.357  3.0412  3.6905 -1.1766
  158SAPE  H19S17601   3.625   5.948   4.457 -0.3954  1.1950 -1.6081
  158SAPE  C22017602   3.500   5.918   4.285 -0.4948 -0.0382 -0.4123
  158SAPE  H20R17603   3.462   6.019   4.311 -0.3321  0.0770 -0.6299
  158SAPE  H20S17604   3.422   5.844   4.255 -0.9425  0.0049  0.6069
  158SAPE  H20T17605   3.553   5.945   4.192  0.2190 -0.0514 -0.0118
  158SAPE   C3317606   3.153   5.195   5.678 -0.2489 -0.4006  0.5769
  158SAPE   H3X17607   3.238   5.245   5.730 -0.0590  0.1287 -0.2248
  158SAPE   H3Y17608   3.077   5.271   5.651  1.6015  0.9159 -1.2109
  158SAPE   C3417609   3.214   5.131   5.551  0.8577 -0.4033 -0.3747
  158SAPE   H4X17610   3.279   5.046   5.581  1.7566  1.5055  3.8036
  158SAPE   H4Y17611   3.295   5.200   5.516  2.0003 -2.6367 -2.4184
  158SAPE   C3517612   3.124   5.092   5.436 -0.2268 -0.1031 -0.4186
  158SAPE   H5X17613   3.065   5.182   5.407 -3.5380 -1.9112  0.1956
  158SAPE   H5Y17614   3.051   5.015   5.469 -1.2491  0.4795 -1.2746
  158SAPE   C3617615   3.206   5.040   5.316 -0.5100  0.3497  0.5571
  158SAPE   H6X17616   3.211   4.929   5.329 -0.2693  0.5597  2.4025
  158SAPE   H6Y17617   3.307   5.086   5.321  0.0785 -0.6573 -1.1171
  158SAPE   C3717618   3.124   5.070   5.188 -1.0419 -0.1491  0.2215
  158SAPE   H7X17619   3.104   5.179   5.183  0.1288  0.1649  1.7892
  158SAPE   H7Y17620   3.033   5.007   5.201  1.0268 -3.0143  2.1736
  158SAPE   C3817621   3.189   5.021   5.055 -0.0835 -0.3488 -0.4552
  158SAPE   H8X17622   3.114   4.994   4.977 -0.2344  2.9526 -1.6172
  158SAPE   H8Y17623   3.254   4.935   5.081 -2.2569 -1.3978  1.9355
  158SAPE   C3917624   3.263   5.141   4.985  0.0868  0.1305  0.3782
  158SAPE   H9X17625   3.309   5.202   5.065  0.3221 -0.4960  0.7284
  158SAPE   H9Y17626   3.191   5.209   4.934  0.9556  1.4397  0.8462
  158SAPE  C31017627   3.368   5.094   4.887 -0.2616  1.3257  0.0578
  158SAPE  H10X17628   3.400   4.996   4.927 -1.6209  0.2459 -1.3709
  158SAPE  H10Y17629   3.454   5.164   4.900  0.8867 -0.1269  0.6054
  158SAPE  C31117630   3.340   5.087   4.739 -0.0365  1.0331  0.0489
  158SAPE  H11X17631   3.279   5.176   4.710 -1.6119 -0.3194 -0.9815
  158SAPE  H11Y17632   3.271   5.002   4.718  0.3211  0.5886  0.6469
  158SAPE  C31217633   3.472   5.068   4.661 -0.1692  0.2453  0.1548
  158SAPE  H12X17634   3.464   5.011   4.566  0.3154 -0.4086  0.5018
  158SAPE  H12Y17635   3.537   5.007   4.726  0.3899 -0.0185 -0.6433
  158SAPE  C31317636   3.514   5.211   4.632  0.3216 -0.0874  0.6119
  158SAPE  H13X17637   3.503   5.270   4.726 -1.4120 -1.0873  1.0884
  158SAPE  H13Y17638   3.435   5.245   4.561  1.0323 -0.9184 -0.6139
  158SAPE  C31417639   3.643   5.228   4.563  0.0893  0.3893  0.7244
  158SAPE  H14X17640   3.713   5.148   4.594 -2.0400 -0.7096  2.9729
  158SAPE  H14Y17641   3.687   5.327   4.590 -1.5981  1.9292 -1.7471
  158SAPE  C31517642   3.615   5.211   4.407  0.0755  0.1378  0.0644
  158SAPE  H15X17643   3.528   5.273   4.374 -0.9483 -0.0696  2.2266
  158SAPE  H15Y17644   3.592   5.103   4.402  0.9919 -0.0431 -0.3718
  158SAPE  C31617645   3.743   5.234   4.329 -0.7271 -0.2281 -0.0376
  158SAPE  H16X17646   3.755   5.166   4.242  0.4341  1.5670 -1.3387
  158SAPE  H16Y17647   3.832   5.214   4.393 -0.5118 -0.7736 -0.4965
  158SAPE  C31717648   3.759   5.372   4.254  0.4197  0.3883 -0.8865
  158SAPE  H17X17649   3.859   5.373   4.207  0.5486  1.7182 -0.6144
  158SAPE  H17Y17650   3.763   5.456   4.327  3.6197 -2.0687  2.0886
  158SAPE  C31817651   3.646   5.397   4.154 -0.2354  0.4368 -0.5542
  158SAPE  H18X17652   3.544   5.422   4.192  0.1384  2.3475 -0.6866
  158SAPE  H18Y17653   3.641   5.315   4.079  1.2969  0.4735 -0.7294
  158SAPE  H18Z17654   3.684   5.486   4.100 -0.6017  1.0370  0.1581
  159SAPE     N17655   5.378   2.759   1.749 -0.0612  0.2701  0.2690
  159SAPE   HN117656   5.362   2.679   1.813  0.7786  1.5248  2.1492
  159SAPE   HN217657   5.315   2.833   1.786 -1.4457 -0.4534 -0.5547
  159SAPE   HN317658   5.347   2.741   1.651  1.0391 -0.7576  0.0922
  159SAPE   C1217659   5.519   2.793   1.750  0.1119  0.0190  1.1328
  159SAPE  H12A17660   5.532   2.887   1.693 -0.8470 -0.7598 -0.4210
  159SAPE  H12B17661   5.571   2.710   1.698  0.0263  0.0929  0.9284
  159SAPE   C1117662   5.554   2.812   1.891 -0.6612 -1.4671 -0.4043
  159SAPE  H11A17663   5.516   2.911   1.925  0.5001 -0.9689 -0.5264
  159SAPE  H11B17664   5.665   2.816   1.892 -0.6114 -2.6452  0.4570
  159SAPE     P17665   5.402   2.719   2.085 -0.1938  0.0527  0.4285
  159SAPE   O1317666   5.291   2.781   2.008 -0.0778  0.2433 -0.1404
  159SAPE   O1417667   5.371   2.591   2.153  0.3203 -0.3441  0.2515
  159SAPE   O1217668   5.517   2.708   1.977 -0.3344  0.0658  0.3536
  159SAPE   O1117669   5.450   2.824   2.188 -0.1778 -0.1672 -0.2371
  159SAPE    C117670   5.585   2.824   2.236 -0.0783  0.4405  0.9331
  159SAPE    HA17671   5.647   2.749   2.183 -2.7736 -1.5890  0.4691
  159SAPE    HB17672   5.629   2.924   2.211  1.0186 -0.9051 -3.3784
  159SAPE    C217673   5.588   2.806   2.392 -0.3602  0.6926 -0.2763
  159SAPE    HS17674   5.586   2.695   2.405 -0.3933  0.5695 -1.2670
  159SAPE   O2117675   5.477   2.873   2.463  0.0265  0.1031 -0.2955
  159SAPE   C2117676   5.446   2.805   2.571  0.3335  0.6728  0.0015
  159SAPE   O2217677   5.440   2.685   2.577  0.0913  0.4440  0.1689
  159SAPE   C2217678   5.387   2.887   2.687 -0.0933 -1.0850  1.1433
  159SAPE   H2R17679   5.462   2.958   2.728 -1.8933  0.1820  2.3999
  159SAPE   H2S17680   5.298   2.939   2.645  1.4171  0.3599 -0.4638
  159SAPE    C317681   5.718   2.846   2.457 -0.3726 -0.0416  0.3218
  159SAPE    HX17682   5.727   2.954   2.433  1.3681 -0.2957 -0.2664
  159SAPE    HY17683   5.802   2.800   2.401 -1.1433  0.1591 -1.0576
  159SAPE   O3117684   5.722   2.826   2.597 -0.0955 -0.0681  0.0270
  159SAPE   C3117685   5.766   2.708   2.632  0.5898  0.6279 -0.1890
  159SAPE   O3217686   5.806   2.622   2.556  0.1084  0.3174 -0.2970
  159SAPE   C3217687   5.763   2.693   2.780  0.4076 -0.0168  0.0392
  159SAPE   H2X17688   5.813   2.596   2.799  0.2029 -0.4577 -1.5666
  159SAPE   H2Y17689   5.655   2.694   2.807 -0.2246  0.5782 -2.3451
  159SAPE   C2317690   5.340   2.816   2.811  0.0105  0.6290 -0.9118
  159SAPE   H3R17691   5.424   2.757   2.854 -0.1247 -0.1665 -1.6892
  159SAPE   H3S17692   5.265   2.742   2.774 -0.0374  0.1675  0.0882
  159SAPE   C2417693   5.272   2.904   2.918 -0.6213  0.2481  0.1427
  159SAPE   H4R17694   5.248   2.829   2.996  0.6626 -0.2241  0.1038
  159SAPE   H4S17695   5.173   2.946   2.893 -1.3157  0.2684  2.6323
  159SAPE   C2517696   5.366   3.013   2.972  0.3809  0.4626 -0.6281
  159SAPE   H5R17697   5.351   3.117   2.937 -1.0374  0.3847 -0.3041
  159SAPE   C2617698   5.450   2.983   3.074 -0.1679  0.4648 -0.0705
  159SAPE   H6R17699   5.477   3.070   3.136 -0.4073 -0.2342  1.0557
  159SAPE   C2717700   5.472   2.853   3.152  0.6003  0.1297 -0.2435
  159SAPE   H7R17701   5.471   2.760   3.091  0.8399  1.1053 -1.7987
  159SAPE   H7S17702   5.378   2.839   3.209  1.4377 -1.9354  0.7190
  159SAPE   C2817703   5.592   2.849   3.244 -0.1418  0.2822  0.1191
  159SAPE   H8R17704   5.674   2.781   3.217  1.1138  1.1012  1.7235
  159SAPE   C2917705   5.616   2.913   3.363  0.5415  0.3083  0.9548
  159SAPE   H9R17706   5.698   2.878   3.427  0.9010  0.7765  0.7490
  159SAPE  C21017707   5.512   2.982   3.440 -0.3993  0.4807  0.2008
  159SAPE  H10R17708   5.429   3.022   3.378  0.5419 -0.4426 -1.7349
  159SAPE  H10S17709   5.557   3.066   3.497 -0.8400 -0.6784  2.3744
  159SAPE  C21117710   5.456   2.880   3.545 -0.6165  0.4745 -0.4013
  159SAPE  H11R17711   5.422   2.780   3.514 -1.0292 -0.7982  3.6489
  159SAPE  C21217712   5.478   2.884   3.681 -0.0691  0.2482  0.3784
  159SAPE  H12R17713   5.433   2.800   3.736 -1.9268  1.9709  1.6328
  159SAPE  C21317714   5.544   2.994   3.761 -0.8122  0.1971 -0.2046
  159SAPE  H13R17715   5.634   3.030   3.706 -1.4145  0.5668 -0.9779
  159SAPE  H13S17716   5.591   2.962   3.856  0.6944  1.4522 -0.4919
  159SAPE  C21417717   5.446   3.106   3.779 -0.1334 -0.2076  0.2976
  159SAPE  H14R17718   5.432   3.170   3.690 -0.1034  0.5919  0.8519
  159SAPE  C21517719   5.401   3.151   3.898  0.2300 -0.0120  0.4363
  159SAPE  H15R17720   5.334   3.236   3.879 -2.3248 -2.3058 -1.6410
  159SAPE  C21617721   5.424   3.094   4.037  0.5824 -0.7629  0.4392
  159SAPE  H16R17722   5.498   3.011   4.035  0.9768 -0.4512  1.4892
  159SAPE  H16S17723   5.328   3.052   4.073 -0.5924  0.0701 -1.5631
  159SAPE  C21717724   5.456   3.213   4.134  0.4172  0.0840  0.3971
  159SAPE  H17R17725   5.364   3.275   4.145 -0.4329 -1.5939  6.0239
  159SAPE  H17S17726   5.545   3.266   4.094 -0.1410 -0.4525 -1.6178
  159SAPE  C21817727   5.500   3.150   4.261  0.3702 -0.3467 -0.7180
  159SAPE  H18R17728   5.611   3.159   4.271  0.2597  1.0436 -0.5153
  159SAPE  H18S17729   5.482   3.041   4.273  2.4375 -0.7202 -0.5739
  159SAPE  C21917730   5.439   3.222   4.386 -1.0176  0.3902 -0.0352
  159SAPE  H19R17731   5.331   3.194   4.387 -0.7002 -0.9140  0.1312
  159SAPE  H19S17732   5.454   3.332   4.382 -2.1828  0.7558  2.9187
  159SAPE  C22017733   5.517   3.179   4.513  0.3893 -0.2814  0.4286
  159SAPE  H20R17734   5.506   3.256   4.592 -0.9854 -2.2656  2.2608
  159SAPE  H20S17735   5.618   3.142   4.486 -0.2133 -1.4732 -0.2873
  159SAPE  H20T17736   5.464   3.091   4.554 -0.4307  0.3236  0.7140
  159SAPE   C3317737   5.853   2.802   2.851  0.4577 -0.4312 -0.0461
  159SAPE   H3X17738   5.938   2.821   2.782  0.7452 -0.0957  0.3932
  159SAPE   H3Y17739   5.905   2.754   2.937  1.8688 -0.5652 -0.9350
  159SAPE   C3417740   5.772   2.924   2.901  0.3969  0.0489 -0.8138
  159SAPE   H4X17741   5.717   2.899   2.994  0.5722  1.4827 -0.2958
  159SAPE   H4Y17742   5.710   2.969   2.820 -1.5720 -1.9627 -0.5152
  159SAPE   C3517743   5.871   3.032   2.946  0.4141 -0.2637 -0.2263
  159SAPE   H5X17744   5.929   3.070   2.859  1.7113  0.9808  1.1250
  159SAPE   H5Y17745   5.944   2.984   3.013 -0.4620 -2.0960 -0.5347
  159SAPE   C3617746   5.806   3.150   3.020  0.3303  0.8692 -0.1320
  159SAPE   H6X17747   5.762   3.110   3.114 -0.1563 -0.6961 -0.9861
  159SAPE   H6Y17748   5.732   3.193   2.951  0.2874  0.3668 -0.4051
  159SAPE   C3717749   5.909   3.258   3.064  0.6852  0.1373  0.1822
  159SAPE   H7X17750   5.867   3.361   3.063  0.7938  0.1829  0.3272
  159SAPE   H7Y17751   5.997   3.259   2.996  0.1055 -0.6829 -0.6086
  159SAPE   C3817752   5.951   3.239   3.207  0.6003 -0.5641 -0.2799
  159SAPE   H8X17753   6.030   3.161   3.219  1.5643  0.3637 -0.4390
  159SAPE   H8Y17754   5.863   3.210   3.269 -1.5251  2.0347 -1.8527
  159SAPE   C3917755   5.988   3.375   3.268 -0.0197 -0.0727 -0.1171
  159SAPE   H9X17756   5.991   3.357   3.378 -1.4114 -0.1744 -0.0664
  159SAPE   H9Y17757   5.905   3.448   3.253  0.0915 -0.3546 -2.5141
  159SAPE  C31017758   6.122   3.433   3.226 -0.5067  0.4944 -0.2596
  159SAPE  H10X17759   6.112   3.462   3.119  1.6649 -0.0945 -0.6843
  159SAPE  H10Y17760   6.196   3.351   3.240  0.9183  1.0858 -3.3414
  159SAPE  C31117761   6.165   3.557   3.317  0.0656  0.2779  0.5904
  159SAPE  H11X17762   6.080   3.622   3.346  0.0188  0.4091  0.1633
  159SAPE  H11Y17763   6.244   3.612   3.261 -0.6698  2.2545  1.4296
  159SAPE  C31217764   6.241   3.516   3.448  0.4643  0.4159 -0.4688
  159SAPE  H12X17765   6.335   3.463   3.421 -0.4844 -1.2611 -0.6326
  159SAPE  H12Y17766   6.176   3.451   3.510  1.1305 -1.7741 -1.9261
  159SAPE  C31317767   6.273   3.645   3.526 -0.2862  0.0876  0.4616
  159SAPE  H13X17768   6.183   3.706   3.548  0.0311  1.4369 -1.7046
  159SAPE  H13Y17769   6.341   3.702   3.460 -0.1324 -1.8250 -1.1099
  159SAPE  C31417770   6.339   3.599   3.659  0.4149 -0.0522  0.5565
  159SAPE  H14X17771   6.431   3.544   3.630  0.5815  1.1957 -1.4691
  159SAPE  H14Y17772   6.259   3.541   3.710 -0.4047 -0.0602 -0.6931
  159SAPE  C31517773   6.390   3.715   3.747  0.2629  0.0209 -0.1161
  159SAPE  H15X17774   6.302   3.782   3.762 -0.7172 -1.1085 -0.5983
  159SAPE  H15Y17775   6.467   3.771   3.690  0.2441 -1.2820 -1.4841
  159SAPE  C31617776   6.458   3.665   3.875  0.3340  0.3224  0.1449
  159SAPE  H16X17777   6.543   3.596   3.855  0.0784 -0.0303  0.2478
  159SAPE  H16Y17778   6.378   3.625   3.941 -0.4567  0.5051 -0.6900
  159SAPE  C31717779   6.518   3.781   3.956 -0.4030  0.0463 -0.3177
  159SAPE  H17X17780   6.572   3.854   3.892  2.8362 -0.7772  1.2415
  159SAPE  H17Y17781   6.599   3.739   4.020  0.8846  1.9192 -0.6420
  159SAPE  C31817782   6.421   3.854   4.051 -0.3115  0.6239  0.8889
  159SAPE  H18X17783   6.335   3.893   3.993  1.0453  0.9963 -0.9756
  159SAPE  H18Y17784   6.458   3.946   4.101  0.4532  0.7968  0.0259
  159SAPE  H18Z17785   6.386   3.779   4.126  0.6462 -1.1863 -0.3913
  160SAPE     N17786   5.154   2.578   2.309 -0.1420  0.1108 -0.1760
  160SAPE   HN117787   5.072   2.515   2.298  0.3415 -0.2513 -2.1186
  160SAPE   HN217788   5.132   2.679   2.312  0.1368  0.1625  0.2918
  160SAPE   HN317789   5.222   2.573   2.230 -0.4357  0.6776 -0.4668
  160SAPE   C1217790   5.239   2.534   2.432  0.4202  0.2371  0.0811
  160SAPE  H12A17791   5.230   2.613   2.510  2.5608 -0.5169  1.1487
  160SAPE  H12B17792   5.345   2.524   2.403  0.0128 -1.3114 -0.9991
  160SAPE   C1117793   5.202   2.393   2.469 -0.5757  0.1644 -0.2721
  160SAPE  H11A17794   5.116   2.388   2.540 -0.5537  2.1303 -0.0534
  160SAPE  H11B17795   5.282   2.350   2.533 -0.8793 -0.6845 -0.4491
  160SAPE     P17796   5.271   2.184   2.310  0.2750 -0.5415  0.1631
  160SAPE   O1317797   5.200   2.120   2.198  0.4121  0.2887  0.4674
  160SAPE   O1417798   5.410   2.229   2.286  0.3114 -0.3211  0.4474
  160SAPE   O1217799   5.186   2.310   2.353  0.6912 -0.5713  0.0593
  160SAPE   O1117800   5.265   2.095   2.450 -0.4061 -0.0561  0.1317
  160SAPE    C117801   5.130   2.053   2.485 -0.2600 -0.2001  0.8013
  160SAPE    HA17802   5.053   2.132   2.478 -0.5149 -0.1672  3.1103
  160SAPE    HB17803   5.098   1.973   2.414  0.6692  0.7879 -0.8051
  160SAPE    C217804   5.128   1.998   2.621 -0.3114  0.6135  0.3592
  160SAPE    HS17805   5.161   2.086   2.680 -1.0408  0.5956  0.8057
  160SAPE   O2117806   5.221   1.883   2.627  0.0922  0.2244 -0.1866
  160SAPE   C2117807   5.311   1.893   2.724  0.2231  0.1768  0.1315
  160SAPE   O2217808   5.315   1.975   2.809 -0.0159  0.2968 -0.1661
  160SAPE   C2217809   5.384   1.759   2.733 -0.1016 -0.1664 -0.4088
  160SAPE   H2R17810   5.331   1.682   2.792 -0.5065 -0.0697 -0.6417
  160SAPE   H2S17811   5.395   1.725   2.628  0.5976  0.4845 -0.5545
  160SAPE    C317812   4.993   1.961   2.681  0.0052  0.4121  0.0560
  160SAPE    HX17813   4.965   1.860   2.644 -2.4571  0.3904  1.7642
  160SAPE    HY17814   4.911   2.025   2.641 -0.7298 -0.4492  0.1352
  160SAPE   O3117815   5.007   1.971   2.825 -0.5452  0.5179 -0.4720
  160SAPE   C3117816   4.989   1.865   2.897 -0.5759  0.7112  0.4573
  160SAPE   O3217817   4.955   1.753   2.854  0.0498  0.0422 -0.1183
  160SAPE   C3217818   4.994   1.901   3.046 -0.0889  0.3783 -0.0288
  160SAPE   H2X17819   4.941   1.999   3.048 -4.1770 -1.6022  1.2818
  160SAPE   H2Y17820   5.094   1.911   3.093  0.6882 -0.6984 -1.4061
  160SAPE   C2317821   5.530   1.778   2.785 -0.0900 -0.0999 -0.6621
  160SAPE   H3R17822   5.559   1.881   2.753 -2.8168  0.2734 -2.2450
  160SAPE   H3S17823   5.603   1.713   2.732  0.0468 -0.6685  0.2121
  160SAPE   C2417824   5.558   1.760   2.939 -0.3222  0.1639  0.5713
  160SAPE   H4R17825   5.507   1.837   3.000 -3.1104 -0.2859 -1.0141
  160SAPE   H4S17826   5.666   1.767   2.962 -0.0744 -0.2388 -0.3991
  160SAPE   C2517827   5.511   1.622   2.969 -0.1256  0.5029 -0.0363
  160SAPE   H5R17828   5.566   1.542   2.917  2.7822  2.7614 -0.6627
  160SAPE   C2617829   5.426   1.581   3.066  0.1156  0.2375  0.2425
  160SAPE   H6R17830   5.387   1.478   3.066 -0.4284  0.4416 -0.2721
  160SAPE   C2717831   5.345   1.671   3.155  0.0356 -0.5943 -0.2723
  160SAPE   H7R17832   5.262   1.613   3.203  0.3035 -0.7386  0.0196
  160SAPE   H7S17833   5.291   1.740   3.086 -1.0446 -0.2183  0.8994
  160SAPE   C2817834   5.431   1.756   3.256 -0.0464  0.5273  0.5625
  160SAPE   H8R17835   5.499   1.832   3.216 -0.5278  0.2044 -0.9407
  160SAPE   C2917836   5.427   1.728   3.390 -0.3316  0.1078  0.4618
  160SAPE   H9R17837   5.488   1.792   3.455 -2.1361 -0.0319  2.3701
  160SAPE  C21017838   5.335   1.633   3.464  0.1229 -0.3242  0.3977
  160SAPE  H10R17839   5.381   1.589   3.555  0.8842  0.3335  0.3439
  160SAPE  H10S17840   5.313   1.541   3.406  1.0019  0.1261 -0.6958
  160SAPE  C21117841   5.213   1.716   3.506  0.1099  0.1835  0.5078
  160SAPE  H11R17842   5.161   1.751   3.416  1.4685 -1.8409 -1.1788
  160SAPE  C21217843   5.152   1.721   3.623  0.0333 -0.0642 -0.8139
  160SAPE  H12R17844   5.060   1.779   3.638  0.2394 -0.0025  0.3322
  160SAPE  C21317845   5.211   1.663   3.752  0.4392 -0.4773  0.2997
  160SAPE  H13R17846   5.253   1.748   3.809  0.1220  1.0448 -1.6299
  160SAPE  H13S17847   5.287   1.583   3.744 -0.0102 -0.8988  0.1791
  160SAPE  C21417848   5.097   1.611   3.836  0.3816  0.4353  0.4035
  160SAPE  H14R17849   5.081   1.504   3.814 -0.5556  0.7120 -0.3168
  160SAPE  C21517850   5.013   1.667   3.920 -0.5576 -0.6169 -0.1980
  160SAPE  H15R17851   4.942   1.604   3.975  0.6505 -0.7448  1.2686
  160SAPE  C21617852   5.003   1.810   3.950  0.0680  0.4043 -0.6865
  160SAPE  H16R17853   4.908   1.850   3.910 -0.9701 -1.7690 -0.5185
  160SAPE  H16S17854   5.093   1.868   3.917 -0.0464  0.3164 -1.1507
  160SAPE  C21717855   5.020   1.833   4.101  0.6486 -0.5099 -0.2719
  160SAPE  H17R17856   5.054   1.938   4.107 -1.9501  0.6024 -2.4317
  160SAPE  H17S17857   5.099   1.771   4.148  1.2340 -0.5766 -1.3226
  160SAPE  C21817858   4.887   1.809   4.172 -0.0069 -0.3790 -0.6317
  160SAPE  H18R17859   4.796   1.816   4.108  0.1955 -1.9789 -1.1319
  160SAPE  H18S17860   4.866   1.887   4.248  3.8986  2.3782 -2.0480
  160SAPE  C21917861   4.897   1.684   4.264 -0.3234 -0.1431  0.2062
  160SAPE  H19R17862   4.988   1.698   4.328  0.1639  2.3030 -0.9366
  160SAPE  H19S17863   4.922   1.597   4.199 -0.3551  0.3013 -0.3986
  160SAPE  C22017864   4.773   1.667   4.347  0.6733 -0.5986 -0.3254
  160SAPE  H20R17865   4.760   1.755   4.414 -0.7297 -2.6052  2.2645
  160SAPE  H20S17866   4.779   1.578   4.413  0.5170 -0.0495  0.4474
  160SAPE  H20T17867   4.678   1.652   4.291 -0.4857  2.2241  0.6851
  160SAPE   C3317868   4.912   1.803   3.132 -0.3002  0.7172  0.0307
  160SAPE   H3X17869   4.966   1.707   3.148 -0.7412  0.7481  1.9176
  160SAPE   H3Y17870   4.819   1.780   3.076  0.7435 -0.2891 -1.3506
  160SAPE   C3417871   4.889   1.874   3.268  0.2204 -0.5626 -0.3563
  160SAPE   H4X17872   4.826   1.965   3.258  1.1831  0.7520  3.5681
  160SAPE   H4Y17873   4.988   1.895   3.313  0.7318  1.6149 -2.2914
  160SAPE   C3517874   4.823   1.784   3.377  0.4687  0.3991  0.3851
  160SAPE   H5X17875   4.891   1.699   3.398  0.7510  0.4688 -0.2383
  160SAPE   H5Y17876   4.727   1.745   3.339 -0.1637  0.4235  1.8666
  160SAPE   C3617877   4.790   1.858   3.508 -0.5915 -0.6193 -0.1172
  160SAPE   H6X17878   4.748   1.959   3.486 -0.5578 -0.8453 -1.3032
  160SAPE   H6Y17879   4.878   1.896   3.564 -1.7902  2.3123 -0.0405
  160SAPE   C3717880   4.689   1.789   3.602 -0.6321  0.2264  0.5969
  160SAPE   H7X17881   4.743   1.709   3.656 -0.3457  1.2112  1.8044
  160SAPE   H7Y17882   4.616   1.726   3.546  1.1762 -2.9027  1.5503
  160SAPE   C3817883   4.622   1.879   3.707 -1.2827  0.2597  0.0542
  160SAPE   H8X17884   4.578   1.967   3.657 -0.0830 -0.8778 -3.2865
  160SAPE   H8Y17885   4.704   1.925   3.765 -1.1617  1.1507 -0.7980
  160SAPE   C3917886   4.528   1.798   3.797 -0.5448  0.1875  0.9088
  160SAPE   H9X17887   4.564   1.695   3.777 -0.7910  0.6321 -2.2509
  160SAPE   H9Y17888   4.423   1.809   3.761 -0.5698 -0.1158  0.8903
  160SAPE  C31017889   4.530   1.845   3.942  0.5470 -0.4551 -0.5200
  160SAPE  H10X17890   4.483   1.946   3.947  1.2770 -0.0896 -0.8392
  160SAPE  H10Y17891   4.632   1.851   3.987  0.2086 -0.3899  0.2386
  160SAPE  C31117892   4.442   1.761   4.032 -0.1087  0.9295  0.4534
  160SAPE  H11X17893   4.461   1.653   4.017 -1.2404  0.7232  0.4411
  160SAPE  H11Y17894   4.339   1.782   3.996 -0.0277  0.6088  0.0359
  160SAPE  C31217895   4.447   1.809   4.175  0.3258 -0.0852 -0.0085
  160SAPE  H12X17896   4.428   1.918   4.180  2.2046  0.3270 -0.9129
  160SAPE  H12Y17897   4.552   1.791   4.205 -0.4115 -1.9858  1.7094
  160SAPE  C31317898   4.354   1.742   4.274  0.2571 -0.5433 -0.8191
  160SAPE  H13X17899   4.244   1.755   4.274  0.3362  0.2176 -1.6094
  160SAPE  H13Y17900   4.384   1.776   4.376 -0.1264 -1.7631 -0.2769
  160SAPE  C31417901   4.376   1.588   4.271 -0.3120  0.5785 -0.3135
  160SAPE  H14X17902   4.483   1.570   4.248 -0.8615 -2.1753 -1.0181
  160SAPE  H14Y17903   4.312   1.546   4.191  0.0671  0.4040 -0.5273
  160SAPE  C31517904   4.350   1.504   4.401  0.0370  0.0388  0.4166
  160SAPE  H15X17905   4.240   1.497   4.412  0.1051  1.8522  3.6275
  160SAPE  H15Y17906   4.396   1.547   4.492  0.0245 -3.2179  2.1276
  160SAPE  C31617907   4.407   1.369   4.385  0.4719 -0.0501 -0.5335
  160SAPE  H16X17908   4.517   1.373   4.371  0.6604 -0.8385  0.5726
  160SAPE  H16Y17909   4.368   1.329   4.289  0.9459  3.0259 -2.1355
  160SAPE  C31717910   4.376   1.267   4.496 -0.5447 -0.1679 -0.2225
  160SAPE  H17X17911   4.402   1.307   4.597 -3.1107  0.5860  0.2257
  160SAPE  H17Y17912   4.434   1.173   4.484 -1.7288 -0.9763  0.1866
  160SAPE  C31817913   4.226   1.231   4.490  0.2476 -0.0240 -0.2751
  160SAPE  H18X17914   4.205   1.165   4.403 -2.1109  0.8260 -0.4075
  160SAPE  H18Y17915   4.172   1.327   4.477  0.8483  0.2402 -0.9302
  160SAPE  H18Z17916   4.207   1.172   4.582  1.8367  2.3315  1.7016
  161SAPE     N17917   2.422   4.524   2.020  0.4799  0.3822  0.0575
  161SAPE   HN117918   2.334   4.520   1.965  0.1252  0.6142  0.6038
  161SAPE   HN217919   2.440   4.430   2.062 -1.1138 -0.6647 -1.4938
  161SAPE   HN317920   2.408   4.591   2.099 -1.2352 -0.3999  0.4505
  161SAPE   C1217921   2.534   4.567   1.934  0.3244  0.0563  1.3622
  161SAPE  H12A17922   2.629   4.562   1.991  1.7760 -0.7722 -0.9758
  161SAPE  H12B17923   2.519   4.665   1.885  0.6468 -0.2577  0.6223
  161SAPE   C1117924   2.552   4.465   1.817  0.6899  0.7964 -1.3232
  161SAPE  H11A17925   2.651   4.499   1.781  1.9007  1.5209  2.3102
  161SAPE  H11B17926   2.474   4.477   1.739  0.8402  1.8517 -1.3260
  161SAPE     P17927   2.669   4.261   1.937  0.2422 -0.3516 -0.0167
  161SAPE   O1317928   2.623   4.134   2.000  0.3065  0.1123  0.1283
  161SAPE   O1417929   2.786   4.253   1.848 -0.5704 -0.4163  0.5725
  161SAPE   O1217930   2.550   4.332   1.861  0.2255  0.0997  0.4470
  161SAPE   O1117931   2.695   4.361   2.066 -0.1383  0.3475  0.5904
  161SAPE    C117932   2.823   4.375   2.120 -0.2741 -0.6393 -0.6759
  161SAPE    HA17933   2.905   4.313   2.078  0.0007 -2.1177  1.8742
  161SAPE    HB17934   2.844   4.479   2.087  1.2424 -1.1783 -1.5295
  161SAPE    C217935   2.823   4.364   2.279  0.2984  0.3381 -0.1028
  161SAPE    HS17936   2.929   4.361   2.311  0.7016  1.2294 -1.2674
  161SAPE   O2117937   2.755   4.242   2.320 -0.4075  0.2005 -0.2087
  161SAPE   C2117938   2.823   4.133   2.293  0.5291 -0.4765 -0.0879
  161SAPE   O2217939   2.923   4.122   2.219  0.0298 -0.3875  0.0038
  161SAPE   C2217940   2.756   4.015   2.360  1.0979  0.6507 -0.5758
  161SAPE   H2R17941   2.681   3.969   2.293  1.1873 -2.9616  1.5487
  161SAPE   H2S17942   2.826   3.930   2.377  3.3895  2.6355  0.5081
  161SAPE    C317943   2.757   4.487   2.347 -0.7093  0.2162  1.1634
  161SAPE    HX17944   2.658   4.506   2.300 -0.2590 -0.6646 -0.2058
  161SAPE    HY17945   2.814   4.579   2.320 -1.2183  0.2874  0.2887
  161SAPE   O3117946   2.767   4.473   2.483 -0.0539 -0.2765 -0.0707
  161SAPE   C3117947   2.658   4.445   2.545  0.2904  0.4171 -0.8909
  161SAPE   O3217948   2.551   4.420   2.499  0.3345  0.1866  0.2806
  161SAPE   C3217949   2.684   4.452   2.696 -0.0345  1.4295 -0.5529
  161SAPE   H2X17950   2.697   4.555   2.736 -0.2140  0.3496  2.5974
  161SAPE   H2Y17951   2.778   4.396   2.715 -1.4745 -0.4039  1.8855
  161SAPE   C2317952   2.674   4.046   2.490  0.2577  0.4078 -0.2557
  161SAPE   H3R17953   2.611   3.955   2.503  0.5106 -0.1069 -2.2636
  161SAPE   H3S17954   2.598   4.126   2.475 -0.7246 -0.4476 -0.0154
  161SAPE   C2417955   2.771   4.075   2.605 -0.4189 -0.0291  0.2093
  161SAPE   H4R17956   2.710   4.110   2.692 -2.3466 -1.4031 -0.5196
  161SAPE   H4S17957   2.828   4.168   2.582 -1.0420  0.3526  0.1788
  161SAPE   C2517958   2.873   3.970   2.649 -0.2076  0.0274  0.5923
  161SAPE   H5R17959   2.960   3.961   2.581 -0.8398  2.3612 -0.6278
  161SAPE   C2617960   2.859   3.896   2.758  0.7438  0.3536  0.4664
  161SAPE   H6R17961   2.932   3.816   2.777 -0.0609 -0.4674  0.1518
  161SAPE   C2717962   2.743   3.897   2.851  0.1357  0.1508  0.4066
  161SAPE   H7R17963   2.651   3.932   2.798 -0.5025 -2.3410 -0.3107
  161SAPE   H7S17964   2.763   3.971   2.931 -0.9678 -1.0366  1.8272
  161SAPE   C2817965   2.714   3.766   2.910 -0.2366  0.3377  0.4083
  161SAPE   H8R17966   2.733   3.677   2.848  1.3000  1.0378 -0.1632
  161SAPE   C2917967   2.667   3.740   3.033  0.9317 -0.1007  0.2214
  161SAPE   H9R17968   2.647   3.634   3.054 -1.1718  0.3893  0.9230
  161SAPE  C21017969   2.635   3.839   3.147  0.3090  1.0890 -0.0073
  161SAPE  H10R17970   2.660   3.946   3.135  3.4240  0.4845  0.2978
  161SAPE  H10S17971   2.696   3.804   3.233 -1.2690 -2.9697 -0.3214
  161SAPE  C21117972   2.487   3.834   3.175  0.5497 -0.0920  0.4742
  161SAPE  H11R17973   2.429   3.877   3.092  0.1676 -0.9407  0.3003
  161SAPE  C21217974   2.427   3.787   3.279  0.1912 -0.7958 -0.3537
  161SAPE  H12R17975   2.317   3.792   3.279  0.2157  0.7420  1.4293
  161SAPE  C21317976   2.493   3.723   3.396  0.1599 -0.3793  0.2096
  161SAPE  H13R17977   2.517   3.800   3.474  0.7295  2.2831 -2.4090
  161SAPE  H13S17978   2.592   3.678   3.375 -0.0210 -0.9747  0.6289
  161SAPE  C21417979   2.399   3.624   3.454  0.1534  0.6220 -0.1139
  161SAPE  H14R17980   2.305   3.605   3.400  0.7822 -1.6446 -0.5086
  161SAPE  C21517981   2.425   3.554   3.564  1.1021 -0.0326 -0.6733
  161SAPE  H15R17982   2.364   3.465   3.587  2.1189 -0.6840 -0.4575
  161SAPE  C21617983   2.550   3.577   3.644  0.5061 -0.0958 -0.5871
  161SAPE  H16R17984   2.637   3.621   3.591  2.5084  0.0702  2.5207
  161SAPE  H16S17985   2.587   3.479   3.682 -1.1540 -1.0674 -1.3691
  161SAPE  C21717986   2.534   3.663   3.766 -0.3097 -0.2984  0.1007
  161SAPE  H17R17987   2.504   3.766   3.737  0.7486 -0.2305 -0.8084
  161SAPE  H17S17988   2.635   3.683   3.807 -0.8522 -0.4796  1.5836
  161SAPE  C21817989   2.452   3.606   3.873 -0.2330 -0.2998  0.1349
  161SAPE  H18R17990   2.497   3.511   3.909 -0.7339 -0.0011  1.5924
  161SAPE  H18S17991   2.348   3.599   3.835 -1.0988  3.4456  1.3753
  161SAPE  C21917992   2.438   3.700   3.991 -0.0797 -0.0060  0.2020
  161SAPE  H19R17993   2.375   3.784   3.953  0.4367  0.2352 -0.1345
  161SAPE  H19S17994   2.540   3.733   4.018 -0.5682  0.8351  1.1019
  161SAPE  C22017995   2.379   3.638   4.117 -0.5567 -0.6117 -0.3074
  161SAPE  H20R17996   2.278   3.595   4.099 -0.2740 -0.8531 -1.3376
  161SAPE  H20S17997   2.371   3.718   4.194 -0.5510 -0.8409 -0.0689
  161SAPE  H20T17998   2.437   3.553   4.159  0.7235  0.3290 -0.1180
  161SAPE   C3317999   2.575   4.388   2.782  0.1117  0.9050  0.3481
  161SAPE   H3X18000   2.579   4.278   2.765  0.4760  0.9364  0.2396
  161SAPE   H3Y18001   2.469   4.418   2.763 -0.1855 -1.0676 -1.5725
  161SAPE   C3418002   2.597   4.400   2.935  0.0143 -0.5485 -0.0446
  161SAPE   H4X18003   2.578   4.505   2.968 -1.0001 -0.9003  0.5354
  161SAPE   H4Y18004   2.705   4.383   2.952  0.8092  4.3661  1.3122
  161SAPE   C3518005   2.506   4.316   3.016  0.0937 -0.1160  0.1409
  161SAPE   H5X18006   2.489   4.214   2.976  0.8007  0.3859 -1.5386
  161SAPE   H5Y18007   2.405   4.361   3.023 -0.2927 -1.2282  2.8902
  161SAPE   C3618008   2.554   4.309   3.156 -0.5527 -0.1040  0.9368
  161SAPE   H6X18009   2.537   4.412   3.194 -0.3720  1.4167 -2.6972
  161SAPE   H6Y18010   2.661   4.284   3.173  0.0143  1.6291  0.1654
  161SAPE   C3718011   2.470   4.205   3.233 -0.4672 -0.0151  0.8014
  161SAPE   H7X18012   2.511   4.105   3.208  1.6029  1.2779 -1.5155
  161SAPE   H7Y18013   2.362   4.217   3.213 -0.2922  1.1207  0.4276
  161SAPE   C3818014   2.474   4.216   3.384  0.2773  0.1342 -0.4249
  161SAPE   H8X18015   2.393   4.284   3.417 -0.1714 -0.8119  0.5027
  161SAPE   H8Y18016   2.569   4.251   3.430 -0.7170  1.4534  0.7173
  161SAPE   C3918017   2.432   4.088   3.463  0.0223  0.8149 -0.1243
  161SAPE   H9X18018   2.513   4.014   3.448  0.9188  1.8265 -0.4396
  161SAPE   H9Y18019   2.341   4.055   3.410 -0.1680  3.1567 -1.3999
  161SAPE  C31018020   2.397   4.106   3.613 -0.6749 -0.3072 -0.2372
  161SAPE  H10X18021   2.358   4.008   3.646 -1.7219  0.4925  0.9950
  161SAPE  H10Y18022   2.317   4.181   3.629 -0.4858  0.4009 -2.3501
  161SAPE  C31118023   2.527   4.129   3.700 -0.0227 -0.1179 -0.7820
  161SAPE  H11X18024   2.561   4.235   3.700  1.2124 -0.4908 -0.0579
  161SAPE  H11Y18025   2.612   4.068   3.663 -0.1286 -1.7662  1.5150
  161SAPE  C31218026   2.519   4.095   3.849 -0.2365  0.0016 -0.3899
  161SAPE  H12X18027   2.489   3.988   3.852  0.2676 -0.2009 -1.6134
  161SAPE  H12Y18028   2.437   4.154   3.896  1.6346  1.9809  0.5647
  161SAPE  C31318029   2.654   4.117   3.915 -0.5337 -0.3354  0.1977
  161SAPE  H13X18030   2.636   4.137   4.023 -0.0388  0.0374  0.2131
  161SAPE  H13Y18031   2.701   4.210   3.878 -2.5158  0.6129 -0.0811
  161SAPE  C31418032   2.756   4.007   3.888  0.1319  0.0996 -0.7574
  161SAPE  H14X18033   2.751   3.976   3.781  0.9379  0.2919 -0.8565
  161SAPE  H14Y18034   2.737   3.924   3.960  0.3760  1.5751  1.0739
  161SAPE  C31518035   2.903   4.039   3.916  0.0389 -0.5662  0.2187
  161SAPE  H15X18036   2.936   4.131   3.862 -2.9871 -0.3443 -1.4522
  161SAPE  H15Y18037   2.976   3.971   3.867  2.1384  0.9025  1.1461
  161SAPE  C31618038   2.936   4.043   4.062  0.2495  0.9688  0.4473
  161SAPE  H16X18039   2.887   3.963   4.121 -1.5808  1.4577 -0.3318
  161SAPE  H16Y18040   2.913   4.139   4.112 -1.5008  0.2210  1.1308
  161SAPE  C31718041   3.086   4.014   4.088  0.3798  0.3891  0.3149
  161SAPE  H17X18042   3.139   4.085   4.021 -1.2414  1.3702  0.0059
  161SAPE  H17Y18043   3.105   3.906   4.072 -0.3236  0.2024  0.7098
  161SAPE  C31818044   3.122   4.042   4.233 -0.3089  0.2319  0.1144
  161SAPE  H18X18045   3.095   4.143   4.270 -0.1006 -0.0153  0.9558
  161SAPE  H18Y18046   3.233   4.042   4.238 -0.1797 -2.0754 -1.3325
  161SAPE  H18Z18047   3.081   3.971   4.307  0.9268 -0.0993  0.5061
  162SAPE     N18048   3.008   0.549   2.105  0.4903 -0.7335 -0.5946
  162SAPE   HN118049   2.987   0.648   2.080 -2.0414 -0.5094  1.8411
  162SAPE   HN218050   3.104   0.524   2.074  1.0525  0.2370  0.2789
  162SAPE   HN318051   2.933   0.489   2.065  0.8217 -2.1548  0.8133
  162SAPE   C1218052   3.023   0.522   2.253  0.3219  0.6877  0.4339
  162SAPE  H12A18053   3.049   0.619   2.300 -1.9069  1.6717 -0.2282
  162SAPE  H12B18054   3.110   0.453   2.261 -0.1036 -0.1994 -1.6936
  162SAPE   C1118055   2.884   0.471   2.300 -0.5305 -0.5561  0.1479
  162SAPE  H11A18056   2.798   0.532   2.265  1.7854  2.1277 -1.3462
  162SAPE  H11B18057   2.879   0.482   2.411 -2.0303 -0.2779  0.0759
  162SAPE     P18058   2.764   0.282   2.162  0.2866 -0.0900  0.2336
  162SAPE   O1318059   2.723   0.394   2.071  0.7110  0.2435  0.0275
  162SAPE   O1418060   2.796   0.155   2.094  0.2065  0.0128 -0.0650
  162SAPE   O1218061   2.874   0.330   2.261  0.3794  0.1304 -0.0203
  162SAPE   O1118062   2.642   0.264   2.260 -0.5554 -0.5765  0.1248
  162SAPE    C118063   2.660   0.185   2.385  0.0438  0.2649  0.5589
  162SAPE    HA18064   2.765   0.157   2.407  0.5987  1.3458 -0.5707
  162SAPE    HB18065   2.630   0.250   2.471 -1.5244  0.0906  0.1716
  162SAPE    C218066   2.568   0.058   2.377 -0.2481 -0.1558  0.1090
  162SAPE    HS18067   2.559   0.042   2.267  1.9160  1.7596 -0.4326
  162SAPE   O2118068   2.443   0.099   2.438 -0.2623  0.0864  0.4532
  162SAPE   C2118069   2.347   0.009   2.416 -0.1595 -1.0815 -0.5576
  162SAPE   O2218070   2.347  -0.070   2.324  0.2530  0.2861 -0.0257
  162SAPE   C2218071   2.247   0.019   2.526  0.1374  1.0989 -0.3477
  162SAPE   H2R18072   2.221   0.124   2.551 -0.6068  0.8905 -0.2465
  162SAPE   H2S18073   2.160  -0.034   2.483  1.2915 -2.2321  1.0534
  162SAPE    C318074   2.625  -0.075   2.440 -0.4204  0.1525  0.3497
  162SAPE    HX18075   2.726  -0.099   2.401 -0.9536  0.0052 -0.9852
  162SAPE    HY18076   2.560  -0.160   2.410 -0.3361 -0.1432  0.9878
  162SAPE   O3118077   2.622  -0.075   2.585 -0.2357 -0.2809  0.2325
  162SAPE   C3118078   2.741  -0.104   2.649  0.6903 -0.3055  0.3828
  162SAPE   O3218079   2.845  -0.123   2.594 -0.5850  0.8915  0.0513
  162SAPE   C3218080   2.715  -0.107   2.799  0.2748  0.4376  0.0594
  162SAPE   H2X18081   2.612  -0.137   2.824  0.8717  1.0206  3.7991
  162SAPE   H2Y18082   2.728   0.002   2.818 -1.5263  0.4484  1.5263
  162SAPE   C2318083   2.288  -0.052   2.661  0.0025  0.2117 -0.0832
  162SAPE   H3R18084   2.380  -0.005   2.701 -1.3628  0.6969  2.7012
  162SAPE   H3S18085   2.302  -0.160   2.638  0.3251  0.1431  0.4335
  162SAPE   C2418086   2.189  -0.032   2.777  0.0121  0.5683 -0.1295
  162SAPE   H4R18087   2.191   0.072   2.817  2.7498 -0.7873  3.8520
  162SAPE   H4S18088   2.234  -0.101   2.851  0.3260  0.2849 -0.5796
  162SAPE   C2518089   2.042  -0.073   2.751  1.0428 -0.3211 -0.8025
  162SAPE   H5R18090   2.005  -0.053   2.650 -2.0344 -0.2039  0.2504
  162SAPE   C2618091   1.970  -0.139   2.845 -0.4178 -0.0758  0.0767
  162SAPE   H6R18092   1.866  -0.160   2.816 -0.0514 -0.0599 -1.3149
  162SAPE   C2718093   2.009  -0.166   2.988 -0.4382 -1.0025  0.2590
  162SAPE   H7R18094   1.930  -0.122   3.054 -1.0690 -1.4220 -0.2001
  162SAPE   H7S18095   2.100  -0.106   3.010 -0.5358 -0.5979 -0.4341
  162SAPE   C2818096   2.035  -0.310   3.022  0.7705  0.1777 -0.4625
  162SAPE   H8R18097   2.069  -0.357   2.929 -0.3309  1.1968 -1.3962
  162SAPE   C2918098   2.029  -0.360   3.152  0.0977 -0.0228 -0.1060
  162SAPE   H9R18099   2.052  -0.468   3.158  1.9598  0.4160  1.1390
  162SAPE  C21018100   1.974  -0.296   3.280 -0.5204  0.5278  0.6453
  162SAPE  H10R18101   1.888  -0.355   3.319  0.6709 -1.6351  0.1299
  162SAPE  H10S18102   1.920  -0.202   3.257  0.3988  1.6296  2.6850
  162SAPE  C21118103   2.075  -0.267   3.387  0.0821 -0.0651  0.2330
  162SAPE  H11R18104   2.177  -0.241   3.354 -0.6741  2.4273 -0.3410
  162SAPE  C21218105   2.054  -0.257   3.518  0.2017  0.7384 -0.0478
  162SAPE  H12R18106   2.139  -0.216   3.575  1.7671  0.3060 -1.9663
  162SAPE  C21318107   1.924  -0.277   3.590 -0.0021  0.8609  0.1173
  162SAPE  H13R18108   1.949  -0.348   3.672  0.0758  0.9477  0.1695
  162SAPE  H13S18109   1.849  -0.332   3.529  0.7371 -2.6093  2.0579
  162SAPE  C21418110   1.869  -0.150   3.646 -0.1738  0.8164 -0.2485
  162SAPE  H14R18111   1.825  -0.083   3.571  0.0141 -0.6232 -1.6957
  162SAPE  C21518112   1.866  -0.113   3.775 -0.4465  0.1995  0.0128
  162SAPE  H15R18113   1.820  -0.016   3.798  0.7445  0.5982  0.8077
  162SAPE  C21618114   1.931  -0.188   3.885  0.0458 -0.5427 -0.4460
  162SAPE  H16R18115   2.005  -0.117   3.927  0.2774 -1.3856  0.6150
  162SAPE  H16S18116   1.972  -0.289   3.865  0.0462 -1.0354  1.8587
  162SAPE  C21718117   1.839  -0.213   4.013  0.5286 -0.2445 -0.1870
  162SAPE  H17R18118   1.915  -0.242   4.088 -0.6307 -0.2452  1.0255
  162SAPE  H17S18119   1.772  -0.301   3.999  1.7920 -1.7813  2.6278
  162SAPE  C21818120   1.767  -0.086   4.050  0.0348 -0.0224 -0.7288
  162SAPE  H18R18121   1.694  -0.061   3.970  0.4067  2.1218 -0.4727
  162SAPE  H18S18122   1.834   0.002   4.062 -0.9688  0.7322 -0.5446
  162SAPE  C21918123   1.691  -0.103   4.182  0.3730  0.0729 -0.0316
  162SAPE  H19R18124   1.758  -0.142   4.261  0.1446 -0.1179  0.0695
  162SAPE  H19S18125   1.616  -0.182   4.163  0.2513  0.0737  0.4430
  162SAPE  C22018126   1.619   0.024   4.236 -0.3125  0.7724 -0.7228
  162SAPE  H20R18127   1.690   0.102   4.269  0.0636  0.8442 -1.6514
  162SAPE  H20S18128   1.548  -0.003   4.317 -0.0858  0.0025 -0.7737
  162SAPE  H20T18129   1.570   0.075   4.150 -1.0906 -0.5228 -1.0762
  162SAPE   C3318130   2.822  -0.181   2.875  0.3259 -0.3139  0.6791
  162SAPE   H3X18131   2.923  -0.167   2.830 -0.0759 -1.4319 -0.6093
  162SAPE   H3Y18132   2.800  -0.288   2.860  0.4351 -0.4097  1.1645
  162SAPE   C3418133   2.828  -0.141   3.025 -0.3039  0.1361 -0.7623
  162SAPE   H4X18134   2.727  -0.148   3.070  0.4853 -1.3629  0.9013
  162SAPE   H4Y18135   2.860  -0.035   3.038 -1.1873  0.2739  0.4209
  162SAPE   C3518136   2.918  -0.233   3.110  0.2959 -0.3964 -0.0975
  162SAPE   H5X18137   2.907  -0.206   3.218 -2.1361 -4.1643  0.8317
  162SAPE   H5Y18138   3.021  -0.226   3.070  1.1636 -1.6108  1.7486
  162SAPE   C3618139   2.873  -0.377   3.109 -0.3287  0.1733 -1.1274
  162SAPE   H6X18140   2.898  -0.433   3.016  1.8848 -3.9988  1.6478
  162SAPE   H6Y18141   2.765  -0.391   3.126  0.0533  0.2388  1.9062
  162SAPE   C3718142   2.954  -0.476   3.214  0.4626  0.3013 -0.1859
  162SAPE   H7X18143   2.928  -0.440   3.316 -0.4264 -1.5940  0.3020
  162SAPE   H7Y18144   3.064  -0.475   3.200  0.4468  0.7866 -0.3124
  162SAPE   C3818145   2.904  -0.609   3.201  0.3627  0.9428  1.0255
  162SAPE   H8X18146   2.948  -0.657   3.111  0.4574  1.0711  1.0041
  162SAPE   H8Y18147   2.793  -0.616   3.204  0.4768 -1.9387  1.9743
  162SAPE   C3918148   2.952  -0.690   3.321  0.2174  0.0702 -0.1848
  162SAPE   H9X18149   3.047  -0.642   3.353 -0.4955  0.7160  1.0688
  162SAPE   H9Y18150   2.964  -0.794   3.286  2.6508 -0.1075  0.9883
  162SAPE  C31018151   2.859  -0.695   3.442  0.5290 -0.0881 -0.5534
  162SAPE  H10X18152   2.761  -0.742   3.421  0.7100 -0.1784 -1.2326
  162SAPE  H10Y18153   2.835  -0.591   3.475 -0.4658 -0.3567 -0.4138
  162SAPE  C31118154   2.925  -0.769   3.562 -1.0008  0.9420 -0.6313
  162SAPE  H11X18155   3.019  -0.714   3.587  1.0328 -2.9717  1.2045
  162SAPE  H11Y18156   2.957  -0.870   3.528  0.5571  2.0609 -2.7434
  162SAPE  C31218157   2.848  -0.761   3.693  0.2760 -0.6967 -0.8532
  162SAPE  H12X18158   2.853  -0.652   3.714 -0.9510 -0.3344 -2.2976
  162SAPE  H12Y18159   2.897  -0.813   3.779  1.2529  2.0227  0.3316
  162SAPE  C31318160   2.695  -0.805   3.694 -0.0092 -0.4058 -0.0804
  162SAPE  H13X18161   2.687  -0.915   3.680 -0.0534 -0.3662 -0.3684
  162SAPE  H13Y18162   2.649  -0.755   3.606 -0.6251  0.3767  0.6567
  162SAPE  C31418163   2.622  -0.771   3.828  0.1783 -0.2404  0.0257
  162SAPE  H14X18164   2.522  -0.810   3.800 -0.3684  2.2895 -1.9203
  162SAPE  H14Y18165   2.606  -0.661   3.825  1.8023  0.0226 -2.5728
  162SAPE  C31518166   2.681  -0.834   3.958  0.1513 -0.0023  0.1360
  162SAPE  H15X18167   2.768  -0.768   3.979 -0.9446  2.2907 -1.9810
  162SAPE  H15Y18168   2.738  -0.929   3.945  1.2555  0.4652  1.3035
  162SAPE  C31618169   2.576  -0.839   4.070  0.4053 -0.1925  0.6089
  162SAPE  H16X18170   2.510  -0.751   4.055  2.7421  1.7164  0.8928
  162SAPE  H16Y18171   2.620  -0.829   4.172  0.7805  0.6378  0.3718
  162SAPE  C31718172   2.489  -0.961   4.067  0.3833 -0.0744 -0.1000
  162SAPE  H17X18173   2.560  -1.044   4.086  0.8815  0.0242 -1.4279
  162SAPE  H17Y18174   2.451  -0.945   3.964 -0.3105 -2.9309 -0.3777
  162SAPE  C31818175   2.373  -0.959   4.167  0.0446  0.3111 -1.0549
  162SAPE  H18X18176   2.306  -0.876   4.133  0.7774  0.7870 -1.3520
  162SAPE  H18Y18177   2.406  -0.933   4.270  1.1052  1.9655 -1.7551
  162SAPE  H18Z18178   2.318  -1.055   4.171 -0.4797  0.6378  0.6063
  163SAPE     N18179   2.383   3.581   2.186  0.0638 -0.9814  0.7415
  163SAPE   HN118180   2.324   3.504   2.223 -0.8528 -2.0556 -2.5928
  163SAPE   HN218181   2.481   3.554   2.163  0.5425 -1.5025  3.1370
  163SAPE   HN318182   2.394   3.648   2.264 -0.4784  0.0964 -0.0895
  163SAPE   C1218183   2.310   3.641   2.068  0.2162 -0.2641  0.3107
  163SAPE  H12A18184   2.305   3.567   1.985 -0.2436  1.7377 -1.5308
  163SAPE  H12B18185   2.370   3.726   2.029 -0.8833 -0.2881 -1.5414
  163SAPE   C1118186   2.165   3.686   2.103  0.5334  0.5958  0.3657
  163SAPE  H11A18187   2.101   3.735   2.026 -2.9782 -1.5665  1.6785
  163SAPE  H11B18188   2.181   3.763   2.182  1.5504  1.2218 -0.4177
  163SAPE     P18189   1.934   3.610   2.207 -0.0876 -0.2743 -0.0202
  163SAPE   O1318190   1.864   3.659   2.091  0.3691  0.3421  0.2964
  163SAPE   O1418191   1.881   3.488   2.275 -0.0902 -0.3944  0.0707
  163SAPE   O1218192   2.085   3.582   2.162  0.0695  0.2051  0.0220
  163SAPE   O1118193   1.940   3.734   2.311 -0.4312 -0.1210  1.0813
  163SAPE    C118194   2.037   3.718   2.422 -0.0126 -0.2226 -0.3211
  163SAPE    HA18195   2.133   3.668   2.399  0.8467  0.8878  0.6885
  163SAPE    HB18196   2.048   3.823   2.457 -3.8088 -0.2021  1.2838
  163SAPE    C218197   1.973   3.650   2.548 -0.5545  0.0758 -0.3616
  163SAPE    HS18198   1.939   3.555   2.501 -1.9541  2.6704 -5.3408
  163SAPE   O2118199   1.863   3.728   2.608 -0.0158  0.0352  0.3390
  163SAPE   C2118200   1.768   3.658   2.676  0.8840  0.4081  0.5908
  163SAPE   O2218201   1.758   3.538   2.678 -0.3769 -0.1685  0.1376
  163SAPE   C2218202   1.686   3.753   2.762  0.5814  0.6095 -0.2111
  163SAPE   H2R18203   1.750   3.810   2.833 -0.3407  1.6162 -0.1713
  163SAPE   H2S18204   1.637   3.819   2.687 -2.5249  0.1998  1.3215
  163SAPE    C318205   2.073   3.609   2.660  0.4167 -0.3143  1.1314
  163SAPE    HX18206   2.105   3.702   2.712  1.6684  0.0261 -0.1965
  163SAPE    HY18207   2.161   3.565   2.608 -1.2090 -0.1878 -1.9070
  163SAPE   O3118208   2.022   3.523   2.763  0.0420 -0.2226 -0.3804
  163SAPE   C3118209   2.019   3.394   2.735 -0.3186  0.3426 -0.3197
  163SAPE   O3218210   2.074   3.343   2.640  0.0975  0.2570  0.3869
  163SAPE   C3218211   1.960   3.308   2.849 -0.4827  0.1056 -0.5893
  163SAPE   H2X18212   2.032   3.229   2.876 -0.2461  0.4696 -0.1524
  163SAPE   H2Y18213   1.875   3.246   2.814 -2.5834  1.8244  1.1525
  163SAPE   C2318214   1.578   3.690   2.852 -0.1708 -0.3986 -0.3388
  163SAPE   H3R18215   1.623   3.611   2.916 -0.1010  0.3122  0.5106
  163SAPE   H3S18216   1.507   3.636   2.786 -1.7177  0.3396  0.6462
  163SAPE   C2418217   1.491   3.794   2.937  0.0317  0.2795 -0.0558
  163SAPE   H4R18218   1.452   3.878   2.874 -1.8248 -1.3446 -1.1782
  163SAPE   H4S18219   1.562   3.847   3.004  1.2136 -2.1653  0.7176
  163SAPE   C2518220   1.375   3.739   3.025  0.8243 -0.4085 -0.0646
  163SAPE   H5R18221   1.297   3.686   2.967  1.6748 -0.8467 -0.8277
  163SAPE   C2618222   1.369   3.747   3.159  0.3571 -0.4148  0.2603
  163SAPE   H6R18223   1.290   3.678   3.194 -0.4142 -1.0629 -2.4522
  163SAPE   C2718224   1.452   3.830   3.257 -0.2831  0.4728 -0.7139
  163SAPE   H7R18225   1.384   3.866   3.337  1.7949  0.5767  1.0978
  163SAPE   H7S18226   1.494   3.923   3.214 -1.7171  3.0637  3.0426
  163SAPE   C2818227   1.565   3.750   3.316  0.4699  0.1978  0.3749
  163SAPE   H8R18228   1.614   3.681   3.245  0.7263  2.5454 -1.8853
  163SAPE   C2918229   1.620   3.775   3.440 -0.7349 -0.3977 -0.7494
  163SAPE   H9R18230   1.713   3.723   3.466 -1.1893 -0.8968 -0.0794
  163SAPE  C21018231   1.569   3.881   3.547  0.2492  0.5063 -0.3524
  163SAPE  H10R18232   1.543   3.825   3.639 -2.3490 -3.1599 -3.0203
  163SAPE  H10S18233   1.474   3.929   3.515  0.4833 -0.2425 -2.2960
  163SAPE  C21118234   1.676   3.973   3.590  0.1820 -0.2523  0.0355
  163SAPE  H11R18235   1.756   3.990   3.516  0.7917  1.8276  1.0724
  163SAPE  C21218236   1.682   4.052   3.695  0.3027 -0.1726 -0.0197
  163SAPE  H12R18237   1.766   4.123   3.709  1.4148 -1.2857 -0.7736
  163SAPE  C21318238   1.572   4.059   3.799 -0.8359 -0.2917 -0.0200
  163SAPE  H13R18239   1.483   3.995   3.783 -0.7940 -0.1666 -0.8274
  163SAPE  H13S18240   1.524   4.157   3.777  3.3290  1.8124 -0.7618
  163SAPE  C21418241   1.632   4.052   3.936  0.0461 -0.2080  0.0428
  163SAPE  H14R18242   1.692   3.963   3.959 -0.4069 -0.3181  0.8279
  163SAPE  C21518243   1.616   4.141   4.034  0.2372 -0.3379 -0.1695
  163SAPE  H15R18244   1.657   4.114   4.132 -2.0111 -1.5328  0.5217
  163SAPE  C21618245   1.535   4.266   4.032 -0.7619  0.8903  0.1195
  163SAPE  H16R18246   1.440   4.258   3.974 -0.8406  1.1782  0.2059
  163SAPE  H16S18247   1.598   4.348   3.991 -0.0828 -0.7867 -2.4535
  163SAPE  C21718248   1.486   4.300   4.175 -0.4585  0.4963 -0.0671
  163SAPE  H17R18249   1.579   4.317   4.234 -0.1300 -2.0224  0.2666
  163SAPE  H17S18250   1.435   4.210   4.215  0.4618  0.5929  1.3796
  163SAPE  C21818251   1.385   4.407   4.168  1.0870  0.0569 -0.1549
  163SAPE  H18R18252   1.325   4.390   4.259 -0.5202 -1.1060 -1.3663
  163SAPE  H18S18253   1.311   4.388   4.087  1.5484  2.5571 -1.2635
  163SAPE  C21918254   1.437   4.550   4.174  0.4104  0.9256  0.4567
  163SAPE  H19R18255   1.494   4.575   4.082 -1.9800  1.1700 -1.0405
  163SAPE  H19S18256   1.504   4.558   4.263 -0.5622 -1.9114  1.5766
  163SAPE  C22018257   1.318   4.645   4.171 -0.5448  0.1360  0.4354
  163SAPE  H20R18258   1.328   4.748   4.211  1.4199 -0.3028  1.1760
  163SAPE  H20S18259   1.240   4.592   4.231  1.9730 -2.3112  1.7639
  163SAPE  H20T18260   1.289   4.664   4.066  0.5418 -0.4139  0.0268
  163SAPE   C3318261   1.900   3.385   2.966  0.7370 -1.1326  0.4794
  163SAPE   H3X18262   1.815   3.447   2.930  0.9539 -0.4618  1.0769
  163SAPE   H3Y18263   1.976   3.456   3.006 -0.4704 -0.1950  1.1762
  163SAPE   C3418264   1.860   3.302   3.083  0.1027 -0.0478 -0.4523
  163SAPE   H4X18265   1.958   3.266   3.123 -1.1471 -1.4858  1.5053
  163SAPE   H4Y18266   1.804   3.211   3.052 -0.6251 -0.3953  1.6929
  163SAPE   C3518267   1.769   3.382   3.183 -0.9776  0.4898  1.0372
  163SAPE   H5X18268   1.692   3.449   3.140 -0.1397  0.8831  0.1024
  163SAPE   H5Y18269   1.843   3.453   3.226  0.2215 -0.9970  1.5130
  163SAPE   C3618270   1.716   3.305   3.308  0.1474  0.1524  0.8198
  163SAPE   H6X18271   1.789   3.224   3.330  0.2543 -0.6042 -1.9632
  163SAPE   H6Y18272   1.611   3.270   3.307  0.3253 -0.4155 -1.1093
  163SAPE   C3718273   1.732   3.411   3.426  0.3516 -0.3160 -0.3849
  163SAPE   H7X18274   1.661   3.488   3.391  0.2494  0.9161  2.3114
  163SAPE   H7Y18275   1.831   3.455   3.451  0.1057 -0.2777  0.5894
  163SAPE   C3818276   1.665   3.358   3.553  0.2718  0.1767  0.1372
  163SAPE   H8X18277   1.717   3.265   3.586  0.0322 -0.3500 -0.9526
  163SAPE   H8Y18278   1.559   3.335   3.533  0.1306  1.5280 -0.7913
  163SAPE   C3918279   1.650   3.465   3.662 -0.0720  0.0417 -0.4419
  163SAPE   H9X18280   1.638   3.560   3.606  0.6061  0.3999  0.0078
  163SAPE   H9Y18281   1.742   3.475   3.723  1.7093  1.0619 -3.1087
  163SAPE  C31018282   1.537   3.445   3.764  0.3562  0.0533  0.2172
  163SAPE  H10X18283   1.552   3.349   3.818  2.4118  0.5138  0.5523
  163SAPE  H10Y18284   1.447   3.419   3.705  0.0174 -1.4397  1.3234
  163SAPE  C31118285   1.515   3.568   3.851 -0.5966  0.7172 -0.3379
  163SAPE  H11X18286   1.424   3.561   3.915 -0.3488  1.5160  0.1125
  163SAPE  H11Y18287   1.494   3.641   3.771  0.5959 -1.1326 -2.4429
  163SAPE  C31218288   1.632   3.630   3.933 -0.4368 -0.6159 -0.4856
  163SAPE  H12X18289   1.586   3.715   3.989 -0.1287 -0.4712 -0.4520
  163SAPE  H12Y18290   1.709   3.655   3.857 -0.2861 -3.1890 -1.2698
  163SAPE  C31318291   1.684   3.540   4.040  0.5603 -0.2035 -0.2270
  163SAPE  H13X18292   1.736   3.453   3.996 -2.8946 -2.2439 -0.5844
  163SAPE  H13Y18293   1.602   3.512   4.110  0.4029 -1.5304 -0.9283
  163SAPE  C31418294   1.792   3.615   4.126  0.2019  0.1046  0.4819
  163SAPE  H14X18295   1.877   3.650   4.064  0.1711  0.4437  0.6242
  163SAPE  H14Y18296   1.843   3.542   4.192  2.8405  2.4517  1.2365
  163SAPE  C31518297   1.755   3.733   4.203 -0.6061  0.0769  0.2693
  163SAPE  H15X18298   1.670   3.718   4.274 -0.7745  0.0038  0.0530
  163SAPE  H15Y18299   1.726   3.817   4.137 -0.0899 -1.1815 -1.6373
  163SAPE  C31618300   1.866   3.786   4.295  1.2086  0.0943  0.6492
  163SAPE  H16X18301   1.921   3.865   4.240  2.1614 -0.1243  1.2537
  163SAPE  H16Y18302   1.941   3.710   4.325  0.6069  0.0196  2.0422
  163SAPE  C31718303   1.814   3.862   4.416 -0.1291 -0.2713  0.9669
  163SAPE  H17X18304   1.896   3.879   4.489  1.1883  2.3264 -0.9637
  163SAPE  H17Y18305   1.735   3.800   4.464  0.1565 -1.5798 -0.1948
  163SAPE  C31818306   1.752   3.995   4.375 -0.0624 -0.0254 -0.1938
  163SAPE  H18X18307   1.743   4.066   4.461  0.0413  2.2897 -1.9932
  163SAPE  H18Y18308   1.650   3.986   4.333 -0.2768  1.4355 -0.0632
  163SAPE  H18Z18309   1.816   4.049   4.302 -1.0049  0.4271 -0.7026
  164SAPE     N18310   6.396   3.703   2.622 -0.0292  0.9346 -0.3790
  164SAPE   HN118311   6.330   3.650   2.563  0.2336 -1.5777  1.4156
  164SAPE   HN218312   6.468   3.746   2.560  1.6619 -0.2310  0.6747
  164SAPE   HN318313   6.449   3.641   2.687  1.7803  0.6518 -2.0141
  164SAPE   C1218314   6.308   3.808   2.696  0.1766 -0.6504  0.6567
  164SAPE  H12A18315   6.375   3.871   2.758  0.8296  0.0153 -0.6807
  164SAPE  H12B18316   6.240   3.748   2.761 -0.4016  0.3266  0.9603
  164SAPE   C1118317   6.236   3.900   2.596  0.3788  0.2598  0.1008
  164SAPE  H11A18318   6.174   3.976   2.647 -0.7419  0.3975 -1.3794
  164SAPE  H11B18319   6.171   3.834   2.535 -0.5360 -0.2474  1.5766
  164SAPE     P18320   6.281   4.040   2.385  0.0710  0.4884  0.3278
  164SAPE   O1318321   6.403   4.107   2.332  0.0400  0.0468 -0.3374
  164SAPE   O1418322   6.212   3.952   2.284  0.1027  0.6000 -0.5078
  164SAPE   O1218323   6.332   3.959   2.513 -0.5921  0.2799  0.0503
  164SAPE   O1118324   6.183   4.135   2.449 -0.4096 -0.0298  0.3860
  164SAPE    C118325   6.212   4.269   2.482  0.3768  0.4770 -0.3165
  164SAPE    HA18326   6.302   4.279   2.546  0.5202 -3.0161  0.1905
  164SAPE    HB18327   6.234   4.332   2.393 -2.2476 -0.4422 -1.7303
  164SAPE    C218328   6.096   4.323   2.571  0.3192  0.5934  0.3871
  164SAPE    HS18329   6.100   4.434   2.585  2.4080  0.5284  0.5523
  164SAPE   O2118330   6.067   4.260   2.700 -0.2189  0.6884  0.4499
  164SAPE   C2118331   6.172   4.287   2.782 -0.2903 -0.2662 -0.4822
  164SAPE   O2218332   6.254   4.376   2.760 -0.5750  0.0110  0.4150
  164SAPE   C2218333   6.164   4.198   2.914  0.0916 -0.1687  0.2863
  164SAPE   H2R18334   6.145   4.269   2.997  3.6101 -1.3573  2.2977
  164SAPE   H2S18335   6.075   4.134   2.896  0.8583 -0.9676 -0.7793
  164SAPE    C318336   5.963   4.293   2.489  0.1422  0.2574  0.1871
  164SAPE    HX18337   5.939   4.185   2.504 -0.9761 -0.0853 -3.3233
  164SAPE    HY18338   5.977   4.303   2.380 -1.1316  1.2492  0.0931
  164SAPE   O3118339   5.849   4.378   2.530 -0.1899 -0.1691  0.2675
  164SAPE   C3118340   5.855   4.503   2.495  0.0249  0.4282  0.2714
  164SAPE   O3218341   5.945   4.552   2.434 -0.6400  0.1497 -0.0328
  164SAPE   C3218342   5.745   4.576   2.570  0.0520 -0.0591 -0.1284
  164SAPE   H2X18343   5.650   4.553   2.516  1.4064 -0.1079 -2.6213
  164SAPE   H2Y18344   5.763   4.685   2.554  0.4186 -0.4284 -2.6217
  164SAPE   C2318345   6.287   4.111   2.951  0.1400 -0.4049  0.1616
  164SAPE   H3R18346   6.389   4.155   2.939 -1.1124  2.7466  0.1783
  164SAPE   H3S18347   6.287   4.022   2.885  1.2642 -0.8680  0.7634
  164SAPE   C2418348   6.260   4.047   3.084 -0.3813  0.1788  0.0073
  164SAPE   H4R18349   6.159   4.001   3.079 -0.1785 -0.3753  0.8160
  164SAPE   H4S18350   6.238   4.125   3.161  0.9724  2.0853 -1.4449
  164SAPE   C2518351   6.363   3.942   3.133 -0.2228  0.1117  0.0705
  164SAPE   H5R18352   6.362   3.849   3.075  1.1606  0.4083 -0.4672
  164SAPE   C2618353   6.443   3.952   3.237  0.1534 -1.4794 -0.0825
  164SAPE   H6R18354   6.524   3.878   3.250 -0.1301 -1.6880  0.5675
  164SAPE   C2718355   6.435   4.061   3.343  0.3022  0.2284 -0.7988
  164SAPE   H7R18356   6.395   4.156   3.302  1.8987  1.4690  0.4092
  164SAPE   H7S18357   6.534   4.089   3.385  0.5003 -1.8269  0.2570
  164SAPE   C2818358   6.334   4.021   3.459 -0.3226 -0.9583  0.3445
  164SAPE   H8R18359   6.287   3.922   3.452 -0.5239 -0.7816 -1.1632
  164SAPE   C2918360   6.337   4.082   3.579  0.7084 -0.0092 -0.2321
  164SAPE   H9R18361   6.252   4.061   3.646 -0.3424  2.1822 -0.7927
  164SAPE  C21018362   6.426   4.201   3.626  0.1396 -0.2003 -0.0609
  164SAPE  H10R18363   6.524   4.201   3.572  0.3796 -4.4170  0.0182
  164SAPE  H10S18364   6.462   4.182   3.729  1.3214 -2.5827 -0.8359
  164SAPE  C21118365   6.361   4.337   3.594 -0.1709 -0.0940 -1.4636
  164SAPE  H11R18366   6.337   4.355   3.488 -2.3012 -0.6276 -1.1222
  164SAPE  C21218367   6.343   4.426   3.686  0.0167  0.4059  0.3105
  164SAPE  H12R18368   6.306   4.527   3.661 -1.2262  0.6615  2.8638
  164SAPE  C21318369   6.369   4.435   3.836 -0.5890  0.4183  0.7008
  164SAPE  H13R18370   6.360   4.540   3.872 -0.7454 -0.6368  4.0440
  164SAPE  H13S18371   6.463   4.384   3.864 -0.3345  0.7432  0.4547
  164SAPE  C21418372   6.248   4.366   3.893  0.3967 -1.0486 -0.1483
  164SAPE  H14R18373   6.245   4.260   3.865 -0.2998 -1.1580  0.3337
  164SAPE  C21518374   6.156   4.416   3.976  0.0799 -0.8526 -0.1630
  164SAPE  H15R18375   6.063   4.362   4.000 -0.4946  0.7558  1.5135
  164SAPE  C21618376   6.146   4.549   4.034 -0.4983  0.2664 -0.3289
  164SAPE  H16R18377   6.071   4.606   3.975 -0.6830 -0.6750 -1.0225
  164SAPE  H16S18378   6.237   4.613   4.037  0.2110 -0.7551  1.1158
  164SAPE  C21718379   6.105   4.534   4.184 -0.2247 -0.0084 -0.0110
  164SAPE  H17R18380   6.200   4.511   4.236 -0.0151  0.1116 -0.3380
  164SAPE  H17S18381   6.027   4.457   4.202 -0.4135  0.6671  2.4791
  164SAPE  C21818382   6.059   4.672   4.240  0.2841  0.0294  0.5823
  164SAPE  H18R18383   5.972   4.710   4.184 -0.3831 -0.4363  1.2798
  164SAPE  H18S18384   6.146   4.740   4.225 -1.6869  2.4293 -0.7706
  164SAPE  C21918385   6.018   4.665   4.385  0.1467  0.1551 -0.1320
  164SAPE  H19R18386   6.079   4.588   4.436 -0.7878 -1.9469 -2.0318
  164SAPE  H19S18387   5.911   4.638   4.396 -0.0011  1.2295  1.4773
  164SAPE  C22018388   6.060   4.799   4.456  0.3891 -0.7770 -0.1766
  164SAPE  H20R18389   6.019   4.810   4.559 -0.2932  0.0291 -0.5209
  164SAPE  H20S18390   6.025   4.888   4.401 -2.1979 -1.3014  0.4814
  164SAPE  H20T18391   6.170   4.798   4.473  0.0438 -1.3550  2.5272
  164SAPE   C3318392   5.762   4.549   2.718  0.0184  0.2304  0.6391
  164SAPE   H3X18393   5.755   4.442   2.748 -0.6153  0.5422  1.6418
  164SAPE   H3Y18394   5.682   4.599   2.776 -0.7915  0.6847 -0.8305
  164SAPE   C3418395   5.891   4.605   2.779  0.1005 -0.0228  0.1371
  164SAPE   H4X18396   5.881   4.716   2.787 -0.0831  0.2903 -3.0727
  164SAPE   H4Y18397   5.981   4.594   2.716  0.0157 -0.0060  0.0117
  164SAPE   C3518398   5.904   4.564   2.930  1.1083  0.2649  0.4443
  164SAPE   H5X18399   5.921   4.454   2.927 -0.7916 -0.0447  0.1399
  164SAPE   H5Y18400   5.804   4.580   2.975 -0.2083 -1.2585 -1.7195
  164SAPE   C3618401   6.017   4.631   3.011  0.7141 -0.7551  0.0387
  164SAPE   H6X18402   6.013   4.743   3.009  1.9521 -0.6953  0.2446
  164SAPE   H6Y18403   6.110   4.607   2.956  1.3134  0.4544  0.4713
  164SAPE   C3718404   6.025   4.565   3.151  0.4658 -0.6082 -0.0941
  164SAPE   H7X18405   6.030   4.454   3.152  0.9033 -0.6035 -0.8601
  164SAPE   H7Y18406   5.929   4.587   3.202  0.1221  0.6593 -1.2200
  164SAPE   C3818407   6.132   4.629   3.244 -0.0599 -0.2296  0.3592
  164SAPE   H8X18408   6.082   4.715   3.292  0.3120 -0.7100  1.6353
  164SAPE   H8Y18409   6.213   4.673   3.181 -0.3463  0.0603  0.1889
  164SAPE   C3918410   6.185   4.532   3.347  0.9566  0.1402 -0.7507
  164SAPE   H9X18411   6.242   4.592   3.421  0.0663  0.5550 -0.3959
  164SAPE   H9Y18412   6.246   4.453   3.298 -1.1795 -1.8486 -0.3967
  164SAPE  C31018413   6.080   4.471   3.435 -0.6618 -0.8967  0.5892
  164SAPE  H10X18414   6.119   4.392   3.503  0.7735 -0.3280  0.4701
  164SAPE  H10Y18415   5.999   4.423   3.376 -0.3531 -0.4833 -0.1799
  164SAPE  C31118416   6.020   4.581   3.530 -0.4185  1.1889 -0.4072
  164SAPE  H11X18417   5.962   4.647   3.463 -0.2167 -0.8539 -2.7264
  164SAPE  H11Y18418   6.106   4.638   3.572 -1.1469  2.0831 -0.0984
  164SAPE  C31218419   5.928   4.531   3.651 -0.4194 -0.5113  0.0238
  164SAPE  H12X18420   5.992   4.477   3.723 -0.6983 -1.5133 -0.4695
  164SAPE  H12Y18421   5.852   4.461   3.612 -0.5966 -0.3667  0.1073
  164SAPE  C31318422   5.864   4.652   3.725  0.1962  0.3599  0.8364
  164SAPE  H13X18423   5.929   4.742   3.732 -1.0012  1.1906  1.8435
  164SAPE  H13Y18424   5.865   4.619   3.831  1.1981  0.3390  0.8339
  164SAPE  C31418425   5.731   4.697   3.674  0.6622 -0.5624 -0.0677
  164SAPE  H14X18426   5.652   4.619   3.669  0.0802 -0.0425  0.8449
  164SAPE  H14Y18427   5.737   4.735   3.570 -3.0548 -0.6015 -0.4293
  164SAPE  C31518428   5.671   4.819   3.747 -0.4562  0.7192 -0.1163
  164SAPE  H15X18429   5.738   4.907   3.741 -1.0077  1.1671  0.1989
  164SAPE  H15Y18430   5.660   4.795   3.855  2.4049 -1.1797 -0.1285
  164SAPE  C31618431   5.536   4.870   3.691  0.1708 -0.1114  0.6654
  164SAPE  H16X18432   5.469   4.782   3.703  2.9053 -2.4612  0.0834
  164SAPE  H16Y18433   5.544   4.899   3.584 -0.3537  0.1026  0.6856
  164SAPE  C31718434   5.476   4.987   3.768 -0.4955 -0.0007 -0.3588
  164SAPE  H17X18435   5.540   5.078   3.771  0.4496 -0.6570  1.5783
  164SAPE  H17Y18436   5.477   4.956   3.875  0.8807  2.1801  0.3446
  164SAPE  C31818437   5.336   5.033   3.719  0.6180  0.6949  0.1338
  164SAPE  H18X18438   5.273   5.072   3.802 -1.2577 -2.5976  0.4172
  164SAPE  H18Y18439   5.286   4.948   3.668 -0.0693  0.8076  0.6053
  164SAPE  H18Z18440   5.352   5.117   3.648  0.9387  0.0933 -0.5199
  165SAPE     N18441   5.319   0.285   2.482 -0.4011 -0.4586  0.0121
  165SAPE   HN118442   5.240   0.292   2.548  1.5630  0.0814  2.4686
  165SAPE   HN218443   5.327   0.373   2.428  1.5144  0.5454  1.8134
  165SAPE   HN318444   5.300   0.212   2.410  1.3382 -1.1897  0.2347
  165SAPE   C1218445   5.455   0.273   2.563  0.7110  0.5704  0.4663
  165SAPE  H12A18446   5.436   0.196   2.640  0.5907 -1.4399 -1.4712
  165SAPE  H12B18447   5.477   0.375   2.601 -1.6218  0.7077  1.6158
  165SAPE   C1118448   5.567   0.226   2.472  0.9204 -0.1410  0.4899
  165SAPE  H11A18449   5.665   0.250   2.518  1.4067  2.8254 -1.8197
  165SAPE  H11B18450   5.579   0.289   2.381  3.9325 -2.4786 -0.8959
  165SAPE     P18451   5.668   0.015   2.391 -0.0454  0.1655  0.5844
  165SAPE   O1318452   5.634  -0.110   2.316  1.0468 -0.6896  0.3271
  165SAPE   O1418453   5.764   0.103   2.321  0.4941  0.5368  0.2647
  165SAPE   O1218454   5.545   0.091   2.434  0.1913  0.2447 -0.3052
  165SAPE   O1118455   5.733  -0.019   2.528  0.0493 -0.0999  0.7509
  165SAPE    C118456   5.645  -0.067   2.632 -0.4991 -0.2497 -0.3881
  165SAPE    HA18457   5.535  -0.068   2.619 -0.7479  1.4617  1.2381
  165SAPE    HB18458   5.680  -0.170   2.653  0.1336  0.0402  0.0004
  165SAPE    C218459   5.669   0.017   2.757 -0.1246 -0.1768 -0.5171
  165SAPE    HS18460   5.655   0.126   2.742  0.9198 -0.0558 -0.7069
  165SAPE   O2118461   5.805  -0.013   2.805 -0.1937 -0.2657  0.1236
  165SAPE   C2118462   5.858   0.094   2.867  0.2364  0.5461  0.2113
  165SAPE   O2218463   5.800   0.197   2.884 -0.1608 -0.5673 -0.2058
  165SAPE   C2218464   6.002   0.060   2.892  0.3260 -0.2131  0.2260
  165SAPE   H2R18465   6.013  -0.045   2.926  2.1814 -0.1593 -0.1039
  165SAPE   H2S18466   6.045   0.066   2.790  0.8947  1.8005  0.5341
  165SAPE    C318467   5.563  -0.018   2.865  0.1982 -0.1461  0.8199
  165SAPE    HX18468   5.571  -0.127   2.886 -0.7101 -0.1870  0.9906
  165SAPE    HY18469   5.460  -0.010   2.823  0.1428 -2.8367  0.2670
  165SAPE   O3118470   5.581   0.055   2.991 -0.1007 -0.0093  0.1905
  165SAPE   C3118471   5.529   0.179   2.996  0.4262  0.7010 -1.0267
  165SAPE   O3218472   5.465   0.228   2.904 -0.3531 -0.2583  0.0531
  165SAPE   C3218473   5.576   0.251   3.123 -0.3153  1.0599  0.2841
  165SAPE   H2X18474   5.489   0.287   3.182  0.8853  0.8194  2.2805
  165SAPE   H2Y18475   5.626   0.344   3.087  3.5434 -1.8539 -2.7460
  165SAPE   C2318476   6.098   0.165   2.982  0.4500  0.6271 -0.8997
  165SAPE   H3R18477   6.091   0.264   2.932  1.4878  0.8763 -0.5716
  165SAPE   H3S18478   6.201   0.125   2.975  0.0891 -0.5406  0.0614
  165SAPE   C2418479   6.050   0.162   3.133 -0.2136 -0.0439 -0.1952
  165SAPE   H4R18480   6.060   0.058   3.172  1.1922  0.3591  0.5928
  165SAPE   H4S18481   5.942   0.188   3.137 -0.1240  0.4781 -0.9723
  165SAPE   C2518482   6.124   0.260   3.221  0.5401 -0.5686  0.1287
  165SAPE   H5R18483   6.150   0.354   3.171 -1.3844 -0.5842 -0.9928
  165SAPE   C2618484   6.180   0.227   3.341 -0.4783 -0.0230 -0.0109
  165SAPE   H6R18485   6.217   0.302   3.412 -0.5346 -1.3135  1.4211
  165SAPE   C2718486   6.155   0.097   3.416 -0.3701  0.2557  0.9567
  165SAPE   H7R18487   6.162   0.007   3.351  3.1359  0.9523  0.1551
  165SAPE   H7S18488   6.050   0.103   3.451 -1.7178 -1.8502 -2.3011
  165SAPE   C2818489   6.249   0.073   3.536 -0.2319  0.0452 -0.5773
  165SAPE   H8R18490   6.331   0.001   3.516  1.1237  1.4100 -0.1418
  165SAPE   C2918491   6.240   0.140   3.655  0.0060  0.8544  0.2518
  165SAPE   H9R18492   6.320   0.112   3.725  0.8690  1.6559 -0.3874
  165SAPE  C21018493   6.125   0.234   3.691 -0.2748  0.1761  0.1431
  165SAPE  H10R18494   6.028   0.183   3.709 -0.5614  1.1799  1.5640
  165SAPE  H10S18495   6.094   0.296   3.604  1.2850 -1.4782 -1.7100
  165SAPE  C21118496   6.161   0.322   3.801 -0.3309  0.6502  0.3261
  165SAPE  H11R18497   6.186   0.422   3.762 -3.2206  1.6759  0.8526
  165SAPE  C21218498   6.176   0.297   3.933  0.0884 -0.5519  0.2683
  165SAPE  H12R18499   6.206   0.378   4.001 -1.4518 -0.3426  0.7421
  165SAPE  C21318500   6.152   0.157   3.990  0.1963 -0.2211 -0.1080
  165SAPE  H13R18501   6.212   0.141   4.082  0.9403  3.9534  0.3239
  165SAPE  H13S18502   6.182   0.078   3.917  2.1926 -0.4230  0.8492
  165SAPE  C21418503   6.010   0.142   4.032 -0.2149 -0.3900  0.0376
  165SAPE  H14R18504   5.943   0.127   3.946 -0.5451  0.0039  0.2268
  165SAPE  C21518505   5.961   0.172   4.154  0.3661 -0.3309  0.9789
  165SAPE  H15R18506   5.853   0.165   4.171 -0.7308  1.0053 -3.8954
  165SAPE  C21618507   6.042   0.210   4.277 -0.4376 -0.3438 -0.2707
  165SAPE  H16R18508   6.101   0.300   4.248 -0.7803 -0.0110  0.0621
  165SAPE  H16S18509   6.125   0.141   4.304 -0.1733 -0.3962 -1.1718
  165SAPE  C21718510   5.965   0.243   4.414 -0.1662 -0.4704  0.8781
  165SAPE  H17R18511   5.867   0.290   4.391 -0.5824 -0.1444  3.0915
  165SAPE  H17S18512   6.027   0.319   4.466 -0.5541  0.6050 -0.1996
  165SAPE  C21818513   5.947   0.115   4.490 -0.6529 -1.0070  0.5840
  165SAPE  H18R18514   6.048   0.069   4.500 -0.1130 -0.0771 -0.4199
  165SAPE  H18S18515   5.887   0.049   4.424 -1.0756  0.4342 -0.5138
  165SAPE  C21918516   5.880   0.139   4.629 -0.7190  0.4095  0.4769
  165SAPE  H19R18517   5.787   0.195   4.607  0.3839  1.1498 -2.8042
  165SAPE  H19S18518   5.946   0.191   4.702 -2.7133  2.2773  1.0747
  165SAPE  C22018519   5.825   0.014   4.695  0.6485  0.0418  0.0873
  165SAPE  H20R18520   5.908  -0.058   4.713  0.5839 -0.4474 -1.4329
  165SAPE  H20S18521   5.742  -0.018   4.629 -2.1442 -2.4593  4.3937
  165SAPE  H20T18522   5.778   0.031   4.794  2.0411 -0.5906  0.8827
  165SAPE   C3318523   5.661   0.179   3.232  0.1825  0.5397 -0.1159
  165SAPE   H3X18524   5.761   0.161   3.187  0.9909  0.3705  1.6487
  165SAPE   H3Y18525   5.623   0.080   3.265 -0.0532  1.0128  1.0532
  165SAPE   C3418526   5.687   0.261   3.366  0.0222  0.4004  0.3961
  165SAPE   H4X18527   5.688   0.366   3.329  0.8584  0.5067  0.6890
  165SAPE   H4Y18528   5.785   0.218   3.398 -0.0609 -1.3809 -1.5667
  165SAPE   C3518529   5.584   0.238   3.476 -0.4078  0.7438  0.0076
  165SAPE   H5X18530   5.579   0.127   3.476  1.9200  0.5936  0.5661
  165SAPE   H5Y18531   5.484   0.269   3.440 -0.0965 -0.6835 -2.3220
  165SAPE   C3618532   5.613   0.291   3.612 -0.0704  0.5239  0.0324
  165SAPE   H6X18533   5.607   0.402   3.615 -0.1378  0.5757 -1.3426
  165SAPE   H6Y18534   5.716   0.257   3.635  0.2746 -0.2019 -2.2909
  165SAPE   C3718535   5.522   0.222   3.711 -0.1512 -0.5424  0.3568
  165SAPE   H7X18536   5.541   0.113   3.721  0.1872 -0.5603 -0.3719
  165SAPE   H7Y18537   5.423   0.236   3.663  0.3426  2.1463  0.0028
  165SAPE   C3818538   5.515   0.285   3.854 -0.1960  0.0260 -0.1910
  165SAPE   H8X18539   5.418   0.335   3.875 -0.4870 -0.6856  0.1791
  165SAPE   H8Y18540   5.600   0.357   3.854  2.3053 -2.7129 -2.3279
  165SAPE   C3918541   5.534   0.198   3.977 -0.0514  0.4707 -0.1441
  165SAPE   H9X18542   5.632   0.145   3.984  0.0748  0.7266  0.0404
  165SAPE   H9Y18543   5.449   0.127   3.983  1.3721 -1.2186  1.3420
  165SAPE  C31018544   5.520   0.284   4.102 -0.4052 -0.2117  0.0162
  165SAPE  H10X18545   5.427   0.345   4.102 -2.1517 -2.6887 -1.8929
  165SAPE  H10Y18546   5.611   0.348   4.089 -0.0499 -0.1181  2.5585
  165SAPE  C31118547   5.534   0.201   4.227 -0.4872  0.1527  0.3313
  165SAPE  H11X18548   5.638   0.161   4.228  0.0596  1.4947 -0.2795
  165SAPE  H11Y18549   5.470   0.111   4.218  1.0238 -0.8302 -1.1660
  165SAPE  C31218550   5.501   0.276   4.354  0.0012  0.0744  0.2753
  165SAPE  H12X18551   5.418   0.347   4.336  2.0785  2.1987 -1.5119
  165SAPE  H12Y18552   5.590   0.334   4.387  1.7157 -1.8436 -0.7399
  165SAPE  C31318553   5.459   0.183   4.467 -0.1471  0.0304 -0.3970
  165SAPE  H13X18554   5.545   0.120   4.499 -0.4523 -0.6749 -0.9286
  165SAPE  H13Y18555   5.369   0.122   4.445  2.0637 -3.5071 -0.5492
  165SAPE  C31418556   5.414   0.272   4.594  0.1032  0.1749  0.4601
  165SAPE  H14X18557   5.312   0.316   4.590 -0.7959 -1.7713  0.8999
  165SAPE  H14Y18558   5.499   0.339   4.618  0.4497 -0.0334 -0.1396
  165SAPE  C31518559   5.398   0.194   4.727 -0.3123  0.5575 -0.1600
  165SAPE  H15X18560   5.387   0.274   4.803 -1.2578 -1.1440  1.5577
  165SAPE  H15Y18561   5.492   0.143   4.757  0.3665  0.6936 -1.9002
  165SAPE  C31618562   5.271   0.106   4.722 -0.3760 -0.6042 -1.4116
  165SAPE  H16X18563   5.287   0.029   4.644  0.4104 -0.8947 -0.9713
  165SAPE  H16Y18564   5.189   0.166   4.676  2.2747  3.5576 -1.2012
  165SAPE  C31718565   5.236   0.062   4.859  0.1940 -0.5653 -0.3519
  165SAPE  H17X18566   5.143   0.004   4.840  1.7101 -2.7834 -1.3982
  165SAPE  H17Y18567   5.212   0.140   4.934 -0.5497 -0.1892 -0.9645
  165SAPE  C31818568   5.340  -0.030   4.915 -0.7628 -0.2360 -0.8548
  165SAPE  H18X18569   5.308  -0.115   4.979  0.2523 -0.1868 -0.2713
  165SAPE  H18Y18570   5.428   0.022   4.958 -0.6034 -0.1030 -1.3288
  165SAPE  H18Z18571   5.382  -0.086   4.828  3.9468  0.9416  0.3747
  166SAPE     N18572   0.240   5.424   1.940 -0.7017 -0.0522 -0.0298
  166SAPE   HN118573   0.149   5.468   1.916 -1.4034 -0.1529  2.2077
  166SAPE   HN218574   0.303   5.451   1.862  0.6002 -0.7177  0.7690
  166SAPE   HN318575   0.222   5.322   1.937  1.8852 -0.5428 -1.3211
  166SAPE   C1218576   0.290   5.464   2.069  0.1144  0.3430 -0.1259
  166SAPE  H12A18577   0.277   5.574   2.075 -2.8723  0.1494 -1.2898
  166SAPE  H12B18578   0.398   5.440   2.079  0.0544 -0.1486 -0.6168
  166SAPE   C1118579   0.207   5.399   2.178  0.0513  0.5581 -0.4862
  166SAPE  H11A18580   0.240   5.423   2.282  0.3835 -0.8899 -0.2386
  166SAPE  H11B18581   0.221   5.289   2.172 -1.7464  0.1053  1.9382
  166SAPE     P18582  -0.033   5.430   2.280 -0.4391  0.3141  0.1495
  166SAPE   O1318583   0.007   5.539   2.368 -0.5551 -0.5063  0.6641
  166SAPE   O1418584  -0.168   5.435   2.222  0.3503  0.1398 -0.0971
  166SAPE   O1218585   0.072   5.420   2.166 -0.0700 -0.5840 -0.4696
  166SAPE   O1118586  -0.013   5.292   2.358  0.3334 -0.1638  0.3790
  166SAPE    C118587   0.061   5.288   2.479 -0.0467 -0.4220 -0.5884
  166SAPE    HA18588   0.091   5.184   2.503  1.3076 -0.0018 -0.3552
  166SAPE    HB18589   0.156   5.345   2.465 -0.5317  0.5177 -0.1419
  166SAPE    C218590  -0.033   5.330   2.602 -0.2900 -0.4461  0.1995
  166SAPE    HS18591  -0.066   5.435   2.583  0.2141 -0.2203  0.5359
  166SAPE   O2118592   0.032   5.318   2.735  0.3860  0.3882 -0.5415
  166SAPE   C2118593   0.132   5.386   2.749 -0.0660 -0.1252 -0.7081
  166SAPE   O2218594   0.186   5.469   2.674 -0.4218  0.8301 -0.0669
  166SAPE   C2218595   0.200   5.361   2.888  0.2491 -0.0369 -0.1038
  166SAPE   H2R18596   0.278   5.283   2.878 -0.8365 -1.4120  1.4905
  166SAPE   H2S18597   0.264   5.447   2.918  0.2738 -0.3731  0.8413
  166SAPE    C318598  -0.158   5.236   2.605 -0.3678 -0.0120 -0.0400
  166SAPE    HX18599  -0.112   5.135   2.606 -0.2514  0.0397 -0.1629
  166SAPE    HY18600  -0.212   5.245   2.508  2.1213 -1.0199 -1.6287
  166SAPE   O3118601  -0.234   5.247   2.728  0.1777 -0.1922 -0.0930
  166SAPE   C3118602  -0.325   5.344   2.719 -0.4089  0.0061 -0.0778
  166SAPE   O3218603  -0.354   5.414   2.622 -0.2941  0.4295 -0.0299
  166SAPE   C3218604  -0.376   5.375   2.862  0.8552 -0.4007 -0.6138
  166SAPE   H2X18605  -0.402   5.279   2.910  0.5730 -0.1676 -0.2960
  166SAPE   H2Y18606  -0.449   5.458   2.846 -0.9404 -2.3342 -3.3747
  166SAPE   C2318607   0.106   5.319   3.003  0.4703 -0.0539 -0.6228
  166SAPE   H3R18608   0.075   5.213   3.004 -1.4320  0.4542 -1.7449
  166SAPE   H3S18609   0.009   5.372   2.994 -0.1848 -1.4969 -3.1569
  166SAPE   C2418610   0.171   5.346   3.137  0.2124  0.3795 -0.9045
  166SAPE   H4R18611   0.270   5.297   3.124  1.1480  1.6540  0.8526
  166SAPE   H4S18612   0.118   5.290   3.217  0.8010  0.1990 -0.6331
  166SAPE   C2518613   0.193   5.485   3.185  0.0423  0.2888  0.5335
  166SAPE   H5R18614   0.246   5.536   3.103 -1.6433 -1.8676 -2.0786
  166SAPE   C2618615   0.156   5.547   3.302  0.1541 -0.2002  0.0477
  166SAPE   H6R18616   0.175   5.655   3.296 -2.5867  0.3525  0.0347
  166SAPE   C2718617   0.082   5.497   3.424 -0.2766 -0.1446  0.0069
  166SAPE   H7R18618   0.053   5.393   3.397  0.4529 -0.5122  0.5940
  166SAPE   H7S18619  -0.007   5.562   3.433 -0.6433 -0.8396  1.9304
  166SAPE   C2818620   0.165   5.497   3.546 -0.0415  0.0798 -0.4855
  166SAPE   H8R18621   0.263   5.455   3.519  0.3347  0.3126  0.4526
  166SAPE   C2918622   0.138   5.546   3.662 -0.0963 -0.0427 -0.0914
  166SAPE   H9R18623   0.212   5.536   3.743 -0.5634  0.1583  0.3667
  166SAPE  C21018624   0.013   5.610   3.710 -0.0109  0.0117  0.9104
  166SAPE  H10R18625  -0.039   5.549   3.787  2.6972  0.5182  3.3249
  166SAPE  H10S18626  -0.059   5.622   3.627  1.1196  0.9188  0.0218
  166SAPE  C21118627   0.054   5.742   3.765  0.3748 -0.2320  0.2326
  166SAPE  H11R18628   0.081   5.729   3.871  1.5426 -0.0030 -0.0256
  166SAPE  C21218629   0.057   5.864   3.705  0.8021 -0.2309 -0.3445
  166SAPE  H12R18630   0.100   5.951   3.757 -2.9692  0.6981  1.5475
  166SAPE  C21318631   0.038   5.892   3.558  0.5963 -0.1827  0.1678
  166SAPE  H13R18632   0.040   5.803   3.491  0.5438  0.3446 -0.5493
  166SAPE  H13S18633   0.115   5.960   3.514  0.0049  0.1210 -0.4199
  166SAPE  C21418634  -0.095   5.963   3.533  0.6549 -0.0725 -0.8025
  166SAPE  H14R18635  -0.169   5.970   3.614  0.9857  0.9530 -0.5829
  166SAPE  C21518636  -0.133   6.013   3.411 -0.3189  0.1921  0.9883
  166SAPE  H15R18637  -0.218   6.083   3.402  0.0276  0.5551  0.4831
  166SAPE  C21618638  -0.042   6.004   3.287  0.9322 -0.4255  0.1761
  166SAPE  H16R18639   0.067   5.996   3.309  0.8727  0.1322  0.7060
  166SAPE  H16S18640  -0.067   6.100   3.236  0.0840  0.0588  1.4622
  166SAPE  C21718641  -0.094   5.897   3.185  0.1191 -0.4082 -0.2108
  166SAPE  H17R18642  -0.201   5.917   3.166 -0.2489 -1.8070  0.2715
  166SAPE  H17S18643  -0.081   5.799   3.237 -0.2630 -0.0231  0.6236
  166SAPE  C21818644  -0.012   5.899   3.054  0.4037 -0.2712  0.4799
  166SAPE  H18R18645   0.097   5.900   3.071  0.2433  0.7291  1.5313
  166SAPE  H18S18646  -0.038   5.998   3.010 -0.2580 -0.7679 -0.2884
  166SAPE  C21918647  -0.050   5.783   2.968 -0.2966  0.0935  0.9119
  166SAPE  H19R18648  -0.153   5.795   2.926  0.0992  1.1736  0.2063
  166SAPE  H19S18649  -0.059   5.689   3.026  2.0070 -0.7688 -0.0133
  166SAPE  C22018650   0.051   5.754   2.865  0.0767 -0.0422 -0.2722
  166SAPE  H20R18651   0.083   5.844   2.809 -0.0767  0.4088  0.3511
  166SAPE  H20S18652   0.013   5.685   2.787 -0.0857  1.8059 -1.9045
  166SAPE  H20T18653   0.140   5.712   2.918  0.7052  0.5798 -0.8107
  166SAPE   C3318654  -0.266   5.434   2.962  0.3215  0.6707  0.9830
  166SAPE   H3X18655  -0.210   5.524   2.928 -0.8590  0.9030 -0.4381
  166SAPE   H3Y18656  -0.200   5.347   2.985 -0.2695 -0.0375  0.0733
  166SAPE   C3418657  -0.342   5.470   3.090  0.4390 -0.5738 -0.5959
  166SAPE   H4X18658  -0.417   5.398   3.130  0.1166  1.5572  3.1532
  166SAPE   H4Y18659  -0.409   5.558   3.077  1.5030  0.3947  0.2065
  166SAPE   C3518660  -0.251   5.529   3.204  0.0993  0.4394  0.6340
  166SAPE   H5X18661  -0.179   5.600   3.160  0.3367  1.1749  2.1814
  166SAPE   H5Y18662  -0.206   5.445   3.261 -2.9860 -1.2407  0.8567
  166SAPE   C3618663  -0.328   5.611   3.311  0.1836 -0.0579  0.4073
  166SAPE   H6X18664  -0.412   5.668   3.266  0.5498  0.2237  0.0747
  166SAPE   H6Y18665  -0.258   5.666   3.378  0.3922 -0.7695  0.7882
  166SAPE   C3718666  -0.390   5.517   3.416  0.6676  0.9669  0.7532
  166SAPE   H7X18667  -0.302   5.457   3.449 -0.6574 -0.8889  1.0840
  166SAPE   H7Y18668  -0.460   5.452   3.359  0.8596  1.9956 -0.7370
  166SAPE   C3818669  -0.442   5.597   3.534 -0.7226  0.4944 -0.5250
  166SAPE   H8X18670  -0.538   5.646   3.505 -1.7877  0.1683  2.1118
  166SAPE   H8Y18671  -0.363   5.666   3.570 -1.6938  1.4680 -0.2154
  166SAPE   C3918672  -0.490   5.502   3.648 -0.2809  0.1097  0.1427
  166SAPE   H9X18673  -0.424   5.413   3.662  2.5446  1.9037 -0.9147
  166SAPE   H9Y18674  -0.595   5.475   3.622 -0.6838  2.1025 -0.4492
  166SAPE  C31018675  -0.500   5.564   3.789 -0.2536  0.1156 -0.3918
  166SAPE  H10X18676  -0.568   5.509   3.858  1.0699 -2.0062 -0.6678
  166SAPE  H10Y18677  -0.537   5.668   3.781 -2.6720 -0.7322 -1.3590
  166SAPE  C31118678  -0.357   5.564   3.858  0.0667  1.0928 -0.2918
  166SAPE  H11X18679  -0.285   5.595   3.779 -0.5196  0.3126 -1.1560
  166SAPE  H11Y18680  -0.350   5.456   3.883  0.1840  0.9125 -1.0840
  166SAPE  C31218681  -0.355   5.657   3.983  0.3637  0.1970 -0.2720
  166SAPE  H12X18682  -0.403   5.624   4.077  0.6956 -0.3676 -0.2905
  166SAPE  H12Y18683  -0.411   5.751   3.964 -2.9178 -0.7910  3.2554
  166SAPE  C31318684  -0.206   5.688   4.029  0.1589 -0.0623 -0.1020
  166SAPE  H13X18685  -0.163   5.763   3.959 -1.6509  0.6112 -0.5762
  166SAPE  H13Y18686  -0.138   5.601   4.027 -0.3713 -0.4804 -0.7645
  166SAPE  C31418687  -0.193   5.755   4.170  0.2758 -0.5611  0.4592
  166SAPE  H14X18688  -0.084   5.747   4.189  0.0482  0.8058  2.6103
  166SAPE  H14Y18689  -0.243   5.685   4.240 -0.7304  0.0382  0.3684
  166SAPE  C31518690  -0.256   5.888   4.186 -0.4973  0.0314  0.8860
  166SAPE  H15X18691  -0.211   5.936   4.275  2.3162  1.4901 -1.1554
  166SAPE  H15Y18692  -0.367   5.880   4.194 -0.9163  1.8377 -1.6520
  166SAPE  C31618693  -0.221   5.985   4.070 -0.5003 -0.0941 -0.7705
  166SAPE  H16X18694  -0.259   5.958   3.970 -1.8315 -0.0566 -0.2955
  166SAPE  H16Y18695  -0.110   5.993   4.068 -0.0887 -3.7806  0.4361
  166SAPE  C31718696  -0.291   6.123   4.101 -0.6731  0.1926  0.5462
  166SAPE  H17X18697  -0.264   6.152   4.205 -0.2883  0.8702  0.2657
  166SAPE  H17Y18698  -0.401   6.109   4.106 -0.9431  2.3200  1.3173
  166SAPE  C31818699  -0.250   6.239   4.012 -0.5775 -0.0421  0.3208
  166SAPE  H18X18700  -0.311   6.327   4.041  0.6409  0.3815  1.6735
  166SAPE  H18Y18701  -0.274   6.226   3.904 -1.0400  2.4940  0.0673
  166SAPE  H18Z18702  -0.143   6.264   4.022 -1.0288  2.4042 -0.2764
  167SAPE     N18703   6.546   3.057   2.527 -0.0481 -0.0576  0.3806
  167SAPE   HN118704   6.478   2.981   2.548 -4.0319  3.0560 -0.0718
  167SAPE   HN218705   6.594   3.038   2.436  0.8722 -0.0065  0.8414
  167SAPE   HN318706   6.630   3.060   2.589  0.8414 -1.1064 -0.7136
  167SAPE   C1218707   6.464   3.183   2.510 -0.6790  0.8973 -0.1561
  167SAPE  H12A18708   6.381   3.167   2.438  0.3591  1.8261 -1.6307
  167SAPE  H12B18709   6.527   3.259   2.459 -0.4675 -0.7097 -2.4194
  167SAPE   C1118710   6.412   3.217   2.650  0.5462 -0.1138 -0.1386
  167SAPE  H11A18711   6.355   3.134   2.697 -0.9179  1.2572  0.6142
  167SAPE  H11B18712   6.340   3.301   2.654 -0.1179 -0.5911 -1.6548
  167SAPE     P18713   6.598   3.383   2.732 -0.2573  0.3271  0.1143
  167SAPE   O1318714   6.691   3.379   2.616  0.0273 -0.0068  0.3233
  167SAPE   O1418715   6.503   3.497   2.735 -0.3579  0.2877 -0.3638
  167SAPE   O1218716   6.526   3.243   2.738 -0.1619 -0.4356 -0.6565
  167SAPE   O1118717   6.685   3.392   2.861  0.5694  0.8780 -0.0203
  167SAPE    C118718   6.622   3.408   2.989  0.1066  0.3497  0.6654
  167SAPE    HA18719   6.526   3.351   2.988 -0.7741  1.6433 -2.4104
  167SAPE    HB18720   6.681   3.358   3.068  1.2289 -3.4918 -2.2725
  167SAPE    C218721   6.589   3.558   3.028 -0.0459 -0.2928 -0.4347
  167SAPE    HS18722   6.532   3.598   2.941  0.7325 -2.0665 -1.8109
  167SAPE   O2118723   6.702   3.633   3.053 -0.8930  0.6617  0.3575
  167SAPE   C2118724   6.711   3.756   3.006 -0.1365  0.3345  0.2237
  167SAPE   O2218725   6.616   3.814   2.945 -0.7501  0.2443 -0.8399
  167SAPE   C2218726   6.841   3.830   3.035 -0.0310 -0.1164  0.0568
  167SAPE   H2R18727   6.892   3.775   3.116 -1.5655 -0.2815  0.9416
  167SAPE   H2S18728   6.903   3.820   2.943  1.0684 -0.7446  0.8405
  167SAPE    C318729   6.493   3.562   3.152 -0.3133 -0.4205 -0.0140
  167SAPE    HX18730   6.402   3.508   3.118 -0.2763 -1.0331  0.8360
  167SAPE    HY18731   6.472   3.671   3.165 -0.9449 -0.1817 -2.5504
  167SAPE   O3118732   6.540   3.495   3.269  0.4913 -0.0553 -0.1048
  167SAPE   C3118733   6.605   3.566   3.353  0.4984  0.1818 -0.1944
  167SAPE   O3218734   6.625   3.686   3.344 -0.2595 -0.3858  0.2939
  167SAPE   C3218735   6.664   3.484   3.466 -1.2733 -0.5323  0.5563
  167SAPE   H2X18736   6.741   3.416   3.424 -2.2602 -0.1159 -2.1689
  167SAPE   H2Y18737   6.584   3.427   3.517 -1.8826 -0.5352 -0.3672
  167SAPE   C2318738   6.815   3.983   3.072  0.2593  0.0763  0.6068
  167SAPE   H3R18739   6.744   3.998   3.157 -2.2614  0.2142 -1.4162
  167SAPE   H3S18740   6.773   4.037   2.984  3.0633  0.2665 -0.7310
  167SAPE   C2418741   6.944   4.054   3.120 -0.2071  0.9253 -0.2785
  167SAPE   H4R18742   6.913   4.158   3.144 -1.7070  0.4474 -0.0591
  167SAPE   H4S18743   7.004   4.076   3.029 -1.0462  2.4584 -0.5026
  167SAPE   C2518744   7.028   3.999   3.236 -0.1776 -0.5201  0.1899
  167SAPE   H5R18745   7.106   3.925   3.211 -1.3225 -1.1969 -1.6714
  167SAPE   C2618746   7.000   4.005   3.368  0.3362 -0.4701 -0.0947
  167SAPE   H6R18747   7.078   3.970   3.438  1.9245  1.7352 -0.6676
  167SAPE   C2718748   6.878   4.082   3.418 -0.5190  0.4214  0.7335
  167SAPE   H7R18749   6.812   4.115   3.335 -0.9252  1.7058  1.5331
  167SAPE   H7S18750   6.924   4.173   3.462  1.5817 -1.3060  2.3299
  167SAPE   C2818751   6.801   4.001   3.517 -0.9519 -0.1032 -0.6502
  167SAPE   H8R18752   6.731   3.929   3.471  0.8195 -0.7260 -2.5099
  167SAPE   C2918753   6.800   4.018   3.654  0.4297  0.4648 -0.7010
  167SAPE   H9R18754   6.747   3.939   3.709 -0.7501  2.1116  0.6382
  167SAPE  C21018755   6.875   4.111   3.745  0.4996  0.2452  0.3155
  167SAPE  H10R18756   6.945   4.183   3.697 -0.5874  0.4440 -1.0231
  167SAPE  H10S18757   6.940   4.063   3.822  1.4354  2.4295  0.9837
  167SAPE  C21118758   6.782   4.197   3.817  0.1905  1.3935 -0.5854
  167SAPE  H11R18759   6.737   4.284   3.767 -0.7745  1.3791  0.2444
  167SAPE  C21218760   6.734   4.181   3.941  0.1464  1.2253 -0.1951
  167SAPE  H12R18761   6.650   4.243   3.976 -0.3056  0.7777 -0.4788
  167SAPE  C21318762   6.775   4.070   4.032 -0.1905  0.3068 -0.2474
  167SAPE  H13R18763   6.825   3.988   3.976  0.0206  0.7607 -0.7341
  167SAPE  H13S18764   6.682   4.029   4.077  0.5703 -0.4280  0.6847
  167SAPE  C21418765   6.876   4.135   4.128  0.3457  0.2904  0.3399
  167SAPE  H14R18766   6.947   4.199   4.072 -2.5028  1.4524 -2.2071
  167SAPE  C21518767   6.872   4.160   4.257  1.2025 -0.8290  0.5165
  167SAPE  H15R18768   6.942   4.230   4.305 -0.3359  0.2954  1.1911
  167SAPE  C21618769   6.766   4.109   4.351 -0.4478 -0.1463  0.0426
  167SAPE  H16R18770   6.785   4.005   4.384  0.5078  1.0026  3.6336
  167SAPE  H16S18771   6.666   4.132   4.308 -0.5399  1.8476  1.1991
  167SAPE  C21718772   6.767   4.203   4.474  0.3468  0.4771 -0.0847
  167SAPE  H17R18773   6.671   4.177   4.523 -0.0870  1.3446 -0.4632
  167SAPE  H17S18774   6.755   4.310   4.445 -2.2959 -0.4292 -2.9307
  167SAPE  C21818775   6.879   4.183   4.575  0.0792 -0.2146  0.6910
  167SAPE  H18R18776   6.979   4.219   4.542  0.0678 -0.8348 -0.0562
  167SAPE  H18S18777   6.896   4.077   4.601 -0.2482 -0.4166  0.0932
  167SAPE  C21918778   6.852   4.273   4.701 -0.1262 -0.5792 -0.2498
  167SAPE  H19R18779   6.931   4.252   4.776  0.0950  4.6195  1.3440
  167SAPE  H19S18780   6.764   4.228   4.751 -0.0476  1.3331  1.7783
  167SAPE  C22018781   6.826   4.419   4.684  0.4892 -0.7468  0.1458
  167SAPE  H20R18782   6.897   4.462   4.611 -3.4282  2.4765 -2.1301
  167SAPE  H20S18783   6.833   4.472   4.781 -3.7898  0.5176 -0.0433
  167SAPE  H20T18784   6.718   4.432   4.659 -0.2188  0.5151  3.3643
  167SAPE   C3318785   6.709   3.579   3.582 -0.0671 -0.4434 -0.3012
  167SAPE   H3X18786   6.751   3.509   3.657  0.1058  2.4713  2.5397
  167SAPE   H3Y18787   6.639   3.655   3.624  0.9719  0.1501  0.3765
  167SAPE   C3418788   6.838   3.660   3.542  0.4144 -0.4664 -0.2147
  167SAPE   H4X18789   6.814   3.743   3.472  0.8467  0.4178  0.6668
  167SAPE   H4Y18790   6.900   3.585   3.490  1.0376  0.6314 -1.0783
  167SAPE   C3518791   6.916   3.720   3.662 -0.4117  0.4866  0.6282
  167SAPE   H5X18792   6.836   3.770   3.721  0.0113  0.7861  0.9515
  167SAPE   H5Y18793   6.979   3.804   3.626  0.6601  0.6185  2.6418
  167SAPE   C3618794   7.014   3.620   3.729 -0.1271 -0.7808  0.0014
  167SAPE   H6X18795   7.085   3.593   3.648  0.6503 -0.2614  0.4994
  167SAPE   H6Y18796   6.958   3.532   3.767 -0.6749 -0.6031 -0.3724
  167SAPE   C3718797   7.084   3.687   3.848  0.4576  0.3342  0.5786
  167SAPE   H7X18798   7.124   3.787   3.823  0.4917  0.0391 -0.5862
  167SAPE   H7Y18799   7.173   3.625   3.873  0.5939 -0.6977 -2.1748
  167SAPE   C3818800   6.994   3.711   3.971  0.0074  0.0373 -0.3722
  167SAPE   H8X18801   6.938   3.616   3.988 -1.0599  0.2206 -2.6008
  167SAPE   H8Y18802   6.921   3.791   3.947 -0.3861  0.1537  1.1016
  167SAPE   C3918803   7.071   3.767   4.091  0.5951 -0.2512  0.3504
  167SAPE   H9X18804   7.125   3.862   4.071  2.1806 -1.2637 -0.4066
  167SAPE   H9Y18805   7.149   3.691   4.115  0.2979 -1.0698 -1.1458
  167SAPE  C31018806   6.980   3.804   4.212  0.3308 -0.5392  0.1066
  167SAPE  H10X18807   6.881   3.837   4.174  0.4584  1.0190  1.0644
  167SAPE  H10Y18808   7.025   3.880   4.279 -1.0968 -1.0581  1.7551
  167SAPE  C31118809   6.967   3.689   4.313 -0.1466 -0.3351 -0.4000
  167SAPE  H11X18810   7.033   3.702   4.401 -0.3184 -1.4378 -0.0897
  167SAPE  H11Y18811   6.994   3.598   4.255  1.8725 -0.7101  1.0432
  167SAPE  C31218812   6.822   3.673   4.376 -0.5187  0.8133 -0.2802
  167SAPE  H12X18813   6.825   3.567   4.409 -1.1201  0.9937  0.3796
  167SAPE  H12Y18814   6.733   3.688   4.311 -0.6729  1.0642 -0.0173
  167SAPE  C31318815   6.803   3.751   4.509  0.4100  0.7086  0.1004
  167SAPE  H13X18816   6.861   3.845   4.496  1.4700 -0.3237 -4.5342
  167SAPE  H13Y18817   6.851   3.695   4.592 -2.0770  1.6300  2.2736
  167SAPE  C31418818   6.654   3.768   4.550 -0.0452  0.1095  0.2883
  167SAPE  H14X18819   6.607   3.671   4.527  1.6630 -0.0282 -3.4723
  167SAPE  H14Y18820   6.612   3.842   4.478  1.3658 -0.0795 -0.7677
  167SAPE  C31518821   6.637   3.825   4.686  0.7329 -0.0787  0.5223
  167SAPE  H15X18822   6.716   3.901   4.707  1.3784 -0.1045 -1.5661
  167SAPE  H15Y18823   6.664   3.756   4.768 -3.3006 -1.5767  0.7965
  167SAPE  C31618824   6.494   3.869   4.717 -0.7164 -0.0290 -0.0730
  167SAPE  H16X18825   6.488   3.890   4.826  0.3879  1.9439 -0.3434
  167SAPE  H16Y18826   6.423   3.788   4.691  1.2992 -0.8834 -3.5980
  167SAPE  C31718827   6.464   4.007   4.647  0.7604  0.4620  0.7289
  167SAPE  H17X18828   6.490   4.003   4.539  0.0311  1.8261  0.4882
  167SAPE  H17Y18829   6.526   4.091   4.685 -0.8399  0.5706  3.2971
  167SAPE  C31818830   6.315   4.043   4.656 -0.1246  0.8070 -0.1482
  167SAPE  H18X18831   6.289   4.108   4.569  2.2642  0.5446 -1.1553
  167SAPE  H18Y18832   6.297   4.079   4.760 -0.6786 -0.9087  0.3762
  167SAPE  H18Z18833   6.247   3.956   4.656  0.6913  0.1186  1.6052
  168SAPE     N18834   3.065   5.526   1.804  0.4206  0.6226  0.7091
  168SAPE   HN118835   2.987   5.589   1.831  0.5461  0.8974  0.4328
  168SAPE   HN218836   3.145   5.588   1.782  0.2194  0.6383  0.0221
  168SAPE   HN318837   3.035   5.471   1.722  0.5303  2.7650 -0.8396
  168SAPE   C1218838   3.078   5.454   1.939  0.4915  0.2632  1.1201
  168SAPE  H12A18839   3.092   5.529   2.020  1.0185 -0.5673  1.8180
  168SAPE  H12B18840   3.168   5.389   1.929  0.5579  0.5808 -0.8299
  168SAPE   C1118841   2.952   5.370   1.969 -0.0397  0.4459 -0.1768
  168SAPE  H11A18842   2.985   5.309   2.056  1.7693 -0.1413 -1.2094
  168SAPE  H11B18843   2.939   5.297   1.887  1.7431  0.6285 -0.6713
  168SAPE     P18844   2.762   5.461   2.121  0.2353 -0.0100  0.0355
  168SAPE   O1318845   2.626   5.505   2.080  0.7192  0.4556  0.1611
  168SAPE   O1418846   2.781   5.341   2.206 -0.3351  0.5701 -0.1775
  168SAPE   O1218847   2.839   5.447   1.988  0.3880  0.1012  0.0943
  168SAPE   O1118848   2.821   5.590   2.188  0.0665  0.1726 -0.3233
  168SAPE    C118849   2.936   5.575   2.279  0.4615  0.5378  0.3957
  168SAPE    HA18850   2.990   5.484   2.244 -0.8629  0.6119 -2.1208
  168SAPE    HB18851   3.000   5.665   2.269  0.0529  0.9006  0.9598
  168SAPE    C218852   2.890   5.555   2.426 -0.3756  0.7285 -0.6450
  168SAPE    HS18853   2.820   5.469   2.426  0.3516  0.1235 -0.0823
  168SAPE   O2118854   2.831   5.682   2.462 -0.5074 -0.5135 -0.6967
  168SAPE   C2118855   2.717   5.682   2.524  0.0595 -0.8392  0.0495
  168SAPE   O2218856   2.660   5.583   2.565  0.2570  0.2737 -0.2514
  168SAPE   C2218857   2.659   5.824   2.531  0.3572 -0.4326 -0.5905
  168SAPE   H2R18858   2.684   5.880   2.438 -3.4974 -0.8335 -2.0341
  168SAPE   H2S18859   2.549   5.810   2.531  0.1327  1.1132 -0.4273
  168SAPE    C318860   3.013   5.519   2.512 -0.3105  0.2030  0.1460
  168SAPE    HX18861   3.088   5.600   2.506  0.2233 -0.2925  0.0172
  168SAPE    HY18862   3.065   5.426   2.479  1.4084  0.5160  1.8311
  168SAPE   O3118863   2.968   5.510   2.647  0.0430  0.5280  0.2319
  168SAPE   C3118864   2.907   5.399   2.686  0.5456 -0.4187  0.0426
  168SAPE   O3218865   2.867   5.307   2.619  0.1512  0.4373  0.8498
  168SAPE   C3218866   2.889   5.408   2.837  0.5209  0.1137 -0.5203
  168SAPE   H2X18867   2.856   5.507   2.874  0.0272 -1.3011  3.2795
  168SAPE   H2Y18868   2.991   5.398   2.880  1.1329  4.7295 -0.4351
  168SAPE   C2318869   2.711   5.905   2.651 -0.3811 -0.7676  0.0807
  168SAPE   H3R18870   2.698   5.852   2.748 -1.4860 -0.6826 -0.0051
  168SAPE   H3S18871   2.645   5.994   2.647  1.7879  0.9336  0.6268
  168SAPE   C2418872   2.852   5.956   2.615  0.1634  0.1923 -0.0062
  168SAPE   H4R18873   2.830   6.026   2.532 -0.7618  0.9123  0.8334
  168SAPE   H4S18874   2.915   5.871   2.578  0.0060  0.3873 -0.7514
  168SAPE   C2518875   2.916   6.021   2.735 -0.0985  0.7289  0.1839
  168SAPE   H5R18876   2.902   6.130   2.730  0.7895  0.7849 -2.1434
  168SAPE   C2618877   2.997   5.962   2.830 -0.3486 -0.6324 -0.3338
  168SAPE   H6R18878   3.026   6.033   2.909 -2.0575 -0.9129  0.6105
  168SAPE   C2718879   3.045   5.824   2.833 -0.0960  0.1646  0.1582
  168SAPE   H7R18880   3.054   5.783   2.730  2.1157 -0.7273  0.6580
  168SAPE   H7S18881   2.968   5.765   2.887 -0.0275  2.0996  2.6025
  168SAPE   C2818882   3.189   5.816   2.896  0.0543 -0.8401  0.0425
  168SAPE   H8R18883   3.270   5.840   2.827  1.7643 -2.4583  1.3697
  168SAPE   C2918884   3.227   5.807   3.023 -0.2321 -1.0094  0.1571
  168SAPE   H9R18885   3.332   5.824   3.051 -0.3928 -1.0295  0.7972
  168SAPE  C21018886   3.138   5.806   3.142 -0.3264  0.3703  0.3875
  168SAPE  H10R18887   3.054   5.877   3.123  1.8042  2.9138 -0.2771
  168SAPE  H10S18888   3.186   5.848   3.233  0.7625  1.2148 -0.5300
  168SAPE  C21118889   3.078   5.667   3.172 -1.1157 -0.4324  0.2461
  168SAPE  H11R18890   3.064   5.604   3.082 -3.3427 -0.8445  0.8360
  168SAPE  C21218891   3.023   5.630   3.288  0.3801  0.1605  0.2087
  168SAPE  H12R18892   2.992   5.524   3.286  3.1544 -0.7173 -2.2742
  168SAPE  C21318893   3.033   5.700   3.422  0.7152  0.2445  0.5666
  168SAPE  H13R18894   2.935   5.717   3.473  1.1135  2.5432  0.6777
  168SAPE  H13S18895   3.071   5.804   3.415 -0.8993  1.2183  4.0502
  168SAPE  C21418896   3.128   5.633   3.519  0.4599 -0.6357 -0.5870
  168SAPE  H14R18897   3.232   5.669   3.507  0.9265 -1.2443  1.2790
  168SAPE  C21518898   3.098   5.541   3.613 -0.1932 -0.5883  0.3141
  168SAPE  H15R18899   3.180   5.491   3.667 -0.2876  0.0559  1.0745
  168SAPE  C21618900   2.965   5.483   3.644  0.4165  0.2891  0.4558
  168SAPE  H16R18901   2.975   5.374   3.664  1.3674  0.4221  0.7771
  168SAPE  H16S18902   2.886   5.501   3.569 -0.2244 -0.4717  0.9284
  168SAPE  C21718903   2.925   5.544   3.787  0.7832  0.0377  0.2580
  168SAPE  H17R18904   2.945   5.652   3.776 -0.0786  0.0698 -1.1732
  168SAPE  H17S18905   2.990   5.496   3.864  0.3497 -1.2169 -0.1189
  168SAPE  C21818906   2.779   5.519   3.818  0.6293  0.0915 -0.6113
  168SAPE  H18R18907   2.755   5.489   3.923 -0.9270 -0.1535 -1.0070
  168SAPE  H18S18908   2.741   5.432   3.759 -0.9427 -1.1616  2.0600
  168SAPE  C21918909   2.690   5.637   3.781 -1.0133 -0.4748 -0.0071
  168SAPE  H19R18910   2.737   5.672   3.687 -2.2363  2.4030  0.3816
  168SAPE  H19S18911   2.722   5.715   3.853  1.2180 -1.8858  0.6604
  168SAPE  C22018912   2.542   5.596   3.768  0.3569  0.0961 -0.0023
  168SAPE  H20R18913   2.544   5.517   3.690 -0.6975  1.3092 -1.3253
  168SAPE  H20S18914   2.496   5.690   3.730 -0.7097  0.2455  1.5981
  168SAPE  H20T18915   2.504   5.564   3.867 -0.8159  0.2293 -0.3947
  168SAPE   C3318916   2.801   5.291   2.886 -0.0967  0.1414 -0.3147
  168SAPE   H3X18917   2.842   5.194   2.850 -2.8108 -1.5024  0.7338
  168SAPE   H3Y18918   2.701   5.303   2.838 -1.1836  1.1739  2.0434
  168SAPE   C3418919   2.791   5.288   3.033 -0.1622 -0.5683  0.4060
  168SAPE   H4X18920   2.773   5.389   3.075  2.7776  0.3931 -0.4124
  168SAPE   H4Y18921   2.887   5.252   3.075  0.9507  1.4887 -0.2638
  168SAPE   C3518922   2.683   5.195   3.093 -0.0336  0.1634  0.0554
  168SAPE   H5X18923   2.674   5.099   3.039  0.8053  0.1183 -0.0160
  168SAPE   H5Y18924   2.587   5.251   3.086  0.1650  0.2811 -2.7634
  168SAPE   C3618925   2.703   5.171   3.242 -0.5288 -0.0735 -0.6199
  168SAPE   H6X18926   2.796   5.111   3.254  0.1278  1.1567  0.8482
  168SAPE   H6Y18927   2.615   5.108   3.268 -0.6689  0.5778  0.5986
  168SAPE   C3718928   2.714   5.298   3.330 -0.3549  0.0149 -0.1751
  168SAPE   H7X18929   2.657   5.386   3.292 -1.1558 -0.4021  0.0284
  168SAPE   H7Y18930   2.819   5.331   3.340 -0.0956 -0.3892 -1.4321
  168SAPE   C3818931   2.653   5.275   3.474 -0.1215  0.2981  0.2623
  168SAPE   H8X18932   2.544   5.251   3.475 -0.1135 -0.0458 -1.7754
  168SAPE   H8Y18933   2.661   5.369   3.532 -2.7968 -0.1983  1.5598
  168SAPE   C3918934   2.722   5.158   3.546  0.8029 -0.7009 -0.3220
  168SAPE   H9X18935   2.800   5.198   3.614  0.3445  2.4253 -1.4929
  168SAPE   H9Y18936   2.783   5.101   3.472  1.4445 -0.7448  0.2332
  168SAPE  C31018937   2.629   5.065   3.622 -0.2205  0.2500 -0.3004
  168SAPE  H10X18938   2.679   4.981   3.676  0.8200 -0.8186 -2.7873
  168SAPE  H10Y18939   2.555   5.021   3.553 -0.1189  0.8100 -0.7752
  168SAPE  C31118940   2.540   5.128   3.738 -0.0066 -0.3938  0.3342
  168SAPE  H11X18941   2.445   5.071   3.739  0.6311 -1.5108 -0.5949
  168SAPE  H11Y18942   2.507   5.230   3.708  2.3140  0.2724 -0.1361
  168SAPE  C31218943   2.608   5.147   3.873 -0.4173 -0.0815  0.0166
  168SAPE  H12X18944   2.702   5.204   3.859  0.6786 -1.5059  1.1609
  168SAPE  H12Y18945   2.644   5.047   3.905 -0.2599  0.1032  0.4363
  168SAPE  C31318946   2.526   5.224   3.984 -0.4597 -0.9858 -0.2310
  168SAPE  H13X18947   2.440   5.158   4.009 -0.5633 -0.0867  2.0038
  168SAPE  H13Y18948   2.483   5.320   3.948 -1.7971 -1.1755  0.7728
  168SAPE  C31418949   2.619   5.256   4.104  0.7834 -0.4707  0.1264
  168SAPE  H14X18950   2.713   5.286   4.053  0.4772 -0.9488 -0.7509
  168SAPE  H14Y18951   2.635   5.159   4.157 -1.9787 -1.0283  0.1016
  168SAPE  C31518952   2.562   5.355   4.210 -0.0913  0.1068  0.0594
  168SAPE  H15X18953   2.495   5.302   4.281  0.3607 -1.2285 -0.4610
  168SAPE  H15Y18954   2.515   5.441   4.159 -0.5616 -0.6086 -0.7487
  168SAPE  C31618955   2.682   5.406   4.292  0.4749 -0.3054 -0.2545
  168SAPE  H16X18956   2.769   5.448   4.237  0.6429 -0.4225 -0.0847
  168SAPE  H16Y18957   2.724   5.322   4.352  1.5514  0.1565 -0.3335
  168SAPE  C31718958   2.630   5.514   4.392  0.0359  0.4410  0.1916
  168SAPE  H17X18959   2.592   5.460   4.481 -0.9925  1.2120  0.2354
  168SAPE  H17Y18960   2.535   5.558   4.355  0.5436  0.7048 -0.8357
  168SAPE  C31818961   2.735   5.616   4.432  0.0282  0.0372 -0.4646
  168SAPE  H18X18962   2.832   5.573   4.464  0.3526 -0.4152 -1.9845
  168SAPE  H18Y18963   2.687   5.695   4.494  0.8625 -0.6190  1.0675
  168SAPE  H18Z18964   2.762   5.668   4.338 -0.0296 -1.9746 -1.6422
  169SAPE     N18965   0.087   3.387   2.562  0.0096  0.3898  0.0224
  169SAPE   HN118966  -0.012   3.392   2.532  0.5277 -1.8310 -2.4494
  169SAPE   HN218967   0.116   3.487   2.562 -1.2561  0.8187  2.1863
  169SAPE   HN318968   0.142   3.327   2.498  1.2008 -0.5780  1.8585
  169SAPE   C1218969   0.111   3.332   2.702  0.2113 -0.2892  0.0789
  169SAPE  H12A18970   0.041   3.388   2.768  0.3392  1.3978 -1.1419
  169SAPE  H12B18971   0.218   3.354   2.720  0.7368 -1.0944 -1.8317
  169SAPE   C1118972   0.099   3.180   2.713  0.6238  0.0060  0.3021
  169SAPE  H11A18973  -0.009   3.159   2.732  0.4194  0.9242  0.2040
  169SAPE  H11B18974   0.151   3.142   2.803 -0.2559  2.2870  1.8602
  169SAPE     P18975   0.067   2.989   2.528 -0.1640 -0.0531 -0.0471
  169SAPE   O1318976   0.017   3.031   2.395  0.3842  0.2066  0.3145
  169SAPE   O1418977   0.164   2.877   2.535 -0.1167 -0.3226  0.0048
  169SAPE   O1218978   0.139   3.113   2.593 -0.0131 -0.7689 -0.4128
  169SAPE   O1118979  -0.056   2.958   2.617  0.9052  0.1194  0.4959
  169SAPE    C118980  -0.105   2.823   2.630 -1.1187 -0.4551  0.4597
  169SAPE    HA18981  -0.189   2.800   2.561 -0.7904 -1.7277  0.4641
  169SAPE    HB18982  -0.032   2.741   2.615 -1.1881 -0.3733 -0.3347
  169SAPE    C218983  -0.167   2.797   2.770  0.0647 -0.3742  0.9033
  169SAPE    HS18984  -0.180   2.686   2.774  2.9227 -0.7622  1.1909
  169SAPE   O2118985  -0.292   2.863   2.785  0.5475 -0.7279  0.0125
  169SAPE   C2118986  -0.380   2.806   2.866 -0.4627  0.6943  0.1592
  169SAPE   O2218987  -0.374   2.690   2.902  0.1897 -0.0092  0.2551
  169SAPE   C2218988  -0.507   2.890   2.897  0.2639 -0.4995  0.1660
  169SAPE   H2R18989  -0.476   2.996   2.882  2.8296 -0.9722  1.5808
  169SAPE   H2S18990  -0.587   2.873   2.822 -1.5940  2.4747  1.2967
  169SAPE    C318991  -0.072   2.839   2.887 -0.1069 -0.6327 -0.3192
  169SAPE    HX18992  -0.071   2.950   2.889 -2.6066 -0.5523  1.7956
  169SAPE    HY18993   0.024   2.787   2.868 -0.7699 -1.1339 -2.7145
  169SAPE   O3118994  -0.123   2.803   3.017  0.6988 -0.0814 -0.1538
  169SAPE   C3118995  -0.104   2.679   3.051 -0.9632  0.0242 -0.3049
  169SAPE   O3218996  -0.061   2.590   2.982 -0.2015  0.2336  0.5017
  169SAPE   C3218997  -0.137   2.675   3.201  0.1076 -0.1098 -0.8499
  169SAPE   H2X18998  -0.191   2.770   3.222  2.2693  1.1133 -0.5832
  169SAPE   H2Y18999  -0.042   2.687   3.258 -1.2363  1.9921  1.1726
  169SAPE   C2319000  -0.567   2.872   3.028  0.2844  0.5637 -0.4433
  169SAPE   H3R19001  -0.559   2.763   3.049  0.7722 -0.0847 -3.5398
  169SAPE   H3S19002  -0.677   2.886   3.017  0.0547  0.3231  1.1765
  169SAPE   C2419003  -0.503   2.946   3.146  0.7725  0.8813 -0.6611
  169SAPE   H4R19004  -0.406   2.898   3.170 -0.0886 -0.1603  0.9021
  169SAPE   H4S19005  -0.566   2.927   3.235 -1.3876  2.2925 -1.8051
  169SAPE   C2519006  -0.488   3.094   3.150 -0.6262 -0.2241 -0.6454
  169SAPE   H5R19007  -0.479   3.153   3.057  2.2005 -0.3152 -0.5219
  169SAPE   C2619008  -0.465   3.166   3.260 -0.2311  0.8242 -0.2743
  169SAPE   H6R19009  -0.446   3.274   3.263  1.5623  0.5895 -1.5940
  169SAPE   C2719010  -0.468   3.107   3.403 -0.0169 -0.4053  0.3212
  169SAPE   H7R19011  -0.389   3.158   3.462 -2.3702  4.0408  0.0965
  169SAPE   H7S19012  -0.454   2.998   3.415 -0.8438 -0.4752  0.8035
  169SAPE   C2819013  -0.600   3.146   3.464 -0.1203  1.1652 -0.8335
  169SAPE   H8R19014  -0.694   3.140   3.407  0.6798  1.5244 -2.2342
  169SAPE   C2919015  -0.618   3.201   3.588  0.7240 -0.6750 -0.1753
  169SAPE   H9R19016  -0.721   3.227   3.614  0.9019 -0.3432  0.2006
  169SAPE  C21019017  -0.517   3.230   3.695 -0.2131 -0.5941 -0.3383
  169SAPE  H10R19018  -0.511   3.340   3.714  2.2393 -0.1882 -2.7738
  169SAPE  H10S19019  -0.413   3.201   3.669  1.2701 -0.5267  4.4449
  169SAPE  C21119020  -0.555   3.167   3.829  0.7833  0.0132  0.3451
  169SAPE  H11R19021  -0.623   3.233   3.885  0.8593  1.8964 -1.6444
  169SAPE  C21219022  -0.510   3.054   3.878  0.4532 -0.5160 -0.2568
  169SAPE  H12R19023  -0.568   3.021   3.965  0.6939  1.0778  0.5418
  169SAPE  C21319024  -0.416   2.950   3.812  0.0431 -0.2100  0.7947
  169SAPE  H13R19025  -0.310   2.973   3.835  0.4593 -0.6962 -0.5291
  169SAPE  H13S19026  -0.431   2.960   3.703 -1.1382 -2.0389  0.7420
  169SAPE  C21419027  -0.453   2.815   3.865 -0.0266  0.5466 -0.2580
  169SAPE  H14R19028  -0.552   2.779   3.831  0.6809 -2.8077  0.7678
  169SAPE  C21519029  -0.377   2.726   3.937  0.3575 -0.2021 -0.0249
  169SAPE  H15R19030  -0.421   2.632   3.973  2.3763 -0.4169  2.0724
  169SAPE  C21619031  -0.232   2.751   3.975 -0.4529  0.0276 -0.7161
  169SAPE  H16R19032  -0.224   2.799   4.075  0.3161 -1.9363  0.2164
  169SAPE  H16S19033  -0.186   2.823   3.904 -1.2234 -0.5626 -1.8479
  169SAPE  C21719034  -0.148   2.620   3.971  0.0208 -0.4681  0.3329
  169SAPE  H17R19035  -0.211   2.538   4.012 -1.8459  0.5814 -0.3058
  169SAPE  H17S19036  -0.057   2.643   4.029  1.4839 -4.1822 -0.2046
  169SAPE  C21819037  -0.100   2.586   3.830  0.2732  0.2740  0.1915
  169SAPE  H18R19038  -0.052   2.671   3.776 -0.4264  1.3841  1.2644
  169SAPE  H18S19039  -0.193   2.573   3.771  0.3140  1.1827 -0.0816
  169SAPE  C21919040  -0.010   2.468   3.819  0.6089 -0.2889  0.3463
  169SAPE  H19R19041  -0.038   2.380   3.882  2.2481 -0.6738  0.5926
  169SAPE  H19S19042   0.094   2.494   3.848  0.6377 -1.0632  0.9947
  169SAPE  C22019043  -0.002   2.423   3.669  0.1468 -0.2996  0.0592
  169SAPE  H20R19044   0.018   2.506   3.598  0.2974 -1.2745 -1.0891
  169SAPE  H20S19045  -0.099   2.375   3.641  0.0068 -0.5808  1.0112
  169SAPE  H20T19046   0.088   2.358   3.663  1.7179  1.8636 -3.8382
  169SAPE   C3319047  -0.227   2.556   3.238  0.4103  0.6593  0.7561
  169SAPE   H3X19048  -0.161   2.471   3.208 -0.9824 -0.3833  0.5481
  169SAPE   H3Y19049  -0.315   2.554   3.170  1.3848  1.4036 -0.5645
  169SAPE   C3419050  -0.275   2.551   3.387 -0.0738  0.4276 -0.3449
  169SAPE   H4X19051  -0.350   2.633   3.391 -0.7300 -0.1678 -0.3035
  169SAPE   H4Y19052  -0.187   2.565   3.454 -0.7613  0.9153  0.4704
  169SAPE   C3519053  -0.335   2.418   3.427 -0.4141  0.4150  0.5537
  169SAPE   H5X19054  -0.268   2.331   3.413  1.8135  2.2263 -0.6910
  169SAPE   H5Y19055  -0.420   2.396   3.359 -1.6186 -2.2205  2.6887
  169SAPE   C3619056  -0.402   2.415   3.571 -0.3084  0.7799  0.2392
  169SAPE   H6X19057  -0.472   2.501   3.567 -0.8717  0.3631  0.8428
  169SAPE   H6Y19058  -0.321   2.440   3.643 -2.8664  2.5126  2.7359
  169SAPE   C3719059  -0.471   2.284   3.604  0.3232  0.2892 -0.2952
  169SAPE   H7X19060  -0.409   2.195   3.578 -0.0137  0.0196 -0.1982
  169SAPE   H7Y19061  -0.563   2.259   3.547 -1.0772  2.2371  0.9795
  169SAPE   C3819062  -0.519   2.272   3.751  0.5910  0.4161  0.2956
  169SAPE   H8X19063  -0.590   2.355   3.774 -0.8670  0.4546 -3.5322
  169SAPE   H8Y19064  -0.438   2.283   3.826  0.5767  2.2047  0.1145
  169SAPE   C3919065  -0.595   2.138   3.782 -0.0293 -0.3365  0.1240
  169SAPE   H9X19066  -0.538   2.051   3.743 -0.9530 -1.4891  1.2308
  169SAPE   H9Y19067  -0.686   2.141   3.718 -0.4635 -0.2081  0.7352
  169SAPE  C31019068  -0.610   2.100   3.926 -0.2949 -0.0711 -0.6262
  169SAPE  H10X19069  -0.655   2.177   3.992 -0.7561  0.2093 -1.2630
  169SAPE  H10Y19070  -0.511   2.086   3.975 -0.6124  4.1148  1.6283
  169SAPE  C31119071  -0.679   1.962   3.945 -0.1257 -0.6979 -0.0004
  169SAPE  H11X19072  -0.626   1.884   3.886 -2.0647 -1.0546 -1.3699
  169SAPE  H11Y19073  -0.780   1.967   3.899  0.3052  0.9965 -0.8654
  169SAPE  C31219074  -0.676   1.907   4.088 -0.2314 -0.2769 -0.2658
  169SAPE  H12X19075  -0.574   1.875   4.117  0.2425  0.9302 -0.5449
  169SAPE  H12Y19076  -0.745   1.820   4.096 -2.0476  1.1795  0.5365
  169SAPE  C31319077  -0.709   2.011   4.194  0.1726  0.7648 -0.8089
  169SAPE  H13X19078  -0.804   2.062   4.166  0.1464  1.4830  0.5362
  169SAPE  H13Y19079  -0.622   2.080   4.196  1.3063 -0.5810  2.0500
  169SAPE  C31419080  -0.744   1.933   4.321  0.2184  1.0954 -0.1230
  169SAPE  H14X19081  -0.660   1.862   4.342 -0.0650  1.2976  1.8664
  169SAPE  H14Y19082  -0.829   1.864   4.303 -0.5548  1.8161  0.7038
  169SAPE  C31519083  -0.769   2.009   4.450  0.4112  0.1435  0.1135
  169SAPE  H15X19084  -0.838   2.094   4.430 -0.6389 -0.4768  0.9643
  169SAPE  H15Y19085  -0.671   2.048   4.484  0.6983  0.2364 -0.7922
  169SAPE  C31619086  -0.843   1.941   4.567 -0.4351  0.2240 -0.0445
  169SAPE  H16X19087  -0.806   1.838   4.584 -2.0654 -0.4116 -0.1144
  169SAPE  H16Y19088  -0.951   1.932   4.540 -0.4245 -1.4099  0.3528
  169SAPE  C31719089  -0.825   2.007   4.701 -0.1255  0.5947 -0.1940
  169SAPE  H17X19090  -0.929   2.011   4.742  0.1726  0.5872  0.5818
  169SAPE  H17Y19091  -0.808   2.117   4.692  0.1836  0.6748  1.1861
  169SAPE  C31819092  -0.719   1.966   4.794 -0.1828  0.0307  0.1613
  169SAPE  H18X19093  -0.726   2.023   4.889  1.0340  0.0936  0.2331
  169SAPE  H18Y19094  -0.614   1.983   4.762 -0.3406 -0.2734 -0.5267
  169SAPE  H18Z19095  -0.728   1.857   4.813  0.9513 -0.2233 -0.6723
  170SAPE     N19096   0.219   4.155   2.464  0.1521 -0.1747  0.8342
  170SAPE   HN119097   0.155   4.224   2.421 -0.9663 -0.0398  2.6477
  170SAPE   HN219098   0.311   4.196   2.437 -0.0940  0.6728  1.2778
  170SAPE   HN319099   0.204   4.064   2.415  0.1312 -0.4781  1.3992
  170SAPE   C1219100   0.191   4.141   2.610 -0.4196  0.4855 -0.4003
  170SAPE  H12A19101   0.080   4.150   2.615 -0.4049  2.3734 -2.1571
  170SAPE  H12B19102   0.236   4.227   2.663 -0.7735 -0.3717  1.3538
  170SAPE   C1119103   0.245   4.011   2.677 -0.2505  0.2754 -0.5598
  170SAPE  H11A19104   0.198   4.008   2.777 -0.4143  1.2813 -0.5881
  170SAPE  H11B19105   0.356   4.010   2.686 -0.1980  0.7111 -1.0742
  170SAPE     P19106   0.120   3.777   2.645 -0.1310  0.1366 -0.3932
  170SAPE   O1319107  -0.018   3.821   2.663 -0.1182  0.3372  0.2971
  170SAPE   O1419108   0.132   3.653   2.561 -0.2039 -0.3152 -0.0684
  170SAPE   O1219109   0.208   3.899   2.596  0.1563 -0.5230 -0.1792
  170SAPE   O1119110   0.193   3.744   2.784  0.0537  0.3323  0.0475
  170SAPE    C119111   0.319   3.676   2.786  0.1255 -0.7450 -0.1738
  170SAPE    HA19112   0.300   3.576   2.740 -3.4660  0.6492 -2.1788
  170SAPE    HB19113   0.394   3.726   2.721 -0.6508  0.1479 -0.3998
  170SAPE    C219114   0.379   3.664   2.933  0.4905 -0.4327 -0.2848
  170SAPE    HS19115   0.459   3.586   2.931  0.5871 -0.4894  2.4814
  170SAPE   O2119116   0.285   3.622   3.034 -0.2719 -0.4142 -0.1902
  170SAPE   C2119117   0.232   3.504   3.026 -0.0905 -0.9043 -0.0575
  170SAPE   O2219118   0.265   3.421   2.942  0.6522  0.2098 -0.2778
  170SAPE   C2219119   0.120   3.495   3.121 -0.4088 -0.3612  0.1528
  170SAPE   H2R19120   0.109   3.591   3.176 -0.0295 -1.0627  1.4979
  170SAPE   H2S19121   0.030   3.470   3.061 -0.0250  0.0594 -0.6186
  170SAPE    C319122   0.433   3.802   2.974  0.0227 -0.0512  0.1344
  170SAPE    HX19123   0.351   3.877   2.967  0.1347  0.1580  0.9417
  170SAPE    HY19124   0.509   3.828   2.897 -0.4832  1.9097  0.2288
  170SAPE   O3119125   0.488   3.805   3.110  0.5349 -0.3697 -0.1716
  170SAPE   C3119126   0.602   3.749   3.126 -0.0789  0.6312 -0.0796
  170SAPE   O3219127   0.678   3.708   3.040 -0.0222 -0.0685  0.0322
  170SAPE   C3219128   0.631   3.735   3.277  0.5070  0.0716  0.4634
  170SAPE   H2X19129   0.741   3.728   3.285  0.4057 -0.7378  1.2401
  170SAPE   H2Y19130   0.586   3.634   3.293 -0.9316  1.0367  2.9319
  170SAPE   C2319131   0.139   3.388   3.235 -0.0859 -0.5632 -0.3908
  170SAPE   H3R19132   0.054   3.398   3.307 -0.4366 -0.8526 -0.7608
  170SAPE   H3S19133   0.227   3.424   3.293  0.3667 -1.8697 -0.2528
  170SAPE   C2419134   0.154   3.239   3.187 -0.2783 -0.1340  0.4150
  170SAPE   H4R19135   0.189   3.187   3.278  1.2920  0.3133  0.0915
  170SAPE   H4S19136   0.229   3.223   3.107 -0.9845  0.7675 -0.4650
  170SAPE   C2519137   0.025   3.184   3.125 -0.0126 -1.1150 -0.0494
  170SAPE   H5R19138   0.003   3.234   3.030  1.2541  0.7730  0.5883
  170SAPE   C2619139  -0.059   3.103   3.189  0.2779 -0.8690 -0.6909
  170SAPE   H6R19140  -0.146   3.059   3.138  0.3125 -0.4999 -1.0696
  170SAPE   C2719141  -0.032   3.066   3.333  0.1580  1.0063  0.2472
  170SAPE   H7R19142  -0.032   3.157   3.395 -2.1710  3.0491 -2.4674
  170SAPE   H7S19143   0.066   3.017   3.351  0.8336  2.4998  0.7604
  170SAPE   C2819144  -0.141   2.978   3.394 -0.0808  0.1702  1.0768
  170SAPE   H8R19145  -0.232   2.964   3.332 -1.0237  1.6679  2.0709
  170SAPE   C2919146  -0.146   2.918   3.513  0.2210  0.1105 -0.7228
  170SAPE   H9R19147  -0.231   2.851   3.537  1.0977 -0.4342  1.0957
  170SAPE  C21019148  -0.033   2.930   3.617  0.2592 -0.0321  0.2959
  170SAPE  H10R19149  -0.069   2.912   3.720  1.6061  0.0646  0.7893
  170SAPE  H10S19150   0.001   3.036   3.613  1.8585 -0.4670  1.7481
  170SAPE  C21119151   0.083   2.837   3.587  0.2532 -0.2960  0.0987
  170SAPE  H11R19152   0.092   2.818   3.479 -1.0983 -0.2527 -0.0403
  170SAPE  C21219153   0.180   2.784   3.669  0.4450 -0.9409  0.3658
  170SAPE  H12R19154   0.244   2.703   3.631  0.7957 -0.8218  0.6926
  170SAPE  C21319155   0.191   2.804   3.818 -0.4888 -1.1588 -0.7032
  170SAPE  H13R19156   0.156   2.709   3.864  0.0307 -0.7733  0.5185
  170SAPE  H13S19157   0.124   2.887   3.851 -0.0637 -0.8348 -0.6541
  170SAPE  C21419158   0.330   2.840   3.860  0.3086 -0.4007 -0.0240
  170SAPE  H14R19159   0.387   2.900   3.788 -2.0814 -2.0558 -3.5809
  170SAPE  C21519160   0.379   2.830   3.991 -0.2697  0.3927  0.2766
  170SAPE  H15R19161   0.486   2.842   4.014  0.2338 -1.8245 -0.6127
  170SAPE  C21619162   0.300   2.785   4.115  0.3734  0.0059 -1.2217
  170SAPE  H16R19163   0.357   2.702   4.162  2.0341  3.0731  2.7391
  170SAPE  H16S19164   0.193   2.773   4.087 -0.0653 -0.1192  0.3951
  170SAPE  C21719165   0.301   2.895   4.219  0.1223 -0.5248 -0.4804
  170SAPE  H17R19166   0.238   2.973   4.170  0.5222 -0.5146 -0.9871
  170SAPE  H17S19167   0.403   2.935   4.237 -0.3535  0.9073 -0.8127
  170SAPE  C21819168   0.244   2.866   4.362  0.6473 -0.6821 -0.2797
  170SAPE  H18R19169   0.138   2.834   4.354  0.3083  0.1343  0.7331
  170SAPE  H18S19170   0.241   2.962   4.418 -0.7534  0.8763 -2.8036
  170SAPE  C21919171   0.327   2.757   4.443  0.2198 -0.7546  0.0987
  170SAPE  H19R19172   0.433   2.789   4.451  0.1724 -0.1160 -1.5130
  170SAPE  H19S19173   0.331   2.663   4.385  2.2422 -0.5228 -0.2091
  170SAPE  C22019174   0.274   2.739   4.580 -0.5413 -0.0737  0.7098
  170SAPE  H20R19175   0.331   2.653   4.621 -0.9658  0.0271  1.5196
  170SAPE  H20S19176   0.167   2.711   4.593 -0.5371 -0.4837 -0.0815
  170SAPE  H20T19177   0.303   2.830   4.637 -1.4345 -0.7552  2.2986
  170SAPE   C3319178   0.572   3.853   3.355 -0.5558  0.1670  0.0537
  170SAPE   H3X19179   0.462   3.841   3.347 -0.5405  0.0225  0.0503
  170SAPE   H3Y19180   0.612   3.939   3.298 -0.4368 -0.0362 -0.1732
  170SAPE   C3419181   0.619   3.869   3.505 -0.0907  0.6708  0.2887
  170SAPE   H4X19182   0.580   3.964   3.547 -0.6685  0.4815  0.2013
  170SAPE   H4Y19183   0.729   3.866   3.493 -0.1978  0.2492 -0.6800
  170SAPE   C3519184   0.568   3.760   3.603  0.3025 -0.3623 -0.4286
  170SAPE   H5X19185   0.581   3.658   3.560  0.4654 -0.5223 -0.0003
  170SAPE   H5Y19186   0.458   3.764   3.613  0.3376 -1.2657  0.3913
  170SAPE   C3619187   0.627   3.745   3.746  0.4763 -0.0551 -0.2171
  170SAPE   H6X19188   0.734   3.772   3.738 -0.0317  1.9856 -0.6187
  170SAPE   H6Y19189   0.617   3.639   3.778  3.6736 -1.1973 -2.5044
  170SAPE   C3719190   0.563   3.842   3.851 -0.7205  0.2368 -0.2017
  170SAPE   H7X19191   0.457   3.813   3.867 -1.2594  1.7341 -0.8862
  170SAPE   H7Y19192   0.583   3.944   3.812  1.4754 -0.4477 -1.0474
  170SAPE   C3819193   0.653   3.834   3.981  0.2007  0.2410  0.2702
  170SAPE   H8X19194   0.753   3.864   3.946  0.2273 -0.9627 -0.7572
  170SAPE   H8Y19195   0.664   3.730   4.018  0.6520  0.6844  1.4231
  170SAPE   C3919196   0.587   3.920   4.100  0.2807  0.0379 -0.1488
  170SAPE   H9X19197   0.488   3.878   4.129  1.0687 -2.0500 -0.3016
  170SAPE   H9Y19198   0.574   4.026   4.070 -3.1243 -0.6170 -1.5658
  170SAPE  C31019199   0.674   3.911   4.227  0.5760 -0.0577 -0.0690
  170SAPE  H10X19200   0.702   3.806   4.250  0.7588  0.0241  0.0841
  170SAPE  H10Y19201   0.631   3.962   4.316  2.7470  1.4821  0.1700
  170SAPE  C31119202   0.815   3.972   4.206 -1.1513 -0.2198 -0.1987
  170SAPE  H11X19203   0.843   3.986   4.099 -0.2105 -1.7061 -0.1566
  170SAPE  H11Y19204   0.893   3.911   4.255  1.2048  1.1942 -1.9441
  170SAPE  C31219205   0.830   4.113   4.267  0.5145  0.1126 -0.4742
  170SAPE  H12X19206   0.938   4.124   4.289  0.8030  1.1349 -2.2764
  170SAPE  H12Y19207   0.773   4.110   4.362  2.2662 -1.1860  0.6078
  170SAPE  C31319208   0.773   4.237   4.182  0.4968 -0.1319  0.5260
  170SAPE  H13X19209   0.787   4.321   4.253  1.0258  0.2360 -0.0165
  170SAPE  H13Y19210   0.663   4.220   4.183  0.4219  0.1887  2.8958
  170SAPE  C31419211   0.829   4.259   4.038 -0.4155  0.8369  0.4477
  170SAPE  H14X19212   0.800   4.168   3.981  0.2682 -0.2715  1.8127
  170SAPE  H14Y19213   0.938   4.279   4.025 -0.8981  1.9917 -3.1308
  170SAPE  C31519214   0.754   4.374   3.960 -0.9019 -0.1574  0.2647
  170SAPE  H15X19215   0.741   4.471   4.013 -0.7419 -0.5364  1.0119
  170SAPE  H15Y19216   0.649   4.341   3.953 -0.3317 -2.0127 -0.0921
  170SAPE  C31619217   0.817   4.403   3.821 -0.4749 -0.6215 -0.0704
  170SAPE  H16X19218   0.918   4.447   3.841 -1.0842  1.3470 -1.0431
  170SAPE  H16Y19219   0.766   4.480   3.760  1.2772  0.2918 -0.4579
  170SAPE  C31719220   0.842   4.280   3.718  0.1268 -0.3971 -0.0594
  170SAPE  H17X19221   0.878   4.190   3.773 -2.0943 -2.1034 -1.2230
  170SAPE  H17Y19222   0.929   4.309   3.655 -0.7952  3.0569  0.0976
  170SAPE  C31819223   0.721   4.234   3.640  0.8131  0.0027  0.3393
  170SAPE  H18X19224   0.666   4.317   3.591  0.6551 -0.2216  0.1355
  170SAPE  H18Y19225   0.648   4.186   3.709  0.9651 -0.1803  0.3752
  170SAPE  H18Z19226   0.761   4.160   3.568  1.8491 -0.1523  1.0546
  171SAPE     N19227   0.414   2.809   2.559 -0.2748 -0.2921 -0.6576
  171SAPE   HN119228   0.420   2.708   2.584 -0.2797 -0.3968 -1.0753
  171SAPE   HN219229   0.460   2.874   2.626 -2.6761  0.6208  0.2322
  171SAPE   HN319230   0.311   2.824   2.555 -0.2849 -0.6294 -2.4691
  171SAPE   C1219231   0.476   2.845   2.431 -0.4211  0.1621  0.3622
  171SAPE  H12A19232   0.416   2.803   2.347  1.6247 -0.6597 -0.7527
  171SAPE  H12B19233   0.568   2.784   2.423 -1.1999 -1.0109  0.0842
  171SAPE   C1119234   0.511   2.993   2.414  0.1662 -0.2001 -0.7567
  171SAPE  H11A19235   0.417   3.051   2.397  0.4794  0.2566 -0.9283
  171SAPE  H11B19236   0.562   3.003   2.316  1.4373  0.9242  0.0028
  171SAPE     P19237   0.660   3.176   2.506 -0.0635  0.9548 -0.0063
  171SAPE   O1319238   0.799   3.163   2.560  0.2803 -0.4664  0.1069
  171SAPE   O1419239   0.639   3.234   2.375 -0.1616  0.1616 -0.9041
  171SAPE   O1219240   0.582   3.047   2.530 -0.9391 -0.1879  0.9106
  171SAPE   O1119241   0.577   3.274   2.597  0.0157  0.1621 -0.2734
  171SAPE    C119242   0.493   3.227   2.704  0.0928  0.7185 -0.1813
  171SAPE    HA19243   0.419   3.303   2.736 -2.8857 -2.2864  0.6479
  171SAPE    HB19244   0.433   3.141   2.669 -0.0814  0.7822 -0.0360
  171SAPE    C219245   0.571   3.183   2.826  0.0912  0.1608  0.2222
  171SAPE    HS19246   0.654   3.116   2.796  0.8145  1.1230  0.0049
  171SAPE   O2119247   0.486   3.123   2.923  0.0187  0.4162  0.2190
  171SAPE   C2119248   0.442   3.005   2.886  0.1796  0.0460 -0.3773
  171SAPE   O2219249   0.486   2.944   2.789 -0.1153  0.1191 -0.0371
  171SAPE   C2219250   0.343   2.952   2.983  0.1368 -0.1034 -0.5155
  171SAPE   H2R19251   0.369   3.006   3.077  0.6445  1.6850 -1.6482
  171SAPE   H2S19252   0.241   2.987   2.956  1.2457  2.1406 -2.0883
  171SAPE    C319253   0.635   3.304   2.904  0.7255 -0.3210  0.4879
  171SAPE    HX19254   0.557   3.377   2.935  0.8318 -0.3252  0.7645
  171SAPE    HY19255   0.714   3.348   2.839  0.2486  1.0313  0.8015
  171SAPE   O3119256   0.687   3.245   3.022 -0.3564  0.1908  0.4790
  171SAPE   C3119257   0.643   3.281   3.137  0.1180 -0.3685 -0.6083
  171SAPE   O3219258   0.580   3.380   3.162  0.0262  0.1517  0.0732
  171SAPE   C3219259   0.694   3.181   3.233  0.4282  0.6281 -0.5349
  171SAPE   H2X19260   0.804   3.171   3.222  0.5219  1.3608 -0.3466
  171SAPE   H2Y19261   0.653   3.082   3.203 -0.1385  0.5424  0.4638
  171SAPE   C2319262   0.346   2.793   3.003 -0.6848  0.2760 -0.0576
  171SAPE   H3R19263   0.444   2.756   3.039 -0.1723  1.1767 -0.4851
  171SAPE   H3S19264   0.334   2.748   2.902  0.9251  2.3297 -1.2605
  171SAPE   C2419265   0.228   2.743   3.088 -0.4963 -0.1163  0.1722
  171SAPE   H4R19266   0.188   2.643   3.059 -3.4925  0.4275  2.0004
  171SAPE   H4S19267   0.141   2.807   3.066  0.0126  0.2563 -0.7815
  171SAPE   C2519268   0.266   2.763   3.237  0.4320  0.4520 -0.2590
  171SAPE   H5R19269   0.257   2.867   3.273 -1.3343 -0.5634  2.5639
  171SAPE   C2619270   0.278   2.657   3.331 -1.0635  0.3657  0.3909
  171SAPE   H6R19271   0.343   2.678   3.417  1.1524  0.8321 -1.2909
  171SAPE   C2719272   0.280   2.511   3.301 -0.4486 -0.5205  0.4081
  171SAPE   H7R19273   0.240   2.492   3.199 -0.8890 -0.1756  0.5159
  171SAPE   H7S19274   0.201   2.464   3.364 -1.3437 -1.4751 -1.3472
  171SAPE   C2819275   0.405   2.434   3.332 -0.0866 -0.4509 -0.6374
  171SAPE   H8R19276   0.464   2.404   3.245  0.6813  0.2621 -0.3711
  171SAPE   C2919277   0.440   2.397   3.458 -0.1743 -0.0381 -0.5574
  171SAPE   H9R19278   0.532   2.340   3.475  1.4258  2.9037  1.5794
  171SAPE  C21019279   0.362   2.420   3.582  0.4784 -0.3966  0.3411
  171SAPE  H10R19280   0.259   2.456   3.563 -0.0211 -1.2771  1.2281
  171SAPE  H10S19281   0.413   2.506   3.629 -0.6648  0.0602  0.7644
  171SAPE  C21119282   0.354   2.310   3.693 -0.1966  0.1189  0.0957
  171SAPE  H11R19283   0.355   2.213   3.641  3.6978  0.2025 -0.3084
  171SAPE  C21219284   0.371   2.313   3.829 -0.6385 -0.1659 -0.0313
  171SAPE  H12R19285   0.382   2.217   3.883  0.3508  0.2044  0.4660
  171SAPE  C21319286   0.380   2.439   3.907 -0.0410  0.4109  0.4866
  171SAPE  H13R19287   0.288   2.434   3.969 -1.2056 -0.1475 -1.2137
  171SAPE  H13S19288   0.365   2.535   3.853  3.6916  1.6875  1.3802
  171SAPE  C21419289   0.506   2.455   3.987  0.2529 -0.4616  0.3798
  171SAPE  H14R19290   0.594   2.487   3.928  0.5298  1.5509  1.7938
  171SAPE  C21519291   0.519   2.429   4.115  0.0090 -0.1201 -0.5870
  171SAPE  H15R19292   0.611   2.440   4.176 -1.0003  0.0145  0.9716
  171SAPE  C21619293   0.406   2.373   4.209  0.3107  0.3316 -0.2074
  171SAPE  H16R19294   0.346   2.294   4.159 -0.7500 -0.4231  2.1290
  171SAPE  H16S19295   0.337   2.450   4.248  0.9984  0.0473  1.6563
  171SAPE  C21719296   0.475   2.292   4.316  0.1191  0.1599 -0.3736
  171SAPE  H17R19297   0.535   2.359   4.381 -0.5394  0.8659 -0.4951
  171SAPE  H17S19298   0.547   2.214   4.281  1.9564  1.7857 -0.4045
  171SAPE  C21819299   0.387   2.231   4.419  0.0920 -0.3067 -0.4514
  171SAPE  H18R19300   0.341   2.143   4.368  2.5161 -1.8921 -0.0492
  171SAPE  H18S19301   0.311   2.303   4.456 -1.1026 -2.8398  2.5013
  171SAPE  C21919302   0.461   2.177   4.545  0.3104 -0.1888  0.0869
  171SAPE  H19R19303   0.526   2.254   4.592  1.6761 -1.8649  1.0629
  171SAPE  H19S19304   0.520   2.091   4.507  0.3069 -0.1812  0.0641
  171SAPE  C22019305   0.371   2.141   4.658 -0.0296  0.2794 -0.2605
  171SAPE  H20R19306   0.300   2.067   4.616 -0.0678 -0.4886  1.1073
  171SAPE  H20S19307   0.303   2.222   4.692  0.3810  1.4607 -2.1264
  171SAPE  H20T19308   0.425   2.092   4.742 -1.3612  1.3733  1.3065
  171SAPE   C3319309   0.643   3.208   3.380  0.2645 -0.3109  0.2859
  171SAPE   H3X19310   0.639   3.317   3.400  0.1576  0.2769 -2.5136
  171SAPE   H3Y19311   0.716   3.171   3.454 -0.9945 -0.5654  1.4465
  171SAPE   C3419312   0.508   3.140   3.417 -0.5048 -0.3875  0.3549
  171SAPE   H4X19313   0.516   3.032   3.396 -0.6503 -0.1445 -1.0389
  171SAPE   H4Y19314   0.430   3.184   3.352  0.5137 -0.9235 -1.3003
  171SAPE   C3519315   0.485   3.162   3.569  0.1941  0.0696 -0.0308
  171SAPE   H5X19316   0.569   3.104   3.613 -0.2064  0.2419  0.9799
  171SAPE   H5Y19317   0.396   3.099   3.587  0.0540  0.5592  1.0430
  171SAPE   C3619318   0.477   3.305   3.614 -0.5310  0.1931 -0.7586
  171SAPE   H6X19319   0.407   3.354   3.543 -0.3715  0.2872 -0.8537
  171SAPE   H6Y19320   0.578   3.347   3.596  1.0940 -1.9757  2.3781
  171SAPE   C3719321   0.425   3.326   3.763 -0.5858  0.2167 -0.0556
  171SAPE   H7X19322   0.395   3.433   3.764  1.9255  0.9970 -0.0145
  171SAPE   H7Y19323   0.508   3.309   3.835  0.6315  2.0607 -0.9107
  171SAPE   C3819324   0.305   3.248   3.811  0.0827  0.0731 -0.1020
  171SAPE   H8X19325   0.327   3.139   3.818  0.1580  0.0094 -1.0896
  171SAPE   H8Y19326   0.222   3.255   3.738  1.7660 -0.6710 -2.2177
  171SAPE   C3919327   0.250   3.302   3.943 -0.0441  0.2306  0.2498
  171SAPE   H9X19328   0.254   3.412   3.953  0.7773  0.3277 -0.9552
  171SAPE   H9Y19329   0.320   3.267   4.022  1.3633 -1.1337 -1.4976
  171SAPE  C31019330   0.103   3.257   3.967  0.7173 -0.5789 -0.4878
  171SAPE  H10X19331   0.099   3.149   3.940  0.4732 -0.9021  0.7819
  171SAPE  H10Y19332   0.047   3.311   3.888  1.1159 -0.9419 -1.0250
  171SAPE  C31119333   0.052   3.278   4.110 -0.0469 -0.0834  0.0597
  171SAPE  H11X19334   0.078   3.381   4.142 -1.2572 -0.1447  1.3548
  171SAPE  H11Y19335   0.106   3.208   4.178 -1.0178  0.7505  1.7594
  171SAPE  C31219336  -0.096   3.252   4.116 -0.8135 -0.2671  0.5055
  171SAPE  H12X19337  -0.136   3.234   4.218 -2.7680  2.0923  0.2467
  171SAPE  H12Y19338  -0.112   3.160   4.055  4.0840  0.1830 -1.9640
  171SAPE  C31319339  -0.185   3.366   4.056  0.1537  0.1292  0.0022
  171SAPE  H13X19340  -0.177   3.361   3.945 -2.2953  0.6031 -0.2632
  171SAPE  H13Y19341  -0.141   3.466   4.075  2.1250 -0.6626 -0.1573
  171SAPE  C31419342  -0.332   3.364   4.101  0.2010  0.0147 -1.0709
  171SAPE  H14X19343  -0.351   3.255   4.104 -0.6129  0.1606  1.8285
  171SAPE  H14Y19344  -0.409   3.408   4.034 -0.4303 -1.7284 -1.5276
  171SAPE  C31519345  -0.365   3.428   4.239  0.6728  0.5814  0.8026
  171SAPE  H15X19346  -0.333   3.533   4.255 -1.6622  1.5245 -0.2329
  171SAPE  H15Y19347  -0.315   3.369   4.319  1.3952  2.4742  1.8229
  171SAPE  C31619348  -0.516   3.434   4.262  0.3303  0.4988 -0.3782
  171SAPE  H16X19349  -0.551   3.331   4.238  2.0395  0.1329 -1.5265
  171SAPE  H16Y19350  -0.550   3.518   4.198  1.8697  2.2108  0.9431
  171SAPE  C31719351  -0.560   3.478   4.405 -0.2509  0.1131 -0.0748
  171SAPE  H17X19352  -0.492   3.558   4.440  1.2815 -1.9536  2.0334
  171SAPE  H17Y19353  -0.534   3.387   4.464  1.2618  0.3524 -0.3280
  171SAPE  C31819354  -0.709   3.506   4.424 -0.3550  1.1295  0.0293
  171SAPE  H18X19355  -0.750   3.564   4.340 -0.8115 -2.8283 -2.7487
  171SAPE  H18Y19356  -0.728   3.578   4.507 -0.1243  2.1085 -0.7616
  171SAPE  H18Z19357  -0.760   3.408   4.434  0.6577  0.4832 -0.9019
  172SAPE     N19358   6.689   4.278   2.323  0.5908 -0.3743 -0.0241
  172SAPE   HN119359   6.643   4.235   2.240 -0.9437  0.5667  0.2874
  172SAPE   HN219360   6.792   4.284   2.316  0.6974  1.1875  1.9143
  172SAPE   HN319361   6.673   4.224   2.410  3.2879  0.1099  0.8629
  172SAPE   C1219362   6.646   4.421   2.328 -0.2230  0.5540  0.7376
  172SAPE  H12A19363   6.574   4.426   2.412  0.8729 -2.3491  1.9803
  172SAPE  H12B19364   6.605   4.450   2.229 -1.2006 -1.2129  0.5782
  172SAPE   C1119365   6.764   4.518   2.374  0.2981  0.0316 -0.5380
  172SAPE  H11A19366   6.805   4.478   2.470 -0.4612  0.0628 -0.1908
  172SAPE  H11B19367   6.718   4.619   2.387 -1.7998 -0.8004 -1.0287
  172SAPE     P19368   6.985   4.451   2.256 -0.0821 -0.1100 -0.3310
  172SAPE   O1319369   6.958   4.319   2.322  0.3760 -0.6158 -0.2428
  172SAPE   O1419370   7.027   4.452   2.119 -0.7101 -0.0180  0.4430
  172SAPE   O1219371   6.858   4.542   2.272 -0.3911  0.9380  0.2106
  172SAPE   O1119372   7.090   4.528   2.343  0.0642 -0.1267 -0.2692
  172SAPE    C119373   7.142   4.655   2.299  0.6444 -0.7853  0.1185
  172SAPE    HA19374   7.198   4.655   2.203 -0.7877 -1.0734 -0.7398
  172SAPE    HB19375   7.059   4.728   2.286  1.1768 -0.2490 -0.3871
  172SAPE    C219376   7.232   4.711   2.415  0.2039  0.3843  0.3856
  172SAPE    HS19377   7.320   4.642   2.419  0.3642  0.6360  2.6310
  172SAPE   O2119378   7.158   4.706   2.542 -0.1631 -0.5007 -0.0331
  172SAPE   C2119379   7.067   4.802   2.561 -0.1559 -0.0605 -0.9770
  172SAPE   O2219380   7.037   4.894   2.491  0.0093 -0.5855  0.2408
  172SAPE   C2219381   7.000   4.768   2.693  0.0257  0.2680 -0.2092
  172SAPE   H2R19382   6.962   4.664   2.689 -0.1774  0.3706 -1.6321
  172SAPE   H2S19383   7.076   4.784   2.772  1.1430  0.3452 -1.2707
  172SAPE    C319384   7.289   4.845   2.364  0.1008  0.1666  0.5633
  172SAPE    HX19385   7.197   4.891   2.324 -0.7119 -0.8902  1.1584
  172SAPE    HY19386   7.363   4.825   2.284  1.3476  1.8048  1.2305
  172SAPE   O3119387   7.356   4.914   2.473 -0.0339 -0.3666  0.0870
  172SAPE   C3119388   7.333   5.040   2.464 -0.2925  0.5835 -0.6793
  172SAPE   O3219389   7.280   5.092   2.369  0.4111 -0.1261  0.1206
  172SAPE   C3219390   7.397   5.116   2.581 -0.1778  0.2825 -1.0510
  172SAPE   H2X19391   7.321   5.122   2.662  1.2488 -0.6086  0.4235
  172SAPE   H2Y19392   7.421   5.212   2.532 -0.5571  0.5351 -0.7500
  172SAPE   C2319393   6.896   4.884   2.714  0.4824 -0.4640  0.0379
  172SAPE   H3R19394   6.829   4.886   2.626 -0.5475  0.6539  0.8216
  172SAPE   H3S19395   6.947   4.982   2.726  1.4488 -0.6372 -2.1562
  172SAPE   C2419396   6.809   4.849   2.834  0.7147  0.0079  0.1791
  172SAPE   H4R19397   6.868   4.805   2.918 -1.3705 -2.0495  0.6682
  172SAPE   H4S19398   6.739   4.766   2.811  1.0414 -0.4598  0.8042
  172SAPE   C2519399   6.729   4.978   2.876  0.6360 -0.6738 -0.2293
  172SAPE   H5R19400   6.673   5.025   2.794  0.3210 -0.3594  0.1631
  172SAPE   C2619401   6.725   5.042   2.997  0.7881 -0.7312 -0.0242
  172SAPE   H6R19402   6.666   5.134   3.007  1.7935 -0.2070  1.4492
  172SAPE   C2719403   6.804   5.001   3.116 -0.1959 -0.2829 -0.3842
  172SAPE   H7R19404   6.848   5.095   3.155  4.0080 -2.1959  0.0247
  172SAPE   H7S19405   6.891   4.936   3.094  0.0718 -0.4299  1.0449
  172SAPE   C2819406   6.703   4.937   3.214 -0.4713  0.8931 -0.1366
  172SAPE   H8R19407   6.672   4.833   3.199  2.0328 -0.3906  2.6562
  172SAPE   C2919408   6.665   4.998   3.325 -0.0539  0.2388 -0.1635
  172SAPE   H9R19409   6.608   4.931   3.391  1.8992 -2.4453 -1.0027
  172SAPE  C21019410   6.677   5.143   3.356 -0.0102  0.0946  0.4179
  172SAPE  H10R19411   6.656   5.209   3.269 -0.1232 -0.7630 -0.2111
  172SAPE  H10S19412   6.783   5.158   3.386  0.1367  0.2476 -0.1677
  172SAPE  C21119413   6.588   5.188   3.472  0.2257 -0.0432 -0.2107
  172SAPE  H11R19414   6.493   5.234   3.440 -0.8195 -2.1791 -0.3622
  172SAPE  C21219415   6.612   5.173   3.599  0.2477 -0.2569 -0.3129
  172SAPE  H12R19416   6.532   5.197   3.670 -2.1372 -1.3760 -2.4480
  172SAPE  C21319417   6.737   5.116   3.662 -0.1816  0.7372  0.5047
  172SAPE  H13R19418   6.790   5.050   3.590 -0.1309  1.4321 -0.1104
  172SAPE  H13S19419   6.709   5.055   3.750 -0.9579 -0.4052 -0.5033
  172SAPE  C21419420   6.839   5.225   3.713  0.5235  0.1255  0.4577
  172SAPE  H14R19421   6.904   5.273   3.638  0.3520 -0.6585 -0.2114
  172SAPE  C21519422   6.841   5.264   3.842  0.9488 -0.3022 -0.0932
  172SAPE  H15R19423   6.920   5.332   3.876  0.7747 -0.7451  1.2745
  172SAPE  C21619424   6.745   5.219   3.950 -0.1753  0.4115 -0.0874
  172SAPE  H16R19425   6.680   5.133   3.927  2.2362 -1.0989 -1.6954
  172SAPE  H16S19426   6.669   5.295   3.980 -0.9372 -1.6114  3.7694
  172SAPE  C21719427   6.808   5.183   4.085  0.5458  0.5513 -0.4392
  172SAPE  H17R19428   6.838   5.266   4.152  1.3749 -0.7312  0.8249
  172SAPE  H17S19429   6.894   5.119   4.053 -0.8332 -0.2477 -2.7691
  172SAPE  C21819430   6.707   5.104   4.176 -0.0115  1.1108  0.2395
  172SAPE  H18R19431   6.768   5.065   4.261  1.0034 -0.8117 -1.2934
  172SAPE  H18S19432   6.668   5.022   4.112 -0.6851  2.5438 -1.2513
  172SAPE  C21919433   6.577   5.179   4.217 -0.0275 -0.5590  0.0859
  172SAPE  H19R19434   6.524   5.124   4.298 -1.7048 -0.1469 -0.6870
  172SAPE  H19S19435   6.501   5.185   4.137 -1.3547 -1.3396  1.2370
  172SAPE  C22019436   6.596   5.325   4.273  0.2187 -0.0748 -0.3219
  172SAPE  H20R19437   6.664   5.330   4.361  0.1068 -0.1371 -0.2315
  172SAPE  H20S19438   6.497   5.368   4.301  1.0124  1.4010  0.3735
  172SAPE  H20T19439   6.629   5.401   4.200  0.0241  1.1066  0.7726
  172SAPE   C3319440   7.518   5.042   2.650 -0.2052 -0.8301 -0.0157
  172SAPE   H3X19441   7.591   5.006   2.575 -2.5960 -1.2665 -2.2600
  172SAPE   H3Y19442   7.472   4.959   2.707  0.4105 -0.1629  1.5234
  172SAPE   C3419443   7.604   5.130   2.748  0.7230 -0.1602 -0.0330
  172SAPE   H4X19444   7.607   5.235   2.713  0.6690 -0.0977  0.1458
  172SAPE   H4Y19445   7.707   5.091   2.761  0.0106 -1.4890  2.4775
  172SAPE   C3519446   7.535   5.128   2.885 -0.4843 -0.0540 -0.2175
  172SAPE   H5X19447   7.505   5.026   2.916 -1.7018  0.0421 -0.9975
  172SAPE   H5Y19448   7.453   5.203   2.884  0.7187  1.3370  0.1658
  172SAPE   C3619449   7.634   5.180   2.998 -0.1790 -0.1208 -0.0310
  172SAPE   H6X19450   7.666   5.283   2.974  0.1978 -0.2456 -0.0827
  172SAPE   H6Y19451   7.726   5.117   2.995  0.2550  0.5506 -1.5966
  172SAPE   C3719452   7.588   5.167   3.144 -0.2695 -0.5280  0.0827
  172SAPE   H7X19453   7.679   5.196   3.202  0.4173 -4.4152  1.2460
  172SAPE   H7Y19454   7.561   5.060   3.157 -0.7740 -0.4753 -0.5285
  172SAPE   C3819455   7.472   5.254   3.186  0.5507  0.0793 -0.3871
  172SAPE   H8X19456   7.386   5.243   3.117  1.2821  2.7411 -1.8512
  172SAPE   H8Y19457   7.502   5.361   3.185 -0.8628  0.5150  0.6622
  172SAPE   C3919458   7.428   5.227   3.334  0.2112  0.5264  0.3659
  172SAPE   H9X19459   7.476   5.144   3.390 -0.0142 -0.0206 -0.2398
  172SAPE   H9Y19460   7.321   5.205   3.317  0.5881  0.3334 -2.0924
  172SAPE  C31019461   7.436   5.350   3.426  0.6053  0.1667  0.0104
  172SAPE  H10X19462   7.390   5.444   3.386  2.1291  1.6146  1.4807
  172SAPE  H10Y19463   7.546   5.367   3.435  1.0483 -1.9583 -0.8277
  172SAPE  C31119464   7.374   5.304   3.556  0.2047 -0.4571 -0.3112
  172SAPE  H11X19465   7.431   5.218   3.599  1.3817  0.4530 -0.0043
  172SAPE  H11Y19466   7.272   5.264   3.535  0.2953 -1.0906  0.3750
  172SAPE  C31219467   7.381   5.416   3.661  0.8249  0.1744 -0.1500
  172SAPE  H12X19468   7.317   5.504   3.642 -0.4761 -0.5867  0.5544
  172SAPE  H12Y19469   7.489   5.440   3.670  1.2554 -1.4015 -0.7720
  172SAPE  C31319470   7.334   5.365   3.799  0.6595  0.8552  0.7728
  172SAPE  H13X19471   7.398   5.277   3.820  1.3267  1.0574 -0.2772
  172SAPE  H13Y19472   7.224   5.351   3.798  0.8262 -0.5154 -0.1244
  172SAPE  C31419473   7.352   5.470   3.906  0.5357 -0.4103  0.0157
  172SAPE  H14X19474   7.309   5.570   3.885  0.6747 -0.0157  1.5020
  172SAPE  H14Y19475   7.459   5.493   3.924  0.0086  2.4174 -0.0907
  172SAPE  C31519476   7.292   5.420   4.038 -0.3389  0.2339  0.4391
  172SAPE  H15X19477   7.352   5.335   4.078  0.8166  0.6729 -0.3101
  172SAPE  H15Y19478   7.191   5.375   4.032  0.5768 -1.9824  0.6050
  172SAPE  C31619479   7.292   5.535   4.143  0.7263  0.4881  0.2442
  172SAPE  H16X19480   7.245   5.629   4.107 -1.0677  0.3454  2.0095
  172SAPE  H16Y19481   7.399   5.540   4.172  0.2536  0.1724  2.1811
  172SAPE  C31719482   7.212   5.494   4.271  1.1649  0.6227 -0.3050
  172SAPE  H17X19483   7.240   5.573   4.344  0.4216  0.1412  0.5131
  172SAPE  H17Y19484   7.238   5.393   4.308 -1.0329 -0.2639 -1.0300
  172SAPE  C31819485   7.058   5.490   4.267  0.1854  0.2092  0.3363
  172SAPE  H18X19486   7.014   5.580   4.219  0.1577  0.0760  0.1136
  172SAPE  H18Y19487   6.997   5.470   4.358 -0.9355  1.5323 -0.0990
  172SAPE  H18Z19488   7.034   5.411   4.193 -1.0181  0.9209 -0.0682
  173SLPC     N19489   5.903   6.611   6.783 -0.1648  0.2902  0.7253
  173SLPC   C1319490   5.850   6.554   6.655 -0.0290  0.1516 -0.1004
  173SLPC  H13A19491   5.798   6.637   6.610 -3.5849 -1.7127  0.2426
  173SLPC  H13B19492   5.931   6.521   6.591  1.0954 -2.5101  2.4242
  173SLPC  H13C19493   5.797   6.462   6.673 -0.3089  0.0248 -1.4781
  173SLPC   C1419494   5.996   6.514   6.837 -0.5707  0.1449 -0.4413
  173SLPC  H14A19495   6.047   6.557   6.922 -1.6636  1.0637 -0.2229
  173SLPC  H14B19496   5.929   6.437   6.874 -2.7585  2.4877  0.7779
  173SLPC  H14C19497   6.073   6.481   6.769 -0.8946 -0.0683 -0.7100
  173SLPC   C1519498   5.795   6.644   6.871 -0.4420 -0.2032 -0.1762
  173SLPC  H15A19499   5.839   6.691   6.958 -1.0531  0.5726 -0.2781
  173SLPC  H15B19500   5.739   6.722   6.823 -1.9323 -1.1097  0.0328
  173SLPC  H15C19501   5.737   6.559   6.903  1.1138 -1.2563 -0.0191
  173SLPC   C1219502   5.975   6.741   6.751 -0.2578 -0.1149  0.0384
  173SLPC  H12A19503   5.915   6.813   6.698 -0.3669 -1.9296 -2.4783
  173SLPC  H12B19504   6.051   6.726   6.676 -1.9548 -1.3802 -1.5064
  173SLPC   C1119505   6.035   6.824   6.871 -0.3440 -0.7797  0.5870
  173SLPC  H11A19506   5.948   6.880   6.912 -0.5150  0.5350 -1.4129
  173SLPC  H11B19507   6.096   6.908   6.829 -2.3171  1.9657  2.8019
  173SLPC     P19508   6.257   6.713   6.952 -0.2564  0.2435  0.2928
  173SLPC   O1319509   6.334   6.777   7.061  0.1554 -0.5291 -0.2234
  173SLPC   O1419510   6.265   6.569   6.943 -0.3981  0.4772  0.1005
  173SLPC   O1219511   6.104   6.751   6.974 -0.6513  0.4344 -0.3177
  173SLPC   O1119512   6.312   6.779   6.816  0.0823 -1.3427  0.2721
  173SLPC    C119513   6.396   6.702   6.727  0.3706 -0.9976 -0.2303
  173SLPC    HA19514   6.502   6.736   6.724  0.5798 -1.5627 -3.6129
  173SLPC    HB19515   6.414   6.600   6.766  1.3384 -0.1499  1.6659
  173SLPC    C219516   6.349   6.719   6.574  0.2627  0.1050 -0.6382
  173SLPC    HS19517   6.259   6.654   6.564 -0.9451  1.4096  1.0583
  173SLPC   O2119518   6.469   6.683   6.494  0.5082  0.8489  0.0192
  173SLPC   C2119519   6.475   6.561   6.442 -0.5394 -0.5904  0.4339
  173SLPC   O2219520   6.398   6.471   6.471  0.0244 -0.2652  0.2661
  173SLPC   C2219521   6.596   6.566   6.351 -0.0548  0.6571  0.3922
  173SLPC   H2R19522   6.628   6.668   6.323  0.5411  0.5718  0.7292
  173SLPC   H2S19523   6.678   6.517   6.408  0.4803  0.3075 -0.6502
  173SLPC    C319524   6.301   6.854   6.528  0.0106 -0.5342 -0.2115
  173SLPC    HX19525   6.390   6.919   6.526 -0.6336  0.3476 -1.1840
  173SLPC    HY19526   6.226   6.893   6.600  0.9052 -0.3458  0.6282
  173SLPC   O3119527   6.242   6.854   6.396  0.7886 -0.2042 -1.1990
  173SLPC   C3119528   6.126   6.796   6.382 -0.1773  0.0924  0.1760
  173SLPC   O3219529   6.058   6.753   6.477 -0.1079 -0.2582  0.7015
  173SLPC   C3219530   6.088   6.786   6.239  0.4596 -0.5335 -0.0183
  173SLPC   H2X19531   6.159   6.737   6.169  1.5732  1.8485 -0.6719
  173SLPC   H2Y19532   6.082   6.895   6.215  0.0673 -0.5400  0.0532
  173SLPC   C2319533   6.573   6.488   6.214  0.6615 -0.2822 -0.7535
  173SLPC   H3R19534   6.558   6.381   6.241  2.1353  0.1550  2.2044
  173SLPC   H3S19535   6.669   6.479   6.159  0.5519  1.9554 -1.3998
  173SLPC   C2419536   6.455   6.551   6.130 -0.3881  1.1531 -0.8302
  173SLPC   H4R19537   6.482   6.655   6.102  1.3557  1.7283  2.5058
  173SLPC   H4S19538   6.359   6.556   6.186  0.4339  0.1814  0.7316
  173SLPC   C2519539   6.427   6.484   5.997  0.4128  0.1333 -0.5522
  173SLPC   H5R19540   6.395   6.379   6.012 -1.1997  0.3897 -1.8753
  173SLPC   H5S19541   6.520   6.483   5.935  1.7221 -0.1357  1.3369
  173SLPC   C2619542   6.311   6.549   5.929 -0.2616  0.3984  0.5950
  173SLPC   H6R19543   6.328   6.658   5.912 -0.3902  0.1360 -1.4591
  173SLPC   H6S19544   6.221   6.557   5.995 -1.4693 -1.8313 -0.6664
  173SLPC   C2719545   6.284   6.466   5.802  0.3701 -0.3140 -0.6576
  173SLPC   H7R19546   6.175   6.475   5.780  0.5196  0.9965 -0.9455
  173SLPC   H7S19547   6.305   6.358   5.816  0.9555 -0.2711 -1.1635
  173SLPC   C2819548   6.359   6.521   5.681 -0.3817 -0.4131 -0.2109
  173SLPC   H8R19549   6.363   6.632   5.692 -3.3530 -0.1212 -1.2628
  173SLPC   H8S19550   6.284   6.509   5.600 -3.5080  1.2614  2.1814
  173SLPC   C2919551   6.499   6.455   5.647 -0.1910  0.1131  0.8559
  173SLPC   H9R19552   6.586   6.513   5.681 -0.3100 -1.3704  4.0385
  173SLPC  C21019553   6.518   6.343   5.572  0.2309  0.3994 -0.0789
  173SLPC  H10R19554   6.620   6.304   5.560  0.0893 -0.1584  0.5000
  173SLPC  C21119555   6.409   6.265   5.499 -0.6480 -0.7327 -0.2289
  173SLPC  H11R19556   6.355   6.343   5.441 -0.5795  1.0398  1.9703
  173SLPC  H11S19557   6.337   6.208   5.562 -0.7902 -0.5533 -0.2278
  173SLPC  C21219558   6.482   6.169   5.411 -0.0268  0.2941  0.6524
  173SLPC  H12R19559   6.522   6.087   5.473  1.7588  0.1274 -0.6477
  173SLPC  C21319560   6.494   6.163   5.275 -0.0361  0.2267 -0.1126
  173SLPC  H13R19561   6.564   6.088   5.236 -1.4026 -0.7915 -0.7176
  173SLPC  C21419562   6.440   6.266   5.187 -0.3547  0.1604  0.5126
  173SLPC  H14R19563   6.467   6.365   5.229 -0.8378  1.3338 -1.7694
  173SLPC  H14S19564   6.329   6.262   5.194 -0.5609  0.0582 -2.0125
  173SLPC  C21519565   6.494   6.268   5.050  0.3791 -0.3634  0.0681
  173SLPC  H15R19566   6.604   6.251   5.045  0.9197  2.3443  0.9901
  173SLPC  H15S19567   6.482   6.369   5.007  1.7628  0.2378  1.0065
  173SLPC  C21619568   6.413   6.167   4.966 -0.2382 -0.5256 -0.5793
  173SLPC  H16R19569   6.307   6.199   4.966  0.8716  3.9591  1.7271
  173SLPC  H16S19570   6.410   6.067   5.015 -2.9005 -1.5282 -2.5644
  173SLPC  C21719571   6.460   6.151   4.824  0.9738 -0.3187  0.2531
  173SLPC  H17R19572   6.569   6.140   4.809  0.8923  0.1922 -0.8344
  173SLPC  H17S19573   6.428   6.245   4.773 -2.4371 -0.4742  1.8056
  173SLPC  C21819574   6.390   6.037   4.745 -0.7483 -0.3276  0.5269
  173SLPC  H18R19575   6.416   5.940   4.792  0.1353  0.0392  0.8340
  173SLPC  H18S19576   6.427   6.033   4.640  0.5034 -0.3313  0.9476
  173SLPC  H18T19577   6.281   6.054   4.738 -0.6673  0.0646  0.1570
  173SLPC   C3319578   5.940   6.742   6.212  0.1149 -0.0855  0.0435
  173SLPC   H3X19579   5.873   6.788   6.287 -1.8903 -1.9896 -0.4739
  173SLPC   H3Y19580   5.927   6.633   6.229 -0.0418  0.1885  1.7851
  173SLPC   C3419581   5.885   6.767   6.068  0.8890 -0.4275  0.7581
  173SLPC   H4X19582   5.886   6.875   6.044  1.9455 -0.4010  0.8949
  173SLPC   H4Y19583   5.786   6.716   6.066  0.1353  0.9271 -1.7235
  173SLPC   C3519584   5.964   6.716   5.950 -0.2368  0.2154 -0.1534
  173SLPC   H5X19585   5.958   6.605   5.958 -2.6584  0.0707 -2.5748
  173SLPC   H5Y19586   6.068   6.753   5.961  0.6338 -2.1303  0.1089
  173SLPC   C3619587   5.919   6.753   5.808 -0.3517  0.2605  0.2139
  173SLPC   H6X19588   5.915   6.863   5.790  0.3107  0.0821 -1.1878
  173SLPC   H6Y19589   5.816   6.712   5.801  0.4898 -2.1504  0.8620
  173SLPC   C3719590   6.008   6.709   5.691  0.2233 -0.3475  0.1553
  173SLPC   H7X19591   5.988   6.600   5.677  0.2485 -0.3392  0.0503
  173SLPC   H7Y19592   6.117   6.722   5.708  0.1175  3.5910 -1.3562
  173SLPC   C3819593   5.971   6.775   5.566 -0.4829  0.1491  0.2154
  173SLPC   H8X19594   5.984   6.885   5.578  1.7755  0.1762 -1.8189
  173SLPC   H8Y19595   5.865   6.766   5.536  0.4524 -1.2479 -3.0300
  173SLPC   C3919596   6.063   6.739   5.450  0.2010 -0.4832 -0.2153
  173SLPC   H9X19597   6.167   6.769   5.475  1.0810 -1.2887 -2.5375
  173SLPC   H9Y19598   6.030   6.804   5.365  0.6625  0.6135  0.4257
  173SLPC  C31019599   6.051   6.592   5.406  0.1103 -0.0413  0.4088
  173SLPC  H10X19600   5.945   6.581   5.374 -0.0367 -0.9240  1.1644
  173SLPC  H10Y19601   6.056   6.531   5.498 -2.1127  1.5653  1.6928
  173SLPC  C31119602   6.150   6.554   5.292  0.3733  0.2136  0.3593
  173SLPC  H11X19603   6.171   6.445   5.292 -1.1286 -0.1058 -1.0850
  173SLPC  H11Y19604   6.246   6.600   5.325  0.9101 -1.2266  0.9152
  173SLPC  C31219605   6.109   6.594   5.151 -0.1155  0.7973  0.2408
  173SLPC  H12X19606   6.090   6.703   5.139 -0.6345  0.5079 -2.1383
  173SLPC  H12Y19607   6.013   6.548   5.121  1.5099 -0.7080 -3.2694
  173SLPC  C31319608   6.194   6.522   5.041  0.0572 -1.0818 -0.6598
  173SLPC  H13X19609   6.206   6.418   5.078  0.8112 -1.0301 -0.7366
  173SLPC  H13Y19610   6.292   6.575   5.048  0.0211 -1.0977  0.1044
  173SLPC  C31419611   6.127   6.531   4.898 -0.2372 -0.2453  0.1539
  173SLPC  H14X19612   6.104   6.635   4.867  0.9236 -0.1043 -0.2888
  173SLPC  H14Y19613   6.025   6.487   4.892  0.0215 -1.0251  1.1523
  173SLPC  C31519614   6.221   6.481   4.786 -0.0530 -0.4518  0.1355
  173SLPC  H15X19615   6.231   6.371   4.776 -0.6304 -0.5133  0.1768
  173SLPC  H15Y19616   6.325   6.512   4.810 -0.5183 -0.2336  1.9945
  173SLPC  C31619617   6.167   6.527   4.651 -0.3167  0.6503  0.7388
  173SLPC  H16X19618   6.175   6.637   4.644 -1.2422  0.7543  1.1162
  173SLPC  H16Y19619   6.057   6.510   4.648 -0.1783 -0.1469 -0.2974
  173SLPC  C31719620   6.248   6.464   4.540  0.3059 -0.2732  0.4632
  173SLPC  H17X19621   6.206   6.493   4.441  0.4971 -1.2037  0.1015
  173SLPC  H17Y19622   6.272   6.357   4.555  1.3492  0.1108  1.7790
  173SLPC  C31819623   6.391   6.521   4.526  0.1967 -0.1866  0.7627
  173SLPC  H18X19624   6.379   6.626   4.492  1.5208  1.0934  3.8337
  173SLPC  H18Y19625   6.447   6.458   4.454 -0.4697  0.1858 -0.1013
  173SLPC  H18Z19626   6.444   6.517   4.624 -1.1538 -0.9861  1.4988
  174SLPC     N19627   3.778   2.174   6.873  0.0666  0.2908 -1.9216
  174SLPC   C1319628   3.850   2.229   6.997 -0.7865  0.9354  0.4366
  174SLPC  H13A19629   3.943   2.270   6.959 -0.4624  1.5423  1.8548
  174SLPC  H13B19630   3.792   2.309   7.038  0.2384  0.7464  2.3428
  174SLPC  H13C19631   3.877   2.153   7.069 -1.9319 -0.8608 -0.9301
  174SLPC   C1419632   3.769   2.288   6.776 -0.2318  0.3933  0.2462
  174SLPC  H14A19633   3.867   2.329   6.757 -0.5271  0.3420 -1.6075
  174SLPC  H14B19634   3.722   2.260   6.682  0.5406 -2.2910  0.5738
  174SLPC  H14C19635   3.707   2.363   6.823 -1.7734 -1.8917  2.0559
  174SLPC   C1519636   3.643   2.130   6.914  0.0743  0.3470 -0.2890
  174SLPC  H15A19637   3.597   2.215   6.963  0.2196  0.0663  0.3446
  174SLPC  H15B19638   3.590   2.111   6.821  2.1968  1.9873 -1.9517
  174SLPC  H15C19639   3.636   2.039   6.971  1.7513 -0.8747 -1.9167
  174SLPC   C1219640   3.854   2.060   6.811  0.3073 -0.1251  0.0527
  174SLPC  H12A19641   3.881   1.980   6.878  0.9935  1.3320  1.6027
  174SLPC  H12B19642   3.946   2.108   6.782 -0.9891  1.4776 -1.6121
  174SLPC   C1119643   3.795   1.996   6.681  0.1065 -0.3144  0.8650
  174SLPC  H11A19644   3.868   1.948   6.611  2.0292  2.6781  0.5969
  174SLPC  H11B19645   3.746   2.083   6.632 -1.9548 -1.9860 -0.2223
  174SLPC     P19646   3.568   1.880   6.645  0.1899  0.1933 -0.1014
  174SLPC   O1319647   3.499   1.759   6.695  0.1807 -0.2670  0.0669
  174SLPC   O1419648   3.496   2.010   6.645 -0.1483  0.3049 -0.3305
  174SLPC   O1219649   3.703   1.896   6.723  0.1921 -0.2072  0.0055
  174SLPC   O1119650   3.602   1.845   6.495 -0.2871 -0.0920  0.6838
  174SLPC    C119651   3.624   1.943   6.389  0.9463 -0.1321  0.0307
  174SLPC    HA19652   3.691   2.026   6.418  0.6570 -0.1548  0.7822
  174SLPC    HB19653   3.665   1.884   6.304 -1.2665 -0.1403 -1.1082
  174SLPC    C219654   3.500   2.006   6.319 -0.4526  0.3465  0.3782
  174SLPC    HS19655   3.434   2.065   6.386 -0.4670  1.0262 -0.2238
  174SLPC   O2119656   3.433   1.889   6.263 -0.3789 -0.5450 -0.1300
  174SLPC   C2119657   3.302   1.899   6.243 -0.0735 -0.5222  0.0170
  174SLPC   O2219658   3.226   1.984   6.282 -0.4210  0.0663  0.8042
  174SLPC   C2219659   3.252   1.776   6.175  0.0083 -0.0539  0.0611
  174SLPC   H2R19660   3.278   1.691   6.241  1.4446  0.8390  0.6853
  174SLPC   H2S19661   3.143   1.783   6.155  0.1606 -0.1595 -0.8813
  174SLPC    C319662   3.548   2.112   6.213  0.8428  0.4189 -0.0532
  174SLPC    HX19663   3.595   2.200   6.263 -4.2286  2.0960  2.5297
  174SLPC    HY19664   3.451   2.149   6.173  0.4168  0.6336  1.1165
  174SLPC   O3119665   3.639   2.058   6.116 -0.3478  0.0193  0.6015
  174SLPC   C3119666   3.582   2.024   5.995 -0.3784  0.4897  0.3918
  174SLPC   O3219667   3.471   2.060   5.962 -0.9144  0.4533  0.6644
  174SLPC   C3219668   3.674   1.933   5.923 -0.0208 -0.1072  0.5756
  174SLPC   H2X19669   3.664   1.829   5.962  1.6561 -0.7165 -0.5182
  174SLPC   H2Y19670   3.780   1.953   5.948 -0.5713  0.1481  2.9978
  174SLPC   C2319671   3.321   1.749   6.038  0.0342 -0.0286  0.4677
  174SLPC   H3R19672   3.428   1.749   6.069  1.5811  0.8737 -4.1622
  174SLPC   H3S19673   3.307   1.835   5.968 -2.4437 -0.4248  0.3872
  174SLPC   C2419674   3.278   1.626   5.970 -0.3086 -0.0732  0.1783
  174SLPC   H4R19675   3.172   1.641   5.941 -0.3311 -1.1027 -0.3291
  174SLPC   H4S19676   3.274   1.544   6.045  0.9719 -0.2048  0.1286
  174SLPC   C2519677   3.364   1.582   5.852 -0.6848  0.0527 -0.0481
  174SLPC   H5R19678   3.329   1.480   5.825 -1.2805  0.3418 -0.3968
  174SLPC   H5S19679   3.469   1.562   5.881 -0.7279 -1.4619 -0.7846
  174SLPC   C2619680   3.348   1.667   5.731 -0.3679  0.7923  0.6108
  174SLPC   H6R19681   3.345   1.770   5.772  0.3174  1.4380 -0.8869
  174SLPC   H6S19682   3.250   1.649   5.681 -0.6321 -1.6798  1.8613
  174SLPC   C2719683   3.470   1.650   5.634 -0.2207 -0.3724 -0.0827
  174SLPC   H7R19684   3.487   1.544   5.605 -0.1093 -0.5452  0.5822
  174SLPC   H7S19685   3.563   1.697   5.672  0.8109 -2.2885 -0.1144
  174SLPC   C2819686   3.450   1.715   5.488 -0.1306  0.5129  0.3528
  174SLPC   H8R19687   3.377   1.654   5.431  0.4850 -0.4712  0.5923
  174SLPC   H8S19688   3.546   1.696   5.437 -0.0017  1.1220  0.3545
  174SLPC   C2919689   3.417   1.857   5.496  0.3931  0.7008 -0.8016
  174SLPC   H9R19690   3.359   1.898   5.580  1.8198  1.8200 -0.3218
  174SLPC  C21019691   3.446   1.944   5.398  0.2422  0.2996 -0.9374
  174SLPC  H10R19692   3.403   2.045   5.405 -1.0036 -0.2802  0.3576
  174SLPC  C21119693   3.534   1.921   5.278 -0.0485  0.4888  0.3078
  174SLPC  H11R19694   3.543   1.816   5.241  0.3996  1.2752 -1.9628
  174SLPC  H11S19695   3.636   1.958   5.301  0.1627  0.9209 -1.2252
  174SLPC  C21219696   3.484   2.002   5.156 -0.2997 -0.4884  0.2376
  174SLPC  H12R19697   3.434   2.095   5.187  0.6305 -0.4238  1.6310
  174SLPC  C21319698   3.511   1.996   5.023  0.2912  0.1538  0.5416
  174SLPC  H13R19699   3.459   2.061   4.950 -2.1161 -0.9420  1.1970
  174SLPC  C21419700   3.582   1.893   4.945 -0.0673  0.7041 -0.9612
  174SLPC  H14R19701   3.516   1.862   4.862  0.9027 -0.5567 -1.2857
  174SLPC  H14S19702   3.605   1.802   5.004  0.9751  0.3929 -1.8194
  174SLPC  C21519703   3.711   1.943   4.882 -0.1436 -0.1557 -0.2981
  174SLPC  H15R19704   3.756   1.854   4.832  1.0610  0.9982 -1.3405
  174SLPC  H15S19705   3.779   1.971   4.965 -0.5238 -0.7281  0.2138
  174SLPC  C21619706   3.695   2.050   4.771  0.4628  0.1986  0.0521
  174SLPC  H16R19707   3.796   2.091   4.749  0.4944  0.3185  0.4198
  174SLPC  H16S19708   3.622   2.129   4.800  0.8093  0.7300 -0.4879
  174SLPC  C21719709   3.645   2.005   4.632  0.0306 -0.8564 -0.1982
  174SLPC  H17R19710   3.549   1.950   4.642 -0.3913  0.0547  0.9033
  174SLPC  H17S19711   3.720   1.928   4.604 -0.6517 -1.9453  0.8770
  174SLPC  C21819712   3.641   2.123   4.540 -0.2472  0.4044  0.2665
  174SLPC  H18R19713   3.566   2.197   4.573  0.6179  1.4447 -0.0421
  174SLPC  H18S19714   3.621   2.092   4.435  1.9460  2.1953 -0.7758
  174SLPC  H18T19715   3.741   2.169   4.526  2.4283 -4.3216  1.6510
  174SLPC   C3319716   3.662   1.944   5.765 -0.6231  0.7018  0.4533
  174SLPC   H3X19717   3.560   1.979   5.738 -0.5910  0.1134 -0.4786
  174SLPC   H3Y19718   3.672   1.844   5.719 -1.6674  0.0210  1.6373
  174SLPC   C3419719   3.768   2.039   5.699 -0.1428 -0.1858 -0.1191
  174SLPC   H4X19720   3.864   2.018   5.750 -1.3010 -1.4870  1.6718
  174SLPC   H4Y19721   3.743   2.144   5.727  1.0811 -0.1467  0.8828
  174SLPC   C3519722   3.788   2.018   5.555 -0.3842  0.0083 -0.3704
  174SLPC   H5X19723   3.686   2.034   5.515  0.4464  1.6461 -1.9663
  174SLPC   H5Y19724   3.811   1.915   5.519  0.3064  0.6685 -1.9077
  174SLPC   C3619725   3.904   2.105   5.506  0.0735 -0.0095  0.6165
  174SLPC   H6X19726   3.995   2.043   5.518 -0.1716 -0.1835  1.6353
  174SLPC   H6Y19727   3.919   2.202   5.559  1.0349  0.5390 -0.6256
  174SLPC   C3719728   3.880   2.144   5.361 -0.0021 -0.1817  0.4564
  174SLPC   H7X19729   3.774   2.175   5.343  0.0235 -1.0732 -1.5787
  174SLPC   H7Y19730   3.898   2.055   5.298 -2.3327  0.6008 -1.4940
  174SLPC   C3819731   3.994   2.240   5.310  0.4515 -0.2233  0.3124
  174SLPC   H8X19732   4.089   2.207   5.357  1.0146  1.4122  0.4099
  174SLPC   H8Y19733   3.981   2.349   5.328 -0.3181 -0.3069  0.3078
  174SLPC   C3919734   4.017   2.229   5.160 -0.5563  0.3183  0.5468
  174SLPC   H9X19735   4.030   2.120   5.150 -1.8953  0.0890  1.1187
  174SLPC   H9Y19736   4.111   2.286   5.143  0.0146 -0.5892  0.6037
  174SLPC  C31019737   3.904   2.282   5.076 -0.0623  0.3042  0.3206
  174SLPC  H10X19738   3.883   2.380   5.123 -0.1946  0.5369 -0.2217
  174SLPC  H10Y19739   3.817   2.213   5.085  0.6616 -0.7784 -0.6817
  174SLPC  C31119740   3.919   2.310   4.930 -0.0330 -0.0376  0.3091
  174SLPC  H11X19741   3.826   2.357   4.893 -0.0062 -0.0141  0.2714
  174SLPC  H11Y19742   3.938   2.219   4.868 -0.1586  1.1742 -1.5727
  174SLPC  C31219743   4.033   2.409   4.908  0.1140 -0.6227 -0.0717
  174SLPC  H12X19744   4.130   2.360   4.933  1.6742  2.3987  0.2659
  174SLPC  H12Y19745   4.027   2.498   4.974 -0.0986 -0.8990  0.2845
  174SLPC  C31319746   4.025   2.450   4.765 -0.0066  0.1880  0.1969
  174SLPC  H13X19747   3.970   2.364   4.719 -0.0192  0.4279 -0.2434
  174SLPC  H13Y19748   4.126   2.474   4.726  0.7294 -2.4114  0.3134
  174SLPC  C31419749   3.940   2.577   4.743  0.2025 -0.3506 -0.3304
  174SLPC  H14X19750   3.988   2.659   4.800 -0.4970 -0.6699  0.7585
  174SLPC  H14Y19751   3.841   2.558   4.790 -0.1734 -2.1030 -1.7079
  174SLPC  C31519752   3.934   2.619   4.595  0.6986 -0.1671 -0.1754
  174SLPC  H15X19753   3.913   2.727   4.583  1.3991 -0.0321 -0.2407
  174SLPC  H15Y19754   3.838   2.566   4.575  0.7493 -1.1469  1.8752
  174SLPC  C31619755   4.057   2.582   4.502  0.2291 -0.2794 -0.1086
  174SLPC  H16X19756   4.029   2.609   4.398  0.2934  2.2204  0.4675
  174SLPC  H16Y19757   4.081   2.473   4.501 -0.2242 -0.3777 -0.2240
  174SLPC  C31719758   4.183   2.663   4.543  0.1445 -0.0630 -0.1835
  174SLPC  H17X19759   4.207   2.655   4.652 -1.3509 -0.4643  0.1343
  174SLPC  H17Y19760   4.160   2.771   4.533 -2.8247 -0.5774  0.2734
  174SLPC  C31819761   4.313   2.627   4.465 -0.6734 -0.1176  0.5716
  174SLPC  H18X19762   4.404   2.688   4.484  0.3463 -0.7805 -1.8632
  174SLPC  H18Y19763   4.304   2.635   4.355  0.6206  1.9982  0.5547
  174SLPC  H18Z19764   4.335   2.521   4.491 -0.5425 -0.2664 -0.1241
  175SLPC     N19765   6.233   2.860   7.302  0.3342  0.1310 -0.2574
  175SLPC   C1319766   6.104   2.809   7.366 -0.0354 -0.1772 -0.1554
  175SLPC  H13A19767   6.084   2.846   7.465  1.0828 -1.8565  0.7510
  175SLPC  H13B19768   6.025   2.823   7.293 -0.4578 -1.4279  0.0538
  175SLPC  H13C19769   6.100   2.703   7.386 -0.0909 -0.1834 -0.1994
  175SLPC   C1419770   6.274   2.766   7.197  0.6053  0.1027  0.3920
  175SLPC  H14A19771   6.205   2.769   7.114 -1.1740 -1.3135  1.7285
  175SLPC  H14B19772   6.375   2.779   7.163  0.3923  0.9411  0.0532
  175SLPC  H14C19773   6.257   2.666   7.236 -0.3201  0.2751  0.4533
  175SLPC   C1519774   6.330   2.856   7.415 -0.3251 -0.0276 -0.6566
  175SLPC  H15A19775   6.311   2.921   7.499  4.3781  0.8715  0.0252
  175SLPC  H15B19776   6.347   2.761   7.463 -1.0474  0.7704  1.2646
  175SLPC  H15C19777   6.425   2.884   7.372  0.5720 -2.5650 -0.4683
  175SLPC   C1219778   6.204   3.000   7.254  0.5457  0.2753  0.4237
  175SLPC  H12A19779   6.286   3.064   7.226 -0.4537  2.4687  2.2283
  175SLPC  H12B19780   6.168   3.048   7.344 -0.2913  1.5457 -0.5548
  175SLPC   C1119781   6.102   3.014   7.139  0.1382 -0.4108  0.6916
  175SLPC  H11A19782   6.067   3.118   7.119 -3.6151 -0.8758  3.5975
  175SLPC  H11B19783   6.002   2.972   7.160 -0.4879 -0.2930 -1.7794
  175SLPC     P19784   6.232   3.035   6.912 -0.1230  0.6072  0.0741
  175SLPC   O1319785   6.241   3.178   6.952  0.2168  0.0515 -0.0694
  175SLPC   O1419786   6.360   2.970   6.878  0.4612  0.6412 -0.4007
  175SLPC   O1219787   6.152   2.953   7.020 -0.1373  0.7112 -0.2058
  175SLPC   O1119788   6.137   3.027   6.784  0.1938  0.2492 -1.0888
  175SLPC    C119789   6.041   2.927   6.768  0.3571  0.8052  0.6218
  175SLPC    HA19790   6.078   2.823   6.780 -0.3400  0.6231  1.3047
  175SLPC    HB19791   5.971   2.940   6.853  0.3580  0.3277  0.6995
  175SLPC    C219792   5.948   2.959   6.641 -0.4403  0.0320  0.5298
  175SLPC    HS19793   5.852   2.907   6.658  1.0108 -2.6297  1.1675
  175SLPC   O2119794   6.013   2.911   6.521  0.0673  0.0862  0.0197
  175SLPC   C2119795   6.023   2.781   6.496 -0.4582 -0.5637 -0.5975
  175SLPC   O2219796   5.972   2.694   6.562  0.6444 -0.4980  0.1120
  175SLPC   C2219797   6.083   2.763   6.357 -0.0735 -0.1268  0.2346
  175SLPC   H2R19798   6.178   2.706   6.370  0.9023  1.7701  1.9358
  175SLPC   H2S19799   6.005   2.719   6.290  0.3215 -1.8799  0.8690
  175SLPC    C319800   5.911   3.111   6.635 -0.2162 -0.3779 -0.5345
  175SLPC    HX19801   6.006   3.166   6.653 -0.0885 -0.3896 -1.1629
  175SLPC    HY19802   5.842   3.134   6.719  0.1981  1.1886 -0.5870
  175SLPC   O3119803   5.843   3.143   6.515  0.4582 -0.3778 -0.4177
  175SLPC   C3119804   5.905   3.214   6.423 -0.3953 -0.3345  0.5459
  175SLPC   O3219805   6.019   3.252   6.419  0.4488 -0.1640  0.1594
  175SLPC   C3219806   5.806   3.240   6.310 -0.3410 -0.3761  0.2447
  175SLPC   H2X19807   5.762   3.342   6.314 -0.0314 -0.2831  1.5192
  175SLPC   H2Y19808   5.719   3.171   6.315  0.0998 -0.9991 -0.4583
  175SLPC   C2319809   6.119   2.897   6.290 -0.3325 -0.5224 -0.2987
  175SLPC   H3R19810   6.199   2.939   6.355  0.7507 -0.6567 -1.5094
  175SLPC   H3S19811   6.035   2.970   6.281  1.6061  1.9766  0.5140
  175SLPC   C2419812   6.184   2.876   6.157 -0.3880  0.3229 -0.0878
  175SLPC   H4R19813   6.119   2.830   6.080 -2.3414  1.1950  0.9540
  175SLPC   H4S19814   6.281   2.825   6.172 -0.2330  1.0114  1.4296
  175SLPC   C2519815   6.204   3.014   6.090 -0.6373 -0.2106  0.5326
  175SLPC   H5R19816   6.243   3.091   6.160 -0.4475  0.7315 -0.5690
  175SLPC   H5S19817   6.116   3.045   6.031  0.0546  1.4982  0.3171
  175SLPC   C2619818   6.324   2.999   5.984  0.3910 -0.0548 -0.2975
  175SLPC   H6R19819   6.312   2.903   5.930  1.0584 -1.3286  1.6998
  175SLPC   H6S19820   6.413   2.974   6.046  0.3895  1.9982  0.6019
  175SLPC   C2719821   6.346   3.125   5.908 -0.9152  0.5432  0.6256
  175SLPC   H7R19822   6.402   3.207   5.958  0.3190 -0.0316  0.2235
  175SLPC   H7S19823   6.251   3.165   5.866  0.4216  1.7038 -1.4548
  175SLPC   C2819824   6.441   3.096   5.784  0.1635  0.0819  0.1498
  175SLPC   H8R19825   6.530   3.044   5.827 -0.4933 -1.0077  0.2251
  175SLPC   H8S19826   6.464   3.201   5.756  1.0647  0.0578  0.7590
  175SLPC   C2919827   6.382   3.011   5.674 -0.7295  0.2191 -0.4301
  175SLPC   H9R19828   6.389   2.902   5.689 -0.6455  0.3549  0.5454
  175SLPC  C21019829   6.333   3.048   5.553 -0.6913 -0.7184  0.1430
  175SLPC  H10R19830   6.304   2.971   5.479  2.2081 -0.0426 -1.8869
  175SLPC  C21119831   6.313   3.183   5.499 -0.5017  0.2302 -0.3618
  175SLPC  H11R19832   6.393   3.207   5.426  0.4974  1.5543  1.1193
  175SLPC  H11S19833   6.313   3.253   5.585 -1.7794 -1.9123  1.4835
  175SLPC  C21219834   6.190   3.182   5.414  0.3467 -0.3025  0.9767
  175SLPC  H12R19835   6.102   3.230   5.459 -1.5039  0.2314 -2.7687
  175SLPC  C21319836   6.168   3.122   5.297 -0.2481  0.1321 -0.3093
  175SLPC  H13R19837   6.069   3.138   5.252 -0.0144  1.5931 -0.3609
  175SLPC  C21419838   6.267   3.043   5.221 -0.5633  0.1747 -0.2080
  175SLPC  H14R19839   6.217   2.952   5.183 -0.8287  0.6630 -1.0455
  175SLPC  H14S19840   6.349   3.002   5.284  1.1339  0.5758 -2.0464
  175SLPC  C21519841   6.322   3.123   5.107 -0.0569  0.4122  0.0224
  175SLPC  H15R19842   6.408   3.066   5.068  0.9438  1.0068  1.2753
  175SLPC  H15S19843   6.367   3.218   5.143  0.6300  0.3224 -0.5836
  175SLPC  C21619844   6.221   3.152   4.997  0.4208 -0.6485  0.0943
  175SLPC  H16R19845   6.159   3.238   5.028  0.0858 -0.5318 -0.8595
  175SLPC  H16S19846   6.152   3.066   4.982 -0.6396  0.0314  0.9528
  175SLPC  C21719847   6.280   3.195   4.857  0.3420  0.3072 -0.3377
  175SLPC  H17R19848   6.344   3.118   4.809 -1.0849 -1.3628  0.2896
  175SLPC  H17S19849   6.349   3.279   4.879  0.2230  0.0001  1.3253
  175SLPC  C21819850   6.182   3.264   4.766  0.6665 -0.5329  0.8758
  175SLPC  H18R19851   6.125   3.189   4.708  1.3397 -1.0869  0.9277
  175SLPC  H18S19852   6.234   3.339   4.702  0.4427 -0.7366  0.4466
  175SLPC  H18T19853   6.110   3.334   4.813 -0.9391 -0.3171 -1.7251
  175SLPC   C3319854   5.873   3.211   6.172  0.6807 -0.0706 -0.1923
  175SLPC   H3X19855   5.922   3.112   6.162  1.1812  0.0009  1.3847
  175SLPC   H3Y19856   5.950   3.288   6.151  0.9928  0.5250  2.8214
  175SLPC   C3419857   5.766   3.230   6.058 -0.1395 -0.3918 -0.8614
  175SLPC   H4X19858   5.717   3.329   6.071  0.9812  0.3976 -2.4120
  175SLPC   H4Y19859   5.694   3.146   6.069  0.0034 -0.2817  1.4717
  175SLPC   C3519860   5.831   3.211   5.921  0.9253  0.3393  0.4268
  175SLPC   H5X19861   5.895   3.121   5.928  1.9907  0.8758 -1.6574
  175SLPC   H5Y19862   5.899   3.292   5.886  5.1023 -3.2485 -0.6519
  175SLPC   C3619863   5.723   3.187   5.817 -0.2561  0.4521 -0.4700
  175SLPC   H6X19864   5.662   3.278   5.801 -0.3516  0.2522 -1.3044
  175SLPC   H6Y19865   5.652   3.114   5.861  1.0912 -0.5647  0.0639
  175SLPC   C3719866   5.779   3.144   5.678 -0.3864  0.3959 -0.1512
  175SLPC   H7X19867   5.804   3.037   5.693 -0.9547  0.0853 -1.3343
  175SLPC   H7Y19868   5.862   3.208   5.643 -0.5338  0.9821  0.5305
  175SLPC   C3819869   5.666   3.155   5.574  0.0460  0.2217  0.4775
  175SLPC   H8X19870   5.636   3.261   5.559  0.3444  0.2907  0.3769
  175SLPC   H8Y19871   5.577   3.089   5.587  0.5420 -0.4435  0.5568
  175SLPC   C3919872   5.726   3.117   5.434 -1.0313 -0.3775 -1.0538
  175SLPC   H9X19873   5.774   3.017   5.443  0.0912  0.2874  0.9201
  175SLPC   H9Y19874   5.802   3.193   5.405 -1.8885  0.0649 -2.2156
  175SLPC  C31019875   5.627   3.123   5.318 -0.1835  0.2694 -0.1972
  175SLPC  H10X19876   5.581   3.224   5.309  0.1939  0.3847 -0.9407
  175SLPC  H10Y19877   5.551   3.049   5.350 -1.4352  1.2747 -0.7476
  175SLPC  C31119878   5.687   3.073   5.187  0.3099 -0.1872 -0.3351
  175SLPC  H11X19879   5.604   3.056   5.116 -1.0906 -1.0136  1.4109
  175SLPC  H11Y19880   5.733   2.972   5.200  1.3610  0.2063 -0.8850
  175SLPC  C31219881   5.774   3.176   5.119 -0.0449  0.3962  0.5810
  175SLPC  H12X19882   5.874   3.193   5.166  0.9312 -0.4375 -1.1097
  175SLPC  H12Y19883   5.717   3.271   5.117 -0.1737  0.3269  0.9019
  175SLPC  C31319884   5.803   3.133   4.971 -0.0389 -0.3208  0.0195
  175SLPC  H13X19885   5.879   3.195   4.920  1.8683 -2.3808  0.2283
  175SLPC  H13Y19886   5.708   3.144   4.915  0.9111  0.2687 -1.5228
  175SLPC  C31419887   5.847   2.988   4.960 -0.4372 -0.9681  0.8033
  175SLPC  H14X19888   5.770   2.917   4.997  0.6274 -1.8632  1.3740
  175SLPC  H14Y19889   5.937   2.972   5.023 -0.5691 -0.1460  1.2215
  175SLPC  C31519890   5.880   2.958   4.818 -0.0093  0.6216  0.8599
  175SLPC  H15X19891   5.965   3.017   4.778 -0.3108  0.8425  0.5314
  175SLPC  H15Y19892   5.784   2.985   4.768 -0.0139  0.2303  0.6539
  175SLPC  C31619893   5.897   2.809   4.799 -0.4645 -0.5173  0.0427
  175SLPC  H16X19894   5.827   2.776   4.720  0.3118  0.3095 -1.0228
  175SLPC  H16Y19895   5.865   2.744   4.883 -0.0137 -1.7762 -0.7264
  175SLPC  C31719896   6.036   2.767   4.745 -0.5759  0.2015  0.3679
  175SLPC  H17X19897   6.104   2.792   4.829  0.4576 -0.2487 -0.3168
  175SLPC  H17Y19898   6.059   2.819   4.649 -2.5221 -0.2985 -0.4373
  175SLPC  C31819899   6.036   2.617   4.726 -0.1432  0.0828 -0.5993
  175SLPC  H18X19900   6.132   2.591   4.675 -0.8109 -2.2455 -0.7715
  175SLPC  H18Y19901   5.948   2.581   4.669 -0.2799  1.3478 -1.2212
  175SLPC  H18Z19902   6.034   2.563   4.823 -1.7494  0.1604 -0.5745
  176SLPC     N19903   5.425   0.067   6.997  0.1265 -1.0566  0.1064
  176SLPC   C1319904   5.392   0.202   7.059  0.5737 -0.0510 -0.3507
  176SLPC  H13A19905   5.480   0.261   7.039  1.7792 -1.1110  1.4765
  176SLPC  H13B19906   5.303   0.248   7.020  0.5681  1.6079  1.4657
  176SLPC  H13C19907   5.376   0.197   7.166  0.6893 -1.5465 -0.3780
  176SLPC   C1419908   5.306   0.008   6.943 -0.2201 -0.2354 -0.7656
  176SLPC  H14A19909   5.326  -0.090   6.904 -1.2590 -0.4230 -0.8476
  176SLPC  H14B19910   5.234   0.003   7.023 -0.6990  1.7972 -1.0064
  176SLPC  H14C19911   5.262   0.074   6.869 -2.3994 -1.3595 -0.5376
  176SLPC   C1519912   5.473  -0.029   7.108  0.0003 -0.1114  0.3775
  176SLPC  H15A19913   5.548   0.010   7.175 -0.0855 -1.7693  1.4793
  176SLPC  H15B19914   5.390  -0.062   7.167 -0.8005  2.0009  0.5227
  176SLPC  H15C19915   5.517  -0.113   7.056  0.4758 -0.8231  1.8970
  176SLPC   C1219916   5.526   0.094   6.886  0.2206 -0.0498  0.7725
  176SLPC  H12A19917   5.480   0.168   6.822  1.7483 -1.0980 -1.6682
  176SLPC  H12B19918   5.523   0.006   6.822 -1.0447  1.2435 -1.0647
  176SLPC   C1119919   5.669   0.128   6.925 -0.2462  0.0745 -0.5279
  176SLPC  H11A19920   5.735   0.110   6.837 -0.3409  0.1482 -0.6150
  176SLPC  H11B19921   5.704   0.055   7.001  1.7815  1.9246  0.4282
  176SLPC     P19922   5.789   0.331   7.037  0.2634  0.4702  0.4016
  176SLPC   O1319923   5.747   0.468   7.065  0.2159 -0.0467 -0.4653
  176SLPC   O1419924   5.832   0.254   7.159 -0.6669  0.1497 -0.0745
  176SLPC   O1219925   5.669   0.264   6.970  0.3445 -0.0953 -0.2390
  176SLPC   O1119926   5.892   0.334   6.919 -0.4959 -0.0532 -0.0307
  176SLPC    C119927   6.021   0.403   6.921 -0.1109 -0.0747 -0.2671
  176SLPC    HA19928   6.013   0.502   6.971 -0.2715  1.6908 -3.5359
  176SLPC    HB19929   6.088   0.340   6.984 -1.2794  1.7084  3.0030
  176SLPC    C219930   6.102   0.414   6.785 -0.2851 -0.6468 -0.7580
  176SLPC    HS19931   6.199   0.465   6.804 -0.7153 -0.3996  0.8860
  176SLPC   O2119932   6.015   0.489   6.685  0.0518  0.6987  0.1593
  176SLPC   C2119933   6.017   0.610   6.697 -0.3500 -0.3861 -0.2496
  176SLPC   O2219934   6.078   0.678   6.780 -0.5297  0.3951 -0.6198
  176SLPC   C2219935   5.910   0.664   6.596  0.6175  0.2045 -0.2060
  176SLPC   H2R19936   5.956   0.666   6.494  1.4798  0.4819  0.1774
  176SLPC   H2S19937   5.821   0.598   6.600  0.7601 -0.0411 -0.8791
  176SLPC    C319938   6.126   0.281   6.713  0.2455  0.0011  0.6187
  176SLPC    HX19939   6.037   0.214   6.714  1.7079 -2.0495  1.4587
  176SLPC    HY19940   6.205   0.234   6.776 -1.3298  1.0017  3.5419
  176SLPC   O3119941   6.185   0.291   6.578 -0.2983 -0.1419 -0.2485
  176SLPC   C3119942   6.101   0.257   6.472 -0.0639 -0.2621 -0.2284
  176SLPC   O3219943   5.990   0.211   6.482  0.1499 -0.3368  0.4741
  176SLPC   C3219944   6.178   0.284   6.341  0.0897 -0.4178 -0.1139
  176SLPC   H2X19945   6.218   0.185   6.309  0.6153 -0.1583 -0.2603
  176SLPC   H2Y19946   6.257   0.360   6.357  1.3691 -1.8289  0.4383
  176SLPC   C2319947   5.868   0.807   6.634 -0.3323  0.0506  0.3843
  176SLPC   H3R19948   5.955   0.874   6.645 -1.2158  1.5914 -1.4992
  176SLPC   H3S19949   5.820   0.812   6.734 -1.8158  1.8238 -0.3557
  176SLPC   C2419950   5.762   0.860   6.534  0.3244 -0.0608  0.4178
  176SLPC   H4R19951   5.660   0.822   6.557  1.5342 -4.7223 -0.8662
  176SLPC   H4S19952   5.787   0.831   6.430  0.9097 -1.0485  0.8248
  176SLPC   C2519953   5.762   1.016   6.531  0.9704  0.1434  0.2867
  176SLPC   H5R19954   5.869   1.043   6.541  0.7196  0.4547  2.5544
  176SLPC   H5S19955   5.717   1.047   6.628  1.1860  0.7238  0.2087
  176SLPC   C2619956   5.686   1.075   6.411 -0.2654  0.9967 -0.3238
  176SLPC   H6R19957   5.580   1.071   6.446 -0.0915 -1.6797  0.1816
  176SLPC   H6S19958   5.694   1.004   6.326  0.5812  0.0154  0.5397
  176SLPC   C2719959   5.727   1.219   6.364  0.6318  0.6841  0.0845
  176SLPC   H7R19960   5.835   1.223   6.337  0.3670 -1.1121 -1.4066
  176SLPC   H7S19961   5.704   1.283   6.452  0.5648 -0.3470  0.8367
  176SLPC   C2819962   5.638   1.265   6.243  0.2022 -0.0645  0.5923
  176SLPC   H8R19963   5.657   1.371   6.216 -0.3752 -0.1362 -0.1289
  176SLPC   H8S19964   5.536   1.249   6.286 -1.0312  1.0577 -1.7488
  176SLPC   C2919965   5.650   1.179   6.118  0.2549  0.4943  0.2321
  176SLPC   H9R19966   5.589   1.088   6.106 -0.2483  1.0457 -1.7480
  176SLPC  C21019967   5.740   1.190   6.021  0.1219 -0.1862 -0.8014
  176SLPC  H10R19968   5.725   1.122   5.936 -1.8736  0.9684 -1.4330
  176SLPC  C21119969   5.841   1.295   6.003  0.0706 -0.6583 -0.2674
  176SLPC  H11R19970   5.830   1.370   6.084 -1.5129 -0.4626 -0.6401
  176SLPC  H11S19971   5.831   1.358   5.912  0.9182 -0.4201 -0.2055
  176SLPC  C21219972   5.983   1.251   6.015 -0.0913  0.9688  0.1124
  176SLPC  H12R19973   6.038   1.245   6.111  0.8251  0.6479 -0.4175
  176SLPC  C21319974   6.058   1.211   5.905 -1.0099  0.3556 -0.2526
  176SLPC  H13R19975   6.161   1.181   5.927 -1.2091  0.1950  0.4709
  176SLPC  C21419976   6.018   1.193   5.760  0.3587  1.1421  1.0126
  176SLPC  H14R19977   6.077   1.253   5.686 -0.6839  2.1020  0.9362
  176SLPC  H14S19978   5.911   1.215   5.739  0.7683  1.0586 -1.5167
  176SLPC  C21519979   6.043   1.050   5.721 -0.4909 -0.2042 -0.2132
  176SLPC  H15R19980   6.011   0.978   5.799 -0.7491  0.6641  0.5097
  176SLPC  H15S19981   6.154   1.045   5.711 -0.3407 -0.7913  1.3895
  176SLPC  C21619982   5.971   1.018   5.594 -0.0072 -0.3097  0.0524
  176SLPC  H16R19983   5.979   1.094   5.513 -1.9980  0.6150  0.6417
  176SLPC  H16S19984   5.863   1.010   5.618  0.1318 -0.6026  0.5916
  176SLPC  C21719985   6.011   0.873   5.558 -0.3718  1.0011 -0.6184
  176SLPC  H17R19986   5.975   0.810   5.643  0.3086  0.3450 -0.8072
  176SLPC  H17S19987   6.121   0.862   5.551 -0.3624 -0.1066  0.7941
  176SLPC  C21819988   5.945   0.814   5.429  0.0958  0.1732 -0.0745
  176SLPC  H18R19989   5.839   0.839   5.407  0.1277  0.0404 -0.3841
  176SLPC  H18S19990   5.960   0.704   5.430  1.3220  0.2763 -1.9977
  176SLPC  H18T19991   6.000   0.854   5.341 -2.1636 -0.8368 -2.0906
  176SLPC   C3319992   6.085   0.338   6.233  0.4235  0.9339  0.0934
  176SLPC   H3X19993   6.015   0.258   6.200  0.9421  0.4834  0.0602
  176SLPC   H3Y19994   6.149   0.377   6.151 -0.3406  3.3876  0.5859
  176SLPC   C3419995   5.998   0.462   6.277  0.6256  0.3362  0.0247
  176SLPC   H4X19996   6.063   0.545   6.312  1.5308  0.1425 -1.1693
  176SLPC   H4Y19997   5.940   0.423   6.363 -0.3483  1.2505 -0.1957
  176SLPC   C3519998   5.900   0.504   6.166 -0.5677  0.1115 -0.5186
  176SLPC   H5X19999   5.842   0.412   6.144  1.6599 -1.6838  0.6680
  176SLPC   H5Y20000   5.949   0.533   6.071  0.4726 -0.0165 -0.0296
  176SLPC   C3620001   5.803   0.605   6.230 -0.3728 -0.2893 -0.1929
  176SLPC   H6X20002   5.848   0.704   6.253 -3.8425  1.8268 -1.6829
  176SLPC   H6Y20003   5.761   0.573   6.327  0.7233 -2.6028 -0.4239
  176SLPC   C3720004   5.690   0.631   6.125 -0.2219 -0.1672 -0.1958
  176SLPC   H7X20005   5.608   0.682   6.180  0.5257 -0.4076  1.1855
  176SLPC   H7Y20006   5.657   0.530   6.094 -0.3426  0.1980 -1.2755
  176SLPC   C3820007   5.739   0.708   6.004  0.1442 -0.5464 -1.1542
  176SLPC   H8X20008   5.799   0.647   5.933  1.9118 -2.4384  1.7428
  176SLPC   H8Y20009   5.797   0.800   6.026 -1.0308  0.4268 -2.0329
  176SLPC   C3920010   5.622   0.774   5.925 -0.1558  0.1397  0.5151
  176SLPC   H9X20011   5.569   0.850   5.986 -2.4546 -1.0058  0.0529
  176SLPC   H9Y20012   5.552   0.692   5.900  0.6586 -0.2566 -0.5312
  176SLPC  C31020013   5.655   0.844   5.790 -0.7293 -0.0860 -0.1758
  176SLPC  H10X20014   5.691   0.758   5.729  0.0929 -0.0232  0.2078
  176SLPC  H10Y20015   5.731   0.923   5.804  0.4847 -1.2739  0.1203
  176SLPC  C31120016   5.533   0.899   5.716 -0.5782  0.0932 -0.8965
  176SLPC  H11X20017   5.497   0.978   5.786  0.6984  1.2941 -1.5520
  176SLPC  H11Y20018   5.454   0.823   5.701 -0.6588 -0.1829  0.7370
  176SLPC  C31220019   5.571   0.954   5.579 -0.3740  0.2117 -1.1767
  176SLPC  H12X20020   5.638   0.881   5.530 -1.0958  0.4204 -2.5106
  176SLPC  H12Y20021   5.637   1.039   5.605  0.6930 -1.0315  0.3936
  176SLPC  C31320022   5.457   1.005   5.497 -0.4964  0.7896  0.3165
  176SLPC  H13X20023   5.510   1.066   5.421  1.1360 -0.4781  0.4004
  176SLPC  H13Y20024   5.375   1.054   5.554 -0.8027 -0.1535  0.7002
  176SLPC  C31420025   5.388   0.886   5.424  0.5927  0.1298 -0.1188
  176SLPC  H14X20026   5.299   0.933   5.376  0.0725  0.1078  0.8127
  176SLPC  H14Y20027   5.355   0.823   5.509  1.6171 -1.3739 -0.7873
  176SLPC  C31520028   5.473   0.811   5.315  0.1068 -0.7684  0.8298
  176SLPC  H15X20029   5.400   0.758   5.250  2.0676  0.5429 -2.7328
  176SLPC  H15Y20030   5.535   0.735   5.367 -2.3273 -2.9488  0.7277
  176SLPC  C31620031   5.565   0.899   5.229  0.5165  0.1036  0.0352
  176SLPC  H16X20032   5.639   0.959   5.287  0.2085  0.6396 -0.1176
  176SLPC  H16Y20033   5.507   0.971   5.167  0.9999  2.6283  2.3022
  176SLPC  C31720034   5.650   0.830   5.123  0.3697 -0.1047 -0.2222
  176SLPC  H17X20035   5.579   0.761   5.073  0.4652 -0.2983 -0.0896
  176SLPC  H17Y20036   5.730   0.769   5.170 -2.1297 -3.2448  0.2324
  176SLPC  C31820037   5.710   0.920   5.016  0.0960  0.0595 -0.2652
  176SLPC  H18X20038   5.762   0.865   4.935  0.1422 -1.3196  0.6660
  176SLPC  H18Y20039   5.775   1.000   5.057  0.3265 -0.1998 -0.1178
  176SLPC  H18Z20040   5.620   0.967   4.971 -0.9324 -1.6664 -0.0973
  177SLPC     N20041   5.714   1.746   7.255  0.9416 -0.1371  0.5935
  177SLPC   C1320042   5.750   1.628   7.169  0.0754 -1.1087 -0.4885
  177SLPC  H13A20043   5.855   1.610   7.157  0.1684 -0.6165 -0.4285
  177SLPC  H13B20044   5.702   1.540   7.211 -0.9274 -0.2439  0.2261
  177SLPC  H13C20045   5.713   1.639   7.069  0.4265  1.1265 -0.4035
  177SLPC   C1420046   5.780   1.872   7.210  0.2926  0.8799 -0.4010
  177SLPC  H14A20047   5.752   1.907   7.112  0.4913 -2.0229 -1.5712
  177SLPC  H14B20048   5.755   1.953   7.278 -3.3746  1.5742 -2.3011
  177SLPC  H14C20049   5.887   1.862   7.205  0.5643  3.3757 -0.7881
  177SLPC   C1520050   5.764   1.714   7.385 -0.9746  0.2325 -0.3555
  177SLPC  H15A20051   5.870   1.732   7.399 -1.2494  1.6194  0.1048
  177SLPC  H15B20052   5.721   1.789   7.450 -2.2583 -0.6294 -0.1787
  177SLPC  H15C20053   5.737   1.617   7.422  0.6129 -0.1077  0.0104
  177SLPC   C1220054   5.563   1.760   7.259  0.7100 -0.4255  0.3345
  177SLPC  H12A20055   5.536   1.825   7.341 -0.3343 -0.8363  0.3260
  177SLPC  H12B20056   5.516   1.666   7.287  0.2249  0.2940  2.0812
  177SLPC   C1120057   5.513   1.808   7.119 -0.1064 -0.5375  0.8140
  177SLPC  H11A20058   5.560   1.907   7.099 -0.1601 -0.6403  0.1561
  177SLPC  H11B20059   5.405   1.834   7.129  0.3428  1.7955  0.3148
  177SLPC     P20060   5.543   1.760   6.862  0.0772 -0.2865  0.4031
  177SLPC   O1320061   5.637   1.671   6.789 -0.2309 -0.3109 -0.2556
  177SLPC   O1420062   5.403   1.756   6.807  0.3874  0.5591  0.3816
  177SLPC   O1220063   5.538   1.718   7.012  0.1651 -0.2121 -0.3058
  177SLPC   O1120064   5.592   1.915   6.863 -0.0011  0.1842 -1.1432
  177SLPC    C120065   5.722   1.962   6.820 -0.0871 -0.6880 -0.7378
  177SLPC    HA20066   5.751   2.038   6.896 -0.0045 -1.1068 -0.3457
  177SLPC    HB20067   5.786   1.872   6.826  1.2687  0.2901 -0.1240
  177SLPC    C220068   5.722   2.016   6.668  0.0764  0.2046 -0.4000
  177SLPC    HS20069   5.709   2.126   6.681 -1.2427  0.1119 -0.7603
  177SLPC   O2120070   5.618   1.961   6.590 -0.3699 -0.7276 -0.3352
  177SLPC   C2120071   5.503   2.031   6.582  0.2557 -0.1507 -0.2721
  177SLPC   O2220072   5.479   2.135   6.644 -0.1670  0.0198  0.3296
  177SLPC   C2220073   5.399   1.968   6.481 -0.3247  0.5720  0.6526
  177SLPC   H2R20074   5.309   1.941   6.541 -1.7227  0.6750 -1.2842
  177SLPC   H2S20075   5.377   2.043   6.402 -0.0282  0.2645  0.2767
  177SLPC    C320076   5.860   1.982   6.611  0.5530  0.1973  0.1319
  177SLPC    HX20077   5.876   1.874   6.593  3.3693  0.8341 -1.9466
  177SLPC    HY20078   5.932   2.013   6.690  0.1761 -2.3342  1.5638
  177SLPC   O3120079   5.871   2.056   6.487 -0.3578  0.0586 -0.1871
  177SLPC   C3120080   5.945   2.168   6.495  0.1239 -0.3216 -0.2927
  177SLPC   O3220081   6.000   2.211   6.596 -0.1315 -0.8431  0.1486
  177SLPC   C3220082   5.934   2.248   6.371 -0.0771 -0.4803  0.4413
  177SLPC   H2X20083   6.000   2.337   6.384 -0.3950  0.0359 -1.2658
  177SLPC   H2Y20084   5.832   2.288   6.356  0.0231  0.7114  2.5326
  177SLPC   C2320085   5.440   1.829   6.420 -0.3069 -0.0202  0.0707
  177SLPC   H3R20086   5.354   1.771   6.380 -0.6519 -0.9261  2.0163
  177SLPC   H3S20087   5.482   1.768   6.503 -1.6994 -1.9368 -0.5614
  177SLPC   C2420088   5.546   1.842   6.314  0.2672  0.3127  0.0786
  177SLPC   H4R20089   5.647   1.874   6.347 -0.4470  2.5884  0.2497
  177SLPC   H4S20090   5.509   1.929   6.255  2.3006  1.8400  0.9195
  177SLPC   C2520091   5.557   1.719   6.220  0.4784  0.1440  0.6063
  177SLPC   H5R20092   5.456   1.682   6.195  0.6305  0.3245 -0.3151
  177SLPC   H5S20093   5.618   1.647   6.279 -0.1074  0.7402  1.9893
  177SLPC   C2620094   5.647   1.750   6.097  1.0453 -0.3719 -1.0977
  177SLPC   H6R20095   5.739   1.807   6.122  1.3244 -1.6139  0.8796
  177SLPC   H6S20096   5.596   1.825   6.032  0.6745 -0.3982 -0.8427
  177SLPC   C2720097   5.681   1.619   6.023 -0.3866 -0.5660 -0.3881
  177SLPC   H7R20098   5.735   1.551   6.092 -0.7141 -0.4589 -0.0243
  177SLPC   H7S20099   5.750   1.635   5.937  0.1428 -2.2043 -0.2926
  177SLPC   C2820100   5.558   1.541   5.964  1.1709  0.9661  0.2828
  177SLPC   H8R20101   5.468   1.529   6.028  0.9250 -1.0385 -0.3537
  177SLPC   H8S20102   5.599   1.443   5.930 -2.6599 -0.7138  0.0080
  177SLPC   C2920103   5.522   1.616   5.837  0.2353 -0.6284 -0.3161
  177SLPC   H9R20104   5.480   1.716   5.854 -3.5993 -1.9255 -1.0799
  177SLPC  C21020105   5.528   1.570   5.710 -0.1191  0.1864 -0.1218
  177SLPC  H10R20106   5.507   1.637   5.625 -0.5627  1.1702  0.7441
  177SLPC  C21120107   5.584   1.438   5.666  0.2755 -0.0310  0.5121
  177SLPC  H11R20108   5.582   1.354   5.740 -0.2490 -1.7228 -1.3232
  177SLPC  H11S20109   5.694   1.452   5.661  0.4426 -1.4336 -0.1947
  177SLPC  C21220110   5.533   1.387   5.529 -0.1566  0.4644 -0.0657
  177SLPC  H12R20111   5.423   1.388   5.518 -0.0314  1.7248 -1.5656
  177SLPC  C21320112   5.605   1.349   5.430 -0.7747 -0.0982 -0.0078
  177SLPC  H13R20113   5.559   1.324   5.334  1.2642  1.0604 -1.3524
  177SLPC  C21420114   5.755   1.329   5.415 -0.2840  0.0491 -0.4008
  177SLPC  H14R20115   5.782   1.264   5.501  0.0152  0.9165  0.1790
  177SLPC  H14S20116   5.811   1.425   5.415 -0.2040  0.0202 -1.8799
  177SLPC  C21520117   5.792   1.262   5.282 -0.2010  0.0110  0.0140
  177SLPC  H15R20118   5.711   1.200   5.236 -0.1446  0.0652 -0.1557
  177SLPC  H15S20119   5.870   1.188   5.309 -1.7069 -1.1547  1.3407
  177SLPC  C21620120   5.850   1.360   5.175 -0.0289  0.0332 -0.0445
  177SLPC  H16R20121   5.926   1.428   5.220 -0.6893  1.1743 -0.6125
  177SLPC  H16S20122   5.771   1.431   5.140  2.2217  1.4649 -2.6097
  177SLPC  C21720123   5.916   1.297   5.051 -0.2717 -0.4338 -0.6851
  177SLPC  H17R20124   5.931   1.370   4.968 -1.4108  1.8400  0.9870
  177SLPC  H17S20125   5.842   1.223   5.016  1.3191 -1.5980 -1.7034
  177SLPC  C21820126   6.048   1.222   5.083  0.5630 -0.1694  0.0138
  177SLPC  H18R20127   6.080   1.152   5.004  2.0379  0.4171  0.0670
  177SLPC  H18S20128   6.056   1.155   5.172  1.9668  0.4365  0.3751
  177SLPC  H18T20129   6.134   1.288   5.106  0.0845 -0.0546  1.5943
  177SLPC   C3320130   5.978   2.171   6.245 -0.0373 -0.4401 -0.4194
  177SLPC   H3X20131   5.897   2.101   6.217  0.1650  0.1164 -2.5817
  177SLPC   H3Y20132   6.070   2.110   6.256 -0.2184 -1.0551 -2.0675
  177SLPC   C3420133   6.000   2.264   6.122  0.2274 -0.1145 -0.5430
  177SLPC   H4X20134   6.087   2.324   6.157 -0.0994 -0.4646  0.9490
  177SLPC   H4Y20135   5.918   2.338   6.120  1.4701  1.5107  2.5339
  177SLPC   C3520136   6.013   2.194   5.995  0.0214 -0.0651  0.4523
  177SLPC   H5X20137   5.914   2.156   5.961  0.5874 -1.0877 -0.1141
  177SLPC   H5Y20138   6.096   2.120   5.999 -0.2332 -0.4012 -0.2870
  177SLPC   C3620139   6.053   2.295   5.881  0.5104  0.3214  0.6533
  177SLPC   H6X20140   6.158   2.320   5.907  0.9118  0.5732 -1.0994
  177SLPC   H6Y20141   5.984   2.382   5.882  1.6005  1.2072  0.7625
  177SLPC   C3720142   6.040   2.220   5.746 -0.0602  0.5080  0.3452
  177SLPC   H7X20143   5.943   2.168   5.733  0.1830  0.0386  0.3755
  177SLPC   H7Y20144   6.119   2.145   5.727 -1.6938 -0.7302 -2.0160
  177SLPC   C3820145   6.060   2.310   5.621 -0.5758 -0.2282  0.1958
  177SLPC   H8X20146   6.149   2.377   5.629  0.6053 -1.5888 -0.8962
  177SLPC   H8Y20147   5.970   2.374   5.612 -0.0201  0.6835  0.9003
  177SLPC   C3920148   6.066   2.227   5.487 -0.2105  0.4919 -0.1052
  177SLPC   H9X20149   5.970   2.179   5.460  0.1230  0.3434 -1.0392
  177SLPC   H9Y20150   6.148   2.153   5.494 -0.4608  0.3792  3.3186
  177SLPC  C31020151   6.086   2.302   5.358 -0.0750 -0.3248 -0.4116
  177SLPC  H10X20152   6.169   2.374   5.379 -0.3224 -0.3806  0.8515
  177SLPC  H10Y20153   5.999   2.368   5.340  0.3640  0.7591  1.2043
  177SLPC  C31120154   6.131   2.218   5.243 -0.1924 -0.3736  1.2764
  177SLPC  H11X20155   6.060   2.141   5.207 -0.0027  0.2436 -0.4947
  177SLPC  H11Y20156   6.225   2.160   5.263  0.9034  0.8855 -0.0274
  177SLPC  C31220157   6.154   2.300   5.114 -0.1612 -0.2454  0.5325
  177SLPC  H12X20158   6.207   2.245   5.033 -2.3964 -0.2126 -1.0189
  177SLPC  H12Y20159   6.216   2.390   5.132  0.1225 -0.2694 -0.2876
  177SLPC  C31320160   6.027   2.356   5.062  0.5572 -0.4535 -0.3888
  177SLPC  H13X20161   6.056   2.448   5.007 -0.8778  0.2302 -0.0542
  177SLPC  H13Y20162   5.952   2.389   5.137  0.4094  1.6880 -1.4052
  177SLPC  C31420163   5.966   2.257   4.959 -0.5269 -0.1037 -0.2954
  177SLPC  H14X20164   5.945   2.160   5.008  2.6862 -0.5763  0.3822
  177SLPC  H14Y20165   6.037   2.241   4.876 -2.0083  1.0143 -1.8614
  177SLPC  C31520166   5.843   2.321   4.908 -0.1414  0.3427  0.3960
  177SLPC  H15X20167   5.862   2.387   4.821 -0.8590  0.4840  0.3405
  177SLPC  H15Y20168   5.805   2.388   4.989  0.1845  0.7688  0.2051
  177SLPC  C31620169   5.745   2.205   4.868  0.0811 -0.6311  0.1825
  177SLPC  H16X20170   5.742   2.130   4.950 -0.7834 -0.2425  0.5279
  177SLPC  H16Y20171   5.777   2.154   4.775 -0.6733 -0.1014 -0.3851
  177SLPC  C31720172   5.605   2.252   4.845 -0.0493 -0.4816 -0.7482
  177SLPC  H17X20173   5.598   2.347   4.902  0.0442 -0.1893 -1.2156
  177SLPC  H17Y20174   5.530   2.186   4.895  1.7774 -1.5400  0.7154
  177SLPC  C31820175   5.563   2.272   4.697 -0.3423 -0.0395 -0.3350
  177SLPC  H18X20176   5.466   2.325   4.693  0.4461  1.6485  1.3498
  177SLPC  H18Y20177   5.559   2.180   4.636  0.6226 -1.2689  1.3488
  177SLPC  H18Z20178   5.634   2.343   4.650 -2.1022  1.2419 -1.1757
  178SLPC     N20179   2.366   6.571   6.869  0.0843  0.4795  0.3874
  178SLPC   C1320180   2.445   6.679   6.933 -0.3528 -0.7167  0.5879
  178SLPC  H13A20181   2.546   6.690   6.895 -0.2926 -1.6057  0.4698
  178SLPC  H13B20182   2.391   6.773   6.932 -0.1506 -0.5736  1.8171
  178SLPC  H13C20183   2.456   6.670   7.040  0.6672  1.8935  0.7726
  178SLPC   C1420184   2.239   6.551   6.942 -0.2511 -0.4454  0.2837
  178SLPC  H14A20185   2.168   6.486   6.893 -0.7696 -1.0106  1.7225
  178SLPC  H14B20186   2.256   6.520   7.044  2.8572  1.2261  0.4048
  178SLPC  H14C20187   2.186   6.644   6.948 -1.5780 -1.2051  0.6094
  178SLPC   C1520188   2.451   6.446   6.885  0.2584 -0.3526  0.1899
  178SLPC  H15A20189   2.552   6.466   6.852  1.1866  1.2392  3.5171
  178SLPC  H15B20190   2.454   6.422   6.990  0.1295 -0.9025  0.0684
  178SLPC  H15C20191   2.408   6.360   6.838 -0.0022  0.2692 -0.7282
  178SLPC   C1220192   2.351   6.599   6.721  0.0711 -0.6004 -0.8159
  178SLPC  H12A20193   2.302   6.695   6.711  0.3293 -0.5243 -1.3730
  178SLPC  H12B20194   2.275   6.534   6.681  0.5131  0.1203 -2.9497
  178SLPC   C1120195   2.469   6.604   6.616  0.2962  0.4115  0.2125
  178SLPC  H11A20196   2.517   6.703   6.635  0.4873  0.6287 -1.2770
  178SLPC  H11B20197   2.409   6.617   6.524 -1.7880 -0.1262  1.4318
  178SLPC     P20198   2.523   6.347   6.556 -0.3734 -0.3447  0.1555
  178SLPC   O1320199   2.628   6.259   6.614  0.2113  0.4786  0.0601
  178SLPC   O1420200   2.380   6.304   6.564 -0.3366  0.1007  0.3491
  178SLPC   O1220201   2.552   6.491   6.619  0.6811  0.1829 -0.2067
  178SLPC   O1120202   2.558   6.366   6.400  0.0941  0.1295 -0.1477
  178SLPC    C120203   2.647   6.469   6.353  0.3812 -0.1468 -0.0389
  178SLPC    HA20204   2.589   6.559   6.322  1.0283  0.8286  1.4790
  178SLPC    HB20205   2.727   6.499   6.424 -1.1055 -0.3437  1.8130
  178SLPC    C220206   2.719   6.438   6.222  0.2698  0.4210 -0.4930
  178SLPC    HS20207   2.785   6.527   6.204 -0.1727  0.6334 -1.1059
  178SLPC   O2120208   2.617   6.413   6.117 -0.0155  0.3638 -0.9778
  178SLPC   C2120209   2.636   6.489   6.002 -0.2104 -0.1858  0.0362
  178SLPC   O2220210   2.728   6.562   5.978 -0.2479  0.1845 -0.0135
  178SLPC   C2220211   2.520   6.451   5.919  0.1266  0.5647  0.0827
  178SLPC   H2R20212   2.538   6.370   5.845 -0.0552 -2.0274  2.7007
  178SLPC   H2S20213   2.433   6.426   5.983 -0.2946  1.9482  0.0816
  178SLPC    C320214   2.813   6.308   6.232 -0.7782  0.1303 -0.3966
  178SLPC    HX20215   2.765   6.232   6.297 -0.8851  1.6708  1.4182
  178SLPC    HY20216   2.901   6.326   6.298 -1.8256 -0.7111  1.2905
  178SLPC   O3120217   2.849   6.249   6.106 -0.2237  0.1486 -0.4910
  178SLPC   C3120218   2.928   6.323   6.031  0.1245 -0.2620 -0.0206
  178SLPC   O3220219   2.986   6.425   6.066 -0.0100 -0.1671  0.2373
  178SLPC   C3220220   2.927   6.273   5.886 -0.2124  0.0958  0.1148
  178SLPC   H2X20221   2.827   6.231   5.863  0.2087  0.1022 -1.9661
  178SLPC   H2Y20222   2.997   6.187   5.875  2.2460  1.6058  2.6654
  178SLPC   C2320223   2.451   6.564   5.842  0.5406 -0.9678 -0.3046
  178SLPC   H3R20224   2.424   6.647   5.910 -0.3847 -2.6771  1.5214
  178SLPC   H3S20225   2.356   6.531   5.795 -1.5023  2.3140  1.1724
  178SLPC   C2420226   2.543   6.614   5.732 -0.4548 -0.3669  0.0726
  178SLPC   H4R20227   2.569   6.527   5.668  1.0040 -1.6564  2.2764
  178SLPC   H4S20228   2.644   6.641   5.768  0.7913 -0.2919 -3.0967
  178SLPC   C2520229   2.489   6.734   5.654 -0.4360  0.7632  0.2320
  178SLPC   H5R20230   2.460   6.819   5.720  1.2473  0.0836  1.9424
  178SLPC   H5S20231   2.398   6.699   5.600  0.5164 -1.7634  0.1335
  178SLPC   C2620232   2.602   6.776   5.557 -0.3408 -1.0154 -0.4234
  178SLPC   H6R20233   2.569   6.859   5.491  1.1259 -0.3076 -0.3041
  178SLPC   H6S20234   2.633   6.687   5.498  1.9301 -0.5130 -0.0744
  178SLPC   C2720235   2.720   6.848   5.624  1.3698 -0.2271 -0.3630
  178SLPC   H7R20236   2.780   6.777   5.684 -0.6217 -1.4172  0.3042
  178SLPC   H7S20237   2.681   6.929   5.688  0.5431 -0.6080 -0.3694
  178SLPC   C2820238   2.830   6.903   5.522 -0.0872 -0.7522 -0.1798
  178SLPC   H8R20239   2.901   6.974   5.569  0.4085 -1.1281 -0.3437
  178SLPC   H8S20240   2.772   6.956   5.444  2.3582  0.1616 -1.4838
  178SLPC   C2920241   2.909   6.786   5.464 -0.0738  0.6807  0.0685
  178SLPC   H9R20242   2.973   6.743   5.542 -2.9290 -1.8118  1.2355
  178SLPC  C21020243   2.918   6.743   5.336 -0.2261  0.3430  0.2459
  178SLPC  H10R20244   2.987   6.662   5.307 -0.2645  0.4595 -0.1685
  178SLPC  C21120245   2.843   6.804   5.222 -0.1015 -0.4522  0.3297
  178SLPC  H11R20246   2.916   6.871   5.172  1.1285 -1.3901  0.8395
  178SLPC  H11S20247   2.762   6.874   5.254  0.4372  0.1416  0.4108
  178SLPC  C21220248   2.794   6.703   5.126 -0.3891  0.0171  0.9238
  178SLPC  H12R20249   2.727   6.624   5.163 -1.1468  0.9935  1.7123
  178SLPC  C21320250   2.827   6.695   4.997  0.3549  0.2162 -0.8662
  178SLPC  H13R20251   2.793   6.606   4.943 -2.1708  0.3518  0.3620
  178SLPC  C21420252   2.889   6.803   4.921 -0.1968  0.5632  0.1700
  178SLPC  H14R20253   2.996   6.772   4.921 -0.5865 -1.0278 -1.8185
  178SLPC  H14S20254   2.877   6.904   4.966  1.2281  0.0564  1.8273
  178SLPC  C21520255   2.857   6.818   4.774 -0.1348 -0.1953 -0.2488
  178SLPC  H15R20256   2.898   6.913   4.732 -0.9750 -0.2139 -1.1556
  178SLPC  H15S20257   2.747   6.812   4.765 -0.6877  3.3899  2.1565
  178SLPC  C21620258   2.925   6.723   4.678  0.0704  0.1213 -0.7660
  178SLPC  H16R20259   2.914   6.618   4.713 -0.1507 -0.1354 -1.5739
  178SLPC  H16S20260   3.035   6.740   4.678 -0.0096  0.8923  0.9901
  178SLPC  C21720261   2.862   6.730   4.536 -0.3248 -0.6505  0.5400
  178SLPC  H17R20262   2.878   6.829   4.490 -2.0861 -1.4847 -2.0751
  178SLPC  H17S20263   2.752   6.717   4.547 -0.3530 -0.2977  0.6882
  178SLPC  C21820264   2.922   6.607   4.460 -0.3675 -0.5316 -0.7127
  178SLPC  H18R20265   2.853   6.522   4.483 -2.4901  1.5026  0.8947
  178SLPC  H18S20266   3.022   6.584   4.502 -0.5887 -2.6246 -1.1851
  178SLPC  H18T20267   2.927   6.614   4.349 -1.1454 -2.0778 -0.8686
  178SLPC   C3320268   2.951   6.383   5.778 -1.0957  0.4497 -0.3887
  178SLPC   H3X20269   3.060   6.399   5.767 -1.3914  1.7380 -1.7465
  178SLPC   H3Y20270   2.896   6.474   5.811 -0.3978  0.2540  1.4330
  178SLPC   C3420271   2.899   6.331   5.644 -0.2838  0.2369 -0.1751
  178SLPC   H4X20272   2.793   6.296   5.654  0.1970 -0.8406  1.7815
  178SLPC   H4Y20273   2.950   6.239   5.609  1.3200  1.3823 -0.9350
  178SLPC   C3520274   2.910   6.435   5.521  0.5174 -0.4403  0.0716
  178SLPC   H5X20275   3.013   6.473   5.505  0.1178  0.3683 -0.6715
  178SLPC   H5Y20276   2.850   6.527   5.539  0.2633 -0.5230 -0.3413
  178SLPC   C3620277   2.863   6.383   5.391  0.3654 -0.4667  0.0239
  178SLPC   H6X20278   2.796   6.461   5.349  1.4721  0.3961 -0.1867
  178SLPC   H6Y20279   2.807   6.287   5.403  0.2501 -0.3629  0.3445
  178SLPC   C3720280   2.978   6.364   5.289 -0.4378 -0.1407 -0.2053
  178SLPC   H7X20281   3.054   6.293   5.328  1.0959  0.0716 -2.5491
  178SLPC   H7Y20282   3.024   6.465   5.274 -1.2882  0.4397  0.9720
  178SLPC   C3820283   2.933   6.305   5.153  0.2331  0.1417 -0.4547
  178SLPC   H8X20284   2.835   6.347   5.119  0.9493  2.0176 -0.3147
  178SLPC   H8Y20285   2.914   6.198   5.178 -0.7452  0.9334  2.6291
  178SLPC   C3920286   3.049   6.307   5.049 -0.0575  0.0236 -0.8257
  178SLPC   H9X20287   3.141   6.257   5.088 -0.1125  0.5298 -0.0117
  178SLPC   H9Y20288   3.071   6.415   5.033  0.8136  0.0722  0.4985
  178SLPC  C31020289   3.006   6.244   4.919  0.6047  0.0455  0.2645
  178SLPC  H10X20290   2.913   6.292   4.882  0.3620  0.5171  1.4454
  178SLPC  H10Y20291   2.993   6.136   4.939 -1.2314  0.2851  0.5736
  178SLPC  C31120292   3.103   6.255   4.801 -0.1872  1.1090  0.1535
  178SLPC  H11X20293   3.066   6.195   4.716  0.6345 -0.9105  1.1566
  178SLPC  H11Y20294   3.201   6.211   4.827 -0.3144  1.4597  1.2837
  178SLPC  C31220295   3.129   6.399   4.744  0.1780 -0.3678  0.2331
  178SLPC  H12X20296   3.148   6.461   4.834 -1.5707  0.7591 -0.1247
  178SLPC  H12Y20297   3.037   6.444   4.700  2.6588  2.6026 -2.4541
  178SLPC  C31320298   3.242   6.405   4.648 -0.0858 -0.5658  0.5351
  178SLPC  H13X20299   3.337   6.368   4.691  0.0616  0.8932  1.5475
  178SLPC  H13Y20300   3.263   6.509   4.615  0.6557 -0.6847  0.6223
  178SLPC  C31420301   3.223   6.326   4.512  0.0505 -0.3478  0.2662
  178SLPC  H14X20302   3.115   6.303   4.504 -0.0990 -0.1444  1.5054
  178SLPC  H14Y20303   3.284   6.234   4.512  0.2457 -0.2498 -1.6171
  178SLPC  C31520304   3.268   6.409   4.386 -0.1045  0.7710  0.1477
  178SLPC  H15X20305   3.370   6.438   4.416 -0.1362 -1.3988  2.6611
  178SLPC  H15Y20306   3.207   6.503   4.380 -1.6566 -0.0420  1.9898
  178SLPC  C31620307   3.269   6.330   4.254  0.1320  0.5978  0.2185
  178SLPC  H16X20308   3.333   6.240   4.258 -0.3584  0.2746  1.1137
  178SLPC  H16Y20309   3.297   6.395   4.168 -0.5141  0.5698 -0.0193
  178SLPC  C31720310   3.131   6.273   4.212  0.9090  0.5298 -0.4882
  178SLPC  H17X20311   3.052   6.351   4.212 -0.0369 -0.3790  1.0979
  178SLPC  H17Y20312   3.096   6.194   4.281 -1.0774  0.0767 -1.9312
  178SLPC  C31820313   3.117   6.215   4.071 -0.2282  0.3919  0.3574
  178SLPC  H18X20314   3.138   6.298   4.001 -1.4524  3.2374  3.0926
  178SLPC  H18Y20315   3.018   6.170   4.051 -0.6968  2.1726 -1.5567
  178SLPC  H18Z20316   3.192   6.133   4.063  0.0472  0.3864  2.4495
  179SLPC     N20317   3.666   0.786   2.050 -0.1290 -0.0542 -0.3183
  179SLPC   C1320318   3.779   0.844   1.975 -0.0131  0.3091  0.0409
  179SLPC  H13A20319   3.877   0.811   2.007  0.3753 -0.2849 -1.6500
  179SLPC  H13B20320   3.775   0.830   1.868  0.8121  0.4257 -0.0187
  179SLPC  H13C20321   3.782   0.951   1.990  3.1243  0.6495 -2.1399
  179SLPC   C1420322   3.659   0.655   1.986 -0.0044 -0.1839 -0.3367
  179SLPC  H14A20323   3.600   0.586   2.043  0.4254 -0.3211 -0.0510
  179SLPC  H14B20324   3.627   0.658   1.883 -1.9357  1.5064  0.2571
  179SLPC  H14C20325   3.758   0.618   1.965  0.7943  1.5236  0.1858
  179SLPC   C1520326   3.535   0.847   2.009  0.0114  0.6719  0.3718
  179SLPC  H15A20327   3.528   0.859   1.902  1.6589 -1.7682 -0.0933
  179SLPC  H15B20328   3.467   0.770   2.040 -0.4237  0.6311 -0.6393
  179SLPC  H15C20329   3.506   0.941   2.053 -2.0693  0.8372 -1.2272
  179SLPC   C1220330   3.691   0.772   2.199 -0.2666  0.4747 -0.3479
  179SLPC  H12A20331   3.778   0.713   2.225 -0.7675  0.3741  1.1828
  179SLPC  H12B20332   3.608   0.714   2.235  0.0879 -0.8771 -1.5846
  179SLPC   C1120333   3.699   0.906   2.264  0.1705  0.8496 -0.0300
  179SLPC  H11A20334   3.784   0.957   2.213  0.5330  0.2150 -0.0658
  179SLPC  H11B20335   3.739   0.905   2.367 -1.0186  0.3873  0.4473
  179SLPC     P20336   3.476   0.985   2.378 -0.3225  0.1171  0.0076
  179SLPC   O1320337   3.379   1.098   2.367  0.1171 -0.5877 -0.5714
  179SLPC   O1420338   3.419   0.851   2.395 -0.0508 -0.4186 -0.8087
  179SLPC   O1220339   3.585   0.986   2.256 -0.1687  0.1938  0.3213
  179SLPC   O1120340   3.555   1.016   2.514  0.8271  0.2183  0.0341
  179SLPC    C120341   3.644   1.132   2.520  0.2203  0.4316 -0.3732
  179SLPC    HA20342   3.688   1.159   2.421 -0.2255  0.9244 -0.4403
  179SLPC    HB20343   3.591   1.220   2.560  0.2565  0.1877  0.2179
  179SLPC    C220344   3.767   1.116   2.619  0.2333  0.5554  0.6165
  179SLPC    HS20345   3.826   1.030   2.580 -1.7930 -1.8613  2.5512
  179SLPC   O2120346   3.714   1.099   2.749  0.2864 -0.3232 -0.2405
  179SLPC   C2120347   3.712   0.981   2.808 -0.8384 -0.4225 -0.2258
  179SLPC   O2220348   3.760   0.882   2.756  0.0012  0.3188  0.1279
  179SLPC   C2220349   3.633   0.980   2.940  0.4860  0.0564  0.2217
  179SLPC   H2R20350   3.599   1.084   2.960  0.1830  0.4766 -2.1926
  179SLPC   H2S20351   3.549   0.911   2.922 -0.1330  0.2990  2.0471
  179SLPC    C320352   3.861   1.245   2.608  0.5977  0.1939 -0.0338
  179SLPC    HX20353   3.800   1.337   2.615 -1.4108 -1.0826  0.2663
  179SLPC    HY20354   3.893   1.245   2.501 -0.1232 -1.5517 -0.2972
  179SLPC   O3120355   3.974   1.249   2.697 -0.1081 -0.0024 -0.0003
  179SLPC   C3120356   4.076   1.173   2.667  0.1859  0.1045 -0.5528
  179SLPC   O3220357   4.095   1.116   2.559 -0.1737  0.1424  0.4838
  179SLPC   C3220358   4.165   1.171   2.800 -0.6299  0.6351 -0.1142
  179SLPC   H2X20359   4.227   1.263   2.801  0.4215 -0.0461  0.9453
  179SLPC   H2Y20360   4.240   1.090   2.791 -3.2195 -1.9642  0.0122
  179SLPC   C2320361   3.722   0.941   3.051 -0.3119  0.2299 -0.3642
  179SLPC   H3R20362   3.793   1.024   3.074 -0.3673  0.0845  0.3417
  179SLPC   H3S20363   3.773   0.846   3.023  0.4807  0.3217  0.6940
  179SLPC   C2420364   3.640   0.903   3.176  0.1754  0.6202  0.3136
  179SLPC   H4R20365   3.584   0.807   3.169 -1.2653  1.4379  0.0876
  179SLPC   H4S20366   3.567   0.982   3.203 -0.6848 -0.7123  2.0816
  179SLPC   C2520367   3.744   0.878   3.286  0.7275 -0.1072 -0.4110
  179SLPC   H5R20368   3.798   0.975   3.297 -2.6662  1.8760  0.0250
  179SLPC   H5S20369   3.807   0.793   3.252  0.5519 -1.0872  1.5431
  179SLPC   C2620370   3.674   0.833   3.421 -0.1955  0.5036 -0.1809
  179SLPC   H6R20371   3.610   0.745   3.399 -0.6773  0.3063  1.8158
  179SLPC   H6S20372   3.607   0.911   3.463 -0.5775 -0.1917  0.5251
  179SLPC   C2720373   3.766   0.786   3.535 -0.4206  0.1018 -0.1815
  179SLPC   H7R20374   3.811   0.861   3.602 -1.6475 -0.8060  1.7527
  179SLPC   H7S20375   3.851   0.725   3.498 -1.4260 -2.2948  1.2056
  179SLPC   C2820376   3.686   0.703   3.638  0.1211  0.3473  0.1370
  179SLPC   H8R20377   3.753   0.665   3.719 -0.7582 -1.1830  0.1887
  179SLPC   H8S20378   3.643   0.607   3.601  1.1282 -0.5366  1.1489
  179SLPC   C2920379   3.581   0.787   3.699  0.0488  0.1628 -0.4899
  179SLPC   H9R20380   3.486   0.784   3.642 -1.6889  0.5693  2.2112
  179SLPC  C21020381   3.586   0.850   3.816 -0.0050  0.3109  0.4193
  179SLPC  H10R20382   3.495   0.894   3.858  0.6766 -0.1084  2.4366
  179SLPC  C21120383   3.711   0.857   3.910  0.5208  0.7489  0.1730
  179SLPC  H11R20384   3.785   0.911   3.848  1.3392 -1.2904 -0.7115
  179SLPC  H11S20385   3.762   0.761   3.931 -3.4857 -1.7776 -0.5164
  179SLPC  C21220386   3.665   0.937   4.030  0.1810  0.2034 -0.0555
  179SLPC  H12R20387   3.628   1.036   4.001  1.7331  1.1642  1.0776
  179SLPC  C21320388   3.702   0.905   4.157  0.6929  0.0668 -0.2714
  179SLPC  H13R20389   3.659   0.970   4.234 -1.1525 -0.9404 -0.3852
  179SLPC  C21420390   3.761   0.775   4.212  0.0611  0.2985  0.8063
  179SLPC  H14R20391   3.862   0.767   4.167 -1.0958  2.1695 -2.4865
  179SLPC  H14S20392   3.694   0.688   4.196  0.5337 -0.3304  2.1087
  179SLPC  C21520393   3.779   0.788   4.372  0.9672  0.9667  0.1247
  179SLPC  H15R20394   3.824   0.690   4.396  1.4793  0.6168 -2.0658
  179SLPC  H15S20395   3.671   0.792   4.397  0.3049 -0.0727 -2.2368
  179SLPC  C21620396   3.868   0.900   4.423  0.5495 -0.6652  0.3824
  179SLPC  H16R20397   3.812   0.997   4.423 -0.3885 -1.1784  2.0275
  179SLPC  H16S20398   3.959   0.921   4.363  2.3964 -0.4644  3.1018
  179SLPC  C21720399   3.918   0.869   4.564 -0.2848  0.0884 -0.3104
  179SLPC  H17R20400   4.008   0.933   4.574  0.0834 -0.6120  1.0254
  179SLPC  H17S20401   3.946   0.761   4.563 -2.2940 -0.5057 -2.0023
  179SLPC  C21820402   3.826   0.907   4.679  0.9731 -0.4292  0.5255
  179SLPC  H18R20403   3.867   0.902   4.782 -0.9683 -3.2693  1.3089
  179SLPC  H18S20404   3.737   0.840   4.674  0.0286  0.8204 -0.1059
  179SLPC  H18T20405   3.792   1.006   4.643  1.9049 -0.7050 -1.2521
  179SLPC   C3320406   4.088   1.145   2.934 -0.1095 -0.5786  1.6061
  179SLPC   H3X20407   4.022   1.058   2.912  2.5563 -2.0407 -1.4548
  179SLPC   H3Y20408   4.021   1.234   2.936 -0.1228 -0.5324 -0.1520
  179SLPC   C3420409   4.163   1.145   3.068 -0.5617  0.1240 -0.5233
  179SLPC   H4X20410   4.232   1.231   3.077  0.2415 -0.5503  0.0015
  179SLPC   H4Y20411   4.235   1.061   3.060 -0.0590  0.5645 -0.6788
  179SLPC   C3520412   4.070   1.135   3.187  0.1188 -0.3851 -0.6886
  179SLPC   H5X20413   4.015   1.230   3.178  0.3900 -0.1033  0.4775
  179SLPC   H5Y20414   3.998   1.052   3.169 -1.6183  1.3574 -2.2082
  179SLPC   C3620415   4.145   1.109   3.314 -0.1446  0.2356  0.0519
  179SLPC   H6X20416   4.202   1.203   3.330  2.2052 -1.0431 -0.3380
  179SLPC   H6Y20417   4.221   1.034   3.286 -0.0700  0.5336 -0.5648
  179SLPC   C3720418   4.056   1.067   3.427  0.6051  0.0465  0.6682
  179SLPC   H7X20419   4.007   0.975   3.390  0.9032 -0.0259  0.4470
  179SLPC   H7Y20420   3.986   1.153   3.434  0.6249  0.0917  0.3261
  179SLPC   C3820421   4.112   1.039   3.567  0.2525  0.0551  0.6876
  179SLPC   H8X20422   4.036   1.054   3.647 -2.8083 -3.3299 -1.2755
  179SLPC   H8Y20423   4.181   1.126   3.573  0.2465  0.2739 -1.4175
  179SLPC   C3920424   4.195   0.911   3.563 -0.3988 -0.1748 -0.0265
  179SLPC   H9X20425   4.281   0.921   3.494 -0.7111  1.0971 -0.2601
  179SLPC   H9Y20426   4.146   0.823   3.518 -1.8629 -0.8155  2.6191
  179SLPC  C31020427   4.248   0.889   3.705 -0.0315 -0.3769  0.2256
  179SLPC  H10X20428   4.322   0.807   3.694  0.0346 -0.3135  0.1965
  179SLPC  H10Y20429   4.179   0.837   3.775 -0.8789  0.7244  0.2384
  179SLPC  C31120430   4.317   1.009   3.762 -0.6955 -0.3253  0.8544
  179SLPC  H11X20431   4.236   1.080   3.789 -1.1595 -0.6809  0.4285
  179SLPC  H11Y20432   4.388   1.062   3.696 -2.4465  0.3878 -0.5584
  179SLPC  C31220433   4.397   0.980   3.892  0.4340  0.0096  0.6909
  179SLPC  H12X20434   4.454   1.067   3.931 -0.7666  0.3075  1.8500
  179SLPC  H12Y20435   4.482   0.916   3.861  0.5050  0.4254 -0.0124
  179SLPC  C31320436   4.317   0.925   4.014 -0.2465 -0.8902  0.5467
  179SLPC  H13X20437   4.259   0.833   3.993 -0.9797 -0.2981 -0.0882
  179SLPC  H13Y20438   4.244   1.007   4.036 -1.1811 -1.3941 -0.5454
  179SLPC  C31420439   4.420   0.900   4.124 -0.2105 -1.0363  0.6816
  179SLPC  H14X20440   4.499   0.979   4.133  0.3546 -1.5698  0.5053
  179SLPC  H14Y20441   4.481   0.812   4.094 -0.7367 -0.7290 -1.4642
  179SLPC  C31520442   4.360   0.877   4.266  0.1135  0.7870 -0.2623
  179SLPC  H15X20443   4.313   0.973   4.295  1.8454  0.9616  2.3231
  179SLPC  H15Y20444   4.451   0.869   4.330  1.0649  1.1993 -1.5035
  179SLPC  C31620445   4.267   0.752   4.265 -0.5892  0.3610  0.3110
  179SLPC  H16X20446   4.337   0.678   4.219 -1.5034 -0.7330  0.6438
  179SLPC  H16Y20447   4.179   0.773   4.201 -0.8464 -0.0255  0.5369
  179SLPC  C31720448   4.247   0.697   4.409 -0.2056 -0.1569 -0.3612
  179SLPC  H17X20449   4.205   0.784   4.465  0.0324 -0.9002  0.9941
  179SLPC  H17Y20450   4.347   0.677   4.451  0.4196  3.9279  0.5015
  179SLPC  C31820451   4.150   0.589   4.414  0.4293 -0.0084 -0.0363
  179SLPC  H18X20452   4.046   0.625   4.396  0.7169  1.6804  1.4121
  179SLPC  H18Y20453   4.153   0.547   4.517 -0.2036  0.8112  0.3258
  179SLPC  H18Z20454   4.170   0.507   4.341  1.2517  1.0203 -1.0079
  180SLPC     N20455   2.393   2.102   2.014 -0.1913  0.1655  0.7292
  180SLPC   C1320456   2.443   1.973   1.960 -0.1898 -0.5726 -0.3644
  180SLPC  H13A20457   2.367   1.928   1.898  0.1808  0.0908 -1.3220
  180SLPC  H13B20458   2.538   1.987   1.911 -0.1186 -0.5146 -0.2071
  180SLPC  H13C20459   2.469   1.909   2.043 -2.1293 -0.4128  0.4233
  180SLPC   C1420460   2.339   2.173   1.898  0.3502 -0.5976  0.3139
  180SLPC  H14A20461   2.294   2.271   1.908  0.8407  0.2675 -3.8321
  180SLPC  H14B20462   2.416   2.173   1.822 -1.6803 -0.1213 -1.8623
  180SLPC  H14C20463   2.257   2.122   1.850 -0.0783  0.5816 -0.2519
  180SLPC   C1520464   2.518   2.175   2.053 -0.0105  0.7400  0.0336
  180SLPC  H15A20465   2.591   2.171   1.973  0.9113  1.6129  0.7995
  180SLPC  H15B20466   2.511   2.282   2.067  0.1586  0.6334  1.0135
  180SLPC  H15C20467   2.570   2.140   2.141  1.1290  4.0342  0.8194
  180SLPC   C1220468   2.292   2.074   2.117  0.4269 -0.0065 -0.2833
  180SLPC  H12A20469   2.207   2.018   2.079 -1.7217  1.6346  1.7804
  180SLPC  H12B20470   2.241   2.166   2.143  0.3762  0.1355 -0.8691
  180SLPC   C1120471   2.348   1.996   2.248 -0.6259  0.1801  0.4879
  180SLPC  H11A20472   2.290   2.009   2.342 -0.8170  0.2351  0.3633
  180SLPC  H11B20473   2.448   2.041   2.264  0.0162  0.1353 -2.6660
  180SLPC     P20474   2.243   1.764   2.206 -0.0572 -0.1643  0.4551
  180SLPC   O1320475   2.133   1.829   2.129  0.3016 -0.2589  0.1049
  180SLPC   O1420476   2.297   1.635   2.147 -0.3612  0.2882  0.3715
  180SLPC   O1220477   2.368   1.862   2.222  0.2774  0.0821  0.1368
  180SLPC   O1120478   2.220   1.738   2.367  0.2400 -0.5981  0.3194
  180SLPC    C120479   2.324   1.703   2.457  0.3197  0.0139  0.3926
  180SLPC    HA20480   2.419   1.759   2.444  0.0782  0.1900 -0.7501
  180SLPC    HB20481   2.286   1.720   2.560 -2.0320 -1.5714 -0.1227
  180SLPC    C220482   2.354   1.548   2.453 -0.6660  0.3278  0.2722
  180SLPC    HS20483   2.373   1.522   2.346 -0.6786  0.4790  0.2330
  180SLPC   O2120484   2.238   1.484   2.508  0.3706  0.4865 -0.1475
  180SLPC   C2120485   2.205   1.371   2.443  0.3649 -0.1582 -0.5587
  180SLPC   O2220486   2.267   1.325   2.348 -0.3064 -0.2895 -0.4345
  180SLPC   C2220487   2.094   1.296   2.500  0.6795 -0.1296 -0.1007
  180SLPC   H2R20488   2.009   1.368   2.496 -0.3479 -1.3161 -0.0485
  180SLPC   H2S20489   2.064   1.215   2.431 -0.4700 -1.0421  1.4140
  180SLPC    C320490   2.479   1.499   2.532  0.0592 -1.1292 -0.2245
  180SLPC    HX20491   2.474   1.534   2.637 -2.1263 -3.2480  0.4671
  180SLPC    HY20492   2.571   1.547   2.491  0.7837  0.1369  2.6282
  180SLPC   O3120493   2.479   1.355   2.534 -0.0867 -0.7171 -0.2843
  180SLPC   C3120494   2.564   1.292   2.622 -0.1882 -0.1535  0.0331
  180SLPC   O3220495   2.644   1.352   2.693 -0.3118 -0.0533  0.2158
  180SLPC   C3220496   2.531   1.142   2.619 -0.6215  0.2128  0.1155
  180SLPC   H2X20497   2.482   1.117   2.523 -0.3895  0.1467  0.0127
  180SLPC   H2Y20498   2.473   1.128   2.713 -0.2859  0.5498  0.3785
  180SLPC   C2320499   2.117   1.253   2.650  0.4304 -0.1278  0.0259
  180SLPC   H3R20500   2.022   1.262   2.706  0.3939 -2.6339  0.4834
  180SLPC   H3S20501   2.184   1.327   2.698  1.1664 -0.7776  0.0245
  180SLPC   C2420502   2.169   1.111   2.655 -0.4875 -0.7619  0.8982
  180SLPC   H4R20503   2.274   1.101   2.619 -0.2834 -1.3309  1.6427
  180SLPC   H4S20504   2.123   1.044   2.579  0.6898 -0.4690 -0.1172
  180SLPC   C2520505   2.159   1.048   2.794  0.7024 -0.0501  0.3923
  180SLPC   H5R20506   2.051   1.041   2.818  0.6242  0.2159  0.1206
  180SLPC   H5S20507   2.204   1.107   2.876  2.4878  0.6242 -0.9919
  180SLPC   C2620508   2.222   0.910   2.798 -0.4833 -0.2234 -0.3520
  180SLPC   H6R20509   2.332   0.923   2.807  0.0875 -2.4990 -2.7632
  180SLPC   H6S20510   2.212   0.859   2.700 -0.0853  0.7438 -0.8991
  180SLPC   C2720511   2.150   0.825   2.905 -0.1501 -0.0122 -0.1330
  180SLPC   H7R20512   2.187   0.721   2.896  1.3200  0.4178  0.6010
  180SLPC   H7S20513   2.042   0.826   2.878 -0.5963 -1.2183  1.4122
  180SLPC   C2820514   2.153   0.877   3.052 -0.3951 -0.0008  0.2264
  180SLPC   H8R20515   2.082   0.825   3.120 -0.0579  1.3127  1.6577
  180SLPC   H8S20516   2.125   0.985   3.052 -1.3205 -0.1907 -2.0688
  180SLPC   C2920517   2.297   0.871   3.106  0.3317 -0.4827 -0.4322
  180SLPC   H9R20518   2.372   0.929   3.050 -0.2646 -0.3169 -1.0736
  180SLPC  C21020519   2.325   0.829   3.228 -0.8564  0.1116 -0.2472
  180SLPC  H10R20520   2.433   0.820   3.250 -0.8289  0.6345 -0.1678
  180SLPC  C21120521   2.240   0.764   3.335  0.2021  0.4284 -0.2865
  180SLPC  H11R20522   2.134   0.781   3.307  0.5631  2.1755 -0.7205
  180SLPC  H11S20523   2.250   0.831   3.424  0.3697  1.4534 -1.0587
  180SLPC  C21220524   2.273   0.624   3.379  0.1564  0.2426  0.1953
  180SLPC  H12R20525   2.300   0.557   3.297  1.3193 -2.0105  2.2970
  180SLPC  C21320526   2.272   0.573   3.507 -0.4068  0.1635  1.0327
  180SLPC  H13R20527   2.310   0.471   3.525  0.2813  0.2007 -0.0845
  180SLPC  C21420528   2.253   0.645   3.638 -0.2739  0.4016  0.0078
  180SLPC  H14R20529   2.182   0.577   3.690 -0.9902 -1.4472 -3.1200
  180SLPC  H14S20530   2.200   0.741   3.618 -2.7095 -0.6991  0.7526
  180SLPC  C21520531   2.366   0.677   3.738  0.1422  0.1091 -0.4486
  180SLPC  H15R20532   2.348   0.760   3.810 -0.9291 -0.0562 -0.5180
  180SLPC  H15S20533   2.448   0.712   3.671  1.7455 -0.8440  0.9321
  180SLPC  C21620534   2.415   0.554   3.813  0.0127 -0.2710 -0.2558
  180SLPC  H16R20535   2.427   0.465   3.748  1.3982 -1.6173  1.7494
  180SLPC  H16S20536   2.332   0.525   3.880  0.3406 -0.6279  0.0021
  180SLPC  C21720537   2.544   0.559   3.886 -0.3445  0.2264 -0.3860
  180SLPC  H17R20538   2.551   0.473   3.955  1.4605  0.4568 -0.2277
  180SLPC  H17S20539   2.554   0.648   3.951  0.8649 -0.3951  0.3047
  180SLPC  C21820540   2.665   0.558   3.798  0.0342  0.7648 -0.3970
  180SLPC  H18R20541   2.640   0.487   3.716 -0.2584  0.6797 -0.2350
  180SLPC  H18S20542   2.753   0.516   3.850 -0.1391 -0.4534 -1.0513
  180SLPC  H18T20543   2.679   0.660   3.757  0.4011  0.3125 -1.4427
  180SLPC   C3320544   2.663   1.060   2.617  0.1995  0.7454  0.1497
  180SLPC   H3X20545   2.721   1.102   2.532 -0.1442  0.9473  0.0096
  180SLPC   H3Y20546   2.646   0.953   2.591 -0.0634  0.1577  2.5783
  180SLPC   C3420547   2.751   1.065   2.749  0.7942 -0.2039  0.4628
  180SLPC   H4X20548   2.799   1.163   2.769  1.0071 -0.4131  0.9790
  180SLPC   H4Y20549   2.828   0.986   2.737 -2.0776 -2.9591 -1.8121
  180SLPC   C3520550   2.665   1.024   2.865 -0.0986 -0.4671  0.0722
  180SLPC   H5X20551   2.603   0.936   2.840 -1.9688  0.7516  0.2273
  180SLPC   H5Y20552   2.605   1.112   2.899  2.1664  0.9326  0.6933
  180SLPC   C3620553   2.748   0.982   2.985  0.4961  0.4053  0.6663
  180SLPC   H6X20554   2.798   1.071   3.029  2.5081 -0.6228  0.5541
  180SLPC   H6Y20555   2.829   0.921   2.940  0.9353  0.7541  0.9838
  180SLPC   C3720556   2.663   0.901   3.091 -0.7754  0.3339 -0.4942
  180SLPC   H7X20557   2.619   0.806   3.054 -3.2404 -0.9307  4.7307
  180SLPC   H7Y20558   2.581   0.969   3.121  0.8813  1.4039  1.9871
  180SLPC   C3820559   2.748   0.870   3.218  0.6073 -0.2099 -1.0891
  180SLPC   H8X20560   2.794   0.964   3.255  0.2670  0.4474 -2.2603
  180SLPC   H8Y20561   2.835   0.814   3.179  2.1283  2.0143 -1.1126
  180SLPC   C3920562   2.678   0.790   3.336 -0.2977  0.3378  0.1443
  180SLPC   H9X20563   2.764   0.729   3.370 -0.2575  0.4670  0.2816
  180SLPC   H9Y20564   2.623   0.707   3.287  0.2176  1.4893 -2.5640
  180SLPC  C31020565   2.609   0.876   3.450  0.3319 -0.5393  0.1759
  180SLPC  H10X20566   2.528   0.817   3.498 -0.8802  0.2821 -0.7890
  180SLPC  H10Y20567   2.557   0.960   3.397  3.3964  1.4407  0.0820
  180SLPC  C31120568   2.712   0.925   3.560  0.0896  0.1803  0.5587
  180SLPC  H11X20569   2.790   0.998   3.528 -1.3824  0.6642 -2.1281
  180SLPC  H11Y20570   2.754   0.825   3.585 -2.0199 -1.3743 -1.7176
  180SLPC  C31220571   2.631   0.969   3.680 -0.1473 -0.6035 -0.9871
  180SLPC  H12X20572   2.700   0.963   3.766 -0.4020  0.1324 -0.7209
  180SLPC  H12Y20573   2.545   0.905   3.709  0.1692 -0.3641  0.5491
  180SLPC  C31320574   2.581   1.112   3.665 -0.8803 -0.2719  0.3693
  180SLPC  H13X20575   2.514   1.116   3.577  0.6929 -0.1192 -0.8517
  180SLPC  H13Y20576   2.666   1.182   3.648 -1.6355  0.9323  1.3205
  180SLPC  C31420577   2.514   1.164   3.795  0.8696 -0.2678 -0.3008
  180SLPC  H14X20578   2.572   1.140   3.886  3.6594  1.2316 -1.5633
  180SLPC  H14Y20579   2.422   1.102   3.805  1.1016 -0.1921  3.3941
  180SLPC  C31520580   2.488   1.318   3.791  0.1875 -0.5261 -0.1178
  180SLPC  H15X20581   2.426   1.338   3.702  0.4499 -0.6130 -0.3194
  180SLPC  H15Y20582   2.581   1.377   3.777  0.5368 -0.9162  0.4776
  180SLPC  C31620583   2.418   1.376   3.911  0.8141  0.1283 -0.4001
  180SLPC  H16X20584   2.392   1.483   3.893 -0.6990 -0.2332 -0.4773
  180SLPC  H16Y20585   2.479   1.365   4.004  0.3924 -0.5474 -0.1967
  180SLPC  C31720586   2.272   1.330   3.938 -0.0364 -0.2912 -0.2406
  180SLPC  H17X20587   2.270   1.220   3.953  0.6493 -0.1918  0.6480
  180SLPC  H17Y20588   2.217   1.342   3.842 -0.4270  1.6758  0.1763
  180SLPC  C31820589   2.188   1.406   4.045 -0.8663  0.6233  0.9899
  180SLPC  H18X20590   2.245   1.425   4.138  3.1735  0.7396 -1.2456
  180SLPC  H18Y20591   2.080   1.384   4.052 -0.4995 -1.3108  1.1415
  180SLPC  H18Z20592   2.180   1.509   4.004 -1.9158  0.2812  0.2941
  181SLPC     N20593   1.457   0.203   1.884 -0.5568  0.2443 -0.0234
  181SLPC   C1320594   1.583   0.148   1.823 -0.7723 -0.3389 -0.8259
  181SLPC  H13A20595   1.569   0.046   1.790  0.2839 -1.1564  1.1120
  181SLPC  H13B20596   1.618   0.213   1.745  0.3913 -0.6327 -0.5579
  181SLPC  H13C20597   1.661   0.144   1.897 -1.9969  0.2203  0.5367
  181SLPC   C1420598   1.364   0.209   1.768  0.5162  0.2168 -0.1175
  181SLPC  H14A20599   1.355   0.108   1.732  1.9608 -0.4366  1.2496
  181SLPC  H14B20600   1.275   0.267   1.788  0.0683 -0.6692  0.5159
  181SLPC  H14C20601   1.417   0.261   1.690 -1.7533 -1.2687 -2.8441
  181SLPC   C1520602   1.496   0.343   1.944 -0.2423  0.2421 -0.1246
  181SLPC  H15A20603   1.410   0.367   2.005 -1.6882 -2.0726 -1.0829
  181SLPC  H15B20604   1.585   0.331   2.003 -1.4233 -0.4619  1.5899
  181SLPC  H15C20605   1.512   0.410   1.861  0.5972  0.2915  0.0693
  181SLPC   C1220606   1.400   0.106   1.990 -0.3902 -0.7843 -0.5215
  181SLPC  H12A20607   1.403   0.010   1.940  3.1398 -0.0869 -2.0153
  181SLPC  H12B20608   1.296   0.126   2.009 -0.1643  0.5392 -0.5747
  181SLPC   C1120609   1.475   0.084   2.119  0.1281 -0.5023 -0.6473
  181SLPC  H11A20610   1.419   0.032   2.199  1.7323  0.3244  1.0732
  181SLPC  H11B20611   1.497   0.182   2.166 -1.9509  0.2760 -1.1876
  181SLPC     P20612   1.592  -0.147   2.050 -0.5182  0.5335 -0.0151
  181SLPC   O1320613   1.480  -0.187   1.960  0.5915 -0.1594 -0.1337
  181SLPC   O1420614   1.726  -0.196   2.009 -0.4855  0.4386  0.0035
  181SLPC   O1220615   1.595   0.012   2.078 -0.4661 -0.1869  0.4100
  181SLPC   O1120616   1.571  -0.192   2.195 -0.2978 -0.2146 -0.4581
  181SLPC    C120617   1.664  -0.251   2.288 -0.0710  0.1665 -0.0491
  181SLPC    HA20618   1.620  -0.349   2.319 -3.9513  1.9260  0.5681
  181SLPC    HB20619   1.759  -0.280   2.238  0.6716  0.5156  1.1147
  181SLPC    C220620   1.709  -0.171   2.419 -0.3979 -0.2832 -0.0488
  181SLPC    HS20621   1.795  -0.224   2.464  0.2637 -0.7568 -1.8117
  181SLPC   O2120622   1.602  -0.143   2.506 -0.0675  0.1090  0.3056
  181SLPC   C2120623   1.566  -0.239   2.587  0.7271 -0.2589 -0.9994
  181SLPC   O2220624   1.610  -0.350   2.599  0.4657 -0.3196 -0.2139
  181SLPC   C2220625   1.443  -0.204   2.666  0.7310 -0.7103 -0.6613
  181SLPC   H2R20626   1.438  -0.093   2.672 -0.7965 -0.8028  0.2496
  181SLPC   H2S20627   1.354  -0.238   2.610  1.5699  0.0320 -2.5343
  181SLPC    C320628   1.781  -0.033   2.383 -0.8629  0.3985 -0.7262
  181SLPC    HX20629   1.711   0.027   2.322 -1.5605  0.1676 -0.1687
  181SLPC    HY20630   1.878  -0.047   2.331 -0.1661  1.1151  0.3199
  181SLPC   O3120631   1.826   0.034   2.508  0.0770 -0.2394 -0.3249
  181SLPC   C3120632   1.776   0.152   2.533  0.0315  0.4340 -0.6479
  181SLPC   O3220633   1.726   0.227   2.451 -0.1662  0.5093 -0.1068
  181SLPC   C3220634   1.795   0.182   2.684  0.5611 -0.2440  0.1822
  181SLPC   H2X20635   1.788   0.290   2.710  0.1713 -0.5359  1.3929
  181SLPC   H2Y20636   1.898   0.155   2.716  0.0038 -0.2800  2.0862
  181SLPC   C2320637   1.439  -0.242   2.819  0.4024 -0.0461 -0.3123
  181SLPC   H3R20638   1.371  -0.171   2.871 -0.6196 -1.0139 -0.2992
  181SLPC   H3S20639   1.539  -0.255   2.867  0.2797  0.1400 -0.0004
  181SLPC   C2420640   1.377  -0.377   2.840  0.2014 -0.1555 -0.9089
  181SLPC   H4R20641   1.450  -0.455   2.808 -0.0462 -2.4627  3.4203
  181SLPC   H4S20642   1.279  -0.378   2.788 -0.2814  1.1956 -0.0571
  181SLPC   C2520643   1.363  -0.402   2.995  0.4435 -0.8850  0.0434
  181SLPC   H5R20644   1.307  -0.313   3.031  0.3198 -0.5678 -0.9086
  181SLPC   H5S20645   1.463  -0.401   3.044 -0.1687 -3.3321  1.5263
  181SLPC   C2620646   1.274  -0.533   3.014 -0.2381 -0.6810  0.6103
  181SLPC   H6R20647   1.342  -0.617   2.987 -0.7341 -1.2156  0.9943
  181SLPC   H6S20648   1.192  -0.541   2.940  0.3304 -2.7962  0.1276
  181SLPC   C2720649   1.210  -0.540   3.150 -0.1325  0.4786  0.0627
  181SLPC   H7R20650   1.124  -0.610   3.154  0.2795 -0.1427 -1.3302
  181SLPC   H7S20651   1.163  -0.444   3.179 -1.6537 -0.4845  0.8868
  181SLPC   C2820652   1.312  -0.563   3.258 -0.6867 -0.2673 -0.9508
  181SLPC   H8R20653   1.384  -0.480   3.272  1.9622 -2.6704  0.5613
  181SLPC   H8S20654   1.372  -0.652   3.230 -0.9641 -0.1103 -2.1042
  181SLPC   C2920655   1.247  -0.576   3.391 -0.2658 -0.3940 -0.2674
  181SLPC   H9R20656   1.179  -0.661   3.407 -2.0011  0.9331 -0.2795
  181SLPC  C21020657   1.256  -0.495   3.500  0.4253 -1.3724 -0.1122
  181SLPC  H10R20658   1.202  -0.518   3.593  0.6784 -1.9832 -0.1133
  181SLPC  C21120659   1.317  -0.361   3.506 -0.3125  0.6549  0.3123
  181SLPC  H11R20660   1.241  -0.292   3.548  0.2468  0.8873  0.9783
  181SLPC  H11S20661   1.340  -0.333   3.402 -1.5753 -2.2247 -0.8470
  181SLPC  C21220662   1.449  -0.346   3.577  0.1600  0.1418  0.4647
  181SLPC  H12R20663   1.523  -0.426   3.561  0.3354  0.1975  0.9890
  181SLPC  C21320664   1.490  -0.236   3.640 -0.6853  0.2498  0.0510
  181SLPC  H13R20665   1.597  -0.235   3.667 -0.2946 -1.1585 -1.2718
  181SLPC  C21420666   1.419  -0.110   3.680 -0.6062 -0.3050  0.8981
  181SLPC  H14R20667   1.351  -0.072   3.601  1.5007 -0.7688 -1.2413
  181SLPC  H14S20668   1.491  -0.028   3.700 -0.8479 -0.0130  0.5965
  181SLPC  C21520669   1.333  -0.125   3.809 -0.4956  1.0300  0.5448
  181SLPC  H15R20670   1.272  -0.214   3.784  2.1248 -0.0832 -2.5998
  181SLPC  H15S20671   1.261  -0.041   3.821 -0.0392  1.5684 -0.3490
  181SLPC  C21620672   1.413  -0.138   3.937 -0.1857  0.3972  0.3077
  181SLPC  H16R20673   1.490  -0.058   3.948  0.3754 -0.2782  1.4082
  181SLPC  H16S20674   1.479  -0.226   3.928 -0.3076  0.4355 -1.2099
  181SLPC  C21720675   1.327  -0.145   4.062  0.7740  0.5837  0.2830
  181SLPC  H17R20676   1.261  -0.056   4.060 -0.5374 -0.3537 -2.2338
  181SLPC  H17S20677   1.391  -0.136   4.152  2.3526 -0.3300 -0.7004
  181SLPC  C21820678   1.246  -0.267   4.069  0.2758  0.5597 -0.2069
  181SLPC  H18R20679   1.153  -0.264   4.008  0.5672  0.0066 -0.6856
  181SLPC  H18S20680   1.220  -0.282   4.176  1.1789  2.7280  0.3643
  181SLPC  H18T20681   1.299  -0.358   4.034  0.5427  0.7219 -0.2266
  181SLPC   C3320682   1.683   0.111   2.766  0.1027  0.1686  0.5102
  181SLPC   H3X20683   1.691   0.001   2.761 -1.3443 -0.0045  1.6610
  181SLPC   H3Y20684   1.579   0.144   2.743  0.2761  0.9524  0.8267
  181SLPC   C3420685   1.697   0.130   2.920 -0.3866  0.7468 -0.2421
  181SLPC   H4X20686   1.667   0.237   2.927 -2.1213  0.3049 -0.4352
  181SLPC   H4Y20687   1.800   0.119   2.959 -0.9999  0.2938  1.3785
  181SLPC   C3520688   1.607   0.040   3.008  0.1639  0.6200  0.8946
  181SLPC   H5X20689   1.640  -0.066   3.006  0.3321  0.6370 -2.5157
  181SLPC   H5Y20690   1.502   0.034   2.972  0.1361  1.0584  0.8970
  181SLPC   C3620691   1.612   0.080   3.149 -0.1528 -0.4700 -0.0133
  181SLPC   H6X20692   1.556   0.174   3.170 -0.5002 -0.7255  0.2018
  181SLPC   H6Y20693   1.718   0.113   3.154 -0.5381  1.5602 -2.9120
  181SLPC   C3720694   1.559  -0.015   3.262  0.4042 -0.0217  1.2393
  181SLPC   H7X20695   1.623  -0.106   3.255 -0.9907 -0.9661 -0.0141
  181SLPC   H7Y20696   1.452  -0.038   3.242  0.5373  0.5068 -0.2488
  181SLPC   C3820697   1.579   0.050   3.400  0.5545 -0.2689 -0.4229
  181SLPC   H8X20698   1.548  -0.026   3.475 -1.2078 -0.3147 -1.1467
  181SLPC   H8Y20699   1.492   0.119   3.411 -0.5255 -1.7376  0.7472
  181SLPC   C3920700   1.712   0.115   3.436  0.5056 -0.4276 -0.0860
  181SLPC   H9X20701   1.730   0.202   3.370  0.5945 -0.6612 -0.3761
  181SLPC   H9Y20702   1.792   0.041   3.411 -1.2168 -3.2849  2.1506
  181SLPC  C31020703   1.712   0.164   3.585 -0.0219  0.0874  0.4018
  181SLPC  H10X20704   1.697   0.080   3.655  0.8629 -1.8898 -1.6472
  181SLPC  H10Y20705   1.643   0.250   3.599  2.7027  2.2902  1.4207
  181SLPC  C31120706   1.833   0.223   3.634 -0.2777 -0.2315  0.1780
  181SLPC  H11X20707   1.866   0.292   3.554 -2.1321 -1.1357 -1.4715
  181SLPC  H11Y20708   1.923   0.162   3.655  0.6153  1.4265  1.3961
  181SLPC  C31220709   1.816   0.301   3.756 -0.3889  0.3056  0.0262
  181SLPC  H12X20710   1.781   0.240   3.842  0.1801 -0.7851 -0.4974
  181SLPC  H12Y20711   1.733   0.371   3.731 -1.5363 -0.5831  1.2212
  181SLPC  C31320712   1.938   0.389   3.790  0.3687 -0.3710  0.2992
  181SLPC  H13X20713   1.990   0.429   3.700  1.7769 -1.7214  0.4649
  181SLPC  H13Y20714   2.009   0.316   3.832 -0.0368 -0.6376  0.5220
  181SLPC  C31420715   1.921   0.508   3.890 -0.5297  0.0609  0.4734
  181SLPC  H14X20716   1.825   0.559   3.865  0.2916  2.0823  1.2445
  181SLPC  H14Y20717   1.997   0.588   3.881 -1.3874  0.8862  0.4579
  181SLPC  C31520718   1.908   0.465   4.040 -0.3202  0.1002  0.1599
  181SLPC  H15X20719   1.852   0.370   4.027 -0.9498  0.5785 -0.7437
  181SLPC  H15Y20720   1.847   0.540   4.093  1.9073  1.3271  1.1467
  181SLPC  C31620721   2.039   0.443   4.118 -0.0120 -0.5359 -0.6202
  181SLPC  H16X20722   2.094   0.536   4.146  3.2564 -2.4993  0.0293
  181SLPC  H16Y20723   2.101   0.383   4.049  0.8417  0.9607 -1.1978
  181SLPC  C31720724   2.016   0.372   4.253 -0.1347  0.2798  0.4956
  181SLPC  H17X20725   1.945   0.288   4.239  0.0671 -0.0926  1.6329
  181SLPC  H17Y20726   1.964   0.453   4.309 -0.5587 -0.5190  1.2633
  181SLPC  C31820727   2.136   0.325   4.327 -0.0384 -0.1697  0.3863
  181SLPC  H18X20728   2.191   0.254   4.262 -1.9026 -0.4969 -0.8800
  181SLPC  H18Y20729   2.103   0.292   4.428 -1.7678  2.5382  0.7888
  181SLPC  H18Z20730   2.203   0.412   4.347 -2.0531  1.4337  0.4237
  182SLPC     N20731   2.564   6.158   2.060  0.3869  0.6322 -0.5081
  182SLPC   C1320732   2.691   6.129   1.985  0.2254  0.2762 -0.3053
  182SLPC  H13A20733   2.779   6.164   2.036  0.6368 -0.3669 -0.5536
  182SLPC  H13B20734   2.714   6.024   1.979  0.7259  0.4537 -1.6714
  182SLPC  H13C20735   2.683   6.186   1.894 -1.0000 -0.0327 -0.4120
  182SLPC   C1420736   2.443   6.145   1.965 -0.1154 -0.8016  0.1391
  182SLPC  H14A20737   2.350   6.144   2.019  0.4582 -0.9078  1.1547
  182SLPC  H14B20738   2.454   6.226   1.895 -0.0320 -0.9617 -0.0344
  182SLPC  H14C20739   2.453   6.055   1.906 -0.5413  0.0067 -1.2123
  182SLPC   C1520740   2.581   6.293   2.112 -0.3412  0.2278  0.5962
  182SLPC  H15A20741   2.599   6.368   2.035  1.3186 -1.0301 -0.3099
  182SLPC  H15B20742   2.494   6.329   2.164 -0.3807  1.3416 -0.1985
  182SLPC  H15C20743   2.668   6.303   2.175  2.9037 -0.8908 -3.2844
  182SLPC   C1220744   2.565   6.058   2.172 -0.0578 -0.5801  0.1548
  182SLPC  H12A20745   2.666   6.066   2.210  0.3739 -1.9394 -0.6603
  182SLPC  H12B20746   2.545   5.958   2.138 -0.8961 -0.5374  0.4912
  182SLPC   C1120747   2.474   6.101   2.286  0.3468  0.6595  0.4761
  182SLPC  H11A20748   2.507   6.197   2.331 -0.1366  1.1003 -0.0962
  182SLPC  H11B20749   2.488   6.018   2.360 -0.8254 -0.2421 -0.2782
  182SLPC     P20750   2.234   6.232   2.282 -0.4660  0.1924  0.0371
  182SLPC   O1320751   2.312   6.353   2.280  0.2647 -1.3520 -0.2474
  182SLPC   O1420752   2.126   6.222   2.181  0.4036  0.2366 -0.5562
  182SLPC   O1220753   2.336   6.118   2.250  0.6568 -0.6252  0.5232
  182SLPC   O1120754   2.183   6.199   2.426 -0.2307  0.8308 -0.2524
  182SLPC    C120755   2.094   6.081   2.445 -0.3431  0.4318 -0.3955
  182SLPC    HA20756   1.991   6.118   2.427 -0.9836 -1.8784 -1.9359
  182SLPC    HB20757   2.103   5.994   2.377 -3.4096  0.2675 -0.7054
  182SLPC    C220758   2.121   6.025   2.591  0.4994 -0.2941  0.3944
  182SLPC    HS20759   2.086   5.919   2.591  0.8575 -0.4136  0.3340
  182SLPC   O2120760   2.056   6.111   2.685 -0.7241  0.3859 -0.2586
  182SLPC   C2120761   1.934   6.079   2.723 -0.2086  0.5685  0.5708
  182SLPC   O2220762   1.867   5.992   2.677 -0.2988 -0.6701  0.6644
  182SLPC   C2220763   1.882   6.197   2.821  0.0692 -0.5629 -0.2627
  182SLPC   H2R20764   1.949   6.209   2.909  0.7076  2.1695 -1.0387
  182SLPC   H2S20765   1.881   6.288   2.757  0.8906 -1.3082 -1.3420
  182SLPC    C320766   2.272   6.023   2.619  0.4010  0.2789  0.4614
  182SLPC    HX20767   2.290   6.130   2.642 -0.8410  0.8015 -0.8401
  182SLPC    HY20768   2.317   5.989   2.524 -0.1906  0.3722  0.1413
  182SLPC   O3120769   2.300   5.936   2.731  0.1391  0.4283  0.8588
  182SLPC   C3120770   2.296   5.804   2.719 -0.3466 -0.2841 -0.1092
  182SLPC   O3220771   2.282   5.738   2.619 -0.0366 -0.7678 -0.2083
  182SLPC   C3220772   2.326   5.741   2.862  0.0403  0.4179  0.2298
  182SLPC   H2X20773   2.233   5.744   2.923  0.4186 -0.7230  0.9025
  182SLPC   H2Y20774   2.401   5.806   2.911 -1.5083  1.0494  1.8790
  182SLPC   C2320775   1.737   6.162   2.860 -0.2080 -0.1781 -0.0473
  182SLPC   H3R20776   1.726   6.062   2.907 -0.0849 -0.3903 -0.4754
  182SLPC   H3S20777   1.684   6.161   2.763  0.0672 -1.3697 -0.1950
  182SLPC   C2420778   1.668   6.279   2.946 -0.9060  0.2828  0.4732
  182SLPC   H4R20779   1.568   6.245   2.981 -0.2881  0.1893  2.2471
  182SLPC   H4S20780   1.665   6.367   2.879  4.9113 -0.2815 -1.0958
  182SLPC   C2520781   1.745   6.320   3.071  0.2661 -0.1411  0.0665
  182SLPC   H5R20782   1.712   6.420   3.106  0.2670  0.8937 -2.6706
  182SLPC   H5S20783   1.851   6.340   3.045  0.0175 -1.5519 -2.4223
  182SLPC   C2620784   1.742   6.211   3.177  0.3205 -0.5295 -1.2873
  182SLPC   H6R20785   1.763   6.109   3.138 -2.3955 -1.8268  0.2849
  182SLPC   H6S20786   1.637   6.201   3.212  0.7570  2.3019  1.2725
  182SLPC   C2720787   1.833   6.240   3.297 -0.5657 -0.9046  0.5099
  182SLPC   H7R20788   1.804   6.331   3.354  0.0581 -1.4768  1.7686
  182SLPC   H7S20789   1.940   6.242   3.267 -0.9553 -4.1893 -1.7039
  182SLPC   C2820790   1.824   6.122   3.404  0.3925 -0.1629 -0.4928
  182SLPC   H8R20791   1.897   6.148   3.484 -1.7870  1.9767  0.9793
  182SLPC   H8S20792   1.850   6.027   3.354  0.4248 -0.2663 -0.2832
  182SLPC   C2920793   1.691   6.119   3.473 -0.1449  0.1270 -0.2561
  182SLPC   H9R20794   1.611   6.088   3.403  0.5641  1.1117 -1.5489
  182SLPC  C21020795   1.666   6.140   3.605  0.0625 -0.1722  0.1608
  182SLPC  H10R20796   1.560   6.127   3.629 -0.1499 -0.8280 -1.0604
  182SLPC  C21120797   1.760   6.200   3.704 -0.0677 -0.4910  0.0231
  182SLPC  H11R20798   1.854   6.228   3.654 -0.7642  0.0281 -1.0300
  182SLPC  H11S20799   1.797   6.118   3.769  1.2606  0.8038  0.9677
  182SLPC  C21220800   1.699   6.304   3.788 -0.5757  0.4354 -0.2746
  182SLPC  H12R20801   1.709   6.405   3.747 -0.5703  0.1377 -1.0149
  182SLPC  C21320802   1.633   6.279   3.902  0.2760  0.0303  0.6398
  182SLPC  H13R20803   1.604   6.367   3.963 -0.3708  0.6438 -0.5207
  182SLPC  C21420804   1.612   6.143   3.967 -0.0694 -1.0136 -0.6276
  182SLPC  H14R20805   1.687   6.133   4.048  0.3433  0.1045 -0.8521
  182SLPC  H14S20806   1.639   6.061   3.898  2.1359 -1.9428  1.2014
  182SLPC  C21520807   1.464   6.129   4.021  0.4166 -0.2260  0.6708
  182SLPC  H15R20808   1.451   6.024   4.053 -1.4556 -0.5391 -0.9021
  182SLPC  H15S20809   1.399   6.149   3.933 -0.9879 -1.3174  1.4294
  182SLPC  C21620810   1.426   6.214   4.143 -0.0850 -0.3036 -0.6258
  182SLPC  H16R20811   1.454   6.315   4.108 -0.1541 -1.2274 -3.6324
  182SLPC  H16S20812   1.492   6.180   4.225  0.2845  0.4851 -0.5929
  182SLPC  C21720813   1.275   6.202   4.178  0.5774 -0.2097 -0.7699
  182SLPC  H17R20814   1.257   6.097   4.210  1.0783  0.1357  0.7344
  182SLPC  H17S20815   1.213   6.225   4.088 -0.8404  1.0283  0.4453
  182SLPC  C21820816   1.231   6.294   4.287  0.0027 -0.3604 -0.5892
  182SLPC  H18R20817   1.120   6.292   4.290  0.0115 -3.0437  0.1091
  182SLPC  H18S20818   1.269   6.399   4.286  0.4765 -0.4858  1.2731
  182SLPC  H18T20819   1.268   6.252   4.383 -2.9225 -0.4223  0.6425
  182SLPC   C3320820   2.390   5.598   2.848 -0.0475 -0.1898 -0.4954
  182SLPC   H3X20821   2.464   5.597   2.764  3.9666  1.7960  2.6739
  182SLPC   H3Y20822   2.315   5.520   2.822 -0.2953 -0.2450  0.3526
  182SLPC   C3420823   2.462   5.547   2.977  0.8775  0.6931  0.3909
  182SLPC   H4X20824   2.566   5.586   2.989  1.4121 -0.2402 -0.9857
  182SLPC   H4Y20825   2.473   5.437   2.970  0.9301  0.6114  1.5163
  182SLPC   C3520826   2.380   5.592   3.096 -0.2553  0.2501  0.1143
  182SLPC   H5X20827   2.272   5.595   3.071 -0.0550 -0.8358 -0.9608
  182SLPC   H5Y20828   2.416   5.695   3.117  2.8087 -0.7311  0.2144
  182SLPC   C3620829   2.396   5.503   3.223  0.2508 -0.2976  0.3224
  182SLPC   H6X20830   2.481   5.547   3.280 -0.8975  1.9540  0.3832
  182SLPC   H6Y20831   2.423   5.399   3.196  1.2928 -0.0995  0.5531
  182SLPC   C3720832   2.281   5.514   3.327 -0.4381 -0.3598  0.2029
  182SLPC   H7X20833   2.189   5.480   3.275  0.3075 -2.6421  0.2660
  182SLPC   H7Y20834   2.278   5.623   3.348 -0.8624 -0.8693  3.1504
  182SLPC   C3820835   2.303   5.435   3.460  0.3296 -0.4400  0.7584
  182SLPC   H8X20836   2.409   5.441   3.492  0.9209 -0.9880 -0.9589
  182SLPC   H8Y20837   2.289   5.329   3.429 -0.0951 -0.2406  0.2578
  182SLPC   C3920838   2.205   5.471   3.561 -0.6629 -0.2761 -0.5453
  182SLPC   H9X20839   2.105   5.471   3.511 -1.2025  5.5618 -0.1891
  182SLPC   H9Y20840   2.218   5.575   3.600 -0.5714 -0.4525 -0.1020
  182SLPC  C31020841   2.201   5.371   3.671 -0.3539  0.6055 -0.3153
  182SLPC  H10X20842   2.303   5.365   3.715  0.1817  2.5742 -1.1958
  182SLPC  H10Y20843   2.176   5.267   3.638 -1.7689  1.0376 -0.6573
  182SLPC  C31120844   2.097   5.404   3.780 -0.3093  0.2313 -0.1243
  182SLPC  H11X20845   1.997   5.376   3.742 -0.0912 -0.9973  0.1627
  182SLPC  H11Y20846   2.085   5.513   3.798  0.6041  0.1005  1.5144
  182SLPC  C31220847   2.119   5.335   3.913  0.1508  0.4273 -0.7549
  182SLPC  H12X20848   2.223   5.353   3.948  0.3778  0.5251 -1.4653
  182SLPC  H12Y20849   2.092   5.227   3.915  0.5794  0.3187 -0.8126
  182SLPC  C31320850   2.036   5.402   4.024 -0.1276 -0.0207 -0.4191
  182SLPC  H13X20851   1.934   5.417   3.983 -0.3526  0.0165  0.1534
  182SLPC  H13Y20852   2.079   5.505   4.024  1.2574 -0.5467 -1.7981
  182SLPC  C31420853   2.054   5.329   4.159 -0.5858 -0.4841 -0.0569
  182SLPC  H14X20854   2.056   5.220   4.138 -1.0387 -0.1581 -1.9930
  182SLPC  H14Y20855   1.966   5.348   4.224 -0.4452  0.2777 -0.0767
  182SLPC  C31520856   2.186   5.361   4.226  0.4150  0.4217 -0.2643
  182SLPC  H15X20857   2.218   5.467   4.216  2.9959 -0.3133 -0.4153
  182SLPC  H15Y20858   2.267   5.300   4.181 -0.3830  0.1994 -1.4507
  182SLPC  C31620859   2.182   5.321   4.375 -0.5645  0.2494 -0.6444
  182SLPC  H16X20860   2.107   5.363   4.445  0.0561  0.1481  0.0991
  182SLPC  H16Y20861   2.276   5.348   4.428 -1.5611 -0.2795  1.5475
  182SLPC  C31720862   2.171   5.172   4.397  0.1889 -0.5221  0.3256
  182SLPC  H17X20863   2.222   5.121   4.313 -0.8457 -2.2623  0.6872
  182SLPC  H17Y20864   2.067   5.133   4.393  0.4125 -0.9847 -1.6766
  182SLPC  C31820865   2.226   5.127   4.537  0.5356  0.1557 -0.0927
  182SLPC  H18X20866   2.156   5.172   4.610 -0.7749 -0.3345 -1.0025
  182SLPC  H18Y20867   2.332   5.156   4.554 -0.1368  1.5760  1.8732
  182SLPC  H18Z20868   2.217   5.017   4.551 -2.7161  0.4825  1.1827
  183SLPC     N20869   6.560   2.701   2.153  0.0809  0.1290 -0.3277
  183SLPC   C1320870   6.488   2.824   2.139  0.6013 -0.0250  0.1900
  183SLPC  H13A20871   6.514   2.871   2.045 -1.2800  1.7702  0.5094
  183SLPC  H13B20872   6.381   2.812   2.142  0.6219 -0.9183 -1.4244
  183SLPC  H13C20873   6.520   2.891   2.218  2.5128 -0.0912 -0.4828
  183SLPC   C1420874   6.698   2.744   2.181  0.7798 -0.5530  0.3463
  183SLPC  H14A20875   6.727   2.805   2.096 -0.6743  0.7809  0.7582
  183SLPC  H14B20876   6.710   2.810   2.266 -1.2045 -2.1976  2.0301
  183SLPC  H14C20877   6.760   2.656   2.189 -0.5189 -1.6065 -0.7192
  183SLPC   C1520878   6.558   2.616   2.033 -0.0519  0.4702  0.2924
  183SLPC  H15A20879   6.580   2.681   1.950 -0.0791  0.7199  0.4792
  183SLPC  H15B20880   6.620   2.531   2.055 -1.5230 -0.5826  0.5609
  183SLPC  H15C20881   6.459   2.581   2.007 -0.7701  2.5263  0.1248
  183SLPC   C1220882   6.512   2.626   2.281 -0.1065  0.2351 -0.2024
  183SLPC  H12A20883   6.550   2.686   2.362  1.1374  0.1265 -0.6763
  183SLPC  H12B20884   6.562   2.530   2.289  1.1675  0.8246 -0.7924
  183SLPC   C1120885   6.362   2.590   2.302 -0.0548  0.2750  0.5058
  183SLPC  H11A20886   6.340   2.503   2.368 -1.1536 -1.9853 -2.5838
  183SLPC  H11B20887   6.324   2.547   2.207 -0.9842  0.9420  0.5615
  183SLPC     P20888   6.295   2.742   2.493  0.1211  0.0818  0.2641
  183SLPC   O1320889   6.423   2.804   2.525 -0.3330  0.0942  0.0140
  183SLPC   O1420890   6.170   2.808   2.535 -0.0989  0.0021 -0.3658
  183SLPC   O1220891   6.280   2.702   2.335  0.1138  0.7950 -0.0171
  183SLPC   O1120892   6.293   2.602   2.571 -0.3190 -0.3121 -0.5411
  183SLPC    C120893   6.167   2.534   2.596  0.0438  0.2151 -0.3575
  183SLPC    HA20894   6.100   2.600   2.655 -0.3815 -0.3103 -0.2548
  183SLPC    HB20895   6.116   2.518   2.499  0.6986 -2.6174 -0.2958
  183SLPC    C220896   6.181   2.389   2.658  0.1051  0.5013  0.3279
  183SLPC    HS20897   6.093   2.322   2.645  1.1089 -0.9042  0.4437
  183SLPC   O2120898   6.220   2.383   2.800 -0.0665 -0.9542  0.2943
  183SLPC   C2120899   6.140   2.447   2.880  0.0928 -0.6862 -0.1153
  183SLPC   O2220900   6.031   2.491   2.850  0.4662 -0.5075  0.2613
  183SLPC   C2220901   6.209   2.464   3.017  0.3388  0.0306  0.3387
  183SLPC   H2R20902   6.238   2.362   3.049 -1.5013 -0.3739  0.7851
  183SLPC   H2S20903   6.298   2.531   3.007 -0.3744  0.9188 -0.1872
  183SLPC    C320904   6.283   2.305   2.577 -0.1924  0.7030 -0.3840
  183SLPC    HX20905   6.364   2.381   2.575 -1.2023  1.7924 -2.3016
  183SLPC    HY20906   6.246   2.286   2.475 -2.6340  0.1656  0.5430
  183SLPC   O3120907   6.329   2.181   2.636 -0.0078 -0.1063 -0.2881
  183SLPC   C3120908   6.246   2.082   2.633  0.1901  0.3942  0.7558
  183SLPC   O3220909   6.143   2.079   2.565  0.6594  0.1027 -0.7666
  183SLPC   C3220910   6.306   1.962   2.713 -0.0074  0.2680 -0.6903
  183SLPC   H2X20911   6.404   1.992   2.755 -0.0068  0.5348 -0.8816
  183SLPC   H2Y20912   6.325   1.882   2.638 -2.5740 -0.0174 -1.1214
  183SLPC   C2320913   6.111   2.521   3.129 -0.7001 -0.0197  0.2475
  183SLPC   H3R20914   6.017   2.463   3.140 -0.2746 -0.7618  0.0414
  183SLPC   H3S20915   6.084   2.622   3.094  1.2308  0.3211 -0.3782
  183SLPC   C2420916   6.181   2.528   3.267  0.6371  0.1151 -0.1781
  183SLPC   H4R20917   6.274   2.589   3.262  0.4546  0.4212  0.1091
  183SLPC   H4S20918   6.195   2.424   3.303 -2.8334 -0.6535 -0.7465
  183SLPC   C2520919   6.085   2.581   3.378 -0.1260 -0.0292 -0.3197
  183SLPC   H5R20920   6.128   2.547   3.475  0.9795 -0.4384 -0.9410
  183SLPC   H5S20921   5.984   2.541   3.355  0.2372 -1.4376  0.3948
  183SLPC   C2620922   6.082   2.735   3.369  0.3081 -0.8132  0.0780
  183SLPC   H6R20923   6.056   2.772   3.267  1.4708 -0.6960 -0.1874
  183SLPC   H6S20924   6.183   2.775   3.391 -0.1940  0.7124 -0.2412
  183SLPC   C2720925   5.977   2.794   3.459 -0.1267 -1.3254  0.1915
  183SLPC   H7R20926   5.885   2.731   3.463 -0.3511 -0.9679  0.8006
  183SLPC   H7S20927   5.941   2.893   3.426 -2.3155 -1.6649  1.3885
  183SLPC   C2820928   6.030   2.821   3.601  0.0077 -0.0619 -0.2855
  183SLPC   H8R20929   6.075   2.922   3.607 -0.1691 -0.0498  1.4443
  183SLPC   H8S20930   6.122   2.760   3.618 -0.4871 -1.0833 -1.1688
  183SLPC   C2920931   5.953   2.791   3.727 -0.4193 -0.3831 -0.2350
  183SLPC   H9R20932   5.874   2.864   3.753 -0.0049  1.4831 -3.6217
  183SLPC  C21020933   5.969   2.686   3.803  0.7941  0.1728 -0.0275
  183SLPC  H10R20934   5.902   2.683   3.891 -1.4733 -0.4911 -1.6591
  183SLPC  C21120935   6.066   2.571   3.787  0.0502 -1.5492 -0.9119
  183SLPC  H11R20936   6.115   2.568   3.688  2.4932 -0.3497  0.1662
  183SLPC  H11S20937   6.001   2.482   3.794 -0.1703 -1.2544  2.6967
  183SLPC  C21220938   6.168   2.555   3.898 -0.0142 -0.8534 -0.4101
  183SLPC  H12R20939   6.272   2.572   3.865 -0.9716 -0.6004 -3.6136
  183SLPC  C21320940   6.136   2.518   4.022  0.0754 -0.1875 -1.4323
  183SLPC  H13R20941   6.216   2.519   4.098 -0.1695 -1.4239 -1.1342
  183SLPC  C21420942   6.003   2.488   4.092  0.0753 -0.4438 -0.6934
  183SLPC  H14R20943   6.001   2.388   4.140  3.4664 -0.5805 -0.5917
  183SLPC  H14S20944   5.916   2.499   4.023 -1.4357 -1.4239  0.9632
  183SLPC  C21520945   5.975   2.599   4.205 -0.2722  0.5253 -0.1287
  183SLPC  H15R20946   5.975   2.699   4.157  0.2440 -0.1129 -1.5010
  183SLPC  H15S20947   6.048   2.600   4.289 -0.9075  3.0929  0.4681
  183SLPC  C21620948   5.841   2.578   4.283 -0.6166  0.1557  0.1149
  183SLPC  H16R20949   5.850   2.651   4.365  0.0785  0.2492 -0.0405
  183SLPC  H16S20950   5.839   2.472   4.318  1.1278  0.6970  2.0267
  183SLPC  C21720951   5.715   2.605   4.204  0.0589 -0.4341  0.3350
  183SLPC  H17R20952   5.627   2.596   4.272 -0.1054 -0.5292  0.1093
  183SLPC  H17S20953   5.698   2.534   4.121 -0.0197 -1.6762  1.3839
  183SLPC  C21820954   5.711   2.744   4.136  0.1775  0.0289 -0.7802
  183SLPC  H18R20955   5.806   2.758   4.080  1.5744 -0.5527  1.3178
  183SLPC  H18S20956   5.700   2.823   4.214  0.8817  0.1192 -0.7612
  183SLPC  H18T20957   5.624   2.768   4.072  2.3224 -1.9385 -4.7917
  183SLPC   C3320958   6.200   1.909   2.812  0.0762 -0.1272 -0.3518
  183SLPC   H3X20959   6.233   1.804   2.829  0.8978  0.0947 -0.5345
  183SLPC   H3Y20960   6.098   1.920   2.770 -1.0726 -2.2385  1.6456
  183SLPC   C3420961   6.209   1.971   2.954 -0.1168  0.1721 -0.3586
  183SLPC   H4X20962   6.304   2.026   2.968  0.5454 -1.0082 -0.1151
  183SLPC   H4Y20963   6.214   1.900   3.039  3.1928  2.9225  2.0104
  183SLPC   C3520964   6.091   2.067   2.994 -0.2896 -0.3501  0.0987
  183SLPC   H5X20965   6.004   2.012   2.952  0.6368 -0.2284 -2.1032
  183SLPC   H5Y20966   6.104   2.158   2.932  1.4368 -0.4584  0.2756
  183SLPC   C3620967   6.068   2.085   3.144  0.4453  0.2795  0.5093
  183SLPC   H6X20968   6.144   2.147   3.197 -0.3867  0.1382  1.9306
  183SLPC   H6Y20969   6.069   1.989   3.200 -2.3049 -0.7503 -1.0391
  183SLPC   C3720970   5.928   2.145   3.179  0.5334  0.4838 -0.0996
  183SLPC   H7X20971   5.847   2.070   3.178 -0.9424  1.9942 -2.2273
  183SLPC   H7Y20972   5.917   2.215   3.093  1.1311 -1.1172 -1.5586
  183SLPC   C3820973   5.929   2.226   3.312  0.7718  0.2904 -0.4036
  183SLPC   H8X20974   5.849   2.302   3.303  0.3670 -0.1351 -0.4462
  183SLPC   H8Y20975   6.027   2.273   3.335  1.1975  0.4986 -2.4457
  183SLPC   C3920976   5.898   2.143   3.436 -0.8272  0.1859  0.7190
  183SLPC   H9X20977   5.972   2.060   3.445 -0.2292  0.7608  1.1342
  183SLPC   H9Y20978   5.804   2.086   3.424  0.3433 -1.7203  0.1488
  183SLPC  C31020979   5.889   2.227   3.566  0.1289  0.2542 -0.2680
  183SLPC  H10X20980   5.801   2.291   3.543  2.0245  2.4664 -1.6893
  183SLPC  H10Y20981   5.968   2.302   3.586  0.2095 -0.0990  0.8350
  183SLPC  C31120982   5.858   2.136   3.683  0.5935 -0.1082  0.6500
  183SLPC  H11X20983   5.942   2.065   3.698  1.0046  0.0301 -0.8474
  183SLPC  H11Y20984   5.774   2.067   3.663 -0.0365  1.1749 -1.4433
  183SLPC  C31220985   5.845   2.206   3.815  0.8849 -0.2980 -0.1491
  183SLPC  H12X20986   5.762   2.280   3.822  3.0780  2.1411  3.1070
  183SLPC  H12Y20987   5.939   2.263   3.828  1.4243 -1.3350  0.6538
  183SLPC  C31320988   5.808   2.094   3.917  0.8914 -0.4889 -0.6547
  183SLPC  H13X20989   5.894   2.024   3.915  2.3404  1.0197  2.1982
  183SLPC  H13Y20990   5.719   2.043   3.875  1.2761  0.1953 -2.3823
  183SLPC  C31420991   5.810   2.162   4.058  0.0430 -0.2325  0.0160
  183SLPC  H14X20992   5.739   2.247   4.068  2.2698  1.6542  0.7716
  183SLPC  H14Y20993   5.907   2.212   4.075 -0.7239  1.8759 -1.4312
  183SLPC  C31520994   5.784   2.050   4.169 -0.0085  0.1902 -0.5855
  183SLPC  H15X20995   5.827   2.078   4.267 -1.1206 -1.2866  0.3731
  183SLPC  H15Y20996   5.838   1.960   4.134  0.2130 -0.3198  0.9714
  183SLPC  C31620997   5.638   2.021   4.194  0.4283  0.5376 -0.4199
  183SLPC  H16X20998   5.584   2.014   4.097 -0.6076 -0.7856  0.2207
  183SLPC  H16Y20999   5.593   2.102   4.256  0.0795 -2.0339  2.9819
  183SLPC  C31721000   5.619   1.886   4.266 -0.1498 -0.4062  0.4351
  183SLPC  H17X21001   5.673   1.873   4.362  0.8601 -0.8974 -0.1756
  183SLPC  H17Y21002   5.658   1.812   4.193  0.5122 -0.1968  0.5676
  183SLPC  C31821003   5.468   1.871   4.295  0.2564 -0.0124  1.0247
  183SLPC  H18X21004   5.442   1.763   4.299 -0.2283  0.0883  0.7076
  183SLPC  H18Y21005   5.401   1.915   4.218  0.3945 -1.0600  0.2897
  183SLPC  H18Z21006   5.433   1.922   4.388  1.0310 -2.0954  2.5323
  184SLPC     N21007   0.108   1.910   2.345 -0.1084 -1.3440  0.0743
  184SLPC   C1321008   0.083   1.802   2.252 -0.3477  0.3592  0.4083
  184SLPC  H13A21009   0.148   1.811   2.165 -0.9505  0.0056 -0.0819
  184SLPC  H13B21010   0.111   1.703   2.286 -0.2602 -0.3051 -1.4731
  184SLPC  H13C21011  -0.017   1.807   2.213  0.1480 -0.5031 -1.0461
  184SLPC   C1421012   0.107   2.048   2.278 -0.1355 -0.5511  0.5503
  184SLPC  H14A21013   0.190   2.053   2.210  0.6626 -0.8903  1.4885
  184SLPC  H14B21014   0.012   2.065   2.229 -0.7679  2.6070  2.5958
  184SLPC  H14C21015   0.107   2.124   2.354  0.0160 -1.6379  1.6736
  184SLPC   C1521016   0.240   1.901   2.408 -0.0244  0.9326 -0.0631
  184SLPC  H15A21017   0.266   1.990   2.463  0.6736  0.5586  0.2230
  184SLPC  H15B21018   0.244   1.821   2.479 -1.7512  0.8097 -0.0660
  184SLPC  H15C21019   0.326   1.892   2.342 -2.1462 -0.4922 -2.8486
  184SLPC   C1221020  -0.008   1.912   2.457 -0.1750 -0.3038  0.6238
  184SLPC  H12A21021  -0.013   1.812   2.498  0.5819 -0.1678  1.0828
  184SLPC  H12B21022  -0.101   1.928   2.404 -0.1786 -1.3689  0.2853
  184SLPC   C1121023   0.008   2.011   2.586 -0.2500  0.9205  0.1024
  184SLPC  H11A21024   0.094   1.964   2.638  0.8227  2.1925 -0.4535
  184SLPC  H11B21025  -0.086   1.996   2.643 -0.4418 -0.6983 -0.5860
  184SLPC     P21026   0.056   2.243   2.672  0.2906 -0.2860 -0.2980
  184SLPC   O1321027   0.179   2.200   2.741 -0.3947  0.5600 -0.1879
  184SLPC   O1421028   0.044   2.375   2.610  0.5201 -0.6314 -0.2321
  184SLPC   O1221029   0.036   2.144   2.549 -0.5104 -0.3201  0.0531
  184SLPC   O1121030  -0.066   2.213   2.770  0.0440  0.4441  0.5372
  184SLPC    C121031  -0.085   2.318   2.868  0.9705 -0.1007  0.1757
  184SLPC    HA21032   0.012   2.365   2.895  0.0006  1.1756  1.5258
  184SLPC    HB21033  -0.151   2.399   2.833  1.4146  0.0181 -0.3996
  184SLPC    C221034  -0.140   2.251   3.001  0.1123  0.6977  0.1262
  184SLPC    HS21035  -0.115   2.327   3.078 -1.3812  2.3702 -0.9678
  184SLPC   O2121036  -0.082   2.122   3.028  0.0613 -0.9057 -0.0100
  184SLPC   C2121037   0.042   2.138   3.079  0.0842 -0.5092 -0.2016
  184SLPC   O2221038   0.092   2.249   3.102  0.7279 -0.2507  0.7173
  184SLPC   C2221039   0.116   2.005   3.091  0.3066 -0.0392 -0.3401
  184SLPC   H2R21040   0.054   1.923   3.049  2.1555 -0.3438 -2.6808
  184SLPC   H2S21041   0.203   2.021   3.024  0.0474 -0.8812 -0.8883
  184SLPC    C321042  -0.298   2.239   3.011 -0.2957  0.0744  0.5200
  184SLPC    HX21043  -0.315   2.168   2.927  0.4094 -0.1505  0.5594
  184SLPC    HY21044  -0.324   2.344   2.987 -0.1837 -0.4956 -2.6124
  184SLPC   O3121045  -0.340   2.199   3.148 -0.2835 -0.5373 -0.6094
  184SLPC   C3121046  -0.359   2.069   3.163 -0.4053  0.4616  0.7110
  184SLPC   O3221047  -0.355   1.987   3.073 -0.0207  0.8494  0.1817
  184SLPC   C3221048  -0.388   2.036   3.310  0.1116  0.1811 -0.1181
  184SLPC   H2X21049  -0.475   2.092   3.348  0.1616 -0.7009  1.3640
  184SLPC   H2Y21050  -0.301   2.075   3.368  1.1444 -1.7783 -0.2608
  184SLPC   C2321051   0.152   1.976   3.244  0.2060  0.2497  0.1952
  184SLPC   H3R21052   0.222   2.044   3.296 -0.3793 -0.3737  1.8711
  184SLPC   H3S21053   0.210   1.881   3.251 -2.1578 -1.2029  1.6466
  184SLPC   C2421054   0.019   1.951   3.316  1.0618  0.0291  0.5755
  184SLPC   H4R21055  -0.054   1.895   3.254  0.7456  0.8193  0.2167
  184SLPC   H4S21056  -0.032   2.047   3.339  0.7725 -0.3439  1.5550
  184SLPC   C2521057   0.047   1.885   3.452  0.1519 -0.1760 -0.5903
  184SLPC   H5R21058   0.111   1.797   3.432  1.2902  0.1057  1.5107
  184SLPC   H5S21059  -0.048   1.845   3.493  0.9021  0.3645  1.8814
  184SLPC   C2621060   0.109   1.984   3.556  0.2931  0.1052  0.6996
  184SLPC   H6R21061   0.064   2.085   3.548  2.6568  1.1225 -0.9260
  184SLPC   H6S21062   0.218   1.995   3.538  0.3651 -1.5611 -0.1262
  184SLPC   C2721063   0.077   1.926   3.695 -0.1392 -0.7542  0.2388
  184SLPC   H7R21064   0.148   1.848   3.729  1.5723 -0.2972 -2.0201
  184SLPC   H7S21065  -0.023   1.877   3.697 -0.0873 -0.8586  0.2347
  184SLPC   C2821066   0.080   2.047   3.803  0.1414  0.1652 -0.3050
  184SLPC   H8R21067   0.014   2.125   3.758  0.2521 -0.5201 -1.7027
  184SLPC   H8S21068   0.181   2.092   3.797  0.0996  0.3626  0.3653
  184SLPC   C2921069   0.037   2.012   3.945  0.4738 -0.3098 -0.6291
  184SLPC   H9R21070  -0.070   2.004   3.966  0.3404  1.0956 -0.7002
  184SLPC  C21021071   0.119   2.002   4.052  0.1390 -0.6010  0.1796
  184SLPC  H10R21072   0.080   1.955   4.143 -1.6678  0.7094  0.1242
  184SLPC  C21121073   0.272   2.005   4.052  0.3044 -0.9641 -0.2447
  184SLPC  H11R21074   0.312   2.063   4.138  1.4915 -0.2990 -1.2095
  184SLPC  H11S21075   0.307   2.072   3.971  0.8693  2.4452  2.5752
  184SLPC  C21221076   0.335   1.869   4.055 -0.0933 -0.1942 -0.2554
  184SLPC  H12R21077   0.296   1.790   3.990 -0.3092 -0.0997 -0.2403
  184SLPC  C21321078   0.448   1.834   4.123  0.2410  0.1729 -0.3008
  184SLPC  H13R21079   0.487   1.732   4.114  0.5473  0.2519  0.0756
  184SLPC  C21421080   0.532   1.903   4.222  0.2157 -0.0592  0.1362
  184SLPC  H14R21081   0.545   1.830   4.305  1.0743 -0.0887 -0.0183
  184SLPC  H14S21082   0.479   1.989   4.270 -2.2256 -1.5236  0.1967
  184SLPC  C21521083   0.668   1.939   4.156  0.4597 -0.3377  0.1158
  184SLPC  H15R21084   0.725   1.849   4.126 -0.0915 -0.0653 -1.9039
  184SLPC  H15S21085   0.727   1.999   4.230 -3.3093  1.4985  1.9124
  184SLPC  C21621086   0.651   2.032   4.038 -0.4620 -0.0511  0.6896
  184SLPC  H16R21087   0.587   2.116   4.073 -2.4801 -0.4664 -1.7690
  184SLPC  H16S21088   0.579   1.992   3.964  1.3628  1.6680 -2.2427
  184SLPC  C21721089   0.780   2.064   3.964 -0.1399 -0.1913  0.2960
  184SLPC  H17R21090   0.811   1.968   3.917 -1.7450 -0.3535 -0.4954
  184SLPC  H17S21091   0.855   2.097   4.039 -0.2020  0.6453 -0.0006
  184SLPC  C21821092   0.764   2.174   3.855  0.0440  0.2474 -0.6086
  184SLPC  H18R21093   0.855   2.188   3.793 -0.0667  0.7852 -0.6614
  184SLPC  H18S21094   0.728   2.265   3.909  0.5121 -0.2858  0.6420
  184SLPC  H18T21095   0.686   2.134   3.787 -0.2175  2.6390 -1.8386
  184SLPC   C3321096  -0.423   1.891   3.340  0.3201  0.1852  0.5983
  184SLPC   H3X21097  -0.333   1.825   3.333  1.7988  2.1724 -0.1894
  184SLPC   H3Y21098  -0.501   1.848   3.274 -0.1770  1.9379 -0.0060
  184SLPC   C3421099  -0.461   1.872   3.492 -0.1932 -0.2968 -0.1609
  184SLPC   H4X21100  -0.552   1.932   3.509 -0.4217 -0.3500 -1.1241
  184SLPC   H4Y21101  -0.379   1.905   3.560  1.8514 -2.1298 -1.6087
  184SLPC   C3521102  -0.500   1.727   3.519  0.5660  0.2643  0.3300
  184SLPC   H5X21103  -0.402   1.675   3.516  0.5982  0.3703 -0.5909
  184SLPC   H5Y21104  -0.578   1.701   3.446  0.7151 -0.7688  0.5290
  184SLPC   C3621105  -0.562   1.717   3.665 -0.2006 -0.0003 -0.3749
  184SLPC   H6X21106  -0.652   1.782   3.665 -0.2293 -0.0370  0.3504
  184SLPC   H6Y21107  -0.489   1.757   3.738 -2.2565 -0.0573  1.8392
  184SLPC   C3721108  -0.601   1.573   3.691  0.5017  0.2534 -0.0436
  184SLPC   H7X21109  -0.504   1.519   3.690  1.4234  1.5916  3.0937
  184SLPC   H7Y21110  -0.671   1.526   3.620  1.0401  0.5017 -0.7499
  184SLPC   C3821111  -0.640   1.552   3.844  0.6866  0.3920 -0.6432
  184SLPC   H8X21112  -0.689   1.454   3.862  0.5697  1.0788  3.9479
  184SLPC   H8Y21113  -0.718   1.628   3.869 -1.2283 -1.6191 -0.1315
  184SLPC   C3921114  -0.524   1.554   3.939  0.0039  0.1070  0.7183
  184SLPC   H9X21115  -0.468   1.650   3.939  0.6226 -0.2174 -1.0845
  184SLPC   H9Y21116  -0.450   1.478   3.905 -0.8582 -0.6406  0.4740
  184SLPC  C31021117  -0.557   1.524   4.091  0.0877  0.3301  0.2749
  184SLPC  H10X21118  -0.615   1.430   4.105  0.7118  0.3010  3.1704
  184SLPC  H10Y21119  -0.627   1.600   4.131 -1.7708 -1.0601 -0.2023
  184SLPC  C31121120  -0.425   1.515   4.173  0.6114  0.1804 -0.3041
  184SLPC  H11X21121  -0.351   1.597   4.159 -0.3610  0.8262 -1.9516
  184SLPC  H11Y21122  -0.375   1.431   4.121 -1.6845 -2.3648  1.3419
  184SLPC  C31221123  -0.439   1.491   4.327 -0.0394 -0.1426 -0.0659
  184SLPC  H12X21124  -0.356   1.425   4.359 -1.8280 -3.1946 -1.2546
  184SLPC  H12Y21125  -0.531   1.433   4.352  0.0910  1.0239  3.8355
  184SLPC  C31321126  -0.452   1.626   4.398  0.2370 -0.8431  0.5226
  184SLPC  H13X21127  -0.535   1.682   4.350 -0.8508 -0.7633  2.4178
  184SLPC  H13Y21128  -0.356   1.680   4.388  1.3093 -2.1517  2.8576
  184SLPC  C31421129  -0.493   1.609   4.540  0.0659  0.6411  0.2996
  184SLPC  H14X21130  -0.423   1.531   4.576  0.3060  1.0540  0.7279
  184SLPC  H14Y21131  -0.595   1.564   4.541  0.0519  0.6667  0.1068
  184SLPC  C31521132  -0.485   1.724   4.640  0.0445 -0.2977 -0.3888
  184SLPC  H15X21133  -0.554   1.810   4.627 -0.0844 -0.5729 -1.5721
  184SLPC  H15Y21134  -0.384   1.769   4.633 -0.0208  0.0372  0.5724
  184SLPC  C31621135  -0.528   1.680   4.783 -0.4931 -0.6340  0.5596
  184SLPC  H16X21136  -0.624   1.626   4.771 -1.2113  1.0616 -2.3196
  184SLPC  H16Y21137  -0.548   1.769   4.846 -0.9607 -0.3899  0.0764
  184SLPC  C31721138  -0.431   1.594   4.865 -0.0970  1.0506  0.1787
  184SLPC  H17X21139  -0.330   1.641   4.869  0.0336  0.6976  1.5036
  184SLPC  H17Y21140  -0.430   1.508   4.796 -2.1107  2.0429 -1.1822
  184SLPC  C31821141  -0.465   1.553   5.011 -0.2131  0.0467  0.6162
  184SLPC  H18X21142  -0.564   1.502   5.008  0.1858 -0.7077 -1.3737
  184SLPC  H18Y21143  -0.480   1.643   5.074 -0.9437  1.4336 -1.4068
  184SLPC  H18Z21144  -0.384   1.484   5.043 -0.0899 -0.6731 -1.1161
  185POPC     N21145   2.611   5.446   6.822  0.2594  0.0613  0.1974
  185POPC   C1221146   2.485   5.488   6.734 -0.4388 -0.2462  0.5791
  185POPC  H12A21147   2.499   5.567   6.661  1.8946  0.6188  1.8514
  185POPC  H12B21148   2.413   5.535   6.799 -1.6722 -2.6062  1.0337
  185POPC   C1321149   2.687   5.566   6.868  0.1896 -0.0950 -0.3868
  185POPC  H13A21150   2.723   5.635   6.793  1.9972 -0.2052  0.3374
  185POPC  H13B21151   2.627   5.630   6.930 -2.6117  0.1327 -3.0723
  185POPC  H13C21152   2.777   5.538   6.920 -0.3032  1.6281  1.5059
  185POPC   C1421153   2.563   5.374   6.941  0.2097  0.0248  0.4501
  185POPC  H14A21154   2.499   5.293   6.907 -1.7726  1.5955  0.2583
  185POPC  H14B21155   2.636   5.327   7.005  0.6346  1.5501  1.1129
  185POPC  H14C21156   2.501   5.438   7.002  0.5866 -0.8487  1.7719
  185POPC   C1521157   2.699   5.360   6.737  0.0010 -0.4664 -0.1656
  185POPC  H15A21158   2.649   5.267   6.713 -0.9492 -0.2991  1.0436
  185POPC  H15B21159   2.787   5.338   6.796 -0.3036  1.8178  1.2883
  185POPC  H15C21160   2.748   5.402   6.651  0.7969 -1.1696 -0.0683
  185POPC   C1121161   2.406   5.380   6.664  0.6422  0.0204 -0.4284
  185POPC  H11A21162   2.471   5.321   6.596  1.2296 -1.0323  0.9829
  185POPC  H11B21163   2.330   5.425   6.597  0.0901 -2.2304 -1.4223
  185POPC     P21164   2.215   5.343   6.843 -0.1026 -0.1430 -0.0873
  185POPC   O1321165   2.200   5.488   6.817 -0.8983  0.2227  0.1484
  185POPC   O1421166   2.248   5.299   6.978 -0.2760 -0.1493  0.1712
  185POPC   O1221167   2.339   5.293   6.758  0.5274  0.2640 -0.6682
  185POPC   O1121168   2.083   5.271   6.781  0.2459 -0.0066 -0.3742
  185POPC    C121169   2.089   5.220   6.646 -0.0898 -0.6218  0.2148
  185POPC    HA21170   2.051   5.115   6.640  0.2437 -0.7204 -0.1967
  185POPC    HB21171   2.190   5.201   6.605  0.8948  2.2953  1.0570
  185POPC    C221172   2.010   5.315   6.546 -0.0992  0.0877 -0.3949
  185POPC    HS21173   2.036   5.417   6.581 -1.3309  0.2469  0.1048
  185POPC   O2121174   1.874   5.286   6.565  0.3054  0.3886 -0.8952
  185POPC   C2121175   1.792   5.384   6.547  0.1831  0.0173  0.2707
  185POPC   O2221176   1.819   5.501   6.566 -0.0653 -0.3247 -0.7643
  185POPC   C2221177   1.647   5.338   6.505 -0.2784 -0.1151 -0.8581
  185POPC   H2R21178   1.576   5.409   6.551  0.7991 -0.2599  1.1568
  185POPC   H2S21179   1.628   5.237   6.548  0.7834  0.4619  1.0429
  185POPC    C321180   2.044   5.306   6.398  0.1941 -0.4078  0.5845
  185POPC    HX21181   1.994   5.211   6.370  1.4335 -0.3070 -2.3119
  185POPC    HY21182   2.153   5.297   6.383  0.1967 -2.2252  1.4490
  185POPC   O3121183   1.984   5.410   6.317  0.4061 -0.2279  0.3652
  185POPC   C3121184   2.040   5.529   6.330 -0.7086 -0.4190  0.2561
  185POPC   O3221185   2.120   5.558   6.419 -0.4214  0.5559  0.0006
  185POPC   C3221186   1.986   5.632   6.228 -0.2549  0.8463  0.2436
  185POPC   H2X21187   1.878   5.638   6.252 -0.2021 -2.4605  1.8573
  185POPC   H2Y21188   1.990   5.592   6.124 -0.8942  2.6190 -0.5159
  185POPC   C2321189   1.617   5.325   6.351  0.5617 -0.7133  0.1789
  185POPC   H3R21190   1.548   5.240   6.331  0.5107 -0.5190 -0.4818
  185POPC   H3S21191   1.713   5.317   6.296 -1.0573 -2.4631 -2.6552
  185POPC   C2421192   1.542   5.449   6.292  0.2001  0.4289 -0.0748
  185POPC   H4R21193   1.602   5.541   6.310  0.6666 -0.0734  1.0870
  185POPC   H4S21194   1.441   5.456   6.339  0.0321  0.0546 -0.3785
  185POPC   C2521195   1.512   5.445   6.143 -0.1765 -0.5088  0.7129
  185POPC   H5R21196   1.441   5.526   6.117  1.0631  0.1890 -0.6657
  185POPC   H5S21197   1.477   5.346   6.107  1.9037 -2.1596  2.8295
  185POPC   C2621198   1.636   5.464   6.054 -0.9042  0.3093  0.3362
  185POPC   H6R21199   1.684   5.366   6.036 -0.4604  0.6488 -0.3605
  185POPC   H6S21200   1.700   5.537   6.108 -0.6795 -1.5483  2.7646
  185POPC   C2721201   1.600   5.522   5.918 -0.1709 -0.9251 -0.3907
  185POPC   H7R21202   1.559   5.622   5.941 -0.0954 -0.7019 -1.1735
  185POPC   H7S21203   1.528   5.453   5.870  0.9478 -2.2578 -0.2332
  185POPC   C2821204   1.717   5.542   5.823 -0.6899  0.1936 -0.6323
  185POPC   H8R21205   1.800   5.589   5.881 -2.7725  1.4189  1.5039
  185POPC   H8S21206   1.700   5.627   5.753  1.0886  0.6440 -0.5819
  185POPC   C2921207   1.783   5.420   5.759  0.7035  0.3734  0.2462
  185POPC   H9121208   1.859   5.372   5.821  0.6524  0.1954  0.1718
  185POPC  C21021209   1.737   5.354   5.649 -0.0905 -0.7760  0.1543
  185POPC  H10121210   1.804   5.274   5.613  1.3300  0.9483 -1.2061
  185POPC  C21121211   1.634   5.413   5.554 -0.6857 -0.3446 -0.0016
  185POPC  H11R21212   1.567   5.482   5.610 -0.0319 -1.1775  1.9033
  185POPC  H11S21213   1.571   5.340   5.498 -1.6344  0.1302  0.4167
  185POPC  C21221214   1.697   5.494   5.437 -0.4259 -0.4596 -0.2119
  185POPC  H12R21215   1.769   5.570   5.472 -0.7012 -0.0779 -0.4647
  185POPC  H12S21216   1.610   5.541   5.386 -0.8460  0.3908  1.2157
  185POPC  C21321217   1.762   5.397   5.336  0.0477  0.8089 -0.1272
  185POPC  H13R21218   1.681   5.331   5.298  1.2072  0.2338 -1.6813
  185POPC  H13S21219   1.831   5.333   5.395 -1.9147 -0.8216  0.5218
  185POPC  C21421220   1.862   5.456   5.237 -0.3519 -0.4625  0.0575
  185POPC  H14R21221   1.905   5.371   5.180 -0.1847 -2.3428  2.7907
  185POPC  H14S21222   1.945   5.495   5.300 -0.1691  0.5309 -0.7635
  185POPC  C21521223   1.810   5.562   5.143  0.0397  0.4518  0.2360
  185POPC  H15R21224   1.905   5.582   5.088  1.6416 -1.4185  2.1082
  185POPC  H15S21225   1.786   5.666   5.174 -0.0762  0.8742 -1.2219
  185POPC  C21621226   1.694   5.516   5.051  0.3503  0.3301 -0.1761
  185POPC  H16R21227   1.672   5.609   4.994  2.4574  2.1046  1.7376
  185POPC  H16S21228   1.609   5.485   5.116 -0.9133  1.9304 -0.9873
  185POPC  C21721229   1.720   5.397   4.955  0.4545  0.7092  0.7105
  185POPC  H17R21230   1.743   5.304   5.010 -2.2999 -0.3626  0.2487
  185POPC  H17S21231   1.799   5.428   4.883  0.3420 -2.7788 -1.1252
  185POPC  C21821232   1.612   5.365   4.858  0.5773  0.9058 -0.3600
  185POPC  H18R21233   1.587   5.449   4.790 -2.4286 -0.2693 -0.8470
  185POPC  H18S21234   1.521   5.329   4.910 -0.4409  0.2668 -2.4928
  185POPC  H18T21235   1.632   5.283   4.787 -1.6262  0.6007 -0.6910
  185POPC   C3321236   2.059   5.765   6.237 -0.4779 -0.7099  0.0848
  185POPC   H3X21237   2.165   5.755   6.267 -0.8919 -1.5214  1.3380
  185POPC   H3Y21238   2.004   5.823   6.314  1.4069  0.3288  0.7109
  185POPC   C3421239   2.055   5.842   6.097  0.0988 -0.2815  0.3545
  185POPC   H4X21240   2.085   5.947   6.114  1.0099 -0.1508 -1.7881
  185POPC   H4Y21241   1.959   5.823   6.044  0.5073 -1.1864 -0.0926
  185POPC   C3521242   2.165   5.792   6.002  0.0262 -0.2082  0.0095
  185POPC   H5X21243   2.163   5.681   5.992 -1.6643 -0.0428 -2.1544
  185POPC   H5Y21244   2.259   5.808   6.059  1.4884 -1.3166 -1.9476
  185POPC   C3621245   2.170   5.880   5.878  0.2441 -0.4435  0.3156
  185POPC   H6X21246   2.256   5.844   5.818 -0.7709 -0.7172 -1.0105
  185POPC   H6Y21247   2.186   5.985   5.911 -0.8651  0.0706 -0.6885
  185POPC   C3721248   2.047   5.874   5.781  0.0938  0.4713 -0.0714
  185POPC   H7X21249   1.957   5.923   5.824  0.0525 -0.0484  0.4368
  185POPC   H7Y21250   2.026   5.766   5.766  0.0268  0.0504  2.5932
  185POPC   C3821251   2.060   5.954   5.654  0.5021 -1.0183 -0.0809
  185POPC   H8X21252   2.134   6.036   5.664 -1.4533  1.2520 -2.5926
  185POPC   H8Y21253   1.965   6.007   5.630  0.5633 -0.6192  0.5294
  185POPC   C3921254   2.108   5.866   5.537 -0.4867 -0.1204 -0.4241
  185POPC   H9X21255   2.027   5.792   5.519  0.1447 -1.2343  1.1214
  185POPC   H9Y21256   2.196   5.812   5.577 -1.4744 -0.2413  1.7644
  185POPC  C31021257   2.127   5.941   5.405  0.6039 -0.5468 -0.3736
  185POPC  H10X21258   2.212   6.012   5.414 -0.8443  1.1002  0.9738
  185POPC  H10Y21259   2.036   6.000   5.381  0.1447 -1.3026 -0.5033
  185POPC  C31121260   2.153   5.861   5.286  0.0466 -0.1787 -0.5178
  185POPC  H11X21261   2.080   5.780   5.264  0.4511 -0.5477 -0.5057
  185POPC  H11Y21262   2.249   5.805   5.287 -1.5943 -3.3234  2.2476
  185POPC  C31221263   2.164   5.954   5.160  0.3605  0.2693 -0.4473
  185POPC  H12X21264   2.256   6.017   5.169 -0.9942  2.3394 -0.2979
  185POPC  H12Y21265   2.086   6.032   5.178  0.6351  0.8321 -1.5519
  185POPC  C31321266   2.151   5.876   5.030  0.5448 -0.0078  0.5157
  185POPC  H13X21267   2.067   5.803   5.035 -0.0428  0.7443  2.3583
  185POPC  H13Y21268   2.246   5.824   5.008 -0.3952 -1.7405  0.4366
  185POPC  C31421269   2.124   5.964   4.905  0.2971  0.6341 -0.4423
  185POPC  H14X21270   2.036   6.029   4.922 -0.7537 -0.9894  0.6622
  185POPC  H14Y21271   2.087   5.896   4.825  1.7989  0.8571 -1.3713
  185POPC  C31521272   2.248   6.048   4.865  0.6691  0.0324 -0.3522
  185POPC  H15X21273   2.338   5.982   4.869  0.7858  0.1002 -1.4854
  185POPC  H15Y21274   2.249   6.123   4.948 -1.1151 -2.7098  2.3777
  185POPC  C31621275   2.235   6.115   4.735  0.2886  0.2564  0.2103
  185POPC  H16X21276   2.149   6.079   4.674  0.0734 -1.5294  1.4953
  185POPC  H16Y21277   2.331   6.107   4.679  0.9959  0.7851  1.3192
  185POPC  H16Z21278   2.232   6.225   4.746 -0.3380  0.2739 -0.0933
  186POPC     N21279   4.551   5.102   6.662 -0.8476 -0.2598  0.2043
  186POPC   C1221280   4.448   5.211   6.658 -0.0721  0.1928 -0.7957
  186POPC  H12A21281   4.468   5.291   6.728 -1.5433 -0.2765  0.2118
  186POPC  H12B21282   4.355   5.164   6.687 -0.7134  0.7986 -1.8254
  186POPC   C1321283   4.689   5.147   6.611 -0.3803 -0.6610  0.2172
  186POPC  H13A21284   4.677   5.165   6.505 -2.5278 -0.7898  0.3989
  186POPC  H13B21285   4.726   5.236   6.660 -0.4729  0.0445 -0.9478
  186POPC  H13C21286   4.772   5.082   6.634 -0.8295 -1.2604  0.1619
  186POPC   C1421287   4.569   5.058   6.803  0.1705 -0.0657 -0.1520
  186POPC  H14A21288   4.577   5.139   6.874 -3.2306 -0.4355  0.8614
  186POPC  H14B21289   4.479   5.016   6.845  0.3515  0.3087  0.6371
  186POPC  H14C21290   4.653   4.991   6.813  0.6200  0.4374 -0.5433
  186POPC   C1521291   4.507   4.988   6.569 -0.9516 -0.9421 -1.2245
  186POPC  H15A21292   4.479   5.035   6.476 -1.0992  2.7005  0.4789
  186POPC  H15B21293   4.424   4.930   6.609 -0.1227 -0.6560  1.0962
  186POPC  H15C21294   4.591   4.924   6.550 -0.2670 -0.0636 -1.2122
  186POPC   C1121295   4.409   5.276   6.523 -0.4269  0.0964  0.4644
  186POPC  H11A21296   4.512   5.307   6.493  1.2947 -3.8452  1.6893
  186POPC  H11B21297   4.354   5.372   6.534 -0.2743  0.1643  0.6434
  186POPC     P21298   4.190   5.151   6.465 -0.1835  0.1060  0.4262
  186POPC   O1321299   4.163   5.173   6.608 -0.3191  0.3058 -0.2053
  186POPC   O1421300   4.158   5.024   6.402  0.5062  0.2534 -0.1447
  186POPC   O1221301   4.348   5.184   6.433  0.1379  0.1802 -0.6814
  186POPC   O1121302   4.120   5.264   6.376 -0.4232 -0.0218 -0.1573
  186POPC    C121303   4.134   5.278   6.233 -0.0502 -0.1629 -0.0515
  186POPC    HA21304   4.046   5.234   6.183  0.4255 -0.1266 -0.9344
  186POPC    HB21305   4.224   5.223   6.199 -1.5928 -1.5863 -2.0140
  186POPC    C221306   4.143   5.424   6.192  0.0972  0.2507  0.6926
  186POPC    HS21307   4.040   5.460   6.210  0.5754  0.9905  2.1058
  186POPC   O2121308   4.180   5.424   6.051 -0.5912  0.2397  0.0218
  186POPC   C2121309   4.090   5.383   5.962 -0.1510  0.3615 -0.0625
  186POPC   O2221310   3.978   5.353   5.989  0.2049 -0.4078  0.1118
  186POPC   C2221311   4.139   5.400   5.815  0.2300  0.6464  0.5323
  186POPC   H2R21312   4.190   5.304   5.791  0.2438  0.4646  1.2539
  186POPC   H2S21313   4.222   5.474   5.811  0.8343  0.1807  2.8317
  186POPC    C321314   4.249   5.502   6.281 -0.0737  0.4065  0.6133
  186POPC    HX21315   4.346   5.450   6.299 -1.5849 -2.9306  0.0068
  186POPC    HY21316   4.196   5.502   6.379 -0.1581 -0.5675  0.5822
  186POPC   O3121317   4.263   5.640   6.240 -0.2732 -0.0462 -0.3276
  186POPC   C3121318   4.382   5.696   6.247 -0.6004 -0.9495  1.0325
  186POPC   O3221319   4.473   5.637   6.304 -0.4735 -0.2369  0.0067
  186POPC   C3221320   4.397   5.823   6.167  0.1561 -0.1156  0.2276
  186POPC   H2X21321   4.453   5.898   6.227 -0.3813  1.8094 -1.5560
  186POPC   H2Y21322   4.298   5.875   6.162  0.1771 -0.1110 -0.1524
  186POPC   C2321323   4.031   5.434   5.712  0.2101 -1.0584 -0.5589
  186POPC   H3R21324   3.995   5.537   5.734  0.4984 -1.5052  2.5349
  186POPC   H3S21325   3.948   5.361   5.726 -0.5821 -0.1503 -0.3902
  186POPC   C2421326   4.066   5.418   5.561  0.0368 -0.2108  0.1403
  186POPC   H4R21327   4.086   5.314   5.527  1.6919  0.2657 -0.4334
  186POPC   H4S21328   4.165   5.463   5.536  0.7291 -1.4867  0.5050
  186POPC   C2521329   3.958   5.480   5.464  0.3484 -0.1872  0.1529
  186POPC   H5R21330   3.939   5.585   5.496  0.2682 -0.2005  0.1492
  186POPC   H5S21331   3.858   5.432   5.472 -0.7460  2.1104  1.2520
  186POPC   C2621332   4.003   5.478   5.322  0.2859 -0.2152  0.1481
  186POPC   H6R21333   4.028   5.372   5.303  0.6388  0.0059 -0.6742
  186POPC   H6S21334   4.096   5.537   5.309 -0.4949  1.3637  1.3556
  186POPC   C2721335   3.892   5.533   5.224 -0.0154  0.1981 -0.3663
  186POPC   H7R21336   3.876   5.640   5.246 -0.4884  0.2292 -0.8360
  186POPC   H7S21337   3.803   5.473   5.255 -0.0014  0.0826 -0.5498
  186POPC   C2821338   3.927   5.520   5.078  0.8512  0.3702 -0.5390
  186POPC   H8R21339   3.991   5.435   5.050  3.5688  2.6947 -1.8358
  186POPC   H8S21340   3.996   5.604   5.057  2.1555  0.0764  2.1639
  186POPC   C2921341   3.805   5.518   4.987 -0.0142 -0.1020  0.6458
  186POPC   H9121342   3.708   5.519   5.039 -0.9407 -0.9210 -0.9931
  186POPC  C21021343   3.808   5.513   4.853  0.1916 -0.1794  0.0073
  186POPC  H10121344   3.721   5.502   4.786  1.5214 -0.4198 -1.7272
  186POPC  C21121345   3.933   5.493   4.769 -0.1046  0.1446  0.5605
  186POPC  H11R21346   3.897   5.434   4.682 -1.2824 -1.6871  2.2143
  186POPC  H11S21347   4.016   5.442   4.824 -1.3012 -1.5523  0.8864
  186POPC  C21221348   4.004   5.618   4.726  0.1032  0.4330 -0.4145
  186POPC  H12R21349   4.114   5.603   4.720 -0.0718 -0.9246 -0.6792
  186POPC  H12S21350   3.990   5.691   4.809 -0.1624  0.7162 -0.7048
  186POPC  C21321351   3.958   5.692   4.602  1.0180 -0.0495  0.4270
  186POPC  H13R21352   3.847   5.700   4.602  0.9983  0.0216  2.1579
  186POPC  H13S21353   3.975   5.624   4.515 -1.5971  0.2054 -0.3697
  186POPC  C21421354   4.015   5.836   4.588 -0.6236  0.2067  0.4691
  186POPC  H14R21355   4.125   5.827   4.578 -0.6673  0.4107 -0.2610
  186POPC  H14S21356   3.990   5.899   4.676  0.5782  0.6556  0.5093
  186POPC  C21521357   3.995   5.899   4.445  0.7420 -0.5273 -0.1428
  186POPC  H15R21358   3.891   5.906   4.407  0.7827 -0.5811 -0.2635
  186POPC  H15S21359   4.053   5.827   4.384 -0.1636 -1.4574  0.0524
  186POPC  C21621360   4.045   6.043   4.439  0.1250 -0.2219 -0.4908
  186POPC  H16R21361   4.114   6.062   4.354 -0.7410  0.0135 -1.1610
  186POPC  H16S21362   4.094   6.067   4.536 -0.2068 -2.3558  0.2454
  186POPC  C21721363   3.935   6.150   4.418  0.3117 -0.3661 -0.5672
  186POPC  H17R21364   3.873   6.117   4.333 -0.0065  0.2761 -0.5876
  186POPC  H17S21365   3.987   6.248   4.404  1.3117 -0.8428 -0.3321
  186POPC  C21821366   3.841   6.172   4.532 -0.4940  0.0071  0.4205
  186POPC  H18R21367   3.895   6.176   4.629  1.2454 -0.7993 -0.4757
  186POPC  H18S21368   3.767   6.089   4.542  1.0585 -1.5856 -0.7936
  186POPC  H18T21369   3.791   6.270   4.515  0.6678  0.3670 -1.0159
  186POPC   C3321370   4.475   5.805   6.032 -0.3879  0.3299  0.3714
  186POPC   H3X21371   4.564   5.743   6.054 -0.8814 -0.3632  0.4316
  186POPC   H3Y21372   4.508   5.906   6.001  1.2029 -0.2692  0.0456
  186POPC   C3421373   4.387   5.744   5.921  0.0599 -0.6487  0.4445
  186POPC   H4X21374   4.311   5.819   5.891  1.0283 -0.0701 -0.6279
  186POPC   H4Y21375   4.344   5.645   5.947  0.7545 -1.4507 -1.2691
  186POPC   C3521376   4.461   5.718   5.791  0.0881 -0.6389 -0.3591
  186POPC   H5X21377   4.553   5.656   5.801  1.7860  1.6069 -1.0334
  186POPC   H5Y21378   4.506   5.818   5.769  0.7808 -0.8392  0.1376
  186POPC   C3621379   4.375   5.671   5.669 -0.1475  0.5791 -0.2744
  186POPC   H6X21380   4.273   5.715   5.670 -0.6656 -0.4980  2.8135
  186POPC   H6Y21381   4.370   5.561   5.680  2.0300  0.6596  2.9659
  186POPC   C3721382   4.440   5.714   5.535 -0.5128 -0.3401  0.5402
  186POPC   H7X21383   4.542   5.674   5.521 -0.4399 -0.2523  0.8063
  186POPC   H7Y21384   4.449   5.824   5.543  1.3307 -0.3434 -0.9329
  186POPC   C3821385   4.357   5.677   5.413 -0.3393  0.4878  0.0572
  186POPC   H8X21386   4.256   5.718   5.433 -0.3523  0.9583 -0.9041
  186POPC   H8Y21387   4.357   5.566   5.403  1.2365  0.1944  2.3675
  186POPC   C3921388   4.414   5.739   5.287 -0.2661 -0.3630  0.7880
  186POPC   H9X21389   4.510   5.692   5.256 -0.3188 -0.7803  1.2479
  186POPC   H9Y21390   4.453   5.841   5.309 -2.2213  0.5643  0.1031
  186POPC  C31021391   4.323   5.722   5.166 -0.0475  0.2442  0.1141
  186POPC  H10X21392   4.224   5.763   5.197 -0.0616  0.4565 -0.2045
  186POPC  H10Y21393   4.300   5.614   5.160 -1.0303  0.3942  0.9055
  186POPC  C31121394   4.380   5.776   5.030 -0.2161 -0.4754  0.0981
  186POPC  H11X21395   4.488   5.751   5.028 -0.0168  0.4500 -0.7823
  186POPC  H11Y21396   4.381   5.887   5.033 -2.0933 -0.4379  0.7206
  186POPC  C31221397   4.310   5.715   4.909 -0.0813 -0.4511 -0.2726
  186POPC  H12X21398   4.203   5.742   4.896  0.2776  0.2229 -2.1040
  186POPC  H12Y21399   4.313   5.607   4.933 -1.9587 -0.5683 -0.3753
  186POPC  C31321400   4.378   5.757   4.776 -0.1012  0.6854 -0.1144
  186POPC  H13X21401   4.327   5.693   4.701 -0.5442  1.4489 -0.4754
  186POPC  H13Y21402   4.488   5.741   4.778  0.0012  1.3085 -0.4036
  186POPC  C31421403   4.373   5.907   4.744  0.5461 -1.0678  0.0159
  186POPC  H14X21404   4.412   5.966   4.829  0.3601  0.2376 -0.7744
  186POPC  H14Y21405   4.263   5.928   4.744  0.7612  0.1603  0.1548
  186POPC  C31521406   4.439   5.944   4.604 -0.7221 -0.2497 -0.2195
  186POPC  H15X21407   4.388   6.025   4.547 -3.0172 -2.0029 -0.8267
  186POPC  H15Y21408   4.427   5.861   4.531  1.4948 -0.1215 -0.8131
  186POPC  C31621409   4.590   5.976   4.614  0.1529  0.2964 -0.3472
  186POPC  H16X21410   4.640   5.937   4.705  2.2322  0.6579 -1.2729
  186POPC  H16Y21411   4.608   6.086   4.623  0.1283  0.1950  1.0732
  186POPC  H16Z21412   4.638   5.934   4.523 -0.9419 -0.9654 -0.3632
  187POPC     N21413   6.031   4.536   1.940 -1.1232 -0.6081 -0.1415
  187POPC   C1221414   6.064   4.647   1.838  0.3883  0.8926  0.2538
  187POPC  H12A21415   5.972   4.702   1.822  0.6887  1.6426  1.0255
  187POPC  H12B21416   6.092   4.597   1.746  0.3015  0.9843  0.1768
  187POPC   C1321417   5.945   4.431   1.881 -0.1605 -0.1501 -0.5990
  187POPC  H13A21418   5.938   4.349   1.951 -0.8788 -0.9993 -1.6505
  187POPC  H13B21419   5.849   4.474   1.859  0.5559  0.5712 -2.5096
  187POPC  H13C21420   5.986   4.398   1.787 -1.2753  1.7947 -1.8432
  187POPC   C1421421   6.155   4.465   1.981  0.2938  0.2717 -0.4892
  187POPC  H14A21422   6.207   4.528   2.053  1.9744 -1.1015 -0.4277
  187POPC  H14B21423   6.132   4.366   2.017 -0.6895  0.6810  0.0339
  187POPC  H14C21424   6.228   4.454   1.902  0.5534 -1.1613 -0.0904
  187POPC   C1521425   5.968   4.586   2.064  0.4418  0.3936 -0.1588
  187POPC  H15A21426   5.934   4.508   2.130  0.9588  0.2273 -0.0836
  187POPC  H15B21427   5.885   4.652   2.045  0.5581  0.7449  0.5471
  187POPC  H15C21428   6.037   4.652   2.114 -0.0319  1.9164 -1.4174
  187POPC   C1121429   6.168   4.756   1.871 -0.0881 -0.0387 -0.1665
  187POPC  H11A21430   6.181   4.821   1.782  1.0953 -0.3864 -0.2725
  187POPC  H11B21431   6.261   4.696   1.884  0.7973  1.5121  1.0761
  187POPC     P21432   6.050   4.945   1.995 -0.0082 -0.3233 -0.1962
  187POPC   O1321433   5.912   4.887   1.998 -0.1419  0.4053  0.4130
  187POPC   O1421434   6.078   5.031   1.878 -0.5511 -0.2817 -0.2388
  187POPC   O1221435   6.155   4.824   1.992 -0.1976  0.7579  0.1457
  187POPC   O1121436   6.075   5.022   2.137 -0.4632 -0.0300  0.1449
  187POPC    C121437   6.125   4.940   2.244 -0.0940 -0.5600  0.0500
  187POPC    HA21438   6.230   4.910   2.229  0.3165  0.8467 -0.0287
  187POPC    HB21439   6.075   4.841   2.252  1.1779 -1.0862  2.8010
  187POPC    C221440   6.099   4.992   2.392 -0.5947  0.6290  0.0100
  187POPC    HS21441   6.155   4.927   2.463 -2.7170 -1.0427  0.2293
  187POPC   O2121442   5.960   4.978   2.424  0.2536 -1.1619  0.1229
  187POPC   C2121443   5.922   4.971   2.546  0.3371  0.3722 -0.2290
  187POPC   O2221444   5.995   4.933   2.641  0.3698  0.5940  0.2318
  187POPC   C2221445   5.780   5.021   2.570 -0.0458 -0.2317 -0.3309
  187POPC   H2R21446   5.722   5.012   2.476  3.4848  0.7489 -2.7952
  187POPC   H2S21447   5.779   5.129   2.595 -0.8634 -0.9239  3.1549
  187POPC    C321448   6.156   5.133   2.398 -0.8641 -0.1073 -0.5397
  187POPC    HX21449   6.115   5.198   2.317  0.9005  1.9995  0.1588
  187POPC    HY21450   6.265   5.135   2.376 -1.1215  2.2636 -1.9267
  187POPC   O3121451   6.116   5.195   2.526  0.4010  0.2265 -0.2991
  187POPC   C3121452   6.198   5.184   2.635  0.1809 -0.4052  0.8370
  187POPC   O3221453   6.306   5.122   2.635 -0.2721 -0.0013 -0.0735
  187POPC   C3221454   6.143   5.272   2.757 -0.2538 -0.5113  0.5723
  187POPC   H2X21455   6.200   5.245   2.849 -0.7100  0.8742  1.2899
  187POPC   H2Y21456   6.039   5.235   2.760  0.1542 -2.6132 -3.5286
  187POPC   C2321457   5.709   4.955   2.689 -1.0338 -0.3291  0.2190
  187POPC   H3R21458   5.747   4.851   2.697 -0.7048 -0.1316  1.2982
  187POPC   H3S21459   5.604   4.943   2.655 -1.0701 -1.6473  0.7292
  187POPC   C2421460   5.722   5.031   2.823 -0.0524  0.4836  0.0054
  187POPC   H4R21461   5.625   5.082   2.839 -0.6093  0.0068 -1.6232
  187POPC   H4S21462   5.797   5.110   2.804  0.0971  0.3937  0.2216
  187POPC   C2521463   5.763   4.934   2.937  0.6599 -0.0225 -0.4915
  187POPC   H5R21464   5.860   4.884   2.916  1.3951  1.1671 -0.0562
  187POPC   H5S21465   5.678   4.864   2.950 -0.0546  1.0645  0.9881
  187POPC   C2621466   5.770   4.998   3.076  0.0006  0.4073 -0.1107
  187POPC   H6R21467   5.861   5.061   3.086 -0.6017  1.6533 -1.8763
  187POPC   H6S21468   5.786   4.915   3.147 -0.6252  1.1055  0.8812
  187POPC   C2721469   5.650   5.085   3.120 -0.6429 -0.5955 -1.0154
  187POPC   H7R21470   5.557   5.026   3.106 -1.4938  0.9347 -1.9710
  187POPC   H7S21471   5.640   5.174   3.056  0.8389  0.9240  0.7322
  187POPC   C2821472   5.670   5.133   3.271  0.2533  0.2346  0.3608
  187POPC   H8R21473   5.759   5.198   3.287  0.0905  0.1048  1.8813
  187POPC   H8S21474   5.685   5.043   3.334  1.6484  0.8373  0.9297
  187POPC   C2921475   5.551   5.208   3.323  0.7349  0.3763  0.2668
  187POPC   H9121476   5.474   5.211   3.244 -0.8603 -0.8414  1.6992
  187POPC  C21021477   5.533   5.275   3.435  0.3427  0.2932 -0.1341
  187POPC  H10121478   5.441   5.333   3.451  0.4208  0.2803  0.3759
  187POPC  C21121479   5.634   5.284   3.543 -0.6414 -0.7603 -0.2060
  187POPC  H11R21480   5.735   5.255   3.509 -0.0223  0.4554  0.5450
  187POPC  H11S21481   5.614   5.225   3.636 -1.4338  0.4187  0.4007
  187POPC  C21221482   5.648   5.435   3.590  0.4084  1.0796 -0.4422
  187POPC  H12R21483   5.638   5.500   3.500  2.5743  1.7340 -0.2586
  187POPC  H12S21484   5.752   5.456   3.621  0.4561 -2.1777  2.2154
  187POPC  C21321485   5.538   5.496   3.688  0.6337 -0.1025 -0.0719
  187POPC  H13R21486   5.440   5.476   3.640  0.8061 -1.3128  0.0592
  187POPC  H13S21487   5.559   5.605   3.693  1.2924 -0.2824  2.0691
  187POPC  C21421488   5.539   5.432   3.824 -0.2733  0.1240  0.8922
  187POPC  H14R21489   5.538   5.321   3.816  2.2123 -0.0706  2.0951
  187POPC  H14S21490   5.449   5.464   3.881 -0.9434 -0.7582  0.3563
  187POPC  C21521491   5.665   5.473   3.909  0.7285 -1.2724  0.0436
  187POPC  H15R21492   5.692   5.579   3.889 -2.5541 -0.2225  0.5990
  187POPC  H15S21493   5.754   5.409   3.893  0.7243 -0.9709 -1.3030
  187POPC  C21621494   5.630   5.452   4.059 -0.9039 -0.0095  0.6265
  187POPC  H16R21495   5.728   5.422   4.102 -0.7849  2.3105  2.1413
  187POPC  H16S21496   5.555   5.373   4.080 -0.2494 -0.6608  0.5653
  187POPC  C21721497   5.595   5.582   4.128 -1.0280 -0.1092  0.1956
  187POPC  H17R21498   5.500   5.625   4.089 -0.5063  1.0684  0.1667
  187POPC  H17S21499   5.673   5.660   4.109 -0.6173 -0.9853 -1.9786
  187POPC  C21821500   5.593   5.564   4.272  0.2927 -0.0737  0.3858
  187POPC  H18R21501   5.671   5.493   4.307  0.6606  0.3955  0.5463
  187POPC  H18S21502   5.494   5.523   4.299 -0.2359 -0.2865 -1.7301
  187POPC  H18T21503   5.608   5.661   4.324  0.4387  0.5675 -0.8150
  187POPC   C3321504   6.145   5.418   2.705 -0.1008 -0.1575  0.4435
  187POPC   H3X21505   6.092   5.437   2.609 -0.5368  1.1405  0.9263
  187POPC   H3Y21506   6.247   5.461   2.702 -0.4382  1.2857  4.2004
  187POPC   C3421507   6.062   5.515   2.797  1.1337  0.2808  0.1560
  187POPC   H4X21508   5.954   5.500   2.775  1.2063 -0.2703  0.1404
  187POPC   H4Y21509   6.087   5.617   2.764  0.0128  0.3317 -0.5789
  187POPC   C3521510   6.099   5.492   2.943  0.2133 -0.1735 -0.1727
  187POPC   H5X21511   6.210   5.491   2.955 -0.0175 -2.3918  2.7304
  187POPC   H5Y21512   6.070   5.388   2.970  0.7197 -0.1727  0.4026
  187POPC   C3621513   6.044   5.601   3.046  0.2189 -0.4197  0.0463
  187POPC   H6X21514   5.934   5.606   3.029 -0.0659  1.5032  2.0298
  187POPC   H6Y21515   6.081   5.702   3.019  1.2376 -0.8964 -0.3968
  187POPC   C3721516   6.074   5.574   3.190 -0.4149  0.2256  0.1511
  187POPC   H7X21517   6.183   5.594   3.201 -0.2443 -1.0259  0.8493
  187POPC   H7Y21518   6.051   5.471   3.224  1.7606 -0.5663 -0.5759
  187POPC   C3821519   6.012   5.669   3.295  0.0712  0.3159 -0.8587
  187POPC   H8X21520   5.902   5.673   3.281 -0.1262 -0.7864  0.2157
  187POPC   H8Y21521   6.053   5.772   3.289  0.2362  0.2697 -0.5503
  187POPC   C3921522   6.031   5.624   3.439  1.0654 -0.4264 -0.1571
  187POPC   H9X21523   6.141   5.607   3.437  1.2540  0.3932 -3.7498
  187POPC   H9Y21524   5.975   5.529   3.447  0.3824 -0.0595 -0.4533
  187POPC  C31021525   5.982   5.725   3.542 -0.1689 -0.1718 -0.2859
  187POPC  H10X21526   5.872   5.739   3.546 -0.0513  0.6814  0.7897
  187POPC  H10Y21527   6.028   5.824   3.520  1.0603 -0.5728  0.3888
  187POPC  C31121528   6.034   5.676   3.682  0.0710 -0.0018 -0.3621
  187POPC  H11X21529   6.144   5.655   3.681  0.1693  0.1555  2.1579
  187POPC  H11Y21530   5.980   5.582   3.704  1.4959 -1.0530 -1.2046
  187POPC  C31221531   6.004   5.769   3.796  0.1459 -0.1407  0.8871
  187POPC  H12X21532   5.904   5.819   3.792 -0.8613 -2.0973 -1.8381
  187POPC  H12Y21533   6.079   5.849   3.784  0.9582 -0.6337  2.4326
  187POPC  C31321534   6.034   5.706   3.930  0.5357 -0.0814 -0.7896
  187POPC  H13X21535   6.128   5.647   3.928  1.4466  1.2581  0.4294
  187POPC  H13Y21536   5.947   5.647   3.966  0.2129  2.1912  2.6644
  187POPC  C31421537   6.050   5.812   4.040 -0.6872  1.1200  0.4809
  187POPC  H14X21538   5.969   5.887   4.032 -0.6271  1.1243 -0.0802
  187POPC  H14Y21539   6.142   5.874   4.031 -1.2688  2.1679  1.4274
  187POPC  C31521540   6.029   5.750   4.180  0.8721 -0.1982 -0.2524
  187POPC  H15X21541   5.920   5.733   4.188  0.8943  0.7034  3.2203
  187POPC  H15Y21542   6.044   5.822   4.263 -0.7687 -0.8045  0.6090
  187POPC  C31621543   6.104   5.616   4.214 -0.0204 -0.0980  0.1389
  187POPC  H16X21544   6.213   5.619   4.193  0.1110 -1.6262  0.4475
  187POPC  H16Y21545   6.064   5.531   4.154 -1.3492  0.9265 -0.4808
  187POPC  H16Z21546   6.091   5.589   4.321  0.6084  2.5346  0.9512
  188POPC     N21547   4.867   5.053   1.752 -0.5478 -0.1511 -0.0559
  188POPC   C1221548   4.913   4.961   1.867  0.0242 -0.2424  0.4961
  188POPC  H12A21549   4.948   4.866   1.831 -0.4524 -0.1395 -0.2712
  188POPC  H12B21550   4.827   4.924   1.920 -0.1449 -1.8779 -0.8505
  188POPC   C1321551   4.968   5.083   1.645 -0.2078  0.2237 -0.3337
  188POPC  H13A21552   5.044   5.138   1.699 -1.6706  0.0926  2.0215
  188POPC  H13B21553   5.018   4.990   1.620 -0.1453  0.8673 -2.8529
  188POPC  H13C21554   4.919   5.129   1.562 -1.0127  0.3369  0.1958
  188POPC   C1421555   4.748   4.998   1.689 -0.4233 -0.0780 -0.4618
  188POPC  H14A21556   4.752   4.907   1.630 -1.2402  1.5282 -3.1926
  188POPC  H14B21557   4.661   4.986   1.751 -1.2714  0.6988 -1.4670
  188POPC  H14C21558   4.699   5.072   1.628 -1.1502 -0.6787 -0.6329
  188POPC   C1521559   4.822   5.182   1.815  0.5397  0.4977 -0.4457
  188POPC  H15A21560   4.757   5.231   1.744  0.1573 -2.5306 -2.3774
  188POPC  H15B21561   4.904   5.246   1.844  1.7064 -0.9668 -0.4490
  188POPC  H15C21562   4.745   5.172   1.890  0.1434  0.9272 -0.7846
  188POPC   C1121563   5.020   5.031   1.963  0.1440 -0.3841 -0.5742
  188POPC  H11A21564   5.045   4.950   2.035  0.7345  1.7673  1.7387
  188POPC  H11B21565   4.962   5.106   2.020 -0.3364 -2.5788  2.0636
  188POPC     P21566   5.188   5.220   1.902 -0.1383  0.0842 -0.2454
  188POPC   O1321567   5.096   5.304   1.825 -0.6843 -0.6431 -0.0963
  188POPC   O1421568   5.326   5.238   1.861 -0.1991  0.3000 -0.1917
  188POPC   O1221569   5.144   5.068   1.895 -0.1826  0.1343 -0.4061
  188POPC   O1121570   5.175   5.259   2.052 -0.0433 -0.0957  0.0323
  188POPC    C121571   5.265   5.196   2.141 -0.2829  0.5002  0.0591
  188POPC    HA21572   5.363   5.245   2.122 -0.3860  0.8699  0.4717
  188POPC    HB21573   5.275   5.086   2.130 -2.8562  0.2049  0.1770
  188POPC    C221574   5.235   5.229   2.291  0.0634 -0.5648 -0.0097
  188POPC    HS21575   5.326   5.199   2.346  0.2384  1.0337  0.6186
  188POPC   O2121576   5.124   5.163   2.349  0.9954 -0.4099  1.0255
  188POPC   C2121577   5.140   5.035   2.365 -0.3845  0.3876 -0.5107
  188POPC   O2221578   5.238   4.970   2.340  0.5157 -0.1768 -0.1536
  188POPC   C2221579   5.014   4.963   2.417  0.4522 -0.4017 -0.6837
  188POPC   H2R21580   4.922   5.012   2.379  0.1792  0.8768  1.4738
  188POPC   H2S21581   5.016   4.960   2.528 -1.1073  0.3795 -0.5948
  188POPC    C321582   5.212   5.375   2.309  0.5911  0.0601 -0.3238
  188POPC    HX21583   5.120   5.401   2.253 -1.3032 -0.4917  2.3755
  188POPC    HY21584   5.300   5.434   2.275  0.6882 -0.0417 -0.2485
  188POPC   O3121585   5.199   5.403   2.454  0.1477 -0.7943 -0.2042
  188POPC   C3121586   5.085   5.456   2.491 -0.4079 -0.1651  0.6604
  188POPC   O3221587   5.005   5.500   2.409  0.2056  0.0718 -0.6410
  188POPC   C3221588   5.064   5.448   2.643 -0.6886  0.3518  0.3913
  188POPC   H2X21589   5.158   5.408   2.685  0.1253  0.1649 -1.5019
  188POPC   H2Y21590   4.985   5.370   2.655 -1.7030  1.1983 -0.5662
  188POPC   C2321591   5.012   4.817   2.357  0.6338  0.4321 -0.1734
  188POPC   H3R21592   5.104   4.759   2.376 -0.1900 -0.3149  1.8616
  188POPC   H3S21593   5.006   4.826   2.247  2.3085  1.2432 -0.2246
  188POPC   C2421594   4.902   4.737   2.421  0.2750  0.2643  0.6195
  188POPC   H4R21595   4.904   4.641   2.366 -1.2107 -0.3123  1.4979
  188POPC   H4S21596   4.799   4.777   2.423 -0.1277 -0.7389  1.1941
  188POPC   C2521597   4.933   4.692   2.568  0.0016 -0.0622  0.3936
  188POPC   H5R21598   4.948   4.787   2.624  1.2252  0.2440 -0.3989
  188POPC   H5S21599   5.023   4.628   2.579 -0.9186 -1.2592  1.1607
  188POPC   C2621600   4.811   4.623   2.633  1.0787  0.2345 -0.1011
  188POPC   H6R21601   4.758   4.552   2.566 -0.4696 -0.1378  1.4472
  188POPC   H6S21602   4.732   4.699   2.650  0.0651 -0.4825 -1.3929
  188POPC   C2721603   4.842   4.557   2.767 -0.7308  0.2845 -0.1931
  188POPC   H7R21604   4.906   4.627   2.826  0.1276 -0.8245  0.2236
  188POPC   H7S21605   4.892   4.459   2.753 -1.1546  0.2151 -1.2832
  188POPC   C2821606   4.723   4.525   2.856 -0.8636 -0.5115 -0.1178
  188POPC   H8R21607   4.768   4.479   2.946  2.9373  3.2110  0.1876
  188POPC   H8S21608   4.649   4.453   2.815 -0.6054 -0.8738  0.0503
  188POPC   C2921609   4.644   4.649   2.899  0.5696 -0.0118 -0.1410
  188POPC   H9121610   4.570   4.684   2.827  0.3071  0.8301  0.5189
  188POPC  C21021611   4.662   4.724   3.013  0.1734 -0.9281 -0.1600
  188POPC  H10121612   4.596   4.805   3.045  1.8059  0.3394  0.1562
  188POPC  C21121613   4.769   4.685   3.119 -0.5612 -0.7368  0.0367
  188POPC  H11R21614   4.858   4.671   3.055 -0.2351  1.8528 -0.1886
  188POPC  H11S21615   4.743   4.590   3.171 -0.0000 -2.0060 -1.9330
  188POPC  C21221616   4.808   4.799   3.222  0.4954  0.4957  0.7651
  188POPC  H12R21617   4.850   4.884   3.164 -2.1271  0.4423 -1.3790
  188POPC  H12S21618   4.886   4.753   3.287  0.7442  2.3958  1.9076
  188POPC  C21321619   4.703   4.847   3.329 -0.1612 -0.4760  0.6805
  188POPC  H13R21620   4.619   4.906   3.286  1.7121  0.7981 -1.4993
  188POPC  H13S21621   4.759   4.910   3.401 -0.2172  0.8758 -0.4182
  188POPC  C21421622   4.637   4.731   3.403 -0.0015 -0.1662 -0.4348
  188POPC  H14R21623   4.709   4.666   3.455 -1.2424 -0.9770  0.3179
  188POPC  H14S21624   4.582   4.672   3.326 -0.9956  0.1754 -0.0075
  188POPC  C21521625   4.518   4.794   3.475  0.3721 -0.3838 -0.1841
  188POPC  H15R21626   4.459   4.708   3.514 -1.8232 -0.2194 -2.8920
  188POPC  H15S21627   4.450   4.847   3.405 -1.9623 -2.5902  0.2452
  188POPC  C21621628   4.563   4.885   3.593 -0.7922  0.3346 -0.2517
  188POPC  H16R21629   4.602   4.978   3.547 -0.5754  1.0018  1.1954
  188POPC  H16S21630   4.644   4.839   3.653 -1.3801 -1.4879 -0.7886
  188POPC  C21721631   4.454   4.906   3.693  0.9528  0.1344 -0.0521
  188POPC  H17R21632   4.357   4.916   3.638  1.2647 -2.5937 -1.2773
  188POPC  H17S21633   4.478   4.998   3.749 -0.0223 -0.8316  2.0899
  188POPC  C21821634   4.449   4.782   3.784  0.2592 -0.2429 -0.2813
  188POPC  H18R21635   4.365   4.789   3.857  1.0700 -0.7613  0.7207
  188POPC  H18S21636   4.542   4.779   3.843 -0.7177  0.5797  1.3666
  188POPC  H18T21637   4.438   4.688   3.725 -2.8136  1.3428 -2.5527
  188POPC   C3321638   5.014   5.567   2.710 -0.5963 -0.3418 -0.2004
  188POPC   H3X21639   4.947   5.625   2.643 -0.0460  1.6121  0.8656
  188POPC   H3Y21640   5.097   5.639   2.727 -0.6709  0.3418 -2.3351
  188POPC   C3421641   4.943   5.544   2.845  0.6955  0.4842  0.5681
  188POPC   H4X21642   4.993   5.468   2.910 -0.5591  0.2522  1.2785
  188POPC   H4Y21643   4.840   5.514   2.818  0.8203  1.2018 -0.8180
  188POPC   C3521644   4.924   5.666   2.936 -0.2021 -0.7911  0.3330
  188POPC   H5X21645   4.878   5.752   2.882 -1.3585 -0.1981  2.1754
  188POPC   H5Y21646   5.014   5.702   2.990 -0.2093 -0.5834  0.2074
  188POPC   C3621647   4.840   5.640   3.059  1.0306  1.1537  0.1214
  188POPC   H6X21648   4.854   5.538   3.101  0.4312  0.6551 -0.8513
  188POPC   H6Y21649   4.733   5.634   3.031  1.1151  2.5608 -0.6266
  188POPC   C3721650   4.854   5.758   3.162  0.0812  0.0320  0.8565
  188POPC   H7X21651   4.839   5.856   3.112  1.7699 -0.4335 -0.6700
  188POPC   H7Y21652   4.960   5.758   3.194 -0.1720  0.4015  1.7213
  188POPC   C3821653   4.772   5.761   3.285  0.0157 -0.5159  0.2179
  188POPC   H8X21654   4.666   5.738   3.260  0.0533  0.7365 -1.2924
  188POPC   H8Y21655   4.779   5.861   3.334  1.0476  0.1058 -1.1164
  188POPC   C3921656   4.822   5.651   3.386  0.2695 -0.2405  0.2271
  188POPC   H9X21657   4.848   5.559   3.330 -2.4862 -2.0030  1.6266
  188POPC   H9Y21658   4.748   5.609   3.458 -1.4982  0.3479 -1.1769
  188POPC  C31021659   4.929   5.716   3.474 -0.1646  0.5607 -0.2418
  188POPC  H10X21660   4.896   5.816   3.509  1.3135  1.9688 -2.5834
  188POPC  H10Y21661   5.022   5.736   3.417 -1.0237 -0.6146 -2.1506
  188POPC  C31121662   4.968   5.639   3.600 -0.1624  0.2434 -0.1848
  188POPC  H11X21663   4.882   5.626   3.670  0.0156  0.1150  0.0125
  188POPC  H11Y21664   5.047   5.695   3.655  3.1618 -1.8206 -2.4670
  188POPC  C31221665   5.027   5.500   3.579 -0.1471  0.3599 -0.0052
  188POPC  H12X21666   5.111   5.501   3.507  1.3027  0.0934  1.6061
  188POPC  H12Y21667   4.952   5.430   3.536  1.0674 -0.2727 -1.1558
  188POPC  C31321668   5.077   5.451   3.715 -0.4593  0.4233  0.6765
  188POPC  H13X21669   5.125   5.531   3.774 -0.7976  0.7282  0.5398
  188POPC  H13Y21670   5.161   5.381   3.692 -0.5088 -0.3810  2.7636
  188POPC  C31421671   4.964   5.386   3.800 -0.2050 -0.6457  0.3329
  188POPC  H14X21672   4.907   5.318   3.734  2.8399 -0.0773 -3.2171
  188POPC  H14Y21673   4.894   5.465   3.834  0.7515  0.0992  0.6169
  188POPC  C31521674   5.022   5.321   3.929 -0.1704 -0.1915 -0.1814
  188POPC  H15X21675   5.052   5.406   3.993  1.2647  0.4470 -1.6139
  188POPC  H15Y21676   5.118   5.271   3.902  0.3168  0.8543 -0.4174
  188POPC  C31621677   4.929   5.236   4.007 -0.1776 -0.7677  0.1605
  188POPC  H16X21678   4.976   5.214   4.105  0.8160  1.3125  0.1917
  188POPC  H16Y21679   4.905   5.140   3.955  0.1055 -0.6830 -0.1295
  188POPC  H16Z21680   4.838   5.300   4.016  2.0152  2.8683 -1.3293
  189SAPI   C1221681   2.457   5.026   6.540 -0.6700 -0.4859  0.8630
  189SAPI    H221682   2.399   5.093   6.473  1.1220 -0.4601 -0.7460
  189SAPI    O221683   2.441   5.056   6.679 -0.2182  0.7667 -0.6140
  189SAPI   HO221684   2.405   5.145   6.683 -1.8884  0.1634 -1.3106
  189SAPI   C1321685   2.408   4.887   6.504 -0.1607 -0.3123 -0.0326
  189SAPI    H321686   2.427   4.872   6.396 -2.2955 -1.8809 -0.2659
  189SAPI    O321687   2.268   4.867   6.522  0.5656 -0.7409 -0.2726
  189SAPI   HO321688   2.226   4.873   6.436 -1.1926  0.6590  0.6128
  189SAPI   C1421689   2.482   4.786   6.582 -0.1447 -0.0344  0.0730
  189SAPI    H421690   2.446   4.795   6.687 -0.8175 -1.0496 -0.0501
  189SAPI    O421691   2.449   4.652   6.544  0.4850  0.4496  0.3492
  189SAPI   HO421692   2.364   4.636   6.587  0.7569 -1.9397  0.1226
  189SAPI   C1521693   2.633   4.801   6.583  0.8649  0.0344  0.0320
  189SAPI    H521694   2.668   4.739   6.497 -1.7220 -1.5324 -0.0194
  189SAPI    O521695   2.691   4.751   6.699  0.5900  0.5382  0.5015
  189SAPI   HO521696   2.687   4.655   6.699  2.2109  0.2572  4.7486
  189SAPI   C1621697   2.699   4.939   6.547  0.0392 -0.0087 -0.2306
  189SAPI    H621698   2.737   4.984   6.642  0.5998 -1.4737  0.2675
  189SAPI    O621699   2.807   4.919   6.455 -0.4366 -0.3481 -0.7720
  189SAPI   HO621700   2.831   5.008   6.427 -2.2432 -0.1363 -1.7721
  189SAPI   C1121701   2.601   5.042   6.492 -0.2041 -0.5927  0.2203
  189SAPI    H121702   2.583   5.020   6.384  3.0734  0.8937 -0.7763
  189SAPI     P21703   2.736   5.254   6.399  0.3675 -0.0751 -0.0233
  189SAPI   O1321704   2.847   5.164   6.365 -0.0200  0.6584 -0.0168
  189SAPI   O1421705   2.766   5.394   6.451 -0.0390  0.6125  0.7739
  189SAPI   O1221706   2.643   5.177   6.504 -0.1138 -0.5953 -0.6984
  189SAPI   O1121707   2.638   5.276   6.280  0.2430  0.2816 -0.1154
  189SAPI    C121708   2.520   5.353   6.295 -0.1785  0.0314 -0.3355
  189SAPI    HA21709   2.436   5.282   6.278  1.1892 -1.8610  0.4632
  189SAPI    HB21710   2.502   5.394   6.396  0.8558  1.3778 -0.6574
  189SAPI    C221711   2.506   5.478   6.202  0.2950 -0.1570  0.1029
  189SAPI    HS21712   2.424   5.544   6.236  1.2632  0.1653  1.9055
  189SAPI   O2121713   2.499   5.448   6.067 -0.0642  0.2480  0.4184
  189SAPI   C2121714   2.372   5.414   6.022 -0.6389  0.1022  0.4876
  189SAPI   O2221715   2.274   5.426   6.081 -0.1880 -0.1078  0.0161
  189SAPI   C2221716   2.391   5.364   5.873  0.5612  0.0945 -0.3848
  189SAPI   H2R21717   2.456   5.437   5.820 -0.0697  0.2610 -0.9416
  189SAPI   H2S21718   2.435   5.262   5.867  1.8993  0.6208  0.0088
  189SAPI    C321719   2.633   5.568   6.214  0.4537 -0.0783 -0.2693
  189SAPI    HX21720   2.714   5.493   6.215 -2.0665 -3.0061 -0.4916
  189SAPI    HY21721   2.631   5.625   6.309 -0.2942  1.7606 -1.3286
  189SAPI   O3121722   2.654   5.657   6.109  0.8635  0.2629  0.8285
  189SAPI   C3121723   2.565   5.765   6.104 -0.5671 -0.2244  0.0207
  189SAPI   O3221724   2.478   5.793   6.184 -0.1742  0.1468  0.1588
  189SAPI   C3221725   2.596   5.823   5.966 -0.5042  0.0644 -0.3062
  189SAPI   H2X21726   2.548   5.760   5.888  1.8197 -0.0991 -1.6736
  189SAPI   H2Y21727   2.700   5.800   5.937  0.0342  1.3531  0.5110
  189SAPI   C2321728   2.265   5.367   5.785  0.7560 -0.2404  0.0565
  189SAPI   H3R21729   2.223   5.469   5.773 -0.4985 -1.0406 -3.7695
  189SAPI   H3S21730   2.186   5.296   5.819  0.4759  0.8120  1.7016
  189SAPI   C2421731   2.288   5.329   5.641  0.1668  0.1418 -0.4966
  189SAPI   H4R21732   2.275   5.219   5.640 -0.1292  0.1015  2.0560
  189SAPI   H4S21733   2.397   5.337   5.618  0.3257 -1.3633 -0.3458
  189SAPI   C2521734   2.205   5.393   5.540 -0.4462 -0.0655  0.0975
  189SAPI   H5R21735   2.099   5.364   5.544 -0.2569 -0.6417  1.2324
  189SAPI   C2621736   2.244   5.489   5.452 -0.2901  0.5712  0.0910
  189SAPI   H6R21737   2.167   5.523   5.381  1.1010  0.5185 -1.5140
  189SAPI   C2721738   2.377   5.545   5.421  0.1803  0.8935  1.0563
  189SAPI   H7R21739   2.458   5.485   5.470  1.1573  1.4894  0.2043
  189SAPI   H7S21740   2.405   5.645   5.460  1.5339  0.6969  0.6359
  189SAPI   C2821741   2.413   5.535   5.275 -0.2474 -0.3038 -0.5436
  189SAPI   H8R21742   2.389   5.622   5.213 -0.4508 -0.2734 -0.4227
  189SAPI   C2921743   2.461   5.434   5.202 -0.1301 -1.0137 -0.1790
  189SAPI   H9R21744   2.481   5.453   5.095 -1.6089 -0.0628 -0.3169
  189SAPI  C21021745   2.507   5.298   5.247  0.3755 -0.3926 -0.0706
  189SAPI  H10R21746   2.450   5.225   5.186  0.9893  0.2345 -1.4368
  189SAPI  H10S21747   2.469   5.296   5.351  0.0418  0.4830 -0.1631
  189SAPI  C21121748   2.654   5.292   5.237  0.2316 -0.3500  0.2315
  189SAPI  H11R21749   2.706   5.384   5.268 -0.3659 -0.1222  0.5788
  189SAPI  C21221750   2.716   5.193   5.176  0.0362  0.7208  0.2134
  189SAPI  H12R21751   2.821   5.210   5.147  0.1108  0.0434  0.0727
  189SAPI  C21321752   2.657   5.060   5.128  0.8175 -0.2090 -0.2721
  189SAPI  H13R21753   2.594   5.084   5.040 -3.1369  0.4034  2.4345
  189SAPI  H13S21754   2.586   5.013   5.200  1.5957 -0.8892  0.0696
  189SAPI  C21421755   2.762   4.962   5.083 -0.0787 -0.3470  0.5327
  189SAPI  H14R21756   2.844   4.953   5.155  0.2703  1.0478  0.3456
  189SAPI  C21521757   2.787   4.913   4.954 -0.4730 -0.1203  0.5178
  189SAPI  H15R21758   2.875   4.851   4.932 -0.9758 -1.1264  1.2165
  189SAPI  C21621759   2.689   4.928   4.835 -0.3447  0.7399 -0.2391
  189SAPI  H16R21760   2.591   4.975   4.858  0.2908  3.1327 -1.9927
  189SAPI  H16S21761   2.666   4.822   4.811 -0.5529  0.6879  0.1794
  189SAPI  C21721762   2.746   5.013   4.716  0.1509 -0.3491  0.6138
  189SAPI  H17R21763   2.675   5.036   4.635  0.4567  1.4066  0.8050
  189SAPI  H17S21764   2.830   4.952   4.676 -0.7121 -0.6126 -0.8649
  189SAPI  C21821765   2.802   5.152   4.757 -0.7625  0.1454 -0.7047
  189SAPI  H18R21766   2.891   5.139   4.822  0.4232  1.2067 -2.0479
  189SAPI  H18S21767   2.720   5.197   4.817  0.5329 -1.1793  2.2693
  189SAPI  C21921768   2.844   5.233   4.630  0.4616 -1.1228  0.3414
  189SAPI  H19R21769   2.867   5.330   4.680  0.6211 -0.5835 -0.7432
  189SAPI  H19S21770   2.752   5.243   4.569  0.5342 -0.3350  0.3451
  189SAPI  C22021771   2.970   5.188   4.557 -0.0607  0.3280  0.0713
  189SAPI  H20R21772   2.991   5.247   4.466 -0.6280  0.9575  0.3376
  189SAPI  H20S21773   2.963   5.080   4.534  1.1137 -0.1047  1.5771
  189SAPI  H20T21774   3.056   5.193   4.628 -0.9677 -1.1711  1.3603
  189SAPI   C3321775   2.553   5.973   5.949  0.9327 -0.0178 -0.2750
  189SAPI   H3X21776   2.586   6.050   6.021  1.1589  1.1874 -1.6359
  189SAPI   H3Y21777   2.442   5.976   5.944  0.6045 -3.3559  1.6622
  189SAPI   C3421778   2.618   6.034   5.821  0.0430 -0.2696 -0.5427
  189SAPI   H4X21779   2.727   6.039   5.842  0.0178 -0.1759 -0.4358
  189SAPI   H4Y21780   2.583   6.139   5.814 -0.2378 -0.3933 -1.0484
  189SAPI   C3521781   2.589   5.964   5.691 -0.2785 -0.4156  0.1285
  189SAPI   H5X21782   2.482   5.935   5.687 -0.2255 -0.7724  1.2037
  189SAPI   H5Y21783   2.643   5.868   5.677 -2.3094 -1.3943 -1.7557
  189SAPI   C3621784   2.634   6.047   5.579 -0.9795  0.0982  0.8401
  189SAPI   H6X21785   2.743   6.065   5.578 -0.9669  0.0462  1.3060
  189SAPI   H6Y21786   2.597   6.151   5.593 -1.3724 -0.0431  0.8747
  189SAPI   C3721787   2.592   6.000   5.443 -0.6309 -0.3415 -0.6187
  189SAPI   H7X21788   2.626   6.082   5.376  0.1510  0.8154  1.1339
  189SAPI   H7Y21789   2.487   5.968   5.425 -0.6971  0.2635 -1.3636
  189SAPI   C3821790   2.683   5.887   5.390  0.3324  0.1723  0.7097
  189SAPI   H8X21791   2.668   5.797   5.454 -0.3913  0.7091  1.3136
  189SAPI   H8Y21792   2.788   5.919   5.408  0.3893  0.8001 -0.6249
  189SAPI   C3921793   2.654   5.861   5.239  1.1550  0.4934 -0.2391
  189SAPI   H9X21794   2.544   5.868   5.226  0.9515  1.1137  1.5197
  189SAPI   H9Y21795   2.679   5.755   5.218  2.4908  0.5975  0.7388
  189SAPI  C31021796   2.705   5.966   5.141 -0.3171  0.3276 -0.3009
  189SAPI  H10X21797   2.816   5.969   5.146 -0.0403 -3.2274 -1.7998
  189SAPI  H10Y21798   2.675   6.071   5.162  1.2451  0.4598  1.6575
  189SAPI  C31121799   2.661   5.932   5.004  0.1176  0.2296 -0.1943
  189SAPI  H11X21800   2.556   5.966   4.991  0.3768  0.7222 -1.1215
  189SAPI  H11Y21801   2.659   5.821   4.999  2.0384  0.1288  0.5484
  189SAPI  C31221802   2.751   5.998   4.895  0.1305 -0.4122 -0.2277
  189SAPI  H12X21803   2.852   5.989   4.941 -1.2323 -2.1885  2.7502
  189SAPI  H12Y21804   2.727   6.107   4.896  1.7178 -0.0211 -1.0732
  189SAPI  C31321805   2.766   5.930   4.761 -0.0001  0.1656  0.3220
  189SAPI  H13X21806   2.681   5.958   4.697  0.3690  0.9035  0.1390
  189SAPI  H13Y21807   2.757   5.820   4.772  0.3914  0.0782 -0.1956
  189SAPI  C31421808   2.901   5.963   4.695 -0.1701  0.0392  0.4969
  189SAPI  H14X21809   2.982   5.940   4.768  0.8417  0.2475 -0.5338
  189SAPI  H14Y21810   2.907   6.066   4.652  1.5975 -0.6813 -1.1496
  189SAPI  C31521811   2.928   5.875   4.571  0.6747  0.2468 -0.3988
  189SAPI  H15X21812   2.832   5.884   4.515  0.6314  0.1557 -0.3397
  189SAPI  H15Y21813   2.943   5.770   4.605  0.0376  0.5561  0.8987
  189SAPI  C31621814   3.050   5.922   4.486 -0.1322 -0.0468  0.0975
  189SAPI  H16X21815   3.142   5.887   4.539  1.3580  1.4412 -1.3670
  189SAPI  H16Y21816   3.040   6.032   4.494 -0.5285 -0.2096  2.4644
  189SAPI  C31721817   3.032   5.883   4.336 -0.6378 -0.0587 -0.0474
  189SAPI  H17X21818   3.021   5.772   4.335  0.3346 -0.1923  1.1169
  189SAPI  H17Y21819   3.130   5.889   4.284  0.4614 -2.3195  1.5433
  189SAPI  C31821820   2.923   5.951   4.264 -0.1080 -0.2831  0.3120
  189SAPI  H18X21821   2.942   6.059   4.249  3.4348 -0.5637  1.7770
  189SAPI  H18Y21822   2.824   5.950   4.314 -1.6888 -4.6072 -2.3241
  189SAPI  H18Z21823   2.911   5.899   4.166  3.1493 -1.6279  0.5030
  190SAPI   C1221824   0.730   3.209   6.927  0.3333  0.3579  0.0171
  190SAPI    H221825   0.620   3.224   6.930  0.1004 -1.0231 -0.7990
  190SAPI    O221826   0.781   3.330   6.975 -0.2332 -0.4898  0.7380
  190SAPI   HO221827   0.812   3.386   6.904  0.7732  0.1818  1.6714
  190SAPI   C1321828   0.761   3.090   7.019  0.2444  0.0708  0.5855
  190SAPI    H321829   0.716   2.998   6.977 -0.9067 -0.0986  2.1167
  190SAPI    O321830   0.714   3.115   7.151  0.3183  0.5075 -0.2186
  190SAPI   HO321831   0.675   3.033   7.184  0.7881 -0.0987 -1.1012
  190SAPI   C1421832   0.906   3.060   7.027 -0.0044 -0.7566 -0.4312
  190SAPI    H421833   0.946   3.137   7.096 -0.7841 -1.4034  0.7876
  190SAPI    O421834   0.936   2.936   7.092  0.5315 -0.1309 -0.1063
  190SAPI   HO421835   0.941   2.951   7.187  0.3304  3.4709 -0.5278
  190SAPI   C1521836   0.989   3.075   6.896  0.2821  0.1450  0.4668
  190SAPI    H521837   1.000   2.978   6.843  1.2972 -0.1392  1.1716
  190SAPI    O521838   1.119   3.110   6.925  0.1326 -0.1507 -0.1924
  190SAPI   HO521839   1.161   3.030   6.958 -0.0106  0.3394  1.2822
  190SAPI   C1621840   0.924   3.166   6.785  0.1638  0.6277  0.2011
  190SAPI    H621841   0.961   3.269   6.803 -1.7612  1.5544 -0.8467
  190SAPI    O621842   0.956   3.130   6.652  0.3453  0.6305  0.4652
  190SAPI   HO621843   0.870   3.144   6.612 -0.0771 -1.1797  0.6796
  190SAPI   C1121844   0.775   3.180   6.789 -0.1945  0.0858  0.1413
  190SAPI    H121845   0.732   3.079   6.773  0.2885 -0.1103  0.0442
  190SAPI     P21846   0.627   3.233   6.571  0.1080  0.2182  0.1604
  190SAPI   O1321847   0.622   3.350   6.479 -0.4075  0.3036  0.0219
  190SAPI   O1421848   0.493   3.180   6.624  0.5194 -0.0997 -0.0080
  190SAPI   O1221849   0.726   3.281   6.692 -0.9267  0.0478  0.0504
  190SAPI   O1121850   0.715   3.115   6.512  0.1518 -0.2507 -0.4064
  190SAPI    C121851   0.659   2.988   6.485 -0.1687  0.5749  0.3201
  190SAPI    HA21852   0.640   2.932   6.579 -0.2684 -1.2947 -0.7630
  190SAPI    HB21853   0.566   2.993   6.425  0.5554  0.6553 -0.8236
  190SAPI    C221854   0.754   2.889   6.414  0.8357 -0.1512  0.1665
  190SAPI    HS21855   0.854   2.913   6.458  0.2003  0.3648  1.3745
  190SAPI   O2121856   0.745   2.929   6.275 -0.0786 -0.1517  0.8840
  190SAPI   C2121857   0.853   2.897   6.207 -0.0023  0.4062  0.6099
  190SAPI   O2221858   0.949   2.835   6.250 -0.5645 -0.1698  0.2058
  190SAPI   C2221859   0.848   2.945   6.061  0.2205  0.1101 -0.2608
  190SAPI   H2R21860   0.804   2.870   5.991  2.8312  0.0496 -1.9862
  190SAPI   H2S21861   0.795   3.042   6.049 -0.1625 -0.0493  0.1342
  190SAPI    C321862   0.703   2.742   6.427  0.8739 -0.0350  0.6410
  190SAPI    HX21863   0.609   2.728   6.370  0.8767 -2.6199  1.1807
  190SAPI    HY21864   0.664   2.733   6.531  0.6830  0.8084  0.6524
  190SAPI   O3121865   0.805   2.641   6.415 -0.3306  0.2792  0.6903
  190SAPI   C3121866   0.804   2.570   6.306 -0.5353  0.5189 -0.3142
  190SAPI   O3221867   0.729   2.589   6.212 -1.0187 -0.6072  0.1291
  190SAPI   C3221868   0.920   2.477   6.319  0.3329  1.0753 -0.2710
  190SAPI   H2X21869   0.892   2.405   6.398 -1.4916  1.6336 -0.3578
  190SAPI   H2Y21870   1.006   2.538   6.353 -1.4809  2.5310  1.9319
  190SAPI   C2321871   0.996   2.950   6.000 -0.0193 -0.5658 -0.0540
  190SAPI   H3R21872   1.030   2.847   6.027  0.2106 -1.3041 -2.8450
  190SAPI   H3S21873   1.058   3.025   6.053 -0.4671 -0.0614 -0.2398
  190SAPI   C2421874   1.012   2.964   5.843 -0.2198  0.5846  0.3234
  190SAPI   H4R21875   1.119   2.981   5.817  0.3781 -2.4891  0.3780
  190SAPI   H4S21876   0.954   3.050   5.803  0.1066  0.3061 -0.8046
  190SAPI   C2521877   0.966   2.841   5.763 -0.2683 -0.0827 -0.0984
  190SAPI   H5R21878   0.910   2.766   5.820 -0.5322 -1.9366 -2.6202
  190SAPI   C2621879   0.972   2.823   5.626  0.9183 -0.4850  0.1550
  190SAPI   H6R21880   0.910   2.741   5.588  0.2278  1.0652 -2.2532
  190SAPI   C2721881   1.023   2.921   5.522 -0.5766  0.8180  0.7503
  190SAPI   H7R21882   1.062   3.010   5.576 -1.1142 -0.0010  2.5624
  190SAPI   H7S21883   0.934   2.948   5.461  1.3363  0.5557 -2.3942
  190SAPI   C2821884   1.129   2.867   5.426  0.0822 -0.0441 -0.3052
  190SAPI   H8R21885   1.216   2.822   5.476  0.6408  0.5376 -0.7353
  190SAPI   C2921886   1.121   2.861   5.292 -1.2547  0.0253 -0.5026
  190SAPI   H9R21887   1.200   2.827   5.224 -3.3440 -2.8663 -1.6639
  190SAPI  C21021888   1.006   2.898   5.202  0.5905  0.4208  0.4189
  190SAPI  H10R21889   1.036   2.976   5.129  1.4137 -0.4189 -0.1710
  190SAPI  H10S21890   0.926   2.945   5.263  0.8837  1.7748 -0.2020
  190SAPI  C21121891   0.950   2.777   5.134  0.8271 -0.6041  0.8147
  190SAPI  H11R21892   0.959   2.678   5.181  1.2351 -1.7971 -1.6367
  190SAPI  C21221893   0.888   2.777   5.012  0.0228 -0.2905 -0.6989
  190SAPI  H12R21894   0.846   2.680   4.983 -1.0178 -0.6700  1.7835
  190SAPI  C21321895   0.878   2.896   4.917  0.0443 -0.6616  0.1925
  190SAPI  H13R21896   0.961   2.869   4.848  1.8995  3.5256  0.4984
  190SAPI  H13S21897   0.904   2.993   4.964 -2.3900 -0.5590  1.4922
  190SAPI  C21421898   0.748   2.902   4.832  0.0285  0.1072 -0.8272
  190SAPI  H14R21899   0.650   2.868   4.869 -0.6316 -1.5482 -3.8501
  190SAPI  C21521900   0.736   2.969   4.714  0.0149 -0.1460  0.6980
  190SAPI  H15R21901   0.634   2.970   4.671  0.6294 -2.4475 -1.0418
  190SAPI  C21621902   0.840   3.045   4.633  0.2269  0.6030  0.2582
  190SAPI  H16R21903   0.940   3.022   4.675  0.0222 -0.3107  0.2598
  190SAPI  H16S21904   0.824   3.155   4.626 -2.9420  0.2375  0.3310
  190SAPI  C21721905   0.843   2.986   4.487  0.5701  0.5002  0.0637
  190SAPI  H17R21906   0.829   2.876   4.493 -0.4565  0.5727 -0.6843
  190SAPI  H17S21907   0.948   3.009   4.460  0.1663  1.9533 -0.3460
  190SAPI  C21821908   0.740   3.049   4.393  0.0525 -0.2389  0.1014
  190SAPI  H18R21909   0.739   3.160   4.395  0.4249 -0.2314 -0.1230
  190SAPI  H18S21910   0.637   3.015   4.417  0.4657 -0.7236  1.3037
  190SAPI  C21921911   0.767   3.005   4.247 -0.3152  0.4807 -0.1550
  190SAPI  H19R21912   0.759   2.895   4.237 -2.4033  0.5479  0.3990
  190SAPI  H19S21913   0.868   3.033   4.209 -0.0717  0.5127  0.5051
  190SAPI  C22021914   0.670   3.074   4.147  0.3098  0.0824  0.3017
  190SAPI  H20R21915   0.671   3.026   4.046  3.1942  3.1983 -1.3406
  190SAPI  H20S21916   0.695   3.181   4.137  0.8268 -0.0955 -0.4215
  190SAPI  H20T21917   0.569   3.080   4.193 -0.5280 -1.0682 -1.2725
  190SAPI   C3321918   0.953   2.393   6.195  0.1981 -0.1849  0.4295
  190SAPI   H3X21919   0.868   2.332   6.157  0.4257 -0.6785  0.7128
  190SAPI   H3Y21920   1.035   2.326   6.228 -2.1039 -1.7825  3.5204
  190SAPI   C3421921   0.986   2.480   6.068 -0.4152 -0.2768 -1.2824
  190SAPI   H4X21922   1.068   2.552   6.089 -0.7851  0.4804 -2.3465
  190SAPI   H4Y21923   0.899   2.545   6.041 -1.2243 -1.2976 -1.2020
  190SAPI   C3521924   1.018   2.397   5.951 -0.3904 -0.4138  0.2838
  190SAPI   H5X21925   0.925   2.350   5.915 -1.4192  0.8400  1.1929
  190SAPI   H5Y21926   1.094   2.318   5.969 -1.1727 -0.6352  3.1602
  190SAPI   C3621927   1.071   2.473   5.825  0.3217  0.0959  0.4929
  190SAPI   H6X21928   1.175   2.501   5.854 -0.7586  1.6002  3.2520
  190SAPI   H6Y21929   1.011   2.562   5.800  0.8360  0.7111  1.3939
  190SAPI   C3721930   1.051   2.379   5.703 -0.0649 -0.8054 -0.4216
  190SAPI   H7X21931   0.942   2.362   5.689 -0.3597  0.5574  0.0790
  190SAPI   H7Y21932   1.098   2.279   5.721 -0.3835 -0.6685  1.4502
  190SAPI   C3821933   1.115   2.443   5.584 -0.1530  0.7871 -0.0378
  190SAPI   H8X21934   1.224   2.451   5.603  0.0009 -0.1283 -0.4541
  190SAPI   H8Y21935   1.074   2.545   5.568  0.7787  1.2583  0.4888
  190SAPI   C3921936   1.091   2.357   5.451 -1.1063 -0.2285 -1.3481
  190SAPI   H9X21937   0.981   2.370   5.442 -1.7047  2.3562  4.6810
  190SAPI   H9Y21938   1.111   2.249   5.466 -0.6702  0.0501  0.2666
  190SAPI  C31021939   1.170   2.420   5.334 -0.2814 -0.0212  1.2448
  190SAPI  H10X21940   1.280   2.406   5.336  0.1042  2.2162 -0.4980
  190SAPI  H10Y21941   1.151   2.529   5.334 -1.0115 -0.1361  0.3296
  190SAPI  C31121942   1.111   2.350   5.205  0.2885  0.3704  0.1448
  190SAPI  H11X21943   1.001   2.358   5.197  0.0794 -1.6811  0.4567
  190SAPI  H11Y21944   1.148   2.245   5.201  0.0329  0.2325  1.1030
  190SAPI  C31221945   1.182   2.419   5.088 -0.5237 -0.2410 -0.8740
  190SAPI  H12X21946   1.290   2.395   5.082 -0.9136 -1.8424 -2.1952
  190SAPI  H12Y21947   1.178   2.528   5.108 -4.0046  0.0162 -2.2111
  190SAPI  C31321948   1.135   2.390   4.944  0.6509  0.5795 -0.9370
  190SAPI  H13X21949   1.029   2.414   4.921  0.6488  1.2677 -0.2386
  190SAPI  H13Y21950   1.148   2.279   4.943 -1.1058  0.2292  2.2391
  190SAPI  C31421951   1.217   2.462   4.842  0.2903  0.1341  0.3138
  190SAPI  H14X21952   1.318   2.463   4.890 -0.2700 -1.0777  1.5823
  190SAPI  H14Y21953   1.175   2.560   4.815  1.5516  0.2406 -1.4212
  190SAPI  C31521954   1.224   2.380   4.709 -0.6767 -0.7956  0.1042
  190SAPI  H15X21955   1.115   2.370   4.688 -0.5114 -1.9286 -0.2313
  190SAPI  H15Y21956   1.259   2.277   4.730 -1.0218 -0.4621  2.7026
  190SAPI  C31621957   1.289   2.456   4.591  0.2779  0.1763  0.0764
  190SAPI  H16X21958   1.399   2.443   4.587  0.1430 -1.1939  0.1837
  190SAPI  H16Y21959   1.274   2.565   4.606  1.3549  0.1163  1.8882
  190SAPI  C31721960   1.241   2.418   4.452 -0.2766 -0.9012  0.0927
  190SAPI  H17X21961   1.297   2.492   4.391  1.0310 -0.3052  1.9464
  190SAPI  H17Y21962   1.132   2.438   4.439 -0.1648 -0.8662 -0.8909
  190SAPI  C31821963   1.283   2.277   4.415 -0.7284 -0.5720 -0.7103
  190SAPI  H18X21964   1.247   2.195   4.480 -0.2833 -2.0366 -2.2563
  190SAPI  H18Y21965   1.394   2.284   4.415 -0.7315 -0.5256 -1.0500
  190SAPI  H18Z21966   1.247   2.262   4.311 -1.2310  0.4833 -0.6996
  191SAPI   C1221967   4.327   3.715   1.885  0.3580  0.4876  0.1103
  191SAPI    H221968   4.430   3.691   1.917  0.0561  1.3527  1.8580
  191SAPI    O221969   4.355   3.819   1.790 -0.1205  0.2742  0.5840
  191SAPI   HO221970   4.380   3.893   1.846  2.9956 -0.4379  0.3206
  191SAPI   C1321971   4.261   3.587   1.826 -0.0814  0.4386 -0.0023
  191SAPI    H321972   4.251   3.521   1.915  0.1108  0.9368  0.3954
  191SAPI    O321973   4.336   3.520   1.723 -0.1516  0.4596 -0.8246
  191SAPI   HO321974   4.310   3.429   1.737 -0.3507  0.6256 -0.0586
  191SAPI   C1421975   4.129   3.628   1.770  0.6370  0.0699  0.7111
  191SAPI    H421976   4.160   3.693   1.685  0.6507 -0.1173  0.5727
  191SAPI    O421977   4.047   3.528   1.713  0.5088  0.6030  0.3607
  191SAPI   HO421978   4.044   3.454   1.775 -1.2425  0.8154  0.5904
  191SAPI   C1521979   4.038   3.726   1.850 -0.2412  0.4039 -0.5264
  191SAPI    H521980   3.959   3.674   1.909  1.4758 -0.9543  0.6861
  191SAPI    O521981   3.950   3.806   1.778 -0.0711 -0.1865  0.1851
  191SAPI   HO521982   3.872   3.802   1.834 -0.2481  0.1820 -0.0367
  191SAPI   C1621983   4.113   3.813   1.951 -0.2321  0.3696 -0.6260
  191SAPI    H621984   4.137   3.908   1.897  0.1085  0.4583 -0.3234
  191SAPI    O621985   4.031   3.844   2.065 -0.4020 -0.2899 -0.0548
  191SAPI   HO621986   4.013   3.764   2.115 -0.0855 -0.7363 -0.6481
  191SAPI   C1121987   4.243   3.756   2.004 -0.9726 -0.0286 -0.5138
  191SAPI    H121988   4.224   3.671   2.072 -0.1567 -0.2656 -0.5649
  191SAPI     P21989   4.362   3.819   2.245  0.5678  0.1315  0.3406
  191SAPI   O1321990   4.258   3.721   2.290 -0.1497 -0.0737 -0.2909
  191SAPI   O1421991   4.386   3.944   2.325 -0.3238 -0.2551  0.1152
  191SAPI   O1221992   4.322   3.854   2.080 -0.6896  0.2320  0.0202
  191SAPI   O1121993   4.500   3.737   2.228 -0.5752 -0.3541  0.0030
  191SAPI    C121994   4.623   3.807   2.226 -0.0396  0.1816 -0.3099
  191SAPI    HA21995   4.680   3.774   2.137  0.4920 -1.7171  0.6794
  191SAPI    HB21996   4.622   3.918   2.221  0.7107  0.2023 -0.0767
  191SAPI    C221997   4.709   3.753   2.347  0.0420 -0.4742 -0.0347
  191SAPI    HS21998   4.733   3.646   2.326 -1.3708 -0.7343 -0.3922
  191SAPI   O2121999   4.646   3.792   2.466  0.2515 -0.5989 -0.1138
  191SAPI   C2122000   4.611   3.688   2.547 -0.7515  0.2376  0.8642
  191SAPI   O2222001   4.632   3.574   2.509 -0.2434  0.6702  0.1049
  191SAPI   C2222002   4.541   3.734   2.672 -0.1976 -0.3094 -0.9403
  191SAPI   H2R22003   4.624   3.784   2.727 -0.1152 -0.5240 -0.8685
  191SAPI   H2S22004   4.473   3.820   2.656  0.4782  0.6666  1.0646
  191SAPI    C322005   4.851   3.828   2.351 -0.0368  0.4679 -0.0777
  191SAPI    HX22006   4.900   3.827   2.251  0.7955  0.5781  0.3122
  191SAPI    HY22007   4.918   3.779   2.425 -1.2189 -2.9717 -1.1174
  191SAPI   O3122008   4.829   3.967   2.380  0.2631 -0.1189  0.2105
  191SAPI   C3122009   4.945   4.034   2.391  0.4540  0.2265  0.1747
  191SAPI   O3222010   5.050   3.987   2.364  0.2892  0.5728 -0.4342
  191SAPI   C3222011   4.930   4.169   2.456 -0.5188 -0.3765 -0.1421
  191SAPI   H2X22012   4.822   4.191   2.473 -0.2202  0.5587  0.6361
  191SAPI   H2Y22013   4.966   4.247   2.387  2.3757 -0.5121  1.0714
  191SAPI   C2322014   4.488   3.621   2.765  0.1158 -0.4823  0.3810
  191SAPI   H3R22015   4.574   3.581   2.825 -0.2530 -0.7208  0.7597
  191SAPI   H3S22016   4.435   3.548   2.701 -1.4906  2.5272 -1.9544
  191SAPI   C2422017   4.401   3.680   2.876  0.3131 -0.6891 -0.1045
  191SAPI   H4R22018   4.348   3.770   2.840  0.5864 -0.9886 -1.3062
  191SAPI   H4S22019   4.480   3.705   2.950  1.3734 -1.7136 -0.8716
  191SAPI   C2522020   4.291   3.590   2.934  0.3390  1.3779  0.7349
  191SAPI   H5R22021   4.232   3.549   2.851  0.3851  3.8292 -0.5824
  191SAPI   C2622022   4.284   3.536   3.056  0.1192 -0.2798  0.2561
  191SAPI   H6R22023   4.203   3.469   3.088  0.4643 -1.0098 -0.3927
  191SAPI   C2722024   4.367   3.585   3.169 -0.1242 -0.2599  0.8262
  191SAPI   H7R22025   4.314   3.583   3.266 -0.4398 -2.7288  0.6621
  191SAPI   H7S22026   4.393   3.692   3.156  0.9861 -0.5647  0.4304
  191SAPI   C2822027   4.498   3.507   3.178  0.0133 -0.1913  0.6721
  191SAPI   H8R22028   4.518   3.452   3.085 -0.5927  3.8219 -2.0893
  191SAPI   C2922029   4.584   3.513   3.275  0.0589 -0.3765  0.1089
  191SAPI   H9R22030   4.673   3.448   3.275  0.7828  0.5918  0.0378
  191SAPI  C21022031   4.571   3.583   3.409 -0.0444 -0.2111 -0.3035
  191SAPI  H10R22032   4.508   3.519   3.476 -0.9268  0.7597 -0.1794
  191SAPI  H10S22033   4.504   3.672   3.415 -0.2792 -0.4694  1.3645
  191SAPI  C21122034   4.696   3.628   3.476 -0.8206 -0.0911 -0.6727
  191SAPI  H11R22035   4.786   3.614   3.415 -0.2119 -2.7316  0.6808
  191SAPI  C21222036   4.698   3.701   3.591  0.4544  0.4937  0.3719
  191SAPI  H12R22037   4.798   3.724   3.631  1.0460 -0.3987 -0.5417
  191SAPI  C21322038   4.587   3.728   3.690 -0.0840  0.2778 -0.9987
  191SAPI  H13R22039   4.556   3.637   3.746 -2.3284  1.6324  0.1094
  191SAPI  H13S22040   4.494   3.746   3.633 -1.4843  1.4738  1.4866
  191SAPI  C21422041   4.600   3.846   3.784  0.2259  0.1012  0.2150
  191SAPI  H14R22042   4.608   3.939   3.727 -1.1090 -1.1413 -2.1927
  191SAPI  C21522043   4.619   3.848   3.918  0.2508  0.4145 -1.0562
  191SAPI  H15R22044   4.630   3.941   3.975 -0.5672 -1.1385  1.8475
  191SAPI  C21622045   4.623   3.732   4.009 -0.2769 -0.3916  0.5716
  191SAPI  H16R22046   4.713   3.730   4.075  0.5151  1.4077 -0.3858
  191SAPI  H16S22047   4.637   3.638   3.952 -2.4243 -2.6811  3.4506
  191SAPI  C21722048   4.499   3.690   4.081 -0.2129 -0.5077  0.0161
  191SAPI  H17R22049   4.427   3.637   4.015 -2.5224  0.4561  1.6292
  191SAPI  H17S22050   4.450   3.773   4.136 -0.3299  0.0268 -0.8676
  191SAPI  C21822051   4.533   3.582   4.184  0.2258 -0.0803 -0.3371
  191SAPI  H18R22052   4.609   3.628   4.250 -2.2588  2.8597  0.7453
  191SAPI  H18S22053   4.584   3.496   4.135  1.0651  0.6633 -0.8099
  191SAPI  C21922054   4.412   3.525   4.262 -0.1284  0.2138  0.5553
  191SAPI  H19R22055   4.445   3.426   4.300 -2.0944 -1.1515 -1.0810
  191SAPI  H19S22056   4.325   3.517   4.194  0.0623  1.0197  0.1986
  191SAPI  C22022057   4.377   3.618   4.377  0.5165 -0.3980 -0.0776
  191SAPI  H20R22058   4.454   3.628   4.456  2.0873 -1.0934 -1.4693
  191SAPI  H20S22059   4.289   3.574   4.429  0.6462 -2.6632 -1.6353
  191SAPI  H20T22060   4.350   3.711   4.323  3.2158 -0.1497 -1.1217
  191SAPI   C3322061   5.006   4.183   2.591 -0.2167  0.5349  0.1609
  191SAPI   H3X22062   4.990   4.287   2.624 -1.1687  0.0081  1.4113
  191SAPI   H3Y22063   5.116   4.178   2.572 -0.0359  1.9730  0.7554
  191SAPI   C3422064   4.967   4.077   2.693  0.8064  0.0503 -0.0616
  191SAPI   H4X22065   5.028   4.101   2.783 -0.8364 -0.9033  1.3578
  191SAPI   H4Y22066   5.002   3.975   2.666 -0.2636 -1.1221  2.6452
  191SAPI   C3522067   4.818   4.063   2.722  0.2048 -0.3745 -0.6820
  191SAPI   H5X22068   4.774   4.033   2.625 -2.1026  0.6306 -0.0249
  191SAPI   H5Y22069   4.775   4.163   2.743  0.2520 -0.4148 -0.3923
  191SAPI   C3622070   4.780   3.965   2.833 -0.0635  0.3731  0.0741
  191SAPI   H6X22071   4.815   3.865   2.800  0.6756  0.1159  1.5388
  191SAPI   H6Y22072   4.669   3.971   2.830 -0.0996  3.4678  2.2296
  191SAPI   C3722073   4.819   3.992   2.975  0.1765 -0.1233  0.6893
  191SAPI   H7X22074   4.802   4.096   3.010 -1.2673 -0.0366 -0.1843
  191SAPI   H7Y22075   4.930   3.984   2.975  0.2463 -1.2912 -3.4326
  191SAPI   C3822076   4.752   3.891   3.072 -0.0133 -0.4635 -0.7020
  191SAPI   H8X22077   4.752   3.788   3.033 -2.6764 -1.2869  1.1611
  191SAPI   H8Y22078   4.643   3.910   3.073 -0.1678 -0.9208  2.2831
  191SAPI   C3922079   4.808   3.900   3.216 -0.3509 -0.2836  0.4173
  191SAPI   H9X22080   4.916   3.879   3.209 -0.0352  1.1205  0.8297
  191SAPI   H9Y22081   4.745   3.826   3.270 -1.7798  1.3691  1.1495
  191SAPI  C31022082   4.796   4.040   3.278  0.2842  0.1011  0.2267
  191SAPI  H10X22083   4.694   4.083   3.267  0.0557 -0.3139  0.6725
  191SAPI  H10Y22084   4.875   4.113   3.249 -0.2062  1.8261  2.8688
  191SAPI  C31122085   4.820   4.041   3.431 -0.3966  0.2281 -0.0784
  191SAPI  H11X22086   4.758   3.963   3.481  0.4333 -0.0187  0.5977
  191SAPI  H11Y22087   4.789   4.141   3.469 -2.0755 -0.6928  1.1177
  191SAPI  C31222088   4.963   4.019   3.467 -0.0664 -0.4394  0.1143
  191SAPI  H12X22089   5.017   4.112   3.440 -1.6321 -0.0458 -1.9270
  191SAPI  H12Y22090   4.996   3.932   3.406 -0.5314 -0.9020  0.5183
  191SAPI  C31322091   4.995   3.985   3.611 -0.4379 -0.3967 -0.3355
  191SAPI  H13X22092   5.105   3.986   3.622 -0.3034  0.1093 -1.5020
  191SAPI  H13Y22093   4.967   3.879   3.628  0.9355 -1.0094 -1.6972
  191SAPI  C31422094   4.926   4.072   3.717  0.0462 -0.3348 -0.5014
  191SAPI  H14X22095   4.817   4.064   3.696 -0.4681  0.1437  1.8037
  191SAPI  H14Y22096   4.954   4.179   3.708 -1.7978  0.1741 -0.5517
  191SAPI  C31522097   4.941   4.013   3.856 -0.7860 -0.1734  0.0294
  191SAPI  H15X22098   5.044   3.983   3.886  0.1646 -0.5460 -3.2490
  191SAPI  H15Y22099   4.884   3.918   3.859 -0.6819 -0.2228  2.1565
  191SAPI  C31622100   4.876   4.089   3.968  0.0589 -0.3753 -0.4674
  191SAPI  H16X22101   4.894   4.039   4.066 -1.1750  1.7862  0.9351
  191SAPI  H16Y22102   4.766   4.086   3.959 -0.0714 -1.2384  0.9985
  191SAPI  C31722103   4.926   4.228   3.997 -0.0535 -0.3621 -0.2548
  191SAPI  H17X22104   4.863   4.272   4.077 -2.6151  1.3860 -3.0348
  191SAPI  H17Y22105   4.917   4.299   3.912  1.6491 -0.9950 -1.0287
  191SAPI  C31822106   5.070   4.237   4.041 -0.3754 -0.0838  0.4357
  191SAPI  H18X22107   5.092   4.344   4.063 -1.5415 -0.1318  2.0027
  191SAPI  H18Y22108   5.138   4.212   3.956 -0.9903 -1.2223  0.2630
  191SAPI  H18Z22109   5.099   4.184   4.134 -0.9391  1.2556  1.4058
  192SAPI   C1222110   0.136   6.300   2.173  0.0887 -0.1467  0.1478
  192SAPI    H222111   0.126   6.249   2.074  2.2400  0.2895 -0.3559
  192SAPI    O222112   0.084   6.426   2.164  0.3982 -0.5033 -0.1854
  192SAPI   HO222113   0.150   6.477   2.117  1.0587  1.2685  2.4517
  192SAPI   C1322114   0.068   6.228   2.281 -0.1612  0.1812  0.2641
  192SAPI    H322115   0.116   6.129   2.292  0.0007  0.3267  0.9075
  192SAPI    O322116  -0.074   6.213   2.258  0.1603  0.3576  0.3741
  192SAPI   HO322117  -0.113   6.166   2.331  0.2087  0.6153  0.5691
  192SAPI   C1422118   0.094   6.295   2.418  0.1078 -0.2238  0.0336
  192SAPI    H422119   0.054   6.398   2.409 -3.3512 -1.3039  1.2531
  192SAPI    O422120   0.014   6.267   2.533 -0.2628 -0.1664  0.5443
  192SAPI   HO422121  -0.048   6.338   2.554 -0.2224  0.2506 -0.6341
  192SAPI   C1522122   0.246   6.292   2.455  0.6669  0.3525  0.1486
  192SAPI    H522123   0.268   6.183   2.467 -2.2145 -0.3989 -0.5423
  192SAPI    O522124   0.276   6.365   2.577  0.2550  0.0608  0.0343
  192SAPI   HO522125   0.372   6.378   2.572  0.4233 -0.9091  0.6833
  192SAPI   C1622126   0.332   6.350   2.342 -0.0414  0.3421 -0.6761
  192SAPI    H622127   0.310   6.459   2.346  1.6148  0.7792 -2.0326
  192SAPI    O622128   0.468   6.327   2.370  0.0174  0.0273 -0.2615
  192SAPI   HO622129   0.520   6.381   2.311 -1.9753  3.5304  0.9262
  192SAPI   C1122130   0.289   6.312   2.197  0.4205  0.2529 -0.3927
  192SAPI    H122131   0.325   6.210   2.176 -1.3562  0.3251 -4.6614
  192SAPI     P22132   0.506   6.396   2.055 -0.2952 -0.3538 -0.2517
  192SAPI   O1322133   0.528   6.499   1.949  0.3989 -0.4903 -0.3257
  192SAPI   O1422134   0.539   6.257   2.017  0.2521  0.1824 -0.0195
  192SAPI   O1222135   0.354   6.408   2.112  0.1689 -0.1552  1.1178
  192SAPI   O1122136   0.606   6.445   2.174 -0.2380  0.2651 -0.1806
  192SAPI    C122137   0.747   6.423   2.160  0.5285  0.0532  0.8486
  192SAPI    HA22138   0.777   6.347   2.085  0.2316 -1.1904  1.9594
  192SAPI    HB22139   0.786   6.520   2.124 -0.2868  0.0611 -0.0797
  192SAPI    C222140   0.837   6.376   2.278  0.8700 -0.1522 -0.1998
  192SAPI    HS22141   0.848   6.266   2.267  0.6037 -0.4766  2.2172
  192SAPI   O2122142   0.768   6.413   2.401 -0.2446  0.2618 -0.7543
  192SAPI   C2122143   0.817   6.367   2.517  0.2658  0.1701 -0.1300
  192SAPI   O2222144   0.898   6.278   2.514  0.3254 -0.1182 -0.0850
  192SAPI   C2222145   0.759   6.436   2.642  0.5234  0.2144  0.6915
  192SAPI   H2R22146   0.710   6.527   2.600 -0.0033 -1.0217 -1.5469
  192SAPI   H2S22147   0.683   6.367   2.685 -0.0596  0.3017 -0.1516
  192SAPI    C322148   0.975   6.445   2.264 -0.4526 -0.4944  1.0220
  192SAPI    HX22149   1.010   6.416   2.162 -1.3269  0.8014  0.3256
  192SAPI    HY22150   1.046   6.400   2.337 -2.8740 -1.5864  2.8250
  192SAPI   O3122151   0.961   6.595   2.272  0.2823 -0.1171  0.9221
  192SAPI   C3122152   1.007   6.655   2.383 -0.2428 -0.1430 -0.4191
  192SAPI   O3222153   1.045   6.596   2.481  0.1627 -0.2429  0.2139
  192SAPI   C3222154   1.036   6.798   2.360 -0.0572 -0.3966  0.3164
  192SAPI   H2X22155   1.098   6.822   2.272  2.2299 -0.3990  1.8375
  192SAPI   H2Y22156   1.087   6.842   2.448 -0.8167  0.7938  0.1855
  192SAPI   C2322157   0.870   6.496   2.738 -0.0250  0.1233  0.3584
  192SAPI   H3R22158   0.931   6.560   2.670 -0.6566  1.0404  0.6401
  192SAPI   H3S22159   0.924   6.416   2.792 -1.8305 -0.0087  2.0475
  192SAPI   C2422160   0.825   6.593   2.847 -0.3957  0.2185 -0.0550
  192SAPI   H4R22161   0.803   6.691   2.800  0.4839  0.8110  0.7447
  192SAPI   H4S22162   0.913   6.608   2.912 -0.4686  0.3999  0.0012
  192SAPI   C2522163   0.709   6.556   2.936  0.7177  0.3470  0.2500
  192SAPI   H5R22164   0.610   6.587   2.899  1.3848  1.4716 -0.6567
  192SAPI   C2622165   0.722   6.496   3.053  0.4750  0.1358  0.4548
  192SAPI   H6R22166   0.625   6.492   3.105  1.2028  0.9538  1.9407
  192SAPI   C2722167   0.852   6.450   3.113  0.3741 -0.0909 -0.1909
  192SAPI   H7R22168   0.903   6.539   3.156  1.3356 -1.9826  2.8477
  192SAPI   H7S22169   0.919   6.397   3.041 -0.6357 -1.9521  0.1738
  192SAPI   C2822170   0.830   6.349   3.223  0.5632  0.7430  0.4539
  192SAPI   H8R22171   0.804   6.251   3.180 -0.0610  1.5627 -1.1342
  192SAPI   C2922172   0.850   6.371   3.349 -0.8825  0.2578  0.4690
  192SAPI   H9R22173   0.820   6.288   3.415 -1.3303  0.6840  0.8137
  192SAPI  C21022174   0.900   6.500   3.412  0.1490  0.2068 -0.3448
  192SAPI  H10R22175   0.970   6.550   3.342 -1.0285  2.1467 -0.2237
  192SAPI  H10S22176   0.967   6.473   3.496 -0.7852 -0.7107  0.1284
  192SAPI  C21122177   0.795   6.596   3.463  0.2814  0.0683  0.2790
  192SAPI  H11R22178   0.712   6.609   3.392  1.7698 -1.0959 -1.8126
  192SAPI  C21222179   0.788   6.647   3.584 -0.0983 -0.2756 -0.4147
  192SAPI  H12R22180   0.710   6.719   3.610  1.1646  0.2267  2.4410
  192SAPI  C21322181   0.884   6.621   3.700 -0.0916  0.1707  0.1533
  192SAPI  H13R22182   0.966   6.549   3.680  0.9770  1.3345  0.1753
  192SAPI  H13S22183   0.830   6.571   3.783 -0.1859  1.2029  0.7366
  192SAPI  C21422184   0.958   6.751   3.739 -0.1409 -0.6789 -0.2803
  192SAPI  H14R22185   1.016   6.794   3.656 -1.5822 -0.1411 -1.0315
  192SAPI  C21522186   0.945   6.819   3.849  1.2167 -0.1058 -0.3057
  192SAPI  H15R22187   1.010   6.907   3.855  2.7398 -1.1837 -0.4507
  192SAPI  C21622188   0.860   6.781   3.968  0.0456  0.7152 -0.0998
  192SAPI  H16R22189   0.894   6.845   4.051 -0.6811  0.9328  0.0404
  192SAPI  H16S22190   0.878   6.675   3.998 -3.8615  0.0098  0.3346
  192SAPI  C21722191   0.709   6.796   3.941 -0.0997  0.1533 -0.8546
  192SAPI  H17R22192   0.677   6.732   3.857 -0.2231  0.8444 -1.3435
  192SAPI  H17S22193   0.700   6.902   3.909 -0.4023  0.4351  0.1105
  192SAPI  C21822194   0.617   6.762   4.063 -0.1832  0.2133  0.2048
  192SAPI  H18R22195   0.529   6.829   4.070 -0.2561  0.2174 -0.6307
  192SAPI  H18S22196   0.680   6.800   4.147  1.4025 -0.8312 -0.4608
  192SAPI  C21922197   0.584   6.611   4.081 -0.0577  0.0918  0.1219
  192SAPI  H19R22198   0.679   6.555   4.095  0.1474  0.3173 -0.3239
  192SAPI  H19S22199   0.550   6.574   3.981  6.0141 -1.3638 -1.8202
  192SAPI  C22022200   0.502   6.577   4.211  0.1465  0.3990  0.2540
  192SAPI  H20R22201   0.549   6.617   4.304  0.9152 -2.4196  1.1615
  192SAPI  H20S22202   0.507   6.471   4.242 -1.5647  0.7479  1.9136
  192SAPI  H20T22203   0.395   6.604   4.201 -0.3171 -1.9022 -1.7362
  192SAPI   C3322204   0.907   6.884   2.359 -0.3607  0.0423 -0.3998
  192SAPI   H3X22205   0.843   6.857   2.273 -0.3462 -1.6888  0.1023
  192SAPI   H3Y22206   0.949   6.987   2.350  1.0114 -0.5190 -0.5891
  192SAPI   C3422207   0.836   6.872   2.492  0.3722  0.7683 -0.3363
  192SAPI   H4X22208   0.901   6.908   2.575 -2.1601 -0.8035  2.5138
  192SAPI   H4Y22209   0.800   6.771   2.519  1.6280  0.6438  0.9634
  192SAPI   C3522210   0.707   6.963   2.483  0.0488  0.9311 -0.3345
  192SAPI   H5X22211   0.639   6.934   2.399 -1.3234  1.7032  0.4738
  192SAPI   H5Y22212   0.745   7.065   2.461  4.0876 -0.6484 -1.7229
  192SAPI   C3622213   0.625   6.971   2.615 -0.2879  0.3595  0.0598
  192SAPI   H6X22214   0.578   6.872   2.634  0.7201  0.2138  1.9645
  192SAPI   H6Y22215   0.540   7.043   2.608 -0.3952  0.2471  0.1976
  192SAPI   C3722216   0.699   7.012   2.744 -0.1439  0.0087 -0.3238
  192SAPI   H7X22217   0.768   7.099   2.736  0.1580 -0.1150  0.6727
  192SAPI   H7Y22218   0.768   6.928   2.769  0.6618  0.2754 -1.5574
  192SAPI   C3822219   0.604   7.040   2.863 -0.3835 -0.3237 -0.6825
  192SAPI   H8X22220   0.530   6.959   2.876  1.5965 -1.8449  2.2753
  192SAPI   H8Y22221   0.547   7.135   2.853 -0.6515 -0.5030 -0.8701
  192SAPI   C3922222   0.675   7.039   3.001  0.1783 -0.0834 -0.3217
  192SAPI   H9X22223   0.605   7.087   3.072 -0.1013 -0.4231 -0.3655
  192SAPI   H9Y22224   0.774   7.089   3.001 -0.0662  0.4044 -0.2447
  192SAPI  C31022225   0.709   6.894   3.057  0.4376  0.0218 -0.6931
  192SAPI  H10X22226   0.753   6.835   2.974  0.4913  0.1110 -0.7285
  192SAPI  H10Y22227   0.611   6.848   3.082  1.2080 -0.7265  1.1034
  192SAPI  C31122228   0.786   6.883   3.185  1.1008 -0.3746 -0.0921
  192SAPI  H11X22229   0.886   6.924   3.162  1.1284  0.3107  1.1606
  192SAPI  H11Y22230   0.789   6.779   3.224 -1.4138 -0.9467 -1.2171
  192SAPI  C31222231   0.730   6.980   3.288 -0.2835 -0.3051 -0.3862
  192SAPI  H12X22232   0.626   6.944   3.307 -0.5401  1.2731  1.5370
  192SAPI  H12Y22233   0.728   7.081   3.243  1.4469 -0.3969 -0.7453
  192SAPI  C31322234   0.804   6.991   3.423 -0.2657 -0.0835 -0.0750
  192SAPI  H13X22235   0.903   7.036   3.405 -0.3536  0.5154  0.8766
  192SAPI  H13Y22236   0.806   6.892   3.474 -2.6136 -0.8737 -1.3674
  192SAPI  C31422237   0.735   7.084   3.525 -0.0523  0.1048  0.3000
  192SAPI  H14X22238   0.629   7.057   3.546  0.3125 -0.8120  1.0565
  192SAPI  H14Y22239   0.732   7.184   3.477  1.4554 -0.1032 -0.2685
  192SAPI  C31522240   0.811   7.110   3.654  0.0353  0.3228  0.9810
  192SAPI  H15X22241   0.914   7.147   3.639  0.0269  0.0161  0.1339
  192SAPI  H15Y22242   0.814   7.008   3.697 -2.6399  0.3548  1.4492
  192SAPI  C31622243   0.756   7.226   3.743 -0.1043 -0.4862  0.1599
  192SAPI  H16X22244   0.755   7.324   3.690  2.2097 -0.2005  0.5410
  192SAPI  H16Y22245   0.824   7.238   3.830 -1.3634 -1.7227  1.3498
  192SAPI  C31722246   0.619   7.194   3.806  0.6627  0.4416 -0.4519
  192SAPI  H17X22247   0.627   7.089   3.841  1.0290  0.7466  0.3868
  192SAPI  H17Y22248   0.532   7.194   3.736  0.2817  1.6042 -0.0143
  192SAPI  C31822249   0.605   7.293   3.925  0.3136  0.2998 -0.4517
  192SAPI  H18X22250   0.568   7.392   3.890 -2.8590 -0.7693 -0.3860
  192SAPI  H18Y22251   0.699   7.292   3.985 -0.7696 -1.2748  1.3267
  192SAPI  H18Z22252   0.526   7.246   3.987  2.3009 -1.8270  0.6111
  193SOD    SOD22253   6.710   6.422   2.156  0.2735  0.0777 -0.2804
  194SOD    SOD22254   2.231   2.569   7.332 -0.1886 -0.1068 -0.1652
  195SOD    SOD22255   2.612   0.598   7.104 -0.2752 -0.1025  0.5065
  196SOD    SOD22256   2.356   4.254   6.792 -0.4891 -0.4306 -0.1766
  197SOD    SOD22257   3.666   2.524   1.401 -0.0529 -0.4035  0.1248
  198SOD    SOD22258   1.590   6.184   2.382 -0.5285  0.4414 -0.2578
  199SOD    SOD22259   2.257   5.119   2.135  0.1560  0.0736 -0.2409
  200SOD    SOD22260   1.654   3.807   6.352 -0.0473  0.6284 -0.0866
  201SOD    SOD22261   6.256   1.545   0.026 -0.3206 -0.2962 -0.2783
  202SOD    SOD22262   3.225   2.065   8.357  0.1004  0.4166  0.3265
  203SOD    SOD22263   5.233   6.397   7.846  0.3820  0.0622 -0.0201
  204SOD    SOD22264   0.968   0.168   6.822  0.2636  0.0914  0.0814
  205SOD    SOD22265   4.917   3.540   1.611  0.2674  0.2542  0.2104
  206SOD    SOD22266   6.058   3.509   6.804 -0.3172 -0.1467 -0.9159
  207SOD    SOD22267   3.835   0.751   6.755 -0.0451  0.4846 -0.0609
  208SOD    SOD22268   3.562   1.482   1.735  0.0179  0.1651 -0.4553
  209SOD    SOD22269   0.978   2.389   0.002 -0.2149 -0.7593 -0.3984
  210SOD    SOD22270   6.667   3.162   7.558  0.3729  0.4676  0.4897
  211SOD    SOD22271   4.784   5.729   6.612 -0.1104 -0.1166 -0.2261
  212SOD    SOD22272   5.051   3.075   1.625  0.2704  0.0753 -0.2293
  213SOD    SOD22273   4.414   1.591   1.790  0.0588  0.2034 -0.1792
  214SOD    SOD22274   4.313   4.959   8.216 -0.0289  0.1927 -0.2313
  215SOD    SOD22275   6.357   1.263   7.317 -0.1653  0.4789  0.1994
  216SOD    SOD22276   1.566   5.602   7.096  0.2149 -0.1320  0.3824
  217SOD    SOD22277   5.587   6.175   0.106  0.2394 -0.0834 -0.3477
  218SOD    SOD22278   0.579   2.615   1.458  0.1957 -0.0763  0.4902
  219SOD    SOD22279   2.506   4.468   7.331 -0.3236 -0.3049 -0.5176
  220SOD    SOD22280   5.906   0.059   7.289  0.2009 -0.1232  0.7411
  221SOD    SOD22281   2.769   2.144   0.958 -0.3019 -0.4983 -0.4267
  222SOD    SOD22282   6.282   0.791   6.783 -0.0650 -0.3746 -0.2738
  223SOD    SOD22283   3.100   0.653   1.336  0.0561  0.2321 -0.3201
  224SOD    SOD22284   1.773   1.140   1.807  0.1321  0.2085 -0.2380
  225SOD    SOD22285   3.640   1.596   7.441 -0.2527 -0.1549 -0.1599
  226SOD    SOD22286   5.882   3.149   1.718  0.3590  0.0787  0.0720
  227SOD    SOD22287   2.458   2.747   1.926  0.1180 -0.3189 -0.6272
  228SOD    SOD22288   6.652   5.457   8.542  0.1164  1.0110  0.1424
  229SOD    SOD22289   6.324   4.292   0.989  0.2090  0.8129  0.6172
  230SOD    SOD22290   5.353   0.298   0.713  0.4012 -0.0620 -0.4283
  231SOD    SOD22291   4.125   3.823   8.435  0.4245  0.8188 -0.0385
  232SOD    SOD22292   0.351   6.812   0.537  0.1963  0.0728 -0.0311
  233SOD    SOD22293   2.904   3.047   8.470 -0.0881 -0.2572 -0.1180
  234CLA    CLA22294   6.773   3.429   0.694 -0.1438  0.0542  0.7390
  235CLA    CLA22295   3.152   5.289   1.361 -0.0113  0.0951  0.0782
  236CLA    CLA22296   2.700   1.299   7.078  0.3581 -0.0188  0.2697
  237CLA    CLA22297   6.684   1.625   0.475  0.0129  0.2262 -0.4410
  238CLA    CLA22298   3.209   1.502   8.385 -0.3458  0.0609 -0.1126
  239CLA    CLA22299   0.781   1.874   7.785  0.0835 -0.0193 -0.0935
  240CLA    CLA22300   3.932   2.289   8.483  0.2890 -0.2451 -0.2349
  241CLA    CLA22301   3.027   6.128   8.066  0.2963  0.2358  0.1483
  242CLA    CLA22302   2.790   2.595   0.035 -0.1367 -0.3229 -0.1783
  243CLA    CLA22303   5.934   6.043   7.135 -0.3536  0.0864  0.0901
  244CLA    CLA22304   0.369   0.631   0.640  0.0245  0.0274  0.6821
  245CLA    CLA22305   0.206   2.201   7.562  0.5744 -0.1044  0.1272
  246CLA    CLA22306   5.424   1.985   7.759 -0.0786 -0.1207 -0.4484
  247CLA    CLA22307   5.330   2.117   8.198  0.4404  0.1442 -0.1478
  248CLA    CLA22308   5.372   6.728   7.426 -0.0017  0.4965 -0.2936
  249CLA    CLA22309   0.419   5.131   0.723  0.2147 -0.0310  0.2016
  250CLA    CLA22310   5.398   4.061   0.189  0.3828 -0.1340 -0.0233
  251TIP3   OH222311   3.709   3.338   8.082  0.2672 -0.0625 -0.0722
  251TIP3    H122312   3.733   3.425   8.113 -2.4741  1.0165 -0.6824
  251TIP3    H222313   3.792   3.289   8.082  1.2985  1.2663  4.0623
  252TIP3   OH222314   5.237   1.163   1.437  0.4909  0.1481 -1.0696
  252TIP3    H122315   5.196   1.247   1.415  1.0610  0.3024 -1.5841
  252TIP3    H222316   5.301   1.185   1.504 -1.6506 -0.4121  1.2884
  253TIP3   OH222317   5.953   3.106   0.999  0.0933  0.1331  0.2849
  253TIP3    H122318   5.961   3.025   0.948  0.0690 -0.9898  1.9575
  253TIP3    H222319   5.889   3.084   1.068 -2.0028  2.4482 -0.7750
  254TIP3   OH222320   0.475   0.677   1.626 -0.1240  0.5067 -0.4113
  254TIP3    H122321   0.423   0.672   1.545 -2.3182 -0.8112  0.9674
  254TIP3    H222322   0.442   0.756   1.670  1.9833  1.9760 -1.2931
  255TIP3   OH222323   3.570   0.634   1.471 -0.0823 -0.5084 -0.1171
  255TIP3    H122324   3.531   0.711   1.429  0.1352  0.6353  1.6561
  255TIP3    H222325   3.651   0.618   1.423 -0.2629  0.2157 -0.6720
  256TIP3   OH222326   0.104   3.904   1.922  0.0589  0.2230 -0.0883
  256TIP3    H122327   0.013   3.933   1.919 -0.1284 -0.2454  0.8678
  256TIP3    H222328   0.153   3.982   1.949 -0.1718  0.2276  0.3171
  257TIP3   OH222329   5.458   6.753   0.518  0.3838 -0.3674  0.1420
  257TIP3    H122330   5.374   6.715   0.490  0.0577 -0.5530  1.3185
  257TIP3    H222331   5.479   6.816   0.450 -0.6623 -0.4006 -0.2359
  258TIP3   OH222332   3.405   2.917   8.439 -0.2362  0.1084  0.1212
  258TIP3    H122333   3.359   2.892   8.359  0.8183 -0.6368 -0.2717
  258TIP3    H222334   3.422   2.835   8.484  0.9225  0.3366  0.1283
  259TIP3   OH222335   0.233   0.027   1.233 -0.8314  0.6238 -0.0210
  259TIP3    H122336   0.150   0.069   1.210 -1.1329 -0.6705 -1.4341
  259TIP3    H222337   0.291   0.047   1.160 -0.0161  1.1341  0.7447
  260TIP3   OH222338   6.405   3.276   8.054  0.5755 -0.2311 -0.3411
  260TIP3    H122339   6.465   3.282   8.128 -0.9448 -0.8611  1.0167
  260TIP3    H222340   6.354   3.197   8.072 -0.1345 -0.1405 -1.8475
  261TIP3   OH222341   4.060   0.620   0.609  0.5093  0.3726 -0.1596
  261TIP3    H122342   4.129   0.559   0.632  1.0307  0.2071 -1.9941
  261TIP3    H222343   3.997   0.615   0.681  1.7569 -0.4489  0.8992
  262TIP3   OH222344   0.215   6.249   8.226  0.0323  0.2793 -0.1774
  262TIP3    H122345   0.289   6.263   8.286 -1.8225  3.8306  1.5602
  262TIP3    H222346   0.241   6.294   8.145  0.8318 -0.9156 -0.6175
  263TIP3   OH222347   6.682   6.104   7.034  0.3225 -0.3406 -0.1968
  263TIP3    H122348   6.695   6.021   7.079 -0.9471  0.6501  2.1637
  263TIP3    H222349   6.654   6.079   6.946  0.8641 -2.3943  0.1657
  264TIP3   OH222350   1.306   6.617   0.523  0.2804 -0.0229 -0.1619
  264TIP3    H122351   1.332   6.541   0.575 -0.9147 -1.1707 -1.1714
  264TIP3    H222352   1.222   6.591   0.483 -0.5161  2.0894  0.0169
  265TIP3   OH222353   0.626   4.718   0.051 -0.1881 -0.4846  0.3600
  265TIP3    H122354   0.588   4.775  -0.016  0.4105 -0.0765  0.3630
  265TIP3    H222355   0.707   4.685   0.012  2.3528  2.8791  2.2349
  266TIP3   OH222356   1.622   3.718   1.997 -0.2636  0.0134  0.2059
  266TIP3    H122357   1.708   3.706   2.037  0.2674 -1.1708 -1.1649
  266TIP3    H222358   1.572   3.641   2.025  0.7191 -1.8627 -2.6978
  267TIP3   OH222359   6.449   0.139   2.035 -0.2037  0.3479  0.1040
  267TIP3    H122360   6.488   0.226   2.025 -1.1375  0.9008  1.1685
  267TIP3    H222361   6.490   0.104   2.114  0.4480 -0.3579 -0.5257
  268TIP3   OH222362   6.223   2.584   8.575  0.1664  0.4099 -0.0837
  268TIP3    H122363   6.231   2.490   8.590 -0.8249  0.6335  2.1198
  268TIP3    H222364   6.154   2.613   8.634  0.8585  2.6330 -0.2553
  269TIP3   OH222365   6.420   4.648   1.181  0.1427  0.4427  0.8226
  269TIP3    H122366   6.352   4.644   1.249 -0.4104  0.5285  0.2813
  269TIP3    H222367   6.440   4.741   1.173 -0.7455  0.5809 -0.0462
  270TIP3   OH222368   2.945   0.815   8.060  0.0015 -0.3433 -0.8410
  270TIP3    H122369   3.022   0.854   8.017 -0.8095  0.5091 -1.5515
  270TIP3    H222370   2.948   0.723   8.034  1.4065 -0.5934  0.0775
  271TIP3   OH222371   0.207   0.643   8.205 -0.6428 -0.2337 -0.0439
  271TIP3    H122372   0.113   0.627   8.213 -0.7160 -0.5562 -1.3577
  271TIP3    H222373   0.219   0.678   8.116  0.4589 -0.0295  0.1627
  272TIP3   OH222374   4.720   5.919   6.463 -0.3747  0.1457  0.3848
  272TIP3    H122375   4.751   5.898   6.375  0.6929 -0.2672  0.8493
  272TIP3    H222376   4.746   6.011   6.476 -1.6022  0.5968 -0.1669
  273TIP3   OH222377   3.611   0.838   1.682  0.3093 -0.2298 -0.2178
  273TIP3    H122378   3.521   0.805   1.690  0.0465  0.7145  1.1403
  273TIP3    H222379   3.600   0.932   1.669  1.0992 -0.0508  0.3546
  274TIP3   OH222380   5.685   1.835   2.275 -0.1013 -0.2926 -0.2449
  274TIP3    H122381   5.670   1.922   2.237 -0.2160  0.3057  1.1092
  274TIP3    H222382   5.706   1.852   2.367 -0.9434 -1.7416  0.2542
  275TIP3   OH222383   5.851   3.370   1.655  0.3488 -0.3845  0.2824
  275TIP3    H122384   5.813   3.448   1.695 -1.9496 -0.7469 -0.9735
  275TIP3    H222385   5.866   3.394   1.563 -1.3565 -1.6325 -0.3819
  276TIP3   OH222386   5.429   4.798   0.185  0.0081  0.2433 -0.1396
  276TIP3    H122387   5.467   4.877   0.223 -0.5683 -0.0412  1.1049
  276TIP3    H222388   5.430   4.734   0.257  0.8284 -1.0267 -1.2244
  277TIP3   OH222389   1.202   0.165   1.104  0.4206  0.1561 -0.0207
  277TIP3    H122390   1.139   0.235   1.123 -0.3016 -0.5122  0.1042
  277TIP3    H222391   1.199   0.156   1.009 -0.9336 -1.0011  0.1104
  278TIP3   OH222392   5.695   1.108   0.246  0.7008 -0.4012 -0.6742
  278TIP3    H122393   5.731   1.196   0.252  1.8229 -0.7769 -1.5118
  278TIP3    H222394   5.603   1.121   0.223  0.0546  0.6001  2.0740
  279TIP3   OH222395   2.385   3.298   8.568 -0.1596  0.0022 -0.4125
  279TIP3    H122396   2.294   3.277   8.588 -0.6031  1.6237 -0.6335
  279TIP3    H222397   2.408   3.237   8.497 -0.9671 -0.6348 -0.1404
  280TIP3   OH222398   0.847   0.947   8.113  0.0601 -0.3996 -0.1260
  280TIP3    H122399   0.917   0.957   8.177 -0.3445  1.8222  0.0492
  280TIP3    H222400   0.873   1.003   8.040 -1.1108 -0.2197 -0.4287
  281TIP3   OH222401   4.146   4.308   7.770  0.1856  0.3653  0.4991
  281TIP3    H122402   4.170   4.356   7.850 -0.8736  0.3466  0.8542
  281TIP3    H222403   4.061   4.269   7.791  0.5331 -0.7802 -0.1723
  282TIP3   OH222404   6.660   4.736   0.557 -0.9458 -0.2132 -0.3048
  282TIP3    H122405   6.690   4.818   0.516 -1.5234  0.2206  0.1190
  282TIP3    H222406   6.704   4.735   0.642 -2.0935  0.4311  0.3247
  283TIP3   OH222407   0.548   5.376   8.323  0.2436  0.1292  0.1243
  283TIP3    H122408   0.604   5.316   8.273 -0.2325 -0.0299 -0.2243
  283TIP3    H222409   0.499   5.319   8.382  0.8061  0.3159  0.7941
  284TIP3   OH222410   2.204   0.064   0.151 -0.1204  0.0961 -0.5885
  284TIP3    H122411   2.245   0.016   0.080  0.7561  1.1876 -0.8487
  284TIP3    H222412   2.161   0.138   0.108  0.8197  1.0348  0.0380
  285TIP3   OH222413   2.941   3.327   6.846 -0.0462 -0.9444  0.2740
  285TIP3    H122414   2.919   3.277   6.925 -1.2337  0.8625  1.1662
  285TIP3    H222415   2.896   3.280   6.775 -1.7272 -0.8049  1.1863
  286TIP3   OH222416   1.324   4.404   6.296 -0.3379 -0.2872  0.2297
  286TIP3    H122417   1.293   4.424   6.384  1.3050  0.6564  0.6278
  286TIP3    H222418   1.258   4.442   6.238 -1.8803 -1.6658  1.0175
  287TIP3   OH222419   0.986   5.708   1.368 -0.5850  0.6487 -0.2338
  287TIP3    H122420   1.067   5.760   1.364  0.1240 -0.4223 -0.2293
  287TIP3    H222421   1.005   5.629   1.317 -0.7401 -0.7752  1.7791
  288TIP3   OH222422   2.677   0.717   6.911  0.6191 -0.2040  0.0450
  288TIP3    H122423   2.585   0.714   6.885 -0.0952  0.2738  2.2995
  288TIP3    H222424   2.695   0.811   6.923  1.7557 -0.1950 -1.3820
  289TIP3   OH222425   6.093   4.257   8.575 -0.1529  0.3900 -0.4355
  289TIP3    H122426   6.116   4.221   8.489 -2.0386 -0.1178 -0.7677
  289TIP3    H222427   6.062   4.182   8.625 -0.0260  0.8531  0.3602
  290TIP3   OH222428   5.536   1.129   8.473 -0.1178  0.4198  0.1201
  290TIP3    H122429   5.626   1.124   8.504  0.8675  0.4099 -2.5116
  290TIP3    H222430   5.533   1.208   8.419 -0.9825 -0.8613 -1.8034
  291TIP3   OH222431   3.398   0.706   0.797 -0.3715  0.2004 -0.5661
  291TIP3    H122432   3.383   0.718   0.703 -0.1531  1.4937 -0.4577
  291TIP3    H222433   3.493   0.711   0.807 -0.4450  1.0509 -0.1744
  292TIP3   OH222434   1.697   6.739   6.785  0.0360  0.2159  0.2782
  292TIP3    H122435   1.792   6.748   6.791 -0.0385  1.0474  0.2869
  292TIP3    H222436   1.666   6.749   6.874 -0.1131  0.6337  0.1805
  293TIP3   OH222437   4.579   2.219   7.748  0.0714 -0.6960 -0.0059
  293TIP3    H122438   4.635   2.207   7.825  1.0527 -0.6301 -0.6851
  293TIP3    H222439   4.589   2.312   7.726  1.3896 -1.1271 -1.3768
  294TIP3   OH222440   2.901   0.517   7.746 -0.4723 -0.2916  0.5935
  294TIP3    H122441   2.930   0.444   7.691  0.4522  0.9298 -0.6133
  294TIP3    H222442   2.851   0.573   7.687  0.7456  1.1746  0.8710
  295TIP3   OH222443   6.193   4.629   2.411  0.0025 -0.1502  0.0217
  295TIP3    H122444   6.219   4.646   2.501  0.0977  0.1419 -0.0577
  295TIP3    H222445   6.100   4.606   2.417 -0.3899  1.2871  0.0609
  296TIP3   OH222446   5.864   2.339   7.957 -0.7024  0.5065 -0.0653
  296TIP3    H122447   5.855   2.295   7.873 -1.3168  2.0586 -0.8493
  296TIP3    H222448   5.838   2.430   7.940  0.7752  1.2737  1.3966
  297TIP3   OH222449   6.552   0.969   7.937 -0.0920 -0.0377 -0.1231
  297TIP3    H122450   6.536   1.009   8.023  0.7868 -0.7346  0.3869
  297TIP3    H222451   6.467   0.936   7.910 -0.3066 -0.1940  0.6961
  298TIP3   OH222452   0.339   0.190   7.601  0.0391 -0.4231  0.1498
  298TIP3    H122453   0.299   0.202   7.514  1.4059 -0.9479 -0.5766
  298TIP3    H222454   0.382   0.273   7.620 -0.2681 -0.3051  0.3445
  299TIP3   OH222455   0.605   4.198   7.355 -0.0878  0.1911 -0.1462
  299TIP3    H122456   0.546   4.266   7.322  0.7929 -0.2553 -2.8209
  299TIP3    H222457   0.555   4.117   7.349 -0.3065  0.2462  0.7608
  300TIP3   OH222458   6.544   1.736   7.100  0.1415 -0.3980 -0.0769
  300TIP3    H122459   6.626   1.737   7.050 -1.0176  1.1262 -2.0736
  300TIP3    H222460   6.486   1.678   7.051 -0.4436 -0.3523  0.5408
  301TIP3   OH222461   2.260   1.655   8.358  0.2811 -0.1718  0.1341
  301TIP3    H122462   2.338   1.600   8.352 -0.0256 -0.6147  0.2001
  301TIP3    H222463   2.237   1.655   8.451 -1.2668 -2.1242 -0.1764
  302TIP3   OH222464   0.886   6.114   8.192 -0.1134 -0.0852  0.1647
  302TIP3    H122465   0.960   6.053   8.203  0.6269  1.0527  1.8511
  302TIP3    H222466   0.809   6.058   8.196  0.5980 -1.3674 -2.0422
  303TIP3   OH222467   6.569   3.951   8.596 -0.7370  0.1562  0.0290
  303TIP3    H122468   6.493   3.925   8.543 -0.3887 -1.3492  0.2043
  303TIP3    H222469   6.597   4.034   8.559 -2.1766  0.5057 -0.3523
  304TIP3   OH222470   4.299   4.467   0.470 -0.1711 -0.5270 -0.2726
  304TIP3    H122471   4.378   4.510   0.500 -0.6707 -0.1284  0.5013
  304TIP3    H222472   4.291   4.389   0.526  0.6451 -1.5662 -1.5580
  305TIP3   OH222473   5.879   0.186   1.448  0.7235  0.3420 -0.1032
  305TIP3    H122474   5.867   0.210   1.540  1.3120 -0.8801  0.3108
  305TIP3    H222475   5.855   0.094   1.444  1.7443  0.0888 -0.9526
  306TIP3   OH222476   3.932   2.687   8.628  0.0887 -0.0562 -0.2994
  306TIP3    H122477   3.839   2.695   8.606  0.1068  0.4047 -0.2283
  306TIP3    H222478   3.936   2.614   8.690 -0.1577 -0.3944 -0.6749
  307TIP3   OH222479   5.488   0.849   2.111  0.3784  0.2600  0.4942
  307TIP3    H122480   5.422   0.781   2.109  1.3132 -0.6785  0.4594
  307TIP3    H222481   5.526   0.843   2.199  1.6867 -0.4997 -0.0957
  308TIP3   OH222482   1.778   6.359   0.174  0.2797 -0.2387 -0.5004
  308TIP3    H122483   1.753   6.401   0.092  1.2180 -0.8280 -1.1165
  308TIP3    H222484   1.860   6.403   0.199  0.2254 -0.3561 -0.1050
  309TIP3   OH222485   0.345   4.552   8.501  0.9748 -0.0218  0.6287
  309TIP3    H122486   0.370   4.472   8.455  2.8435  0.6797  0.3639
  309TIP3    H222487   0.365   4.535   8.593  1.1118  0.0452  0.6111
  310TIP3   OH222488   3.177   6.266   0.038  0.3197 -0.2891 -0.2825
  310TIP3    H122489   3.186   6.230   0.126 -1.4744  1.1214  0.5388
  310TIP3    H222490   3.220   6.202  -0.019  2.0935 -0.9226  1.6481
  311TIP3   OH222491   6.422   6.624   1.782  0.8448  0.3104 -0.4550
  311TIP3    H122492   6.416   6.718   1.793 -0.3271  0.3022 -0.8339
  311TIP3    H222493   6.479   6.595   1.853 -0.7802  1.0428  1.2531
  312TIP3   OH222494   3.204   5.644   6.889  0.1665  0.0500 -0.7756
  312TIP3    H122495   3.186   5.631   6.982  1.0267  0.1857 -0.5805
  312TIP3    H222496   3.156   5.723   6.866  1.3108  0.9966 -0.0168
  313TIP3   OH222497   4.265   3.646   7.551 -0.1303 -0.6726 -0.5640
  313TIP3    H122498   4.301   3.729   7.581  0.3344 -1.7540  2.1366
  313TIP3    H222499   4.341   3.589   7.538 -0.5483 -1.9575  1.9572
  314TIP3   OH222500   5.255   3.926   2.183 -0.0316 -0.3816  0.4253
  314TIP3    H122501   5.333   3.875   2.205  0.7370  1.3131  1.8648
  314TIP3    H222502   5.219   3.953   2.268 -1.0285  0.5385 -0.2667
  315TIP3   OH222503   5.688   5.218   1.009 -0.2455  0.2208 -0.4948
  315TIP3    H122504   5.671   5.148   1.072  0.6513 -0.6871 -1.2158
  315TIP3    H222505   5.627   5.288   1.032 -0.9889 -0.7066  0.3998
  316TIP3   OH222506   5.451   6.083   7.108  0.3326  0.1995  0.6322
  316TIP3    H122507   5.449   6.145   7.036 -2.6525 -0.7115 -0.2025
  316TIP3    H222508   5.516   6.018   7.082  0.2007  0.5585 -0.6633
  317TIP3   OH222509   6.145   2.477   0.405  0.3287  0.0580 -0.3287
  317TIP3    H122510   6.143   2.467   0.500 -0.5898 -0.4901 -0.3954
  317TIP3    H222511   6.120   2.391   0.371 -3.0124  1.1420 -0.9866
  318TIP3   OH222512   3.540   5.850   6.992 -0.1133  0.2344  0.5378
  318TIP3    H122513   3.548   5.788   7.064 -1.7118 -0.6698 -0.0111
  318TIP3    H222514   3.573   5.803   6.916  0.9213  0.9385  0.5380
  319TIP3   OH222515   5.299   5.219   0.520 -0.2725  0.2315 -0.1979
  319TIP3    H122516   5.376   5.216   0.577  0.0868 -1.7472 -0.6994
  319TIP3    H222517   5.284   5.312   0.504  0.8315  0.7374  1.4771
  320TIP3   OH222518   2.619   4.927   0.709  0.1104 -0.3597 -0.2642
  320TIP3    H122519   2.636   4.851   0.654 -0.2686 -0.0393 -0.8300
  320TIP3    H222520   2.639   5.002   0.653  1.0728 -0.0436  0.4836
  321TIP3   OH222521   5.085   5.304   7.523  0.5648  0.2237 -0.3225
  321TIP3    H122522   5.046   5.247   7.457 -1.8629 -1.6803  2.4534
  321TIP3    H222523   5.027   5.380   7.525 -0.0641 -0.2487  0.2974
  322TIP3   OH222524   4.214   0.348   8.212  0.5436 -0.4233  0.2550
  322TIP3    H122525   4.141   0.337   8.273  1.3195 -0.5968  1.1684
  322TIP3    H222526   4.280   0.397   8.262  0.5918  0.8061 -0.9395
  323TIP3   OH222527   4.045   3.350   7.260  0.2536 -0.6382  0.1993
  323TIP3    H122528   4.082   3.395   7.185 -1.1214 -0.9510 -0.7085
  323TIP3    H222529   4.032   3.419   7.326  1.1567 -0.3044  0.0362
  324TIP3   OH222530   2.023   6.344   7.835 -0.0763 -0.5623  0.2133
  324TIP3    H122531   1.946   6.336   7.891 -1.3198  2.3184 -0.8570
  324TIP3    H222532   2.065   6.426   7.862  0.9263 -0.5873 -1.1240
  325TIP3   OH222533   2.505   6.503   0.211  0.1627  0.6249  0.1117
  325TIP3    H122534   2.475   6.577   0.159  1.2077  0.7272 -0.3755
  325TIP3    H222535   2.520   6.433   0.148  2.0056  0.9327  0.1524
  326TIP3   OH222536   1.878   0.816   7.441  0.2723  0.0358  0.1901
  326TIP3    H122537   1.805   0.791   7.383 -0.3693  1.8716  0.1641
  326TIP3    H222538   1.877   0.748   7.509 -2.1876  0.5687  0.8046
  327TIP3   OH222539   4.740   5.074   1.037  0.2309  0.5125 -0.4484
  327TIP3    H122540   4.785   5.099   0.957  0.0440  0.3512 -0.6023
  327TIP3    H222541   4.698   5.155   1.067 -0.0265  0.4812 -0.7237
  328TIP3   OH222542   6.381   0.340   0.131 -0.2937  0.2955 -0.1939
  328TIP3    H122543   6.467   0.331   0.090 -0.7788  1.4765 -1.5333
  328TIP3    H222544   6.362   0.252   0.165  0.7052 -0.4074 -1.3618
  329TIP3   OH222545   2.870   5.086   8.056 -0.0205  0.6137 -0.3252
  329TIP3    H122546   2.853   5.136   8.136 -1.2829  0.0127 -0.1897
  329TIP3    H222547   2.957   5.114   8.028  0.4134  0.8830  1.2136
  330TIP3   OH222548   5.034   2.575   8.323 -0.6598  0.3728 -0.8062
  330TIP3    H122549   5.118   2.545   8.359 -1.7955 -1.9191  0.1271
  330TIP3    H222550   5.042   2.560   8.229 -0.3176 -0.6706 -0.6295
  331TIP3   OH222551   4.872   2.222   0.961 -0.0556 -0.1331 -0.6482
  331TIP3    H122552   4.879   2.206   0.867  0.4286  0.6210 -0.7500
  331TIP3    H222553   4.780   2.203   0.982 -0.7021  1.6084 -1.6710
  332TIP3   OH222554   1.608   1.331   1.859 -0.0500  0.1846 -0.6378
  332TIP3    H122555   1.559   1.392   1.913  0.1332 -0.4889  0.3371
  332TIP3    H222556   1.635   1.381   1.782  0.4855  1.4510  0.3428
  333TIP3   OH222557   4.670   3.021   8.109  0.4208 -0.1271  0.4917
  333TIP3    H122558   4.645   3.066   8.189  0.7125 -0.0107  0.5178
  333TIP3    H222559   4.733   2.955   8.137  2.1412  1.2788  0.1055
  334TIP3   OH222560   2.660   4.103   1.115 -0.0810  0.5156 -0.0132
  334TIP3    H122561   2.714   4.044   1.166 -0.4254  0.4332  0.2601
  334TIP3    H222562   2.609   4.152   1.180 -1.6712 -0.6821 -0.3070
  335TIP3   OH222563   0.146   5.737   0.569  0.2332  0.3137  0.5897
  335TIP3    H122564   0.109   5.754   0.655 -0.0189 -2.4625  1.0975
  335TIP3    H222565   0.237   5.766   0.576  0.0112  0.8242  1.5084
  336TIP3   OH222566   3.060   4.039   0.205  0.5404  0.2391  0.0219
  336TIP3    H122567   3.110   4.036   0.286 -0.7524  0.8147  0.8844
  336TIP3    H222568   2.991   3.974   0.217  0.9913 -0.4730 -1.0982
  337TIP3   OH222569   6.204   2.251   6.775  0.0914 -0.5567 -0.8777
  337TIP3    H122570   6.291   2.283   6.751  0.4627 -0.0187  1.0114
  337TIP3    H222571   6.148   2.273   6.701  1.4374 -0.3895 -1.8799
  338TIP3   OH222572   2.732   6.597   6.768  0.1439  0.4793  0.5196
  338TIP3    H122573   2.802   6.600   6.703  0.1464  0.2553  0.5094
  338TIP3    H222574   2.658   6.560   6.721  0.1208  0.3966  0.6197
  339TIP3   OH222575   5.122   1.238   8.379  0.3603  0.4878  0.3393
  339TIP3    H122576   5.043   1.293   8.377 -0.8369 -0.8042  4.3384
  339TIP3    H222577   5.117   1.187   8.298 -3.1871  0.1985  0.5872
  340TIP3   OH222578   2.953   4.380   7.848  0.0921  0.0015 -0.4948
  340TIP3    H122579   3.024   4.344   7.794  0.6376  0.7942 -0.3179
  340TIP3    H222580   2.924   4.458   7.800  0.4426  0.5968  0.2488
  341TIP3   OH222581   0.053   5.862   7.519  0.5274 -0.5359 -0.1427
  341TIP3    H122582   0.084   5.876   7.608 -0.8934  1.8668  0.0490
  341TIP3    H222583   0.053   5.766   7.509  1.5653 -0.8370  2.0823
  342TIP3   OH222584   6.506   3.677   1.590 -0.0998 -0.8257  0.3675
  342TIP3    H122585   6.489   3.742   1.523  0.0971 -0.0918  1.0171
  342TIP3    H222586   6.420   3.660   1.629  0.0048 -0.1737  0.8944
  343TIP3   OH222587   0.999   3.922   1.128 -0.1073 -0.6899 -0.1839
  343TIP3    H122588   1.035   3.901   1.214  1.2728  1.8948 -0.0255
  343TIP3    H222589   1.062   3.983   1.090 -1.5223 -0.4673 -2.3607
  344TIP3   OH222590   2.276   3.208   7.252  0.1703  0.1779  0.2926
  344TIP3    H122591   2.351   3.234   7.306  0.8770 -0.1941 -0.4821
  344TIP3    H222592   2.255   3.119   7.282  0.8445 -0.2013 -0.3177
  345TIP3   OH222593   0.509   3.352   7.166  0.3635 -0.0149  0.0710
  345TIP3    H122594   0.572   3.299   7.117  0.1753  0.0246 -0.2185
  345TIP3    H222595   0.468   3.291   7.227  2.2728  0.3892  1.8839
  346TIP3   OH222596   2.559   2.267   7.825 -0.2546  0.0102  0.5593
  346TIP3    H122597   2.584   2.262   7.733 -0.3074 -1.2196  0.5996
  346TIP3    H222598   2.469   2.235   7.828 -0.0251 -0.6049  1.1240
  347TIP3   OH222599   1.709   5.476   0.909 -0.3900  0.2017 -0.3678
  347TIP3    H122600   1.733   5.538   0.978  0.6534  0.7825 -1.2169
  347TIP3    H222601   1.793   5.442   0.877 -0.9276 -1.2326 -0.3020
  348TIP3   OH222602   6.518   6.321   0.269  0.0118 -0.3841 -0.0173
  348TIP3    H122603   6.472   6.402   0.248 -0.9590 -1.3582 -1.9725
  348TIP3    H222604   6.606   6.349   0.293 -0.5819  1.2987  0.2882
  349TIP3   OH222605   0.644   2.650   0.987  0.1257  0.3154  0.2368
  349TIP3    H122606   0.615   2.560   0.972  0.0259  0.3458  0.2446
  349TIP3    H222607   0.572   2.704   0.954  1.3119  0.4805 -2.3229
  350TIP3   OH222608   0.756   0.100   6.857 -0.2008  0.0972  0.0436
  350TIP3    H122609   0.770   0.038   6.929 -1.5929 -0.3833 -0.0640
  350TIP3    H222610   0.665   0.129   6.869 -0.4289  0.0604 -1.4903
  351TIP3   OH222611   2.873   0.912   7.759 -1.1317 -0.4331  0.6619
  351TIP3    H122612   2.830   0.881   7.839  2.0994 -2.5788  1.7891
  351TIP3    H222613   2.933   0.980   7.789 -0.5281 -0.6412 -0.0344
  352TIP3   OH222614   4.215   6.063   7.449 -0.6466 -0.0868  0.0923
  352TIP3    H122615   4.309   6.075   7.462 -0.5133 -1.3641  0.3650
  352TIP3    H222616   4.198   6.107   7.365  0.2150  0.0131 -0.0455
  353TIP3   OH222617   2.385   4.062   8.090  0.4542 -0.5126  0.5701
  353TIP3    H122618   2.454   4.013   8.045 -0.4680 -1.6560  0.3394
  353TIP3    H222619   2.308   4.049   8.035 -0.6434 -1.7235  2.3061
  354TIP3   OH222620   4.285   4.461   1.784 -0.3804  0.3540 -0.5494
  354TIP3    H122621   4.309   4.449   1.876 -0.4504  0.0320 -0.5714
  354TIP3    H222622   4.228   4.537   1.783 -1.3125 -0.3295 -0.1699
  355TIP3   OH222623   1.678   2.158   7.425  0.3767  0.3788 -0.5659
  355TIP3    H122624   1.649   2.248   7.411 -0.0581  0.3026 -0.1815
  355TIP3    H222625   1.749   2.165   7.490 -2.7828  0.1025  3.3286
  356TIP3   OH222626   6.556   0.227   8.461 -0.1057  0.4543 -0.6002
  356TIP3    H122627   6.621   0.238   8.531  1.0805  0.7970 -1.7211
  356TIP3    H222628   6.593   0.160   8.404 -2.4067 -2.0214  0.5730
  357TIP3   OH222629   5.747   3.788   0.564 -0.5180 -0.2335 -0.1952
  357TIP3    H122630   5.829   3.833   0.545  0.3182 -0.8457  1.7240
  357TIP3    H222631   5.742   3.719   0.499 -0.5459  1.0207 -1.5738
  358TIP3   OH222632   4.519   0.536   8.593  0.0741 -0.1383  0.1447
  358TIP3    H122633   4.516   0.462   8.654 -0.6860 -1.0888 -1.0225
  358TIP3    H222634   4.508   0.497   8.507  0.8871  1.2189 -0.6003
  359TIP3   OH222635   6.305   5.702   0.643  0.0751  0.1009 -0.0158
  359TIP3    H122636   6.221   5.747   0.653 -0.2963 -0.6162  0.1349
  359TIP3    H222637   6.310   5.642   0.717  1.6561  1.5610  1.1265
  360TIP3   OH222638   1.803   5.207   0.584 -0.0131  0.2283  0.1825
  360TIP3    H122639   1.795   5.178   0.493  2.5555  2.2472 -0.8250
  360TIP3    H222640   1.748   5.286   0.590 -0.7259 -0.2903  0.6086
  361TIP3   OH222641   2.236   4.073   6.872 -0.1040 -0.4190 -0.3098
  361TIP3    H122642   2.272   4.024   6.946 -0.2524 -0.5629 -0.3327
  361TIP3    H222643   2.142   4.076   6.889 -0.2031 -0.8737 -0.7383
  362TIP3   OH222644   3.041   1.622   1.104  0.8086 -0.2603 -0.0144
  362TIP3    H122645   3.036   1.699   1.162 -0.9066 -0.3500 -0.0085
  362TIP3    H222646   3.111   1.644   1.043  0.7190  1.0847  0.3211
  363TIP3   OH222647   6.475   5.853   0.034  0.6675  0.3183 -0.3468
  363TIP3    H122648   6.485   5.908  -0.043  0.0667  0.9721  0.0355
  363TIP3    H222649   6.429   5.908   0.098  0.3138 -0.5284  0.1456
  364TIP3   OH222650   3.854   5.802   7.615 -0.2111 -0.0893  0.3584
  364TIP3    H122651   3.769   5.773   7.647  0.2331  0.6398  2.3479
  364TIP3    H222652   3.916   5.739   7.652  0.1863 -0.3594 -0.7155
  365TIP3   OH222653   0.524   3.945   6.690 -0.4584  0.2791  0.8014
  365TIP3    H122654   0.581   3.911   6.620 -1.0918  0.5982  0.1123
  365TIP3    H222655   0.575   4.016   6.730  0.2007 -0.3851  1.1513
  366TIP3   OH222656   4.904   3.666   1.054 -0.6490 -0.0628  0.4424
  366TIP3    H122657   4.961   3.599   1.091  0.4290  0.7186  0.2479
  366TIP3    H222658   4.955   3.747   1.059 -0.1654  0.0416 -3.2175
  367TIP3   OH222659   2.339   2.978   7.363  0.0648 -0.8768  0.2764
  367TIP3    H122660   2.349   2.894   7.318  1.1917 -0.1926 -0.8304
  367TIP3    H222661   2.395   2.971   7.440  1.2115 -0.6993 -0.5147
  368TIP3   OH222662   1.154   3.110   1.596  0.0072  0.3710  0.7309
  368TIP3    H122663   1.203   3.089   1.675  0.7399  1.1774  0.5049
  368TIP3    H222664   1.202   3.067   1.526 -0.9527 -0.8085  0.7722
  369TIP3   OH222665   4.868   1.403   6.872 -1.1315 -0.1544 -0.4601
  369TIP3    H122666   4.798   1.357   6.920 -1.6921  0.2873 -0.8393
  369TIP3    H222667   4.849   1.496   6.886 -0.1063 -0.0239  0.1532
  370TIP3   OH222668   6.480   0.498   2.137  0.4902  0.3120 -0.2228
  370TIP3    H122669   6.565   0.456   2.146 -0.2742 -1.2285  0.0652
  370TIP3    H222670   6.451   0.513   2.227 -0.0535 -0.2518 -0.2991
  371TIP3   OH222671   3.485   1.942   7.776 -0.3829  0.1061 -0.4590
  371TIP3    H122672   3.544   2.007   7.814 -1.5272  0.7604  0.2222
  371TIP3    H222673   3.435   1.990   7.710 -0.2830 -0.4093 -0.9222
  372TIP3   OH222674   4.128   0.993   7.232  0.1330 -0.3023  0.2123
  372TIP3    H122675   4.032   0.986   7.231  0.1576 -0.5885 -0.2242
  372TIP3    H222676   4.157   0.917   7.281  0.0380  1.0905  2.5783
  373TIP3   OH222677   4.132   5.086   7.119 -0.3658 -0.2847 -0.1320
  373TIP3    H122678   4.169   5.067   7.033 -1.1192 -0.5534 -0.3963
  373TIP3    H222679   4.209   5.107   7.173  0.3441 -2.2697 -0.2897
  374TIP3   OH222680   6.213   3.074   0.729 -0.3057 -0.2100 -0.4187
  374TIP3    H122681   6.228   3.109   0.817 -0.9627 -0.1440 -0.3285
  374TIP3    H222682   6.259   3.136   0.671 -1.2116  0.6529 -0.2385
  375TIP3   OH222683   0.840   4.107   7.908  0.3263  0.4559 -0.3745
  375TIP3    H122684   0.804   4.119   7.820  0.4089  1.9023 -0.2362
  375TIP3    H222685   0.856   4.013   7.915  2.2806  0.5056 -2.6813
  376TIP3   OH222686   3.341   6.209   8.419 -0.5326 -0.7988  0.2224
  376TIP3    H122687   3.300   6.290   8.388 -0.9490 -1.0902 -0.0021
  376TIP3    H222688   3.269   6.146   8.425 -0.1863 -1.2022  0.2300
  377TIP3   OH222689   5.628   3.752   8.633  0.6779  0.9332  0.7012
  377TIP3    H122690   5.541   3.714   8.642  0.8907  0.4992  0.9859
  377TIP3    H222691   5.654   3.775   8.723 -0.0286  3.1347  0.4124
  378TIP3   OH222692   2.766   3.107   7.254 -0.3544 -0.4191 -0.3929
  378TIP3    H122693   2.771   3.025   7.302 -0.1483  0.0292  0.3853
  378TIP3    H222694   2.696   3.095   7.190  0.1738 -1.4459 -0.7889
  379TIP3   OH222695   6.736   1.384   7.847 -0.4093  0.6526  0.4103
  379TIP3    H122696   6.759   1.296   7.818 -1.9237  0.6149 -0.8257
  379TIP3    H222697   6.739   1.380   7.942 -0.8279 -0.8388  0.3816
  380TIP3   OH222698   6.762   6.192   7.870 -0.2474 -0.2473 -0.4948
  380TIP3    H122699   6.690   6.208   7.808 -1.3422 -1.3943  0.4340
  380TIP3    H222700   6.838   6.176   7.814 -0.6536  1.1264 -1.4984
  381TIP3   OH222701   1.012   0.625   7.631 -0.3417  0.0900 -0.0235
  381TIP3    H122702   0.994   0.673   7.711 -1.0678 -1.6749  0.9297
  381TIP3    H222703   1.092   0.665   7.597 -0.5410  1.4928  1.0570
  382TIP3   OH222704   3.579   6.776   0.034  0.0497 -0.1562 -0.7265
  382TIP3    H122705   3.578   6.765  -0.061 -0.6982 -0.0203 -0.7356
  382TIP3    H222706   3.548   6.865   0.048 -2.5724 -1.0724 -0.2403
  383TIP3   OH222707   4.590   5.586   8.456 -0.0370  0.0987  0.1701
  383TIP3    H122708   4.501   5.595   8.492  0.0512 -0.4988  0.5425
  383TIP3    H222709   4.645   5.634   8.517  0.0046 -0.2311  0.3937
  384TIP3   OH222710   3.185   3.310   1.549 -0.4222 -0.4268  0.2433
  384TIP3    H122711   3.275   3.325   1.578 -0.9107  1.5730  0.8424
  384TIP3    H222712   3.189   3.226   1.501  1.7668 -0.2975  0.1043
  385TIP3   OH222713   6.032   2.904   1.427 -0.8212  0.1441 -0.0290
  385TIP3    H122714   6.125   2.883   1.434 -1.0321 -0.2728  1.8451
  385TIP3    H222715   6.030   2.991   1.387  0.2859 -0.5414 -1.6696
  386TIP3   OH222716   0.143   2.379   2.319  0.1011  0.2358  0.4330
  386TIP3    H122717   0.220   2.395   2.373 -0.5002  1.8106  0.8996
  386TIP3    H222718   0.069   2.407   2.373 -0.6801  0.0682 -0.5037
  387TIP3   OH222719   0.709   5.555   0.986 -0.2630 -0.6290  0.0624
  387TIP3    H122720   0.778   5.507   1.031 -0.1408  0.6298  1.2756
  387TIP3    H222721   0.683   5.497   0.914  0.5795 -2.0378  0.8416
  388TIP3   OH222722   5.953   5.340   0.180 -0.0954 -0.0110  0.0546
  388TIP3    H122723   5.971   5.253   0.144 -0.2585  0.0422 -0.1570
  388TIP3    H222724   5.866   5.361   0.148 -0.4725 -0.1900  0.9090
  389TIP3   OH222725   2.833   1.820   6.978 -0.6119 -0.1349 -0.0642
  389TIP3    H122726   2.776   1.752   7.014 -1.4053  1.0668  1.0380
  389TIP3    H222727   2.885   1.775   6.912 -1.4116 -1.7136  0.3313
  390TIP3   OH222728   1.865   2.551   0.574 -0.3484  0.0675  0.1406
  390TIP3    H122729   1.884   2.626   0.518 -1.0732  0.0049 -0.1911
  390TIP3    H222730   1.922   2.481   0.540 -0.5692  0.1134 -0.3348
  391TIP3   OH222731   5.344   4.757   7.944 -0.4832 -0.5835 -0.2428
  391TIP3    H122732   5.331   4.852   7.945  1.1117 -0.3256 -0.6631
  391TIP3    H222733   5.265   4.721   7.984 -0.0317  1.0542  2.3627
  392TIP3   OH222734   2.657   4.850   1.009  0.0038  0.2257  1.2446
  392TIP3    H122735   2.747   4.817   1.013 -0.2915 -0.8901 -0.4087
  392TIP3    H222736   2.656   4.907   0.932 -0.5806  0.6875  1.5843
  393TIP3   OH222737   5.075   3.190   1.095  0.3502  0.0944  0.1204
  393TIP3    H122738   5.119   3.106   1.107  2.1371  0.9043 -0.4366
  393TIP3    H222739   5.001   3.171   1.037  1.3596 -0.9358 -0.8816
  394TIP3   OH222740   1.049   2.051   7.012  0.0106 -0.3464 -0.0792
  394TIP3    H122741   1.020   1.990   7.079 -0.7684  0.6160  0.4977
  394TIP3    H222742   0.980   2.118   7.009  1.4150  1.1859  0.2248
  395TIP3   OH222743   3.977   3.982   2.358  0.6368  0.0078 -0.1238
  395TIP3    H122744   4.011   3.976   2.268 -0.9206  1.5731 -0.8871
  395TIP3    H222745   3.913   4.053   2.354 -0.5641 -0.8829  1.8974
  396TIP3   OH222746   0.389   1.427   8.006  0.2886 -0.1020 -0.1022
  396TIP3    H122747   0.337   1.507   8.011 -0.4441 -0.6171  0.9433
  396TIP3    H222748   0.397   1.409   7.912  1.9145  2.0902 -0.4359
  397TIP3   OH222749   6.391   4.994   1.868  0.0961  0.3970 -0.3542
  397TIP3    H122750   6.410   5.082   1.836  2.5498  0.6231  1.3762
  397TIP3    H222751   6.296   4.988   1.870 -0.1574  3.3541  0.3437
  398TIP3   OH222752   1.618   3.805   1.602  0.0193 -0.5805  0.3069
  398TIP3    H122753   1.587   3.845   1.683  1.3312 -0.1783  0.6229
  398TIP3    H222754   1.654   3.720   1.630 -0.6044 -0.9727 -0.0376
  399TIP3   OH222755   4.962   4.170   0.106 -0.0232  0.0315  0.2053
  399TIP3    H122756   4.976   4.265   0.106 -1.4041  0.2547  0.2032
  399TIP3    H222757   4.944   4.149   0.014  0.0151 -0.1855  0.2474
  400TIP3   OH222758   6.853   2.068   1.250  0.1805 -0.5786 -0.5384
  400TIP3    H122759   6.869   1.978   1.221  0.5118 -0.1144 -1.8876
  400TIP3    H222760   6.858   2.064   1.345 -0.9537 -2.1945 -0.4999
  401TIP3   OH222761   1.514   0.174   0.726  0.3123 -0.2655 -0.2169
  401TIP3    H122762   1.481   0.263   0.713 -0.2931 -0.5333 -0.5603
  401TIP3    H222763   1.438   0.124   0.755  0.4285 -0.8662 -0.9016
  402TIP3   OH222764   0.868   0.385   6.781 -0.0681  0.1692 -0.2608
  402TIP3    H122765   0.912   0.470   6.785  1.1090 -0.3885 -0.8420
  402TIP3    H222766   0.822   0.386   6.697  1.2138 -0.3310 -1.0049
  403TIP3   OH222767   1.271   4.728   1.974 -0.3161  0.2909  0.3011
  403TIP3    H122768   1.319   4.663   1.924 -0.7419  0.5421 -0.4549
  403TIP3    H222769   1.334   4.798   1.991 -0.1911  0.2428  0.0344
  404TIP3   OH222770   1.965   3.251   0.472 -0.2201 -0.2571  0.6338
  404TIP3    H122771   1.916   3.333   0.482  0.5396  0.2136  0.6235
  404TIP3    H222772   1.961   3.210   0.558  1.3280  0.9264  1.3259
  405TIP3   OH222773   5.237   0.000   1.914 -0.0892  0.0763  0.2797
  405TIP3    H122774   5.184  -0.069   1.953 -0.7644  0.6074  0.3314
  405TIP3    H222775   5.174   0.070   1.896  0.7824  1.2395  1.5433
  406TIP3   OH222776   5.092   0.765   1.209  0.4661  0.6127 -0.4587
  406TIP3    H122777   5.103   0.826   1.282 -2.6782  0.2267  0.5062
  406TIP3    H222778   5.171   0.775   1.156  2.4561  1.5979  2.4735
  407TIP3   OH222779   4.439   0.891   0.606 -0.0436  0.3248  0.4197
  407TIP3    H122780   4.359   0.881   0.554 -0.3151 -1.2724  1.0818
  407TIP3    H222781   4.412   0.941   0.683 -0.1304  0.7921  0.0923
  408TIP3   OH222782   0.109   6.636   0.767  0.7163 -0.6868  0.1147
  408TIP3    H122783   0.090   6.619   0.859  2.1377  0.2441  0.6158
  408TIP3    H222784   0.053   6.710   0.744  0.0849 -1.1559  0.0987
  409TIP3   OH222785   1.714   6.778   7.630 -0.5435  0.0225  0.0870
  409TIP3    H122786   1.758   6.858   7.658  0.0710  1.3581 -3.9243
  409TIP3    H222787   1.784   6.713   7.626  0.2185  0.8450 -1.6328
  410TIP3   OH222788   4.492   6.582   0.483  0.0784  0.2893 -0.0900
  410TIP3    H122789   4.483   6.518   0.554 -1.1872  1.1599  0.5846
  410TIP3    H222790   4.581   6.571   0.451 -0.6469 -3.1858 -1.3648
  411TIP3   OH222791   0.735   1.412   0.719  0.6084  0.3445  0.3269
  411TIP3    H122792   0.753   1.459   0.801  0.9395  2.0118 -0.6491
  411TIP3    H222793   0.717   1.482   0.655 -0.5792 -0.9540 -0.8070
  412TIP3   OH222794   4.964   1.707   8.286 -0.0646  0.3056  1.0044
  412TIP3    H122795   4.885   1.712   8.232  1.1445 -1.1779 -1.0545
  412TIP3    H222796   4.951   1.773   8.353 -2.8122  0.4811  0.4354
  413TIP3   OH222797   2.526   5.715   8.397  0.3732 -0.0213 -0.3737
  413TIP3    H122798   2.529   5.738   8.490 -0.2245 -0.1816 -0.3119
  413TIP3    H222799   2.507   5.621   8.396  2.1031 -0.3970 -0.6354
  414TIP3   OH222800   0.843   4.886   1.463  0.3683  0.4976  0.0552
  414TIP3    H122801   0.833   4.967   1.513 -0.5291  0.5532 -0.2030
  414TIP3    H222802   0.921   4.900   1.410  0.8267  0.7761  0.7784
  415TIP3   OH222803   2.089   4.484   8.618  0.6348  0.2019 -0.0546
  415TIP3    H122804   2.029   4.417   8.586  1.2663 -0.2276 -0.3575
  415TIP3    H222805   2.157   4.490   8.551  0.6676  1.0432  0.0361
  416TIP3   OH222806   0.178   5.154   1.876 -0.1977  0.0692  0.2309
  416TIP3    H122807   0.178   5.100   1.956 -0.6220  0.7955  0.7351
  416TIP3    H222808   0.121   5.106   1.816  0.3489 -0.6278  0.2529
  417TIP3   OH222809   3.346   5.174   7.740  0.2957  0.1733 -0.2860
  417TIP3    H122810   3.410   5.112   7.774  0.3278 -0.3876 -1.3149
  417TIP3    H222811   3.324   5.141   7.653 -1.1203  0.5541 -0.1117
  418TIP3   OH222812   6.504   1.971   6.788  0.5554 -0.0572 -0.6198
  418TIP3    H122813   6.477   2.058   6.759  1.6497  0.2841 -0.6471
  418TIP3    H222814   6.513   1.979   6.883 -0.6953 -0.5353 -0.4352
  419TIP3   OH222815   2.328   2.396   7.191 -0.2290 -0.0233 -0.0751
  419TIP3    H122816   2.288   2.319   7.149 -0.6555 -0.1482  0.5415
  419TIP3    H222817   2.410   2.409   7.145 -0.4352 -0.4923 -0.5809
  420TIP3   OH222818   6.580   4.238   8.559  0.2928  0.1121  0.4314
  420TIP3    H122819   6.508   4.272   8.505  1.2409  0.5096 -0.6419
  420TIP3    H222820   6.644   4.310   8.561  1.2222 -0.6833  0.2562
  421TIP3   OH222821   0.763   5.885   1.364  0.1062 -0.2675  0.1577
  421TIP3    H122822   0.850   5.850   1.342 -0.6032 -0.4733 -2.8405
  421TIP3    H222823   0.702   5.826   1.319 -1.4140  1.4998 -0.2121
  422TIP3   OH222824   6.800   5.694   1.248  0.1614 -0.2520  0.2913
  422TIP3    H122825   6.860   5.765   1.269  0.5921 -0.5895  0.2047
  422TIP3    H222826   6.771   5.661   1.334 -2.1835  1.7785  0.4162
  423TIP3   OH222827   5.090   6.390   6.028  0.4497 -0.4929  0.0056
  423TIP3    H122828   5.073   6.469   5.977  1.8163  0.8931  1.5840
  423TIP3    H222829   5.005   6.363   6.060  0.0144  0.6215 -0.1682
  424TIP3   OH222830   2.779   0.274   6.873  0.0653 -0.1183 -0.0878
  424TIP3    H122831   2.831   0.329   6.815  0.7218 -2.0433 -1.4563
  424TIP3    H222832   2.754   0.199   6.819 -1.5760 -0.7318  1.4032
  425TIP3   OH222833   3.906   5.902   8.370  0.6328 -0.1380  0.1030
  425TIP3    H122834   3.930   5.903   8.277  0.4242  0.5336  0.0541
  425TIP3    H222835   3.922   5.991   8.401 -0.3207 -0.0653  0.4441
  426TIP3   OH222836   2.417   1.177   7.635  0.1649  0.1928  0.5760
  426TIP3    H122837   2.340   1.140   7.677 -1.2140  1.0247 -1.0515
  426TIP3    H222838   2.410   1.271   7.651 -0.1589  0.4784 -1.0412
  427TIP3   OH222839   0.256   5.612   2.475  0.1575  0.1527 -0.1126
  427TIP3    H122840   0.251   5.569   2.561  1.3294  0.1194 -0.0463
  427TIP3    H222841   0.171   5.594   2.434  0.7592 -2.7511 -0.3228
  428TIP3   OH222842   1.434   4.031   7.104  0.2355  0.2323 -0.0701
  428TIP3    H122843   1.489   3.964   7.145  3.3725  2.5659 -0.0534
  428TIP3    H222844   1.375   4.060   7.174  1.2833 -0.0911  0.9840
  429TIP3   OH222845   2.366   2.929   7.036  0.0425 -0.1549 -1.1820
  429TIP3    H122846   2.368   2.870   7.111  1.1380 -0.1406 -1.1744
  429TIP3    H222847   2.312   3.003   7.064  1.6011  0.5391  0.1648
  430TIP3   OH222848   1.219   0.298   7.679 -0.5394 -0.1040 -0.1028
  430TIP3    H122849   1.246   0.209   7.658  1.9225  0.3101  0.9270
  430TIP3    H222850   1.176   0.291   7.764  0.9480 -0.1857  0.6791
  431TIP3   OH222851   1.978   6.556   0.256 -0.5528  0.1817  0.0434
  431TIP3    H122852   1.948   6.612   0.184 -1.0616  0.0324  0.1344
  431TIP3    H222853   2.074   6.560   0.251 -0.5423 -1.0570 -1.6017
  432TIP3   OH222854   3.355   5.528   1.785 -0.0653 -0.0053 -0.4966
  432TIP3    H122855   3.357   5.619   1.814 -1.5613 -0.3042  0.6546
  432TIP3    H222856   3.397   5.480   1.856 -0.4705 -0.3585 -0.4977
  433TIP3   OH222857   4.954   6.293   1.260  0.2890 -0.3295  0.8440
  433TIP3    H122858   4.959   6.286   1.165 -2.6967 -2.4539  0.6949
  433TIP3    H222859   4.948   6.387   1.277 -2.1439  0.0302 -1.3974
  434TIP3   OH222860   2.479   4.995   7.263 -0.3048  0.2318 -0.5908
  434TIP3    H122861   2.428   4.937   7.321  0.3828 -1.2395 -1.3904
  434TIP3    H222862   2.514   5.062   7.321 -1.8977  0.4113  0.2304
  435TIP3   OH222863   4.566   0.356   1.484  0.0653 -0.1810 -0.3503
  435TIP3    H122864   4.528   0.428   1.535  0.2606  0.3012 -0.8737
  435TIP3    H222865   4.518   0.358   1.401 -1.9730 -2.4964  0.6254
  436TIP3   OH222866   6.459   1.643   0.028 -0.0979 -0.0264  0.1294
  436TIP3    H122867   6.513   1.711   0.069 -0.4456  0.0533  0.4569
  436TIP3    H222868   6.521   1.593  -0.026  0.1365  0.6240 -0.2187
  437TIP3   OH222869   3.759   3.447   7.364  0.0726  0.2425  0.0192
  437TIP3    H122870   3.810   3.427   7.442 -0.5455 -0.1741  0.3213
  437TIP3    H222871   3.769   3.370   7.307  0.0733  0.3099 -0.0725
  438TIP3   OH222872   3.138   1.270   6.603 -0.0944  0.2219 -0.2411
  438TIP3    H122873   3.200   1.222   6.549  0.0688  1.1206 -0.8747
  438TIP3    H222874   3.065   1.210   6.615  0.6210 -0.6211 -0.0004
  439TIP3   OH222875   1.687   5.832   7.629  0.8592 -0.1145  0.0505
  439TIP3    H122876   1.778   5.802   7.633  1.3717  0.9559 -2.0704
  439TIP3    H222877   1.637   5.754   7.605  1.2638 -0.6078  0.7838
  440TIP3   OH222878   4.304   6.632   0.081  0.2003  0.5537 -0.1174
  440TIP3    H122879   4.233   6.574   0.054 -0.1868 -0.0330  1.9559
  440TIP3    H222880   4.355   6.581   0.143  1.5099  1.5170 -0.3541
  441TIP3   OH222881   1.535   3.015   0.707  0.1618 -0.0643  0.0115
  441TIP3    H122882   1.548   3.106   0.680 -0.0778 -0.2742 -0.8607
  441TIP3    H222883   1.450   2.991   0.670 -0.2170 -0.3539  1.0467
  442TIP3   OH222884   2.590   3.141   1.949  0.6101 -0.3267  0.5542
  442TIP3    H122885   2.533   3.100   2.014 -0.7429  1.3544  0.5027
  442TIP3    H222886   2.568   3.097   1.867 -0.6892  0.3402  0.5247
  443TIP3   OH222887   1.792   3.462   0.406 -0.2688 -0.1283 -0.6299
  443TIP3    H122888   1.712   3.410   0.405  1.0658 -2.2709 -0.4956
  443TIP3    H222889   1.777   3.529   0.339 -1.9196 -0.8643 -1.0441
  444TIP3   OH222890   2.322   2.012   7.769  0.5458  0.3350 -0.2905
  444TIP3    H122891   2.337   2.041   7.859 -1.2708 -0.0942  0.1907
  444TIP3    H222892   2.256   1.943   7.777 -1.5870  2.0101 -2.1263
  445TIP3   OH222893   6.458   6.613   8.042  0.1693 -0.1534  0.4867
  445TIP3    H122894   6.485   6.535   8.091  0.8197  0.1807  0.6747
  445TIP3    H222895   6.372   6.591   8.007  0.6061 -1.1846  0.0245
  446TIP3   OH222896   5.930   0.999   7.866  0.1595 -0.2184 -0.2408
  446TIP3    H122897   6.001   0.963   7.920 -0.3033  0.1386  0.6393
  446TIP3    H222898   5.874   0.924   7.846  1.2434 -0.6741 -1.7144
  447TIP3   OH222899   4.184   4.482   8.441  0.0386  0.2455 -0.4074
  447TIP3    H122900   4.178   4.566   8.396  0.4964  0.3575 -0.2636
  447TIP3    H222901   4.108   4.481   8.501 -0.1387  0.4207 -0.6306
  448TIP3   OH222902   2.547   6.529   7.513 -0.6910  0.0081  0.0765
  448TIP3    H122903   2.623   6.586   7.530 -1.1446  0.6386  0.0280
  448TIP3    H222904   2.573   6.479   7.435  0.3807 -1.0831  1.0861
  449TIP3   OH222905   0.727   3.508   8.311  0.3595  0.0672  0.0725
  449TIP3    H122906   0.719   3.417   8.280 -0.5736 -0.2175  1.1048
  449TIP3    H222907   0.651   3.553   8.274 -0.1396 -0.0014  1.0073
  450TIP3   OH222908   5.750   1.928   2.523  0.0211  0.2834  0.4846
  450TIP3    H122909   5.811   2.000   2.509  0.4663 -0.2034 -0.1615
  450TIP3    H222910   5.664   1.968   2.518  0.2562  0.7402 -0.0893
  451TIP3   OH222911   0.657   5.443   1.280  0.0870  0.2315 -0.3578
  451TIP3    H122912   0.726   5.377   1.284 -0.6607 -0.8986 -3.3404
  451TIP3    H222913   0.577   5.396   1.304 -0.2958  0.2721 -1.4772
  452TIP3   OH222914   5.528   2.391   0.192  0.0943  0.3388  0.2676
  452TIP3    H122915   5.477   2.317   0.224 -1.4597  1.1128 -0.3364
  452TIP3    H222916   5.558   2.363   0.105  1.3304 -0.3825  0.8976
  453TIP3   OH222917   2.366   3.753   1.283  0.0137 -0.7896  0.0370
  453TIP3    H122918   2.285   3.799   1.261  0.9421  0.9625  0.0984
  453TIP3    H222919   2.390   3.708   1.201 -0.6928 -0.8353 -0.1548
  454TIP3   OH222920   1.192   3.375   1.669 -0.2284 -0.3590 -0.0927
  454TIP3    H122921   1.207   3.290   1.628  0.3423 -0.4588  0.3093
  454TIP3    H222922   1.176   3.354   1.761  0.0072 -0.0267  0.0267
  455TIP3   OH222923   0.410   5.636   0.857 -0.1653 -0.4581 -0.3201
  455TIP3    H122924   0.408   5.540   0.858 -0.0543 -0.6320 -4.0439
  455TIP3    H222925   0.500   5.658   0.880  0.0566 -1.2923 -0.3489
  456TIP3   OH222926   6.285   3.306   7.799 -0.0723  0.2309  0.2389
  456TIP3    H122927   6.330   3.325   7.881  2.5077  2.1094 -1.4681
  456TIP3    H222928   6.225   3.379   7.787  0.8553  0.9198 -0.3528
  457TIP3   OH222929   3.221   0.460   0.144  0.6177 -0.4581  0.5839
  457TIP3    H122930   3.222   0.382   0.090  1.2250  0.4499 -0.7691
  457TIP3    H222931   3.246   0.531   0.085  0.8499  0.6494  1.9484
  458TIP3   OH222932   2.218   0.902   1.211 -0.4482 -0.1928 -0.4175
  458TIP3    H122933   2.172   0.836   1.263  1.3407 -0.8943  0.3453
  458TIP3    H222934   2.304   0.909   1.252 -0.2480  1.9124 -1.0959
  459TIP3   OH222935   0.078   3.824   0.376 -0.3751  0.9570  0.0465
  459TIP3    H122936  -0.003   3.827   0.428 -0.8293  0.0747 -0.5830
  459TIP3    H222937   0.114   3.737   0.393 -0.2389  0.8708 -0.6716
  460TIP3   OH222938   5.807   5.264   7.132 -0.0435  0.4666 -0.4956
  460TIP3    H122939   5.864   5.221   7.069  0.5987  3.8949 -2.5328
  460TIP3    H222940   5.720   5.259   7.093 -0.0340  0.6132 -0.5390
  461TIP3   OH222941   5.448   0.971   1.286 -0.1493  0.1073 -0.5392
  461TIP3    H122942   5.503   1.042   1.254  1.6174 -0.7158  0.5572
  461TIP3    H222943   5.384   1.015   1.343  1.3808  0.7835  0.7360
  462TIP3   OH222944   3.562   4.111   0.739 -1.1814 -0.3088 -0.3481
  462TIP3    H122945   3.484   4.163   0.758  0.4693  1.3807  2.5305
  462TIP3    H222946   3.593   4.082   0.825  2.6986  1.2406 -0.9786
  463TIP3   OH222947   4.828   3.326   6.836  0.5908  0.0574 -0.4284
  463TIP3    H122948   4.733   3.314   6.831  0.4282  1.4862 -1.0828
  463TIP3    H222949   4.851   3.371   6.755  1.7895  0.0031 -0.1370
  464TIP3   OH222950   3.752   1.914   1.357  0.3224  0.0827 -0.3918
  464TIP3    H122951   3.730   1.917   1.450  0.2791  1.8244 -0.4304
  464TIP3    H222952   3.837   1.957   1.350  1.3523 -1.9005 -0.9259
  465TIP3   OH222953   4.165   4.734   7.505  0.5657 -0.0749 -0.2155
  465TIP3    H122954   4.112   4.813   7.498 -2.5478 -1.8843  0.5100
  465TIP3    H222955   4.208   4.726   7.420  0.8594  2.2750 -0.3392
  466TIP3   OH222956   5.630   2.880   1.436 -0.7588 -0.4324  0.6010
  466TIP3    H122957   5.577   2.845   1.365  0.0685 -0.5331  0.0283
  466TIP3    H222958   5.679   2.805   1.470  0.3382 -0.0168 -0.0385
  467TIP3   OH222959   4.751   3.415   1.695  0.4245  0.6653  0.2609
  467TIP3    H122960   4.721   3.324   1.689  0.2547  0.7563 -0.4489
  467TIP3    H222961   4.704   3.451   1.770  0.8471  0.0425  0.8408
  468TIP3   OH222962   1.018   2.198   8.499  0.3936 -0.1074 -0.5453
  468TIP3    H122963   0.939   2.144   8.494 -1.3999  2.3097 -0.1489
  468TIP3    H222964   1.064   2.180   8.418 -0.5859 -1.5452 -0.8278
  469TIP3   OH222965   1.970   2.834   2.045 -0.0694 -0.0204  0.1029
  469TIP3    H122966   2.042   2.894   2.065 -0.3695  0.1789  0.6332
  469TIP3    H222967   1.891   2.887   2.058 -0.3336 -0.4860  0.4369
  470TIP3   OH222968   3.203   0.562   8.292  0.3583 -0.1709  0.4837
  470TIP3    H122969   3.175   0.569   8.384 -1.4515  0.7684 -0.1122
  470TIP3    H222970   3.155   0.487   8.258  0.9827 -0.4798  0.2658
  471TIP3   OH222971   0.912   3.560   7.471  0.2668 -0.0063  0.6017
  471TIP3    H122972   0.873   3.586   7.388 -0.2541  2.7208  1.5986
  471TIP3    H222973   1.005   3.583   7.462  0.2624  0.0415  0.6780
  472TIP3   OH222974   5.377   1.013   0.342  0.2671  0.5058 -0.2647
  472TIP3    H122975   5.418   0.946   0.287  1.4411  0.1721  0.9544
  472TIP3    H222976   5.335   0.964   0.413 -0.1957  0.9918 -0.1907
  473TIP3   OH222977   2.129   3.992   8.421  0.5372  0.1999  0.2147
  473TIP3    H122978   2.081   3.915   8.393 -3.1968  1.9503  1.1910
  473TIP3    H222979   2.130   3.986   8.517  1.8493  0.4980  0.2386
  474TIP3   OH222980   2.194   1.612   8.621  0.0029 -0.7953 -0.1892
  474TIP3    H122981   2.129   1.602   8.691 -1.3899 -0.2095 -1.3581
  474TIP3    H222982   2.277   1.590   8.663 -1.1362 -3.5270  0.8890
  475TIP3   OH222983   4.166   2.511   8.304 -0.2153  0.0635  0.4309
  475TIP3    H122984   4.168   2.518   8.400  0.0189 -1.0069  0.5113
  475TIP3    H222985   4.104   2.440   8.286  1.0702 -0.9419 -0.1322
  476TIP3   OH222986   4.912   6.176   7.161  0.2772 -0.2499 -0.1718
  476TIP3    H122987   4.935   6.263   7.127 -0.7559  0.0004 -0.2716
  476TIP3    H222988   4.994   6.141   7.196  0.4355  1.3709  1.2052
  477TIP3   OH222989   3.432   5.510   0.241  0.5123  0.4207  0.1225
  477TIP3    H122990   3.381   5.464   0.175 -0.6904 -0.4033  1.5464
  477TIP3    H222991   3.393   5.597   0.246 -0.9071 -0.2304  1.2610
  478TIP3   OH222992   1.778   0.649   1.106 -0.0487  0.1638 -0.2437
  478TIP3    H122993   1.839   0.577   1.123 -1.5559 -1.8461 -2.6281
  478TIP3    H222994   1.705   0.633   1.166 -0.1311  0.0262 -0.3796
  479TIP3   OH222995   3.159   3.220   0.704  1.1505 -0.1454 -0.7273
  479TIP3    H122996   3.162   3.124   0.715  0.0468 -0.1458 -0.2963
  479TIP3    H222997   3.076   3.236   0.660  0.2086  0.7752  1.2649
  480TIP3   OH222998   2.199   1.270   1.945  0.0589  0.1430 -0.0538
  480TIP3    H122999   2.224   1.227   1.863  0.1353  0.7075 -0.3343
  480TIP3    H223000   2.211   1.203   2.012  0.1814 -0.2683 -0.4805
  481TIP3   OH223001   3.914   2.529   0.218 -0.4777 -0.3056  0.2599
  481TIP3    H123002   3.978   2.460   0.234  0.9036  1.2237  1.5648
  481TIP3    H223003   3.870   2.542   0.302  0.5822  1.6479  0.5634
  482TIP3   OH223004   4.254   1.489   1.956 -0.0256 -0.1254  0.1062
  482TIP3    H123005   4.165   1.474   1.923  0.4477 -1.7428 -0.5210
  482TIP3    H223006   4.242   1.528   2.042 -1.3526 -0.7089  0.2002
  483TIP3   OH223007   5.998   0.622   2.371  0.6482  0.3851  0.7912
  483TIP3    H123008   5.954   0.699   2.408  0.0541  0.7585 -0.6301
  483TIP3    H223009   5.978   0.625   2.278  1.6091 -0.8515  0.5125
  484TIP3   OH223010   4.293   4.122   7.108  0.5460  0.0013 -0.1025
  484TIP3    H123011   4.213   4.091   7.066  0.5694  0.0408 -0.1755
  484TIP3    H223012   4.271   4.208   7.142  0.9684  0.6144 -1.3432
  485TIP3   OH223013   0.402   3.033   0.820  0.6255 -0.0175 -0.4012
  485TIP3    H123014   0.365   3.050   0.733 -1.8442  0.1927  0.6171
  485TIP3    H223015   0.434   3.119   0.849 -0.0171  0.2513 -0.4707
  486TIP3   OH223016   1.356   6.350   0.290  0.0277  0.3696 -0.2873
  486TIP3    H123017   1.372   6.439   0.259 -0.7017 -0.5690 -3.7515
  486TIP3    H223018   1.262   6.337   0.282  0.3570 -1.4625 -2.4964
  487TIP3   OH223019   3.249   0.652   6.688  0.4046 -0.0159 -0.1886
  487TIP3    H123020   3.183   0.583   6.678 -0.0196 -0.1191  2.5274
  487TIP3    H223021   3.330   0.611   6.659 -0.2759 -0.7235 -1.1853
  488TIP3   OH223022   3.667   5.260   8.140  0.1227 -0.0727  0.3374
  488TIP3    H123023   3.671   5.245   8.234 -1.5914 -0.8646  0.3230
  488TIP3    H223024   3.575   5.282   8.123  0.6259  1.2255 -0.9990
  489TIP3   OH223025   0.870   1.025   7.507 -0.2016 -0.9096  0.5519
  489TIP3    H123026   0.826   0.940   7.502  0.0472 -1.1201  1.6662
  489TIP3    H223027   0.851   1.057   7.595  0.6423 -0.3297  0.5360
  490TIP3   OH223028   6.283   1.555   1.589 -0.0586 -0.1213  0.1236
  490TIP3    H123029   6.378   1.552   1.595 -0.1412 -0.4289  1.5882
  490TIP3    H223030   6.252   1.497   1.659 -1.3237  0.6535  0.2471
  491TIP3   OH223031   2.695   0.017   6.768 -0.2676 -0.2534  0.3473
  491TIP3    H123032   2.607   0.051   6.750  0.4011  1.4259  0.1808
  491TIP3    H223033   2.736   0.008   6.682  0.6414  1.5566  0.5482
  492TIP3   OH223034   3.733   5.010   8.085 -0.6519 -0.0138 -0.3175
  492TIP3    H123035   3.774   4.989   8.169 -0.8304 -2.1482 -0.7004
  492TIP3    H223036   3.750   5.103   8.072 -0.3283  0.2892  1.9158
  493TIP3   OH223037   2.532   5.430   8.371 -0.4631 -0.3156 -0.5454
  493TIP3    H123038   2.466   5.377   8.327 -1.2818  0.2208  0.0079
  493TIP3    H223039   2.554   5.382   8.450 -1.9314  0.5908  0.4633
  494TIP3   OH223040   2.825   6.151   0.592  0.1502  0.1200 -0.1189
  494TIP3    H123041   2.843   6.170   0.684 -2.0401 -2.0565  0.8892
  494TIP3    H223042   2.762   6.218   0.566 -1.7525 -1.1204  1.0592
  495TIP3   OH223043   3.195   4.142   7.062  0.7614  0.3528 -0.1502
  495TIP3    H123044   3.282   4.177   7.041  0.3167  1.4398 -0.2335
  495TIP3    H223045   3.137   4.217   7.056 -0.0130 -0.1236  1.0705
  496TIP3   OH223046   3.365   1.101   8.008 -0.0885  0.1448  0.0159
  496TIP3    H123047   3.422   1.080   8.083  0.3152  0.7872 -0.1004
  496TIP3    H223048   3.276   1.090   8.042  0.0877  0.6462  0.6647
  497TIP3   OH223049   0.129   2.478   7.299 -0.1706 -0.0425  0.2563
  497TIP3    H123050   0.043   2.501   7.266 -0.8884 -1.5781  0.9521
  497TIP3    H223051   0.116   2.463   7.393  0.2508 -2.7923 -0.0404
  498TIP3   OH223052   5.632   4.641   8.204  0.1971 -0.0858  0.5508
  498TIP3    H123053   5.660   4.594   8.125  1.0053 -0.0353  0.7992
  498TIP3    H223054   5.640   4.577   8.275 -1.6611 -0.4990  0.4480
  499TIP3   OH223055   6.437   3.533   0.720 -0.5265  0.1183 -0.2449
  499TIP3    H123056   6.410   3.507   0.632 -1.7932 -0.6162  0.3444
  499TIP3    H223057   6.533   3.529   0.718 -0.5041  0.6793 -1.7492
  500TIP3   OH223058   4.659   1.184   0.813 -0.1312 -0.4440 -0.8722
  500TIP3    H123059   4.601   1.255   0.842  0.7115  0.6441 -1.7986
  500TIP3    H223060   4.600   1.110   0.801 -1.1381  0.2630 -0.5038
  501TIP3   OH223061   0.300   6.412   1.423 -0.0740 -0.0467 -0.0242
  501TIP3    H123062   0.237   6.445   1.359 -0.8757 -1.2788  0.0882
  501TIP3    H223063   0.264   6.435   1.508 -0.1719 -0.3837  0.0294
  502TIP3   OH223064   6.167   3.441   7.227  0.1252  0.3397  0.3828
  502TIP3    H123065   6.157   3.382   7.302 -0.8311  1.5035  1.2059
  502TIP3    H223066   6.262   3.447   7.214  0.2908 -0.2087  1.2412
  503TIP3   OH223067   1.187   1.069   7.608  0.4438 -0.6710 -0.0243
  503TIP3    H123068   1.195   1.160   7.638  1.6110  0.1774 -2.6876
  503TIP3    H223069   1.274   1.032   7.619  0.3466 -1.0156 -0.3826
  504TIP3   OH223070   2.121   2.733   7.457 -0.7853  0.4878 -0.2144
  504TIP3    H123071   2.120   2.829   7.454  0.9853  0.7332  2.9273
  504TIP3    H223072   2.032   2.709   7.482 -0.9828  1.4002 -0.0047
  505TIP3   OH223073   1.886   0.968   0.022  0.1679 -0.1796 -0.3689
  505TIP3    H123074   1.872   0.972   0.117 -0.3744  1.3935 -0.4733
  505TIP3    H223075   1.981   0.958   0.012  0.3285  0.4572  0.3613
  506TIP3   OH223076   3.717   0.807   1.116  0.4140  0.2838 -0.5392
  506TIP3    H123077   3.748   0.727   1.159 -2.3753 -1.3542 -1.3301
  506TIP3    H223078   3.641   0.834   1.167  1.0802  2.2698 -0.5246
  507TIP3   OH223079   3.866   6.365   7.811  0.2163  0.8092 -0.0077
  507TIP3    H123080   3.813   6.324   7.742  2.2354 -1.4311 -0.3653
  507TIP3    H223081   3.951   6.320   7.805  0.6765  0.9648  3.5302
  508TIP3   OH223082   0.555   6.029   7.417  0.5185  0.1253  0.3436
  508TIP3    H123083   0.642   6.052   7.451  0.3308 -0.8164  1.5275
  508TIP3    H223084   0.500   6.021   7.496 -0.1267 -1.3886 -0.2266
  509TIP3   OH223085   5.807   2.517   0.376 -0.1403 -0.2213 -0.4436
  509TIP3    H123086   5.843   2.468   0.302 -1.1251 -0.8708 -0.5080
  509TIP3    H223087   5.750   2.456   0.420 -0.1456  0.3959  0.4316
  510TIP3   OH223088   0.748   6.507   6.986  0.6803  0.4500 -0.6882
  510TIP3    H123089   0.791   6.462   6.913  0.8714  1.0409 -0.9462
  510TIP3    H223090   0.728   6.437   7.049  1.1117  0.0271 -1.0117
  511TIP3   OH223091   4.227   2.690   0.643  0.1705 -0.6298 -0.3518
  511TIP3    H123092   4.191   2.776   0.663 -1.6924 -1.0208 -1.6700
  511TIP3    H223093   4.296   2.707   0.579 -2.0400 -0.1870 -2.8097
  512TIP3   OH223094   5.818   1.417   0.525  0.7303  0.4813 -0.7854
  512TIP3    H123095   5.867   1.489   0.564  2.6772 -0.6558 -1.0138
  512TIP3    H223096   5.733   1.419   0.569  0.0894  3.8077 -1.8152
  513TIP3   OH223097   6.728   6.700   1.104  0.2506  0.0595 -0.0505
  513TIP3    H123098   6.768   6.616   1.081  0.2773  0.2374 -0.6721
  513TIP3    H223099   6.767   6.722   1.189 -0.0316 -0.7242  0.2982
  514TIP3   OH223100   5.126   1.025   0.857 -0.5686 -0.2851 -0.2819
  514TIP3    H123101   5.141   1.088   0.927 -0.5972 -0.6031  0.0141
  514TIP3    H223102   5.168   1.064   0.780 -2.5823  1.2115 -0.6953
  515TIP3   OH223103   0.151   6.613   1.271  0.1928  0.6251  0.3288
  515TIP3    H123104   0.116   6.696   1.305  0.2531  1.3452 -1.3088
  515TIP3    H223105   0.245   6.628   1.263  0.1451  0.5621 -0.4037
  516TIP3   OH223106   5.619   4.624   1.358  0.2031  0.4901 -0.0117
  516TIP3    H123107   5.685   4.587   1.417  0.6653  0.0184 -0.8072
  516TIP3    H223108   5.657   4.615   1.271 -1.1665 -0.3555 -0.5515
  517TIP3   OH223109   5.681   1.754   0.821 -0.0006  0.2396  0.1900
  517TIP3    H123110   5.616   1.686   0.839  0.8114 -0.1781  1.6519
  517TIP3    H223111   5.750   1.740   0.886 -0.4599  3.3270  1.5372
  518TIP3   OH223112   5.818   5.125   8.037 -0.0817  0.0828  0.2526
  518TIP3    H123113   5.821   5.112   8.132 -1.6773  1.9408  0.6276
  518TIP3    H223114   5.783   5.043   8.003  0.9951 -0.8022  1.1802
  519TIP3   OH223115   0.080   3.567   0.487 -0.7137  0.0889  0.0049
  519TIP3    H123116   0.090   3.540   0.396  2.0072 -0.3191  0.3362
  519TIP3    H223117   0.006   3.516   0.520  0.3217 -2.2527 -1.1156
  520TIP3   OH223118   2.914   3.904   0.830  0.2545  0.0253 -0.0511
  520TIP3    H123119   2.973   3.980   0.835  0.2566  0.1855 -1.8081
  520TIP3    H223120   2.826   3.942   0.832  0.1530 -0.2169  2.6127
  521TIP3   OH223121   5.865   1.705   8.414 -0.0247 -0.4187 -0.0069
  521TIP3    H123122   5.864   1.685   8.320  0.4118  0.4093 -0.1948
  521TIP3    H223123   5.837   1.623   8.456  1.2530 -1.2840 -0.7713
  522TIP3   OH223124   0.596   3.390   6.215 -1.4369  0.5417 -0.2138
  522TIP3    H123125   0.601   3.485   6.213  3.5022  0.5590 -1.1605
  522TIP3    H223126   0.594   3.368   6.308  2.0109  1.8055  0.3369
  523TIP3   OH223127   2.345   0.206   0.774 -0.0509  0.0902 -0.1005
  523TIP3    H123128   2.354   0.229   0.681 -0.7800 -0.9412 -0.4470
  523TIP3    H223129   2.428   0.164   0.796  0.8083  1.8834  0.2090
  524TIP3   OH223130   6.395   4.768   0.445 -0.2444  0.1119 -0.4800
  524TIP3    H123131   6.475   4.769   0.498 -0.9740  0.4164  0.6503
  524TIP3    H223132   6.378   4.676   0.427 -1.2327 -0.1980  1.7963
  525TIP3   OH223133   5.856   5.215   8.500 -0.3968  0.5951 -0.3520
  525TIP3    H123134   5.892   5.128   8.518  0.5811  0.9539 -0.5255
  525TIP3    H223135   5.804   5.203   8.421  3.5169  1.0385 -3.2831
  526TIP3   OH223136   6.315   4.564   1.433 -0.0304  0.2624 -0.1573
  526TIP3    H123137   6.247   4.624   1.462  0.1425  0.4925 -0.2237
  526TIP3    H223138   6.396   4.600   1.470  0.2313  0.7091 -1.1411
  527TIP3   OH223139   6.193   6.802   7.875 -0.0702  0.1727 -0.1597
  527TIP3    H123140   6.125   6.835   7.817 -0.6936  0.7040  0.8473
  527TIP3    H223141   6.228   6.880   7.918  1.9174  0.0497 -1.3952
  528TIP3   OH223142   5.684   6.683   7.577  0.1867 -0.1795 -0.3123
  528TIP3    H123143   5.695   6.755   7.639  1.2235  0.7063 -1.4785
  528TIP3    H223144   5.592   6.689   7.551  0.2719  0.7955 -0.4462
  529TIP3   OH223145   4.059   3.171   8.354 -0.4562 -0.4171 -0.1705
  529TIP3    H123146   4.025   3.179   8.265  0.5516 -1.3332 -0.6663
  529TIP3    H223147   3.994   3.214   8.409 -0.7371  0.8261 -1.4225
  530TIP3   OH223148   0.621   3.216   8.287  0.2775  0.7322 -0.0917
  530TIP3    H123149   0.599   3.123   8.285  2.9119  0.0090  0.5811
  530TIP3    H223150   0.596   3.244   8.375 -0.4321  0.6644 -0.2634
  531TIP3   OH223151   0.240   1.494   7.452 -0.4274  0.0228 -0.9318
  531TIP3    H123152   0.246   1.442   7.372 -2.6971  0.9104 -1.7768
  531TIP3    H223153   0.150   1.479   7.483  0.5489 -0.7420  1.8217
  532TIP3   OH223154   1.822   6.004   6.238  0.9283  0.6237  0.2023
  532TIP3    H123155   1.819   6.071   6.169  0.2421  0.7565  0.3548
  532TIP3    H223156   1.779   5.928   6.200  0.6848  0.6474  0.4317
  533TIP3   OH223157   2.114   1.902   1.869 -0.8869 -0.3945 -0.3179
  533TIP3    H123158   2.076   1.988   1.890  0.4632  0.1929 -0.2042
  533TIP3    H223159   2.144   1.868   1.954  2.7517  1.0943 -0.8364
  534TIP3   OH223160   1.912   6.063   2.145  0.2498  0.3661 -0.2337
  534TIP3    H123161   1.875   6.106   2.068  1.1351  3.0723  0.7329
  534TIP3    H223162   1.997   6.106   2.157  1.8979 -2.6650  0.0865
  535TIP3   OH223163   5.614   0.831   0.686 -0.6028  0.1738  0.3439
  535TIP3    H123164   5.665   0.778   0.747 -0.5778 -0.8298 -0.5274
  535TIP3    H223165   5.674   0.848   0.613 -0.7663  1.0139  0.3909
  536TIP3   OH223166   1.232   6.667   1.506 -0.2398 -0.1856  0.0041
  536TIP3    H123167   1.203   6.750   1.469 -1.2510  0.2747  1.7497
  536TIP3    H223168   1.296   6.634   1.442 -0.8928  1.2010 -1.4390
  537TIP3   OH223169   5.814   0.416   2.279  0.2544  0.1514  0.3689
  537TIP3    H123170   5.823   0.321   2.277 -0.2822  0.0086  2.5833
  537TIP3    H223171   5.719   0.431   2.285  0.2836  0.8690 -0.7196
  538TIP3   OH223172   5.647   6.063   0.995  0.3320  0.4468  0.2607
  538TIP3    H123173   5.590   5.988   0.977 -0.8379  1.5429 -0.8344
  538TIP3    H223174   5.649   6.112   0.913  2.3159  0.8227  0.5010
  539TIP3   OH223175   6.013   5.919   8.294  0.0770  0.0172  0.6544
  539TIP3    H123176   5.966   5.847   8.252  0.6672  0.8717 -1.6073
  539TIP3    H223177   6.095   5.925   8.245  0.7749  1.1412  1.9079
  540TIP3   OH223178   6.663   6.167   7.409  0.0590  0.0979  0.6848
  540TIP3    H123179   6.597   6.217   7.362  1.1689  0.8597 -0.1220
  540TIP3    H223180   6.655   6.196   7.500 -0.2664  0.6700  0.4739
  541TIP3   OH223181   1.035   2.868   8.359 -0.1479 -0.1495  0.3637
  541TIP3    H123182   0.987   2.928   8.302  0.7731  0.7160  0.4603
  541TIP3    H223183   1.113   2.917   8.385 -1.0902 -0.0322  3.3743
  542TIP3   OH223184   2.789   5.631   1.616  0.1415 -0.2807  0.0301
  542TIP3    H123185   2.744   5.594   1.693 -1.7937  1.6892 -0.0585
  542TIP3    H223186   2.733   5.608   1.542  0.4947  0.2442 -0.4084
  543TIP3   OH223187   2.366   3.445   1.180 -0.4810 -0.0234  0.8067
  543TIP3    H123188   2.387   3.513   1.117 -0.4028 -1.5001 -0.8256
  543TIP3    H223189   2.425   3.461   1.254  0.1463  1.1305  0.0707
  544TIP3   OH223190   2.351   3.084   7.948 -0.1451 -0.0758  0.1715
  544TIP3    H123191   2.392   3.055   8.029  2.0269  0.4602 -0.6566
  544TIP3    H223192   2.339   3.179   7.960 -0.4652 -0.1096  0.1278
  545TIP3   OH223193   5.057   3.036   0.585  0.0971  0.0687  0.1442
  545TIP3    H123194   5.101   3.104   0.638  0.2987  0.6540 -0.7510
  545TIP3    H223195   5.014   3.085   0.515 -1.8430 -0.5119  0.8779
  546TIP3   OH223196   3.332   0.997   7.452 -0.3607  0.2104  0.3484
  546TIP3    H123197   3.420   0.977   7.421 -0.1020  0.9440  0.5971
  546TIP3    H223198   3.345   1.034   7.539 -0.9013  0.4732  0.3203
  547TIP3   OH223199   6.732   3.076   7.988  0.6451 -0.1132 -0.2182
  547TIP3    H123200   6.702   2.996   8.030  0.6150 -0.3417 -0.6653
  547TIP3    H223201   6.712   3.145   8.050  1.2647 -0.5262  0.4495
  548TIP3   OH223202   3.937   0.108   1.241 -0.5904 -0.0423  0.1302
  548TIP3    H123203   3.880   0.047   1.287  0.1197  0.5595  1.8956
  548TIP3    H223204   4.018   0.109   1.293 -0.0043  1.1770 -0.7676
  549TIP3   OH223205   4.075   4.195   0.254 -0.1889 -0.5700 -0.4461
  549TIP3    H123206   4.079   4.208   0.349 -0.3349 -2.4307 -0.1308
  549TIP3    H223207   4.163   4.168   0.230  1.1296  3.9794 -1.6678
  550TIP3   OH223208   5.616   4.114   0.808 -0.6933  0.0112 -0.2403
  550TIP3    H123209   5.699   4.110   0.761 -1.2566 -0.4146 -1.2263
  550TIP3    H223210   5.582   4.024   0.804 -0.7320 -0.0469  1.0320
  551TIP3   OH223211   3.036   2.352   8.061 -0.1978 -0.3267 -0.0756
  551TIP3    H123212   3.061   2.313   8.145  0.3199 -0.7369 -0.4131
  551TIP3    H223213   3.061   2.287   7.996  3.2110  1.5892 -0.9132
  552TIP3   OH223214   2.571   2.547   1.879  0.4752 -0.4291  0.2435
  552TIP3    H123215   2.632   2.522   1.949 -1.0108 -0.3070  1.6389
  552TIP3    H223216   2.567   2.471   1.822 -0.8215 -1.9062  2.1725
  553TIP3   OH223217   0.628   5.105   1.282 -0.0712 -0.6252  0.2358
  553TIP3    H123218   0.714   5.064   1.270  0.4539  0.6334 -0.6290
  553TIP3    H223219   0.581   5.087   1.201 -0.0340 -0.0170  0.0690
  554TIP3   OH223220   2.528   6.702   1.316  0.3892  0.1273  0.3773
  554TIP3    H123221   2.485   6.784   1.294  0.5943  0.1853  0.1816
  554TIP3    H223222   2.601   6.727   1.373  1.2856  0.2452 -0.7758
  555TIP3   OH223223   2.816   4.144   1.588 -0.1346  0.5358 -0.2108
  555TIP3    H123224   2.785   4.196   1.663  0.8880 -0.9103  1.3011
  555TIP3    H223225   2.793   4.054   1.611  1.1146 -0.0482 -1.1572
  556TIP3   OH223226   1.447   5.514   1.601  0.5693  0.0974  0.0677
  556TIP3    H123227   1.433   5.430   1.645  0.3906 -0.1258 -0.4068
  556TIP3    H223228   1.537   5.510   1.568  0.3237 -0.2099 -0.5851
  557TIP3   OH223229   1.648   5.023   8.346  0.2672 -0.1923  0.1206
  557TIP3    H123230   1.596   4.953   8.384  0.6553 -0.1235  0.8075
  557TIP3    H223231   1.699   4.981   8.277 -0.9537 -0.1852 -0.8212
  558TIP3   OH223232   5.263   5.816   2.164 -0.3191 -0.3540  0.4482
  558TIP3    H123233   5.247   5.772   2.247 -0.2149  0.9187  1.1640
  558TIP3    H223234   5.331   5.764   2.122 -1.9055 -2.3035  0.1203
  559TIP3   OH223235   5.913   3.154   2.456  0.3348 -0.4604 -0.2623
  559TIP3    H123236   5.844   3.169   2.393  1.0426 -0.0435 -0.9582
  559TIP3    H223237   5.964   3.235   2.456  0.0461 -0.2425  1.2410
  560TIP3   OH223238   1.879   4.894   7.726 -0.0306 -0.4588 -0.2299
  560TIP3    H123239   1.876   4.845   7.808 -0.8099 -1.5432 -0.8804
  560TIP3    H223240   1.795   4.941   7.724 -0.5329 -1.3590 -0.9356
  561TIP3   OH223241   0.841   3.236   6.238 -0.2618  0.0761 -0.0475
  561TIP3    H123242   0.769   3.200   6.289 -0.5427 -0.1383 -0.5954
  561TIP3    H223243   0.806   3.249   6.150  0.6546 -1.0394 -0.6101
  562TIP3   OH223244   0.496   1.942   0.613 -0.2797  0.4088 -0.1372
  562TIP3    H123245   0.461   1.943   0.524  0.7107 -0.1922 -0.5416
  562TIP3    H223246   0.540   2.026   0.624  1.0584 -0.1767 -0.8249
  563TIP3   OH223247   5.016   3.261   7.234 -0.1409  0.8145  0.2834
  563TIP3    H123248   4.943   3.318   7.259 -0.5035  0.2855  0.4389
  563TIP3    H223249   4.993   3.228   7.147  0.7311  1.9984 -0.4249
  564TIP3   OH223250   5.611   3.876   7.236 -0.1908  0.3790  0.1033
  564TIP3    H123251   5.576   3.843   7.154 -2.0024 -0.5414  1.1809
  564TIP3    H223252   5.679   3.939   7.210  0.3245 -0.9688 -2.0474
  565TIP3   OH223253   4.056   6.082   0.787 -0.2295 -0.2647  0.8010
  565TIP3    H123254   4.052   6.012   0.852  1.5194  0.6433  1.9803
  565TIP3    H223255   4.002   6.151   0.824 -0.7345 -0.4309  0.3764
  566TIP3   OH223256   0.149   2.602   2.490 -0.1055  0.1896 -0.4499
  566TIP3    H123257   0.141   2.694   2.514  0.2054  0.2011 -0.3913
  566TIP3    H223258   0.115   2.554   2.566 -1.3934  0.2775 -0.9488
  567TIP3   OH223259   5.130   0.590   0.003 -0.2195 -0.5626 -0.3422
  567TIP3    H123260   5.070   0.547   0.064 -1.6432 -1.3079 -2.1567
  567TIP3    H223261   5.109   0.683   0.010 -1.4963 -0.7960 -0.8036
  568TIP3   OH223262   5.457   1.818   8.316 -0.4539 -0.2782 -0.8819
  568TIP3    H123263   5.507   1.825   8.235 -2.6318 -2.8751 -2.6363
  568TIP3    H223264   5.380   1.873   8.300 -1.0026 -0.9814 -0.6950
  569TIP3   OH223265   2.955   4.378   0.837 -0.0331 -0.2814  0.2677
  569TIP3    H123266   3.027   4.406   0.893  0.3598 -0.4187 -0.1587
  569TIP3    H223267   2.888   4.445   0.848 -0.1907 -0.6051  1.3281
  570TIP3   OH223268   6.495   2.646   0.967 -0.5971 -0.2675  0.3095
  570TIP3    H123269   6.545   2.623   0.889  1.5329  0.5819  1.3357
  570TIP3    H223270   6.535   2.728   0.998 -2.7294  0.5319  1.1667
  571TIP3   OH223271   0.312   6.350   7.353 -0.0411  0.3223  0.3859
  571TIP3    H123272   0.230   6.322   7.311 -0.0135  1.3464 -0.3848
  571TIP3    H223273   0.381   6.309   7.300 -0.0333  0.1112  0.5561
  572TIP3   OH223274   2.305   4.603   7.192 -0.5734 -0.0572  0.1970
  572TIP3    H123275   2.288   4.523   7.142 -0.9289  0.8394 -1.1820
  572TIP3    H223276   2.220   4.631   7.223 -0.3277 -0.7278  1.5582
  573TIP3   OH223277   5.577   1.873   1.107 -0.1224  0.6639  0.1261
  573TIP3    H123278   5.661   1.843   1.073 -1.0297  1.3171 -2.9539
  573TIP3    H223279   5.525   1.792   1.114 -0.0061  0.5396 -0.3685
  574TIP3   OH223280   6.317   0.679   6.970  0.2433  0.3768 -0.4021
  574TIP3    H123281   6.228   0.652   6.992  0.3122  0.2527 -0.2671
  574TIP3    H223282   6.372   0.608   7.004  0.3823  0.3783 -0.6205
  575TIP3   OH223283   5.962   5.334   7.954 -0.2959  0.3855 -0.0993
  575TIP3    H123284   5.892   5.281   7.992 -0.4997 -0.8912 -2.0817
  575TIP3    H223285   5.918   5.394   7.894 -0.0319  2.6873  1.8783
  576TIP3   OH223286   4.937   5.113   7.821  0.1987 -0.2225 -0.3561
  576TIP3    H123287   5.030   5.132   7.814  0.1486 -0.4311 -1.7957
  576TIP3    H223288   4.932   5.018   7.828  0.1993 -0.1030  2.3872
  577TIP3   OH223289   1.615   4.055   0.419  0.0274 -0.4878 -0.6074
  577TIP3    H123290   1.582   4.131   0.370 -0.1498 -0.3960 -0.3509
  577TIP3    H223291   1.537   4.010   0.450 -0.1806  2.4095  4.2322
  578TIP3   OH223292   1.585   3.165   8.588 -0.4256 -0.0257  0.1271
  578TIP3    H123293   1.636   3.170   8.507  0.0269  0.7080  0.4535
  578TIP3    H223294   1.494   3.170   8.559 -0.3455 -1.4660 -0.4724
  579TIP3   OH223295   0.059   4.835   0.473 -0.3625  0.3749  0.1479
  579TIP3    H123296   0.020   4.772   0.411  1.0524  1.0941 -1.5561
  579TIP3    H223297   0.103   4.780   0.538  0.0146 -0.4262 -0.7603
  580TIP3   OH223298   2.627   0.412   0.224  0.3066 -0.0859 -0.1539
  580TIP3    H123299   2.654   0.410   0.132  1.3330 -0.7607  0.1556
  580TIP3    H223300   2.693   0.361   0.270 -0.8600 -0.7961  0.7942
  581TIP3   OH223301   2.766   3.356   8.196  0.1991 -0.2089 -0.0569
  581TIP3    H123302   2.765   3.292   8.267  0.3885 -0.7002 -0.4905
  581TIP3    H223303   2.858   3.380   8.186 -0.0290  1.4050  1.2109
  582TIP3   OH223304   2.863   1.339   8.034 -0.4900  0.7877  0.3233
  582TIP3    H123305   2.772   1.370   8.031 -0.3578  1.1872  0.3394
  582TIP3    H223306   2.900   1.382   8.111 -0.4637  0.1239  0.6884
  583TIP3   OH223307   1.181   6.065   7.957 -0.3181 -0.0539 -0.4666
  583TIP3    H123308   1.215   6.077   7.868 -1.0060 -0.1478 -0.7480
  583TIP3    H223309   1.146   5.976   7.957  1.0859 -0.6307  0.3803
  584TIP3   OH223310   5.656   6.671   0.291 -0.2433  0.8127 -0.2643
  584TIP3    H123311   5.638   6.704   0.203 -1.3711  0.9312 -0.0026
  584TIP3    H223312   5.599   6.722   0.349  0.3708  0.6300  0.5243
  585TIP3   OH223313   2.717   3.958   7.815 -0.1760 -0.4492 -0.3081
  585TIP3    H123314   2.725   3.908   7.733  0.6960  0.4516 -0.7987
  585TIP3    H223315   2.786   4.024   7.809 -1.4504  0.9911  0.1886
  586TIP3   OH223316   2.615   4.306   7.469  0.1414  0.2353  0.2670
  586TIP3    H123317   2.617   4.349   7.554  2.3543  0.9686 -0.0897
  586TIP3    H223318   2.597   4.214   7.488 -0.5055  0.5772  1.3994
  587TIP3   OH223319   1.994   1.774   0.726 -0.5181  0.0722  0.4322
  587TIP3    H123320   1.991   1.681   0.705 -1.7262 -0.1421  1.4522
  587TIP3    H223321   1.905   1.795   0.755 -0.1740  1.4657  0.5421
  588TIP3   OH223322   2.821   5.616   0.942 -0.3980 -0.4416  0.7905
  588TIP3    H123323   2.834   5.674   1.017 -1.7045  0.5821  0.2788
  588TIP3    H223324   2.830   5.528   0.978 -2.0469 -0.0129  2.4185
  589TIP3   OH223325   1.011   1.088   0.588 -0.2520 -0.5322 -0.3311
  589TIP3    H123326   1.076   1.135   0.639 -0.3675  0.9143 -1.4732
  589TIP3    H223327   1.062   1.042   0.521 -0.3076 -0.3133 -0.5247
  590TIP3   OH223328   4.525   2.381   8.555 -0.7918  0.3397 -0.3524
  590TIP3    H123329   4.495   2.322   8.486  0.8431 -1.3614  0.2914
  590TIP3    H223330   4.473   2.358   8.631 -0.1573 -0.3277 -0.1022
  591TIP3   OH223331   2.367   3.506   0.410  0.0692  0.3348  0.1431
  591TIP3    H123332   2.318   3.522   0.330  2.4592  0.4673 -1.3631
  591TIP3    H223333   2.438   3.570   0.408  1.0206 -0.6149  1.6358
  592TIP3   OH223334   4.751   1.006   7.265 -0.2378 -1.0568 -0.2391
  592TIP3    H123335   4.706   0.925   7.290 -0.4434 -0.5989  0.9598
  592TIP3    H223336   4.834   0.977   7.229 -0.4643 -1.8224 -0.1694
  593TIP3   OH223337   5.906   3.086   0.587 -0.2999 -0.5053  0.3148
  593TIP3    H123338   5.942   3.144   0.654 -1.0255 -1.6039  1.7157
  593TIP3    H223339   5.925   3.130   0.504  1.2651  0.5563  1.1773
  594TIP3   OH223340   0.480   2.077   0.264 -0.2093  0.4654 -0.2523
  594TIP3    H123341   0.550   2.013   0.270 -0.0369  0.7273  0.8561
  594TIP3    H223342   0.525   2.161   0.257 -0.4290  0.5213 -1.0810
  595TIP3   OH223343   0.088   5.997   1.972  1.1246  0.3043 -0.4037
  595TIP3    H123344   0.170   6.045   1.977  0.2297  1.9565 -0.6445
  595TIP3    H223345   0.093   5.933   2.042  1.7609  1.7896  0.9728
  596TIP3   OH223346   0.367   1.664   1.912 -0.0856 -0.0510  0.2328
  596TIP3    H123347   0.354   1.636   2.002  1.8372 -3.8447 -0.4707
  596TIP3    H223348   0.331   1.592   1.859 -0.3528  1.6462 -2.0382
  597TIP3   OH223349   3.557   4.038   7.343 -0.3789 -0.9924 -0.4315
  597TIP3    H123350   3.592   4.114   7.295 -0.9020  1.2439  2.4431
  597TIP3    H223351   3.634   3.985   7.364  0.3478 -0.0016 -0.4897
  598TIP3   OH223352   2.309   2.059   6.405  0.5124 -0.0063  0.0783
  598TIP3    H123353   2.214   2.070   6.410  0.5086  0.0500 -0.1034
  598TIP3    H223354   2.333   2.015   6.486  0.3887  0.3768  0.3205
  599TIP3   OH223355   3.728   4.082   0.366  0.7940 -0.6260  0.3122
  599TIP3    H123356   3.734   4.159   0.422  2.5012 -1.2425  1.0675
  599TIP3    H223357   3.641   4.046   0.383 -0.3667  1.5567 -0.6949
  600TIP3   OH223358   3.247   5.944   7.799  0.4204 -0.0141 -0.0002
  600TIP3    H123359   3.280   5.870   7.850  0.4831 -0.1227 -0.1987
  600TIP3    H223360   3.190   5.992   7.860  0.4121 -0.2016  0.1391
  601TIP3   OH223361   3.767   5.488   6.083 -0.0806 -0.0926 -0.3768
  601TIP3    H123362   3.852   5.453   6.056 -0.2076 -0.2721 -0.5435
  601TIP3    H223363   3.711   5.477   6.006 -0.0994  0.5518 -0.4645
  602TIP3   OH223364   3.906   2.465   0.883 -0.1859  0.1035  0.6195
  602TIP3    H123365   3.940   2.506   0.804 -2.3521  1.5376  0.3230
  602TIP3    H223366   3.980   2.419   0.921  0.7840 -1.2192 -2.5806
  603TIP3   OH223367   5.980   1.993   2.116  0.0096  0.0305 -0.6583
  603TIP3    H123368   5.902   2.030   2.156  0.4368  0.1873  0.0418
  603TIP3    H223369   6.008   1.924   2.176  0.7322  0.3584 -0.6018
  604TIP3   OH223370   1.366   0.918   6.513  0.3458 -0.5633 -0.5260
  604TIP3    H123371   1.309   0.886   6.583  1.8849 -1.6108  0.3090
  604TIP3    H223372   1.354   1.013   6.513  0.1322 -0.5727  1.0129
  605TIP3   OH223373   2.241   2.670   1.892 -0.4327 -0.0393  0.2518
  605TIP3    H123374   2.210   2.727   1.962 -0.1022 -0.0039  0.3689
  605TIP3    H223375   2.178   2.598   1.890 -0.3008 -0.1683  0.7509
  606TIP3   OH223376   4.655   0.067   0.719  0.8542 -0.0090  0.3111
  606TIP3    H123377   4.720   0.008   0.757  2.2011  2.0509  1.3647
  606TIP3    H223378   4.572   0.039   0.758  0.9133 -3.0114 -1.4427
  607TIP3   OH223379   6.793   2.369   2.115  0.5861  0.0798 -0.4457
  607TIP3    H123380   6.851   2.385   2.189 -0.4292 -2.3035  0.9711
  607TIP3    H223381   6.733   2.301   2.145  0.3137 -1.2385 -3.5553
  608TIP3   OH223382   2.738   3.353   1.042 -0.4772  0.2867 -0.2882
  608TIP3    H123383   2.681   3.290   1.086  0.5406  0.1229  0.8437
  608TIP3    H223384   2.806   3.372   1.106  1.0069  0.1426 -1.7738
  609TIP3   OH223385   0.472   0.511   8.603  0.7094  0.4986  0.0039
  609TIP3    H123386   0.452   0.574   8.672  0.1890 -0.0073  0.3258
  609TIP3    H223387   0.433   0.548   8.524 -1.4436 -0.3883  0.5845
  610TIP3   OH223388   2.606   3.733   1.728 -0.6396  0.2739 -0.5223
  610TIP3    H123389   2.555   3.664   1.770 -0.9319  0.6194 -0.2972
  610TIP3    H223390   2.553   3.762   1.654 -0.8996  0.8122 -0.1348
  611TIP3   OH223391   2.311   4.118   7.705 -0.4624 -0.3446  0.0203
  611TIP3    H123392   2.247   4.083   7.643 -1.1445 -1.8582  1.4893
  611TIP3    H223393   2.300   4.213   7.701 -2.2351 -0.5387 -0.3734
  612TIP3   OH223394   3.521   2.451   6.769  0.1260 -0.4143 -0.4544
  612TIP3    H123395   3.557   2.508   6.701 -0.1886 -1.0800 -1.1925
  612TIP3    H223396   3.434   2.428   6.737 -0.8472  0.8554  1.1145
  613TIP3   OH223397   4.979   5.344   0.792  0.1700  0.0944 -0.0677
  613TIP3    H123398   4.910   5.383   0.846  0.4989  0.4118  0.1295
  613TIP3    H223399   5.060   5.388   0.820  0.5155 -0.5593 -0.0140
  614TIP3   OH223400   6.287   6.572   7.403 -0.3951 -0.2487  0.1280
  614TIP3    H123401   6.361   6.563   7.344  1.3127 -0.5109  2.1822
  614TIP3    H223402   6.326   6.597   7.487 -2.8529  2.2236  0.6838
  615TIP3   OH223403   3.111   2.913   1.223 -0.0828  0.2093  0.0796
  615TIP3    H123404   3.082   3.001   1.198 -0.9197 -0.3517 -1.0014
  615TIP3    H223405   3.144   2.874   1.141 -0.6988 -0.8461  0.3126
  616TIP3   OH223406   3.975   1.991   1.787 -0.1118  0.1675  0.6749
  616TIP3    H123407   3.942   2.055   1.850  0.7026 -0.4380  1.7430
  616TIP3    H223408   4.059   2.028   1.758 -0.1489  0.0947  0.4703
  617TIP3   OH223409   3.544   0.753   8.595 -0.3029 -0.2474  0.8453
  617TIP3    H123410   3.619   0.805   8.566 -0.7071  1.2282  2.2979
  617TIP3    H223411   3.577   0.663   8.601  0.9616  0.1605  0.2166
  618TIP3   OH223412   2.876   5.929   6.128  0.3701 -0.2110  0.2332
  618TIP3    H123413   2.895   5.890   6.213  0.8135 -0.7685 -0.1119
  618TIP3    H223414   2.816   6.001   6.147  0.4886 -0.3128  1.0173
  619TIP3   OH223415   5.766   0.273   6.596  0.2270  0.1981 -0.2483
  619TIP3    H123416   5.856   0.263   6.565  0.2750 -0.1993  0.0034
  619TIP3    H223417   5.775   0.307   6.685  0.0665  2.5786 -1.0673
  620TIP3   OH223418   3.619   0.207   7.582  0.5074 -0.1171  0.0383
  620TIP3    H123419   3.713   0.198   7.595  0.6999  1.4281 -0.0735
  620TIP3    H223420   3.601   0.299   7.601 -0.9228 -0.2986 -0.3117
  621TIP3   OH223421   2.386   0.548   0.293  0.2431 -0.1982  0.3895
  621TIP3    H123422   2.466   0.505   0.261 -1.1112 -2.0729 -0.6966
  621TIP3    H223423   2.411   0.640   0.304  1.6183  0.1035 -3.6065
  622TIP3   OH223424   5.982   0.200   2.475 -0.0180 -0.3730  0.6433
  622TIP3    H123425   5.903   0.158   2.438  0.7714 -0.6899 -0.7535
  622TIP3    H223426   6.043   0.128   2.488  0.8547  0.1454 -0.4627
  623TIP3   OH223427   0.589   2.074   7.611 -0.0004 -0.0711 -0.3205
  623TIP3    H123428   0.573   2.119   7.694 -0.6876 -0.3186 -0.3118
  623TIP3    H223429   0.656   2.009   7.631  0.5423  0.5198 -0.1880
  624TIP3   OH223430   5.628   5.952   7.996  0.1746  0.2372 -0.2889
  624TIP3    H123431   5.578   6.013   7.942  1.7345  0.0811 -2.0112
  624TIP3    H223432   5.638   5.996   8.080 -2.6965  0.3047  0.0969
  625TIP3   OH223433   5.467   4.440   8.049 -0.5241 -0.0828  0.2612
  625TIP3    H123434   5.541   4.466   7.993  0.4426 -1.2556  0.9470
  625TIP3    H223435   5.470   4.502   8.122 -2.6817  2.4133 -1.5495
  626TIP3   OH223436   1.953   2.115   8.217 -0.2323  0.5648  0.3477
  626TIP3    H123437   1.906   2.064   8.151  0.1641 -0.8004  1.0974
  626TIP3    H223438   2.042   2.123   8.181  0.0957 -0.5360  0.8910
  627TIP3   OH223439   5.936   0.427   0.191  0.2341  0.1526  0.7571
  627TIP3    H123440   6.007   0.425   0.255  1.0626 -0.1530 -0.1322
  627TIP3    H223441   5.952   0.507   0.141  0.5742 -0.4417 -0.1094
  628TIP3   OH223442   5.825   5.233   1.575 -0.4027  0.3347 -0.0526
  628TIP3    H123443   5.747   5.238   1.519 -0.7648  0.8897  0.4964
  628TIP3    H223444   5.854   5.324   1.585 -0.9761  0.3723  1.5428
  629TIP3   OH223445   1.519   4.735   0.807  0.4439  0.4048  0.2168
  629TIP3    H123446   1.587   4.796   0.778 -1.3852  2.0592 -0.8834
  629TIP3    H223447   1.487   4.771   0.889  0.9928 -0.4713  0.8284
  630TIP3   OH223448   3.217   5.172   8.409  0.1588 -0.3670 -0.1870
  630TIP3    H123449   3.126   5.179   8.379 -1.0463  0.4202  3.1075
  630TIP3    H223450   3.270   5.194   8.333 -2.4834  1.1194 -1.7540
  631TIP3   OH223451   5.439   0.248   7.971 -0.1242 -0.5467 -0.2107
  631TIP3    H123452   5.525   0.246   8.014  1.3296  2.2524 -2.5395
  631TIP3    H223453   5.405   0.335   7.991 -1.5469 -0.9360 -0.8453
  632TIP3   OH223454   6.643   1.983   6.416  0.0852 -0.7254  0.5331
  632TIP3    H123455   6.695   2.054   6.453  0.5583 -0.5564 -0.4401
  632TIP3    H223456   6.703   1.937   6.357 -0.6701 -0.9662 -0.0545
  633TIP3   OH223457   3.357   3.145   7.793  0.2892  0.0795  0.0905
  633TIP3    H123458   3.447   3.154   7.823  0.2723 -1.9405  0.9128
  633TIP3    H223459   3.364   3.094   7.712 -0.1383 -1.3477  0.8998
  634TIP3   OH223460   0.863   4.273   6.770  0.3199 -0.2500  0.2920
  634TIP3    H123461   0.828   4.196   6.814  0.6066 -0.1940  0.6225
  634TIP3    H223462   0.882   4.335   6.840  2.4151 -0.8079  0.2963
  635TIP3   OH223463   0.435   2.041   7.410  0.9684  0.6520  0.5230
  635TIP3    H123464   0.504   2.036   7.476  0.9021 -2.7843  0.4894
  635TIP3    H223465   0.365   2.091   7.452  1.6722  0.2217  2.2922
  636TIP3   OH223466   3.062   2.650   2.136 -0.1081 -0.2742 -0.2859
  636TIP3    H123467   2.998   2.633   2.206  2.4429  2.7327  3.2121
  636TIP3    H223468   3.100   2.564   2.117 -1.5086 -1.3532  1.4379
  637TIP3   OH223469   6.304   4.082   1.088 -0.0680  0.6732  0.5590
  637TIP3    H123470   6.398   4.074   1.104 -0.1128  0.2732  0.6525
  637TIP3    H223471   6.265   4.014   1.143 -0.2916 -0.1408 -0.5468
  638TIP3   OH223472   4.124   0.391   1.470 -0.5581 -0.4658  0.0737
  638TIP3    H123473   4.190   0.461   1.474 -0.2497 -0.7451 -0.0945
  638TIP3    H223474   4.047   0.429   1.513  0.1603 -0.6159  1.5785
  639TIP3   OH223475   1.040   0.637   6.516 -0.1998 -0.0522  0.3643
  639TIP3    H123476   1.100   0.625   6.443  1.0194 -0.3593  1.3791
  639TIP3    H223477   0.995   0.719   6.497 -1.4559 -1.1266 -1.7513
  640TIP3   OH223478   1.120   2.423   8.168 -0.2765 -0.1140  0.2247
  640TIP3    H123479   1.063   2.435   8.091  1.1296 -1.0253 -1.0048
  640TIP3    H223480   1.104   2.333   8.196 -0.5472  0.1152  0.8363
  641TIP3   OH223481   0.812   3.588   6.845  0.4735  1.1372 -0.3556
  641TIP3    H123482   0.774   3.590   6.757  2.3786  0.6830 -1.2645
  641TIP3    H223483   0.847   3.676   6.858  3.9374  0.2136 -1.9604
  642TIP3   OH223484   0.399   4.300   2.028 -0.0842 -0.0086  0.0554
  642TIP3    H123485   0.488   4.321   2.002  0.0868 -0.3555  0.3507
  642TIP3    H223486   0.346   4.374   1.996  0.1486 -0.3000 -1.0614
  643TIP3   OH223487   0.943   5.636   7.600  0.0129 -0.0885 -0.1450
  643TIP3    H123488   0.879   5.707   7.609  0.1692  0.2887 -1.7041
  643TIP3    H223489   0.932   5.605   7.510 -0.1186 -2.1461  0.5265
  644TIP3   OH223490   0.667   3.598   6.605 -0.6352 -0.1302  0.1890
  644TIP3    H123491   0.638   3.528   6.546  3.4828 -2.6091  0.6924
  644TIP3    H223492   0.725   3.652   6.551  1.7218 -1.3546  1.3681
  645TIP3   OH223493   5.431   6.002   0.254  0.3765  0.0621  0.0383
  645TIP3    H123494   5.352   5.948   0.242 -1.6455  1.6330  4.3653
  645TIP3    H223495   5.503   5.938   0.252 -1.4025 -2.0872  0.2270
  646TIP3   OH223496   3.082   2.083   1.478  0.8415  0.2272  0.3690
  646TIP3    H123497   3.162   2.135   1.483  0.1081  1.6025 -1.2222
  646TIP3    H223498   3.013   2.147   1.464 -0.7306 -0.8457  2.6094
  647TIP3   OH223499   5.061   2.646   6.947 -0.0749 -0.3126  0.1140
  647TIP3    H123500   5.051   2.706   6.874  1.1134 -0.1272  0.0934
  647TIP3    H223501   5.143   2.600   6.931 -0.3132 -1.0173  0.8007
  648TIP3   OH223502   0.505   2.320   7.516  0.6797  0.1749  0.0038
  648TIP3    H123503   0.530   2.230   7.534 -0.3502 -0.3685 -1.1539
  648TIP3    H223504   0.410   2.317   7.508  0.6093  1.4167  0.1814
  649TIP3   OH223505   3.516   3.149   8.153  0.2066 -0.2351  0.2244
  649TIP3    H123506   3.526   3.070   8.100  1.0112 -0.5070  0.7614
  649TIP3    H223507   3.606   3.180   8.167  0.0788 -0.5384  1.9519
  650TIP3   OH223508   1.853   4.419   7.648 -0.0647 -0.1461 -0.5498
  650TIP3    H123509   1.786   4.482   7.673 -0.7733 -0.7465 -0.9050
  650TIP3    H223510   1.806   4.336   7.638  0.9001 -0.8109  0.2128
  651TIP3   OH223511   4.449   1.038   0.878  0.2308 -0.0293  0.0119
  651TIP3    H123512   4.385   1.108   0.869  0.5182  0.2391  0.0679
  651TIP3    H223513   4.470   1.036   0.971  0.8362  0.3497 -0.1196
  652TIP3   OH223514   2.583   6.584   0.784  0.4934 -0.4157  0.7212
  652TIP3    H123515   2.519   6.517   0.809  0.3048 -0.6215 -0.2546
  652TIP3    H223516   2.578   6.587   0.688  1.5720 -0.0597  0.6613
  653TIP3   OH223517   1.785   3.069   0.316  0.3650  0.3807  0.2852
  653TIP3    H123518   1.849   3.001   0.294  0.5640  1.2104 -1.9934
  653TIP3    H223519   1.829   3.123   0.382  1.4260  0.0655 -0.1446
  654TIP3   OH223520   5.933   6.232   0.730 -0.0324 -0.1306 -0.1059
  654TIP3    H123521   5.872   6.158   0.731 -0.7599  0.4603 -0.0405
  654TIP3    H223522   5.885   6.304   0.770  0.8781  0.2266  0.3825
  655TIP3   OH223523   4.581   0.669   8.277  0.1399  0.1371 -0.1256
  655TIP3    H123524   4.660   0.692   8.325  0.4151  0.6067 -0.7903
  655TIP3    H223525   4.593   0.708   8.191 -0.8839  0.3561 -0.1818
  656TIP3   OH223526   0.847   2.511   7.620 -0.2971 -0.7374  0.6590
  656TIP3    H123527   0.940   2.493   7.609 -0.0485  0.8583 -0.0963
  656TIP3    H223528   0.811   2.505   7.532 -0.2487  1.8875  0.3777
  657TIP3   OH223529   4.426   3.502   2.161  0.0855 -0.1602 -0.0345
  657TIP3    H123530   4.331   3.491   2.168 -0.2328 -0.0038 -2.8735
  657TIP3    H223531   4.441   3.593   2.188 -0.5288 -0.2376  0.6147
  658TIP3   OH223532   1.168   4.326   0.233 -0.5012  0.1439  0.1175
  658TIP3    H123533   1.235   4.343   0.166 -1.0325  0.6517 -0.3045
  658TIP3    H223534   1.144   4.413   0.264 -1.6951  0.0544 -0.4794
  659TIP3   OH223535   0.783   2.189   7.006  0.1507  0.3245 -0.7347
  659TIP3    H123536   0.698   2.191   7.048  0.0318 -2.7421 -0.6204
  659TIP3    H223537   0.769   2.140   6.925  1.4499  1.4681 -1.7174
  660TIP3   OH223538   4.657   1.694   7.553 -0.1621  0.0271 -0.2286
  660TIP3    H123539   4.616   1.776   7.582 -2.3936 -1.4065  1.0077
  660TIP3    H223540   4.653   1.637   7.630  0.0692 -1.6994 -1.4356
  661TIP3   OH223541   4.752   4.161   1.999 -0.3959  0.3617 -0.3805
  661TIP3    H123542   4.699   4.180   2.076  1.2489 -0.3879  0.9906
  661TIP3    H223543   4.713   4.083   1.961 -0.6452  0.1684  0.2659
  662TIP3   OH223544   2.037   5.888   1.559  0.3876  0.6079  0.0263
  662TIP3    H123545   2.017   5.920   1.647 -2.4971 -0.6877 -0.0277
  662TIP3    H223546   2.067   5.798   1.573 -0.2425  0.3410 -0.2876
  663TIP3   OH223547   0.718   6.344   7.202  0.4486  0.1556 -0.2337
  663TIP3    H123548   0.806   6.325   7.234  0.4311  0.4779  0.0171
  663TIP3    H223549   0.682   6.406   7.266  0.1262  0.2055 -0.4577
  664TIP3   OH223550   3.685   3.429   0.616 -0.2513  0.0070 -0.0257
  664TIP3    H123551   3.696   3.495   0.548  0.3926  2.7717  2.5559
  664TIP3    H223552   3.590   3.417   0.623 -0.4005  0.8936 -0.3583
  665TIP3   OH223553   3.285   2.972   0.108 -0.2789  0.1827  0.3214
  665TIP3    H123554   3.340   2.928   0.173 -0.2337  0.1855  0.2855
  665TIP3    H223555   3.340   3.043   0.074 -0.4258  0.3979  0.5286
  666TIP3   OH223556   5.158   0.160   0.651  0.2842 -0.1056 -0.0109
  666TIP3    H123557   5.086   0.222   0.660 -2.1052 -2.6828 -0.0546
  666TIP3    H223558   5.153   0.130   0.560  0.2202 -1.6524  0.4822
  667TIP3   OH223559   4.557   1.440   1.880 -0.4456 -0.3692 -0.1142
  667TIP3    H123560   4.638   1.428   1.830 -0.2369  1.2935 -0.2515
  667TIP3    H223561   4.587   1.456   1.970 -0.5016  1.5967 -0.4087
  668TIP3   OH223562   4.639   2.561   8.162  0.0804 -0.3929 -0.1052
  668TIP3    H123563   4.627   2.581   8.255 -1.0790 -0.2400 -0.2744
  668TIP3    H223564   4.717   2.505   8.160  0.1391 -0.3817  0.9485
  669TIP3   OH223565   3.987   1.510   1.845  0.2565 -0.3209 -0.0731
  669TIP3    H123566   3.894   1.496   1.857  0.4481 -0.2907  1.7908
  669TIP3    H223567   3.993   1.576   1.777 -1.0861 -0.2064 -0.1017
  670TIP3   OH223568   1.135   2.307   1.151  0.0144 -0.3474 -0.0064
  670TIP3    H123569   1.118   2.390   1.106  1.6129 -0.2401 -0.4508
  670TIP3    H223570   1.049   2.282   1.187 -0.7057  0.9764 -0.7149
  671TIP3   OH223571   0.716   2.455   0.721 -0.0814 -0.3113  0.2150
  671TIP3    H123572   0.641   2.449   0.780 -1.4656  0.6083 -1.3678
  671TIP3    H223573   0.680   2.487   0.638  1.9594 -0.4722 -0.8156
  672TIP3   OH223574   0.975   0.374   0.616 -0.5454 -0.5652 -0.2090
  672TIP3    H123575   1.030   0.321   0.558 -2.4456 -2.0005 -0.7903
  672TIP3    H223576   0.902   0.402   0.561 -0.7232  0.8077  0.6831
  673TIP3   OH223577   0.331   4.419   2.591 -0.0706 -0.0011  0.1804
  673TIP3    H123578   0.382   4.424   2.510 -0.7093  0.3389 -0.2090
  673TIP3    H223579   0.301   4.509   2.606 -0.6679 -0.2244  0.3314
  674TIP3   OH223580   4.357   3.011   0.119 -0.2963 -0.1153 -0.3842
  674TIP3    H123581   4.438   3.053   0.090  0.7092 -1.1785  0.7371
  674TIP3    H223582   4.323   2.967   0.041 -0.4260  1.2843 -1.1367
  675TIP3   OH223583   6.525   5.787   1.238 -0.2585  0.0993 -0.5027
  675TIP3    H123584   6.440   5.741   1.233  0.4626 -1.1244 -3.6654
  675TIP3    H223585   6.557   5.766   1.326 -3.0721  0.4175  0.7256
  676TIP3   OH223586   5.716   5.000   0.535  0.0552 -0.3606  0.0591
  676TIP3    H123587   5.718   4.905   0.545  2.2021 -0.3266  0.3040
  676TIP3    H223588   5.807   5.025   0.524 -0.2926  1.8371  1.5576
  677TIP3   OH223589   6.163   5.685   1.694  0.7615 -0.0431  0.1817
  677TIP3    H123590   6.187   5.773   1.668  1.5642 -0.5061 -0.7007
  677TIP3    H223591   6.140   5.693   1.787 -1.0092  1.4134 -0.3199
  678TIP3   OH223592   5.080   2.630   1.946  0.2779 -0.7537 -0.4717
  678TIP3    H123593   5.141   2.574   1.898  0.3534 -1.2298  0.1635
  678TIP3    H223594   5.129   2.709   1.965  1.4974 -2.0042  1.9857
  679TIP3   OH223595   4.097   5.774   8.183  0.2985  0.1926 -0.3037
  679TIP3    H123596   4.177   5.725   8.166  0.0040 -0.7857  1.0202
  679TIP3    H223597   4.033   5.708   8.210 -0.5497  1.1235  0.0402
  680TIP3   OH223598   2.840   1.372   8.565 -0.0544  0.3307 -0.2225
  680TIP3    H123599   2.872   1.284   8.546  1.9572  1.1265 -0.7279
  680TIP3    H223600   2.786   1.394   8.490 -0.4536 -0.3903 -0.1617
  681TIP3   OH223601   4.531   2.737   7.243  0.6188 -0.1315  0.1392
  681TIP3    H123602   4.590   2.796   7.289  1.1717 -2.0521  2.0965
  681TIP3    H223603   4.561   2.738   7.152  1.6376  1.2948  0.4658
  682TIP3   OH223604   2.918   0.967   1.021 -0.6275 -0.0355  0.0190
  682TIP3    H123605   2.986   0.996   1.081  0.8131  2.0754 -2.4483
  682TIP3    H223606   2.860   1.043   1.011 -1.2476 -0.5858 -0.7108
  683TIP3   OH223607   3.299   3.841   6.650 -0.0227 -0.8938  0.1786
  683TIP3    H123608   3.281   3.806   6.737 -1.0861 -1.3716 -0.2128
  683TIP3    H223609   3.295   3.936   6.660  1.6835 -0.8727  1.0062
  684TIP3   OH223610   5.796   1.822   1.443 -0.5682 -0.0522 -0.3545
  684TIP3    H123611   5.878   1.840   1.397  1.6706 -0.0238  3.2586
  684TIP3    H223612   5.779   1.729   1.427  0.1641 -0.0674 -1.1111
  685TIP3   OH223613   3.431   1.663   1.712  0.3280  0.3414 -0.0087
  685TIP3    H123614   3.389   1.709   1.639 -0.8097  0.4790  0.7099
  685TIP3    H223615   3.480   1.731   1.758 -3.0112  1.4637  2.2845
  686TIP3   OH223616   0.592   2.063   7.199  0.4291  0.0702 -0.0577
  686TIP3    H123617   0.524   2.053   7.266 -0.4597  1.0495 -0.7754
  686TIP3    H223618   0.662   2.111   7.243  0.0550  0.2811  0.3178
  687TIP3   OH223619   3.952   1.052   0.061 -0.5260  0.3787 -0.3343
  687TIP3    H123620   4.047   1.057   0.068 -0.6785  1.8033  1.0846
  687TIP3    H223621   3.929   0.971   0.106  0.0025 -0.0085 -0.7477
  688TIP3   OH223622   4.788   1.927   0.967  0.1941 -0.6043  0.2240
  688TIP3    H123623   4.769   1.917   0.874  1.4170 -1.0895  0.0018
  688TIP3    H223624   4.717   1.981   1.001  0.1912  0.3307 -1.1765
  689TIP3   OH223625   4.628   1.000   1.759  0.1084  0.0095 -0.6452
  689TIP3    H123626   4.623   1.032   1.849  0.5636 -0.6690 -0.3700
  689TIP3    H223627   4.720   1.010   1.734 -0.2279  1.3377 -1.4833
  690TIP3   OH223628   5.920   6.272   1.535  0.1145 -0.1763 -0.0596
  690TIP3    H123629   5.984   6.328   1.491  0.9407 -0.4032  0.8421
  690TIP3    H223630   5.938   6.184   1.501 -1.1479  0.0602 -1.4351
  691TIP3   OH223631   3.174   2.460   2.499 -0.3324 -0.1240  0.7667
  691TIP3    H123632   3.128   2.414   2.428 -2.0525  2.5084  0.0346
  691TIP3    H223633   3.211   2.390   2.552 -1.7063 -2.3072 -0.9462
  692TIP3   OH223634   0.489   1.052   6.316 -0.4395  0.0147 -0.1277
  692TIP3    H123635   0.490   0.964   6.278 -0.6034 -0.0423 -0.0031
  692TIP3    H223636   0.559   1.051   6.381  0.0328  0.2037 -0.6278
  693TIP3   OH223637   2.202   3.090   7.628  0.0809  0.3111  0.0108
  693TIP3    H123638   2.216   3.022   7.693 -0.0006  0.5228  0.2507
  693TIP3    H223639   2.269   3.156   7.647 -1.3244  1.4248  1.2851
  694TIP3   OH223640   0.359   4.206   7.870  0.3719  0.4556  0.8276
  694TIP3    H123641   0.285   4.146   7.876 -0.7680  1.8904  1.7376
  694TIP3    H223642   0.346   4.268   7.942  1.9751  1.2879  0.4543
  695TIP3   OH223643   2.247   1.239   0.824 -0.0890  0.0330 -0.2899
  695TIP3    H123644   2.209   1.196   0.747 -0.4316  0.0117 -0.1103
  695TIP3    H223645   2.208   1.326   0.824  0.1717  0.1480 -0.3336
  696TIP3   OH223646   2.706   2.720   0.437 -0.1059 -0.2008  0.0789
  696TIP3    H123647   2.685   2.777   0.363  1.5327 -1.8842 -1.7940
  696TIP3    H223648   2.620   2.689   0.467 -0.8435  0.9473 -0.7419
  697TIP3   OH223649   0.362   2.201   8.641  0.2860  0.0367 -0.3759
  697TIP3    H123650   0.286   2.252   8.615 -1.2153 -1.5432  0.6981
  697TIP3    H223651   0.343   2.175   8.731  2.6781  0.6115  0.3660
  698TIP3   OH223652   0.738   6.238   7.946  0.2193 -0.1889  0.1819
  698TIP3    H123653   0.686   6.267   8.021  1.0811 -0.4379  0.9050
  698TIP3    H223654   0.828   6.260   7.970  0.3911  1.0254 -1.4063
  699TIP3   OH223655   4.044   3.825   0.186  0.1661  0.1224 -0.3909
  699TIP3    H123656   4.020   3.879   0.262 -1.5636 -1.0989 -0.0101
  699TIP3    H223657   4.026   3.736   0.214 -2.1656 -0.2687 -2.7603
  700TIP3   OH223658   6.742   0.682   1.135 -0.4531  0.3770 -0.0716
  700TIP3    H123659   6.741   0.769   1.096  0.6377  0.6178  0.4156
  700TIP3    H223660   6.697   0.693   1.219  0.6896  0.7448  0.5136
  701TIP3   OH223661   0.757   2.778   0.675  0.2852  0.1175  0.3086
  701TIP3    H123662   0.788   2.718   0.743 -0.5320 -1.0308 -0.2888
  701TIP3    H223663   0.820   2.768   0.604 -1.8797 -3.2157 -1.4463
  702TIP3   OH223664   6.237   4.309   7.212 -0.1527 -0.4103  0.2203
  702TIP3    H123665   6.263   4.220   7.236  0.8111  0.0636  1.0236
  702TIP3    H223666   6.184   4.299   7.133 -2.1918 -1.9265  1.6692
  703TIP3   OH223667   4.313   5.842   8.402 -0.2295  0.3431  0.5500
  703TIP3    H123668   4.326   5.749   8.421 -0.1257  0.3820  0.6709
  703TIP3    H223669   4.230   5.846   8.355 -0.2235  0.1865  0.5263
  704TIP3   OH223670   6.517   2.286   6.973  0.0233 -0.8383  0.1325
  704TIP3    H123671   6.457   2.278   6.899  2.1902  0.0734 -1.8544
  704TIP3    H223672   6.576   2.211   6.965  0.5193 -0.5217  0.7269
  705TIP3   OH223673   3.070   1.790   8.599  0.1381  0.0103 -0.4946
  705TIP3    H123674   2.993   1.733   8.592 -0.1302  0.0164  1.8524
  705TIP3    H223675   3.042   1.862   8.656  1.7632  0.2476  0.0464
  706TIP3   OH223676   2.853   1.559   0.905  0.1664  0.1668  0.2153
  706TIP3    H123677   2.909   1.566   0.983 -0.9726 -0.9762  1.1762
  706TIP3    H223678   2.907   1.514   0.841  1.0138  0.8254  0.4453
  707TIP3   OH223679   3.655   3.584   0.400  0.6783 -0.0726 -0.0774
  707TIP3    H123680   3.723   3.632   0.354 -0.1863  0.3700 -0.9374
  707TIP3    H223681   3.596   3.554   0.331  0.2170 -0.7973  0.6121
  708TIP3   OH223682   3.535   5.356   1.112 -0.2636  0.0520  0.4216
  708TIP3    H123683   3.519   5.348   1.018  1.2357 -0.4200  0.1782
  708TIP3    H223684   3.507   5.272   1.148  0.5035 -0.3083  0.1847
  709TIP3   OH223685   5.646   3.642   1.302  0.8347  0.4769 -0.2090
  709TIP3    H123686   5.601   3.696   1.367  1.8653 -1.4048  2.2701
  709TIP3    H223687   5.621   3.679   1.218 -3.2038  1.1369  1.0616
  710TIP3   OH223688   3.278   6.630   1.645  0.2982 -0.6951 -0.3483
  710TIP3    H123689   3.338   6.672   1.708  0.3924 -1.5534  0.1522
  710TIP3    H223690   3.285   6.537   1.664 -0.8263 -0.8494 -0.6229
  711TIP3   OH223691   2.100   1.406   8.164 -0.1570 -0.3620 -0.1748
  711TIP3    H123692   2.020   1.445   8.129 -1.1575 -2.1336  0.0133
  711TIP3    H223693   2.151   1.383   8.086  0.2722  0.8790 -0.2926
  712TIP3   OH223694   4.406   0.063   0.848 -0.1046 -0.1814 -0.8621
  712TIP3    H123695   4.353   0.042   0.772 -1.0568 -2.7236  0.3866
  712TIP3    H223696   4.354   0.127   0.897 -1.1693 -1.2000 -0.6218
  713TIP3   OH223697   1.767   3.579   7.397  0.5986  0.1456 -0.1577
  713TIP3    H123698   1.857   3.548   7.395  0.9289  1.1067 -0.5644
  713TIP3    H223699   1.770   3.659   7.450 -0.2725 -0.5745  1.0324
  714TIP3   OH223700   4.522   0.586   7.453  0.4170  0.1283 -0.7781
  714TIP3    H123701   4.530   0.510   7.394  2.2940 -0.5860  0.3123
  714TIP3    H223702   4.572   0.655   7.411  1.2180 -0.1828 -0.3499
  715TIP3   OH223703   2.298   4.354   7.436 -0.1608 -0.5146 -0.4889
  715TIP3    H123704   2.318   4.363   7.529 -0.2591 -1.3158 -0.3872
  715TIP3    H223705   2.219   4.408   7.424  0.1197 -0.0335 -0.2083
  716TIP3   OH223706   3.371   4.986   5.958 -0.2316 -0.3066 -0.6371
  716TIP3    H123707   3.410   5.067   5.925 -0.0117 -0.2792 -0.3148
  716TIP3    H223708   3.285   5.012   5.990  0.2938  0.0354  0.5552
  717TIP3   OH223709   4.204   4.276   7.506  0.4752  0.7810  0.5628
  717TIP3    H123710   4.118   4.254   7.472  0.2931  1.7814  0.3523
  717TIP3    H223711   4.186   4.330   7.583  0.7891 -3.0060  3.6609
  718TIP3   OH223712   1.682   6.372   6.202 -0.2194 -0.4532  0.4582
  718TIP3    H123713   1.743   6.358   6.129 -0.2985  0.3075  0.2420
  718TIP3    H223714   1.612   6.308   6.187  0.4733 -1.2908  0.6699
  719TIP3   OH223715   4.291   5.537   7.631  1.0766 -0.2360 -0.0336
  719TIP3    H123716   4.319   5.459   7.680  1.6083 -0.8615 -1.2786
  719TIP3    H223717   4.330   5.610   7.678  0.7891 -0.7271  1.0158
  720TIP3   OH223718   4.674   0.542   0.848 -1.0792  0.7742  0.6833
  720TIP3    H123719   4.765   0.558   0.873  0.1199 -3.4343 -0.1697
  720TIP3    H223720   4.661   0.592   0.768  1.0114  0.3735  0.0396
  721TIP3   OH223721   3.309   0.544   0.419 -0.0575  0.6359  0.3297
  721TIP3    H123722   3.297   0.538   0.324 -1.6240  1.4869  0.4501
  721TIP3    H223723   3.281   0.459   0.452 -3.0263  1.5090  0.3032
  722TIP3   OH223724   6.676   6.661   0.425 -0.1235 -0.1160 -0.2430
  722TIP3    H123725   6.744   6.700   0.370  1.8594 -0.3622  1.8595
  722TIP3    H223726   6.606   6.637   0.364  1.1077  1.3307 -2.3488
  723TIP3   OH223727   5.291   3.937   1.743 -0.7358  0.0182 -0.1220
  723TIP3    H123728   5.236   3.960   1.668 -1.4103 -1.3180 -0.0683
  723TIP3    H223729   5.246   3.977   1.818 -1.2294 -0.4214 -0.1753
  724TIP3   OH223730   2.496   0.761   8.336 -0.0701  0.5061 -0.2124
  724TIP3    H123731   2.491   0.834   8.397  0.2511  1.9272 -1.8158
  724TIP3    H223732   2.573   0.780   8.282  0.3011 -1.2695 -0.3858
  725TIP3   OH223733   4.021   3.926   8.601  0.2409 -0.1383 -0.1114
  725TIP3    H123734   3.939   3.964   8.633  1.1067  0.3900  1.6378
  725TIP3    H223735   4.066   3.897   8.680  1.4667 -1.0005 -1.0928
  726TIP3   OH223736   1.325   2.968   0.480 -0.2434 -0.3817 -0.4064
  726TIP3    H123737   1.300   3.051   0.439 -1.1637 -0.9621 -1.0185
  726TIP3    H223738   1.410   2.947   0.441 -0.5020 -0.2657 -1.0407
  727TIP3   OH223739   6.692   2.967   7.442 -0.1699  0.3764  0.1417
  727TIP3    H123740   6.660   2.928   7.361 -0.3718  1.7095 -0.4586
  727TIP3    H223741   6.783   2.940   7.449 -0.5838 -1.0291  0.3029
  728TIP3   OH223742   1.911   2.854   0.162  0.7923 -0.2134 -0.1856
  728TIP3    H123743   1.970   2.875   0.089  0.6466 -0.0600 -0.2610
  728TIP3    H223744   1.883   2.764   0.144 -1.0219  0.5545 -1.5827
  729TIP3   OH223745   6.369   4.035   0.474  0.4982  0.0573  1.0417
  729TIP3    H123746   6.325   3.965   0.522 -0.3350  1.5626  2.5844
  729TIP3    H223747   6.302   4.103   0.464  0.7755  0.0461 -1.8829
  730TIP3   OH223748   3.866   2.776   7.872 -0.2502 -0.1518 -0.1110
  730TIP3    H123749   3.879   2.708   7.939 -0.0397  0.2780  0.2921
  730TIP3    H223750   3.954   2.809   7.853 -0.4212  0.5743  0.3054
  731TIP3   OH223751   2.641   1.740   6.737  0.1625 -0.3904  0.1785
  731TIP3    H123752   2.636   1.767   6.645 -0.5605  0.5544  0.4828
  731TIP3    H223753   2.729   1.702   6.746 -0.3849 -2.1725 -1.3289
  732TIP3   OH223754   2.182   2.036   1.645  0.7581  0.0231 -0.4162
  732TIP3    H123755   2.111   2.097   1.666  0.2916 -0.0206 -1.7605
  732TIP3    H223756   2.183   1.973   1.718 -1.7051 -0.9501 -1.1243
  733TIP3   OH223757   0.305   3.149   0.578  0.5904  0.3118 -0.0560
  733TIP3    H123758   0.218   3.177   0.606  0.4298  0.5420 -0.7604
  733TIP3    H223759   0.362   3.224   0.597  0.7978 -0.1209  1.1288
  734TIP3   OH223760   1.030   0.614   6.792  0.1677 -0.2330 -0.0527
  734TIP3    H123761   1.057   0.632   6.702  0.8054 -1.8856 -0.2404
  734TIP3    H223762   1.105   0.639   6.845  1.1930 -2.4257 -0.3429
  735TIP3   OH223763   5.760   1.230   2.554 -0.1359 -0.1788 -0.2496
  735TIP3    H123764   5.795   1.156   2.604  1.8955  0.6066 -0.3893
  735TIP3    H223765   5.689   1.265   2.609  1.8944  0.5505  2.1244
  736TIP3   OH223766   5.266   1.633   0.358 -0.2491 -0.1048  0.0180
  736TIP3    H123767   5.353   1.602   0.332 -0.5333 -1.6128  0.7504
  736TIP3    H223768   5.264   1.620   0.453 -1.1651  0.1958  0.0455
  737TIP3   OH223769   5.950   3.971   1.706  0.0537 -0.8739 -0.2810
  737TIP3    H123770   5.887   4.022   1.756  1.2044 -0.2746  0.6118
  737TIP3    H223771   6.004   3.927   1.772 -0.1871 -2.3721 -1.0291
  738TIP3   OH223772   2.742   6.864   1.901  0.2445 -0.0792  0.2796
  738TIP3    H123773   2.744   6.917   1.980 -0.6031 -0.3133  0.4645
  738TIP3    H223774   2.694   6.785   1.926  0.0972 -0.2202 -0.4241
  739TIP3   OH223775   5.522   1.381   2.694 -1.0378 -0.1779 -0.3318
  739TIP3    H123776   5.463   1.389   2.618  0.0007 -2.1786 -1.4201
  739TIP3    H223777   5.477   1.320   2.753 -0.5084 -0.9579 -0.7252
  740TIP3   OH223778   6.478   0.923   6.804 -0.2503  0.4573  0.0242
  740TIP3    H123779   6.449   0.996   6.859 -0.0062  0.0172  0.7536
  740TIP3    H223780   6.505   0.964   6.722 -2.4179  0.9346 -0.5166
  741TIP3   OH223781   0.817   2.685   6.872 -0.2003 -0.2182 -0.1735
  741TIP3    H123782   0.896   2.700   6.820 -0.1140 -1.9600 -0.6195
  741TIP3    H223783   0.839   2.609   6.927 -0.9030  0.4906  1.1290
  742TIP3   OH223784   0.092   5.765   0.287  0.0175 -0.7507  0.3921
  742TIP3    H123785   0.002   5.737   0.266 -0.1260  0.9656 -1.6520
  742TIP3    H223786   0.102   5.745   0.380 -2.8100 -0.1767  0.9302
  743TIP3   OH223787   5.048   3.286   8.074  0.4570 -0.9663 -0.1250
  743TIP3    H123788   5.083   3.243   7.996 -1.7321  0.4158 -2.0037
  743TIP3    H223789   5.085   3.374   8.071 -2.9205  0.5683 -2.2278
  744TIP3   OH223790   6.129   2.323   8.593 -0.2735 -0.1898  0.0318
  744TIP3    H123791   6.128   2.270   8.673 -0.7716 -0.3293 -0.0590
  744TIP3    H223792   6.036   2.337   8.573 -0.1448  0.8098  0.1080
  745TIP3   OH223793   5.314   4.872   1.950 -0.0598 -0.3799 -0.3087
  745TIP3    H123794   5.253   4.798   1.957  0.4128 -0.5918  2.1557
  745TIP3    H223795   5.257   4.948   1.936 -0.8427 -0.7136  0.9157
  746TIP3   OH223796   4.262   4.549   1.300 -0.4217  0.7028 -0.4537
  746TIP3    H123797   4.299   4.631   1.333  0.7388 -0.6925  2.0365
  746TIP3    H223798   4.237   4.501   1.379  2.1232 -2.7375 -1.5090
  747TIP3   OH223799   6.286   0.692   1.038  0.0254 -0.1636  0.2038
  747TIP3    H123800   6.222   0.628   1.070  0.8840 -0.6820  0.9293
  747TIP3    H223801   6.361   0.639   1.012  0.8601  0.5613  1.0630
  748TIP3   OH223802   1.393   2.327   7.525 -0.4293  0.3818 -0.4003
  748TIP3    H123803   1.443   2.313   7.445 -1.4877 -0.1488 -0.9954
  748TIP3    H223804   1.413   2.250   7.579 -0.5798  0.1760 -0.6317
  749TIP3   OH223805   2.642   6.647   2.044 -0.0448 -0.1739 -0.7050
  749TIP3    H123806   2.661   6.577   1.981 -1.7630 -2.7468  1.4204
  749TIP3    H223807   2.558   6.623   2.082  0.8072  1.2833  2.4506
  750TIP3   OH223808   4.312   1.304   6.812 -0.3166  0.1116 -0.5654
  750TIP3    H123809   4.351   1.376   6.761 -1.0356  1.2506  0.4263
  750TIP3    H223810   4.225   1.292   6.773 -1.1359  1.4451  0.7447
  751TIP3   OH223811   1.841   4.142   1.562 -0.4646  0.0910 -0.2455
  751TIP3    H123812   1.875   4.060   1.597 -2.6280 -0.7738 -0.0283
  751TIP3    H223813   1.782   4.175   1.630 -1.0846  0.8200 -1.1139
  752TIP3   OH223814   0.663   1.237   8.218  0.4536  0.9015  0.6708
  752TIP3    H123815   0.688   1.303   8.283  1.5104 -0.1179  1.3472
  752TIP3    H223816   0.675   1.281   8.134  0.0866  1.9079  1.1266
  753TIP3   OH223817   5.218   1.110   7.272 -0.8651 -0.4230  0.1163
  753TIP3    H123818   5.292   1.157   7.234 -1.2737 -0.2860 -0.5323
  753TIP3    H223819   5.152   1.110   7.203 -0.6446 -2.5460 -0.1725
  754TIP3   OH223820   2.499   4.258   1.302  0.4187  0.4943 -1.0017
  754TIP3    H123821   2.459   4.183   1.346  2.2282 -1.0577 -1.8638
  754TIP3    H223822   2.425   4.302   1.259 -0.9509  0.3421  1.0796
  755TIP3   OH223823   3.302   4.156   0.872  0.0172  0.2908  0.2995
  755TIP3    H123824   3.307   4.075   0.922  2.2840 -0.8026 -1.5180
  755TIP3    H223825   3.211   4.158   0.840 -0.5046 -0.6962  1.6179
  756TIP3   OH223826   5.711   6.077   0.674  0.3727 -0.3629  0.0753
  756TIP3    H123827   5.658   6.106   0.600  1.5281  0.4176 -0.4716
  756TIP3    H223828   5.747   5.992   0.646  0.8039 -0.0715 -0.2649
  757TIP3   OH223829   5.245   0.453   0.556  0.5883 -0.6144 -0.3666
  757TIP3    H123830   5.175   0.505   0.594 -0.8319 -1.0538 -2.2603
  757TIP3    H223831   5.307   0.517   0.521  1.2841 -0.2244  1.4561
  758TIP3   OH223832   6.609   5.533   0.840  0.3104 -0.2377  0.4117
  758TIP3    H123833   6.613   5.558   0.748 -0.5945  0.4604  0.5553
  758TIP3    H223834   6.678   5.584   0.882 -0.2178  0.5302  0.3601
  759TIP3   OH223835   2.630   3.840   8.419 -0.1822  0.6609  0.0003
  759TIP3    H123836   2.658   3.777   8.353 -0.4563  1.5573 -1.0080
  759TIP3    H223837   2.598   3.915   8.368 -1.0538  1.0978  1.1478
  760TIP3   OH223838   5.730   6.512   0.608 -0.5107 -0.2595  0.0696
  760TIP3    H123839   5.637   6.518   0.586 -0.4431  0.2772 -0.0849
  760TIP3    H223840   5.731   6.466   0.692 -0.7961 -1.9094 -0.8028
  761TIP3   OH223841   2.098   3.957   0.449  0.3377  0.0332 -0.4877
  761TIP3    H123842   2.018   4.010   0.447 -0.1041 -0.4829  1.3118
  761TIP3    H223843   2.078   3.882   0.392 -0.5021 -0.1204 -0.0193
  762TIP3   OH223844   1.018   1.355   6.296 -0.7416 -0.2395 -0.1933
  762TIP3    H123845   0.980   1.408   6.367 -1.6352  1.1423 -1.6321
  762TIP3    H223846   0.973   1.271   6.302 -1.9299  0.3915 -0.0708
  763TIP3   OH223847   2.059   6.585   1.297 -0.1848 -0.1409 -0.2852
  763TIP3    H123848   1.978   6.549   1.263  0.2816 -0.5251 -1.0135
  763TIP3    H223849   2.062   6.675   1.263 -0.3468 -0.1033 -0.1963
  764TIP3   OH223850   3.729   2.426   0.045  0.6415  0.2470  0.1903
  764TIP3    H123851   3.788   2.374  -0.009  0.5441  1.9307 -1.6585
  764TIP3    H223852   3.786   2.472   0.107  0.8569 -0.9233  0.8854
  765TIP3   OH223853   3.441   4.360   0.991  0.5031 -0.8399 -0.0778
  765TIP3    H123854   3.362   4.326   0.949  0.9874 -0.9355 -0.9406
  765TIP3    H223855   3.473   4.428   0.932  1.5905 -1.4626 -0.2389
  766TIP3   OH223856   1.307   2.464   0.407 -0.3328  0.2168  0.3424
  766TIP3    H123857   1.270   2.531   0.349  0.5540  1.5622  1.2738
  766TIP3    H223858   1.376   2.423   0.355 -0.6405  0.2808 -0.1184
  767TIP3   OH223859   6.018   2.244   8.165 -0.1715  0.7337  0.4866
  767TIP3    H123860   5.984   2.266   8.252  0.4500 -0.6793  1.1127
  767TIP3    H223861   5.952   2.279   8.105 -0.8541  1.3240  1.5242
  768TIP3   OH223862   6.284   1.930   7.880  0.1443 -0.5022  0.4745
  768TIP3    H123863   6.229   2.004   7.903  0.3348 -0.3347  0.3961
  768TIP3    H223864   6.252   1.858   7.935 -2.0888 -1.2439 -1.6269
  769TIP3   OH223865   5.548   5.454   8.218  0.8627 -0.6935  0.5025
  769TIP3    H123866   5.573   5.518   8.152 -3.6404  0.6206 -0.2609
  769TIP3    H223867   5.551   5.502   8.301  1.7300 -0.8402  0.5579
  770TIP3   OH223868   6.244   1.789   0.500  0.0146  0.4139 -0.3395
  770TIP3    H123869   6.274   1.874   0.532  1.0560  0.5797 -1.6814
  770TIP3    H223870   6.181   1.810   0.430  0.0765  0.0770 -0.4962
  771TIP3   OH223871   6.839   5.671   0.962  0.0630 -0.1840  0.6973
  771TIP3    H123872   6.927   5.681   0.999  0.3522 -2.3088  0.7006
  771TIP3    H223873   6.780   5.694   1.034  0.5982  0.4707  0.9397
  772TIP3   OH223874   1.460   2.675   8.031 -0.2537  0.1010  0.2437
  772TIP3    H123875   1.474   2.613   7.960 -2.2008 -0.9505  0.7193
  772TIP3    H223876   1.385   2.641   8.079 -1.9675  3.1835  0.0641
  773TIP3   OH223877   6.765   2.449   8.572  0.2614 -0.1086 -0.3719
  773TIP3    H123878   6.779   2.518   8.507 -0.4008 -1.5871 -2.1772
  773TIP3    H223879   6.670   2.441   8.580  0.3319 -0.2857  0.4315
  774TIP3   OH223880   0.603   6.343   7.508  0.2229 -0.3748  0.4723
  774TIP3    H123881   0.556   6.303   7.582  1.2185 -0.9266  0.8263
  774TIP3    H223882   0.593   6.437   7.522 -1.3693 -0.4737  0.1441
  775TIP3   OH223883   3.568   3.465   1.351  0.0457 -0.5172  0.1124
  775TIP3    H123884   3.598   3.376   1.368  1.0299 -0.5770 -1.6707
  775TIP3    H223885   3.648   3.516   1.340 -0.5049  0.3058 -0.1811
  776TIP3   OH223886   6.016   5.591   2.409  0.6577 -0.2682 -0.1467
  776TIP3    H123887   5.963   5.519   2.376  0.9964 -0.1733 -0.9217
  776TIP3    H223888   5.966   5.627   2.482  0.2605 -0.9780 -0.0649
  777TIP3   OH223889   4.351   3.579   6.953 -1.0700 -0.1000  0.0178
  777TIP3    H123890   4.313   3.666   6.970  1.6409  0.9254  1.5334
  777TIP3    H223891   4.364   3.577   6.858 -0.6880  1.4260  0.0099
  778TIP3   OH223892   2.951   3.874   0.571  0.2879 -0.4547  0.0703
  778TIP3    H123893   2.947   3.782   0.542 -0.9201 -0.3986  0.0216
  778TIP3    H223894   2.938   3.870   0.666 -3.4165 -0.1300 -0.3108
  779TIP3   OH223895   6.660   2.600   1.656 -0.3510  0.5772  0.0367
  779TIP3    H123896   6.727   2.576   1.720  0.5318 -0.3692 -1.1822
  779TIP3    H223897   6.641   2.518   1.609 -1.7071  1.0270 -0.2442
  780TIP3   OH223898   0.383   1.950   2.003  0.0897 -0.0472 -0.2329
  780TIP3    H123899   0.328   2.009   1.952 -1.8786  0.0076  1.7976
  780TIP3    H223900   0.362   1.863   1.968 -2.6670 -0.2122  1.5230
  781TIP3   OH223901   3.707   6.865   1.393 -0.0479 -0.2877 -0.0962
  781TIP3    H123902   3.747   6.920   1.460 -0.4793 -1.6037  1.3150
  781TIP3    H223903   3.693   6.781   1.436 -2.0830 -0.6274 -1.2492
  782TIP3   OH223904   6.717   1.527   8.583  0.4873  0.4447 -0.1541
  782TIP3    H123905   6.732   1.515   8.676 -4.2504  0.7600  0.9093
  782TIP3    H223906   6.738   1.620   8.567 -0.4475  0.8922  1.0925
  783TIP3   OH223907   2.219   3.932   7.469  0.8289 -0.2541  0.9145
  783TIP3    H123908   2.150   3.960   7.530  0.3308  1.7266 -0.4679
  783TIP3    H223909   2.229   3.838   7.486 -1.6337 -0.4451  1.7445
  784TIP3   OH223910   4.052   6.029   1.549 -0.0306  0.6194 -0.0112
  784TIP3    H123911   4.010   6.085   1.615 -0.8863 -0.8369  0.7221
  784TIP3    H223912   4.121   5.984   1.598  1.8099  2.2183 -0.9774
  785TIP3   OH223913   3.313   1.986   0.111 -0.0878 -0.3608 -0.7115
  785TIP3    H123914   3.244   1.933   0.151 -0.3747  0.9472  0.6389
  785TIP3    H223915   3.270   2.028   0.036  0.2756 -2.3352 -2.0869
  786TIP3   OH223916   6.747   6.824   7.577 -0.4979 -0.2985 -0.2908
  786TIP3    H123917   6.745   6.730   7.556 -2.5063 -0.5720  0.7672
  786TIP3    H223918   6.717   6.867   7.497 -1.2727 -0.7343 -0.2488
  787TIP3   OH223919   2.402   2.744   7.943  0.4147  0.3500  0.5752
  787TIP3    H123920   2.385   2.787   8.027  0.4591 -0.2838  0.9185
  787TIP3    H223921   2.427   2.655   7.967  0.4473  0.1701 -0.1134
  788TIP3   OH223922   3.326   3.659   7.608  0.0492  0.0098 -0.4787
  788TIP3    H123923   3.291   3.580   7.568  0.5969 -0.6470  0.3125
  788TIP3    H223924   3.347   3.716   7.534 -0.4969 -0.5176 -1.0519
  789TIP3   OH223925   0.349   1.826   8.232 -0.3509  0.0469  0.1267
  789TIP3    H123926   0.416   1.875   8.280 -1.4181  1.9110 -0.1883
  789TIP3    H223927   0.266   1.856   8.269 -1.0700 -1.7630  0.0860
  790TIP3   OH223928   4.657   1.215   7.727  0.2902  0.1315  0.0668
  790TIP3    H123929   4.642   1.202   7.633 -1.0572 -0.1503  0.3091
  790TIP3    H223930   4.578   1.183   7.769  0.4495  1.2016  1.2494
  791TIP3   OH223931   0.053   0.430   2.278  0.0071 -0.3329  0.2623
  791TIP3    H123932   0.087   0.516   2.299  0.8450 -0.5617 -0.1237
  791TIP3    H223933  -0.020   0.446   2.218  0.1161  0.1056  0.2489
  792TIP3   OH223934   6.017   5.203   1.071  0.6101  0.8145  0.1321
  792TIP3    H123935   5.924   5.185   1.087  0.6530 -0.1543 -0.5900
  792TIP3    H223936   6.059   5.186   1.155  0.3291 -0.3324  0.0627
  793TIP3   OH223937   2.801   1.513   2.869 -1.0636  0.9943 -0.5092
  793TIP3    H123938   2.870   1.475   2.814 -1.5126  1.0829 -1.1428
  793TIP3    H223939   2.724   1.458   2.852 -0.9915  0.5152  0.6709
  794TIP3   OH223940   3.407   1.360   1.597 -0.5565 -0.2396  0.6768
  794TIP3    H123941   3.328   1.352   1.650  0.0590 -0.1676  1.6237
  794TIP3    H223942   3.381   1.328   1.511 -2.1152  1.4740  0.4616
  795TIP3   OH223943   0.057   3.692   8.311  0.3799  0.3145  0.0743
  795TIP3    H123944   0.050   3.754   8.239  0.2867 -0.1825 -0.3489
  795TIP3    H223945   0.129   3.725   8.365  0.0085  1.0609  0.1219
  796TIP3   OH223946   3.414   6.539   0.142  0.0182 -0.1690  0.9012
  796TIP3    H123947   3.500   6.557   0.104 -0.8395  3.2417  0.1767
  796TIP3    H223948   3.412   6.590   0.223 -1.3947  0.1043  0.7324
  797TIP3   OH223949   2.329   4.401   0.683  0.2402 -0.4958  0.3316
  797TIP3    H123950   2.267   4.358   0.624  1.5683 -1.9914 -0.0645
  797TIP3    H223951   2.351   4.334   0.747  3.7919 -1.1956 -1.3714
  798TIP3   OH223952   0.392   2.593   8.572  0.7189 -0.8130  0.1780
  798TIP3    H123953   0.427   2.562   8.656 -0.7113  0.1113  1.1627
  798TIP3    H223954   0.341   2.671   8.595 -0.1563 -0.8604 -1.4761
  799TIP3   OH223955   2.167   3.836   6.688  0.5952 -0.3104  0.1454
  799TIP3    H123956   2.205   3.775   6.751  2.8968  0.5837 -0.2963
  799TIP3    H223957   2.181   3.922   6.726 -1.9841  0.0695  0.4253
  800TIP3   OH223958   3.058   3.408   2.354 -0.2606 -0.1578 -0.4550
  800TIP3    H123959   3.091   3.445   2.436 -1.4167 -0.8750  0.3671
  800TIP3    H223960   3.015   3.482   2.310 -0.5334  0.0142  0.0839
  801TIP3   OH223961   3.118   4.054   1.689  0.4105  0.0147 -0.5248
  801TIP3    H123962   3.073   4.041   1.773  0.7741  0.1689 -0.3029
  801TIP3    H223963   3.047   4.061   1.625  0.0853  0.9926 -0.0808
  802TIP3   OH223964   0.587   2.987   0.634 -0.6288  0.7996  0.4379
  802TIP3    H123965   0.642   2.908   0.633 -1.7709 -0.0370 -0.9698
  802TIP3    H223966   0.534   2.979   0.713 -1.7290 -0.6090 -0.3962
  803TIP3   OH223967   5.952   2.900   2.068 -0.4041 -0.0260  0.4409
  803TIP3    H123968   6.003   2.836   2.019 -0.8031  0.3071 -0.4347
  803TIP3    H223969   5.989   2.898   2.156  1.7603  0.8615 -0.3727
  804TIP3   OH223970   1.601   6.742   8.113 -0.2061  0.0087  0.2954
  804TIP3    H123971   1.612   6.837   8.105  1.8801 -0.2686 -1.0131
  804TIP3    H223972   1.520   6.723   8.065 -1.3238  1.2307  1.6356
  805TIP3   OH223973   1.393   6.371   8.555  0.7197 -0.4237 -0.3897
  805TIP3    H123974   1.340   6.321   8.493 -0.7888 -1.0715  1.3340
  805TIP3    H223975   1.437   6.304   8.608 -0.8423 -0.0075  1.5518
  806TIP3   OH223976   0.128   1.409   1.496 -0.4836 -0.2599 -0.5176
  806TIP3    H123977   0.052   1.386   1.549  0.7368 -2.3264  0.4709
  806TIP3    H223978   0.154   1.327   1.454  1.3832  0.3019 -0.5768
  807TIP3   OH223979   1.036   1.227   7.075  0.1382  0.0170 -0.4247
  807TIP3    H123980   1.034   1.191   7.163 -1.5661  0.6269 -0.1866
  807TIP3    H223981   1.107   1.291   7.077 -0.4161  0.6224  0.7660
  808TIP3   OH223982   4.360   6.033   1.964 -0.5872  0.1552 -0.1620
  808TIP3    H123983   4.386   6.119   1.996 -0.1160  0.2940 -0.9125
  808TIP3    H223984   4.359   5.978   2.043  0.6133  0.4805  0.0996
  809TIP3   OH223985   3.400   4.084   8.262  0.4146  0.0452  0.2131
  809TIP3    H123986   3.402   4.064   8.356  0.7248 -0.4384  0.1108
  809TIP3    H223987   3.307   4.095   8.242  0.1949 -1.4881  0.2588
  810TIP3   OH223988   2.804   3.255   1.778 -1.0095  0.2795  0.6314
  810TIP3    H123989   2.767   3.219   1.859 -1.2138 -0.9745 -0.0002
  810TIP3    H223990   2.878   3.309   1.807 -1.3349  0.1823  1.6755
  811TIP3   OH223991   0.140   0.724   7.950 -0.4312  0.2788 -0.2275
  811TIP3    H123992   0.170   0.712   7.860  0.1842  0.2833 -0.0251
  811TIP3    H223993   0.168   0.812   7.974 -0.4653  0.2231  0.0222
  812TIP3   OH223994   1.389   4.886   7.654 -0.1108 -0.0051 -0.3002
  812TIP3    H123995   1.310   4.939   7.647  0.2151  0.8960  1.8839
  812TIP3    H223996   1.359   4.804   7.693  0.0109  0.3867  0.6515
  813TIP3   OH223997   6.720   6.384   8.060  0.1406  0.0049 -0.3672
  813TIP3    H123998   6.727   6.314   7.995 -0.3940 -0.7523  0.3556
  813TIP3    H223999   6.753   6.344   8.141  0.8539  0.9485 -0.1835
  814TIP3   OH224000   4.316   5.032   2.525 -0.0774 -0.0473 -0.5354
  814TIP3    H124001   4.295   5.073   2.441  0.6450 -0.6627 -1.0229
  814TIP3    H224002   4.234   4.993   2.554 -0.2522 -0.1254 -1.1221
  815TIP3   OH224003   4.695   1.740   1.188  0.1817  0.4100  0.1054
  815TIP3    H124004   4.762   1.756   1.121 -0.1560 -0.4730 -0.4570
  815TIP3    H224005   4.740   1.690   1.256  0.7182  1.9432  0.9138
  816TIP3   OH224006   0.430   5.742   8.121  0.3001  0.1186  0.0793
  816TIP3    H124007   0.402   5.655   8.150 -1.5891  0.3531 -0.8745
  816TIP3    H224008   0.479   5.726   8.040 -2.0239  0.0033 -1.4155
  817TIP3   OH224009   0.991   0.519   7.094  1.0824 -0.4369  0.1614
  817TIP3    H124010   1.079   0.482   7.089  1.3891  0.4150 -1.1843
  817TIP3    H224011   0.992   0.593   7.034 -0.3243  0.0838  0.7291
  818TIP3   OH224012   2.948   6.277   0.285 -0.0919 -0.2867 -0.3898
  818TIP3    H124013   2.909   6.198   0.246 -1.0406  0.7108 -1.5530
  818TIP3    H224014   3.032   6.247   0.319 -1.4223 -2.3282  1.4072
  819TIP3   OH224015   0.753   0.782   2.250  0.0471 -0.5133 -0.2039
  819TIP3    H124016   0.833   0.732   2.269 -0.0893 -0.7189 -0.1674
  819TIP3    H224017   0.774   0.872   2.275  0.1426 -0.6335  0.1538
  820TIP3   OH224018   3.458   3.572   7.839  0.1819  0.3480 -0.5308
  820TIP3    H124019   3.518   3.538   7.773  0.2911  0.7111 -0.6199
  820TIP3    H224020   3.384   3.606   7.789  0.1490  0.3927 -0.4512
  821TIP3   OH224021   5.910   3.300   0.804 -0.4414  0.0033  0.3438
  821TIP3    H124022   5.955   3.251   0.872  0.0744  0.2054  0.1566
  821TIP3    H224023   5.874   3.376   0.850  0.0857  0.2497  0.3630
  822TIP3   OH224024   2.541   6.220   0.797  0.1320  0.3826  0.0436
  822TIP3    H124025   2.456   6.175   0.798  0.0551  0.4755 -1.0972
  822TIP3    H224026   2.605   6.152   0.817 -0.0767 -0.0148 -0.6274
  823TIP3   OH224027   6.043   0.866   7.104  0.3140  0.2619  0.5042
  823TIP3    H124028   5.959   0.823   7.120  0.3049 -0.2243 -0.7895
  823TIP3    H224029   6.079   0.881   7.192  0.7508 -3.2476  1.0802
  824TIP3   OH224030   6.633   1.190   7.511  0.1033 -0.0065 -0.1278
  824TIP3    H124031   6.669   1.188   7.599 -1.0223 -0.3580  0.3360
  824TIP3    H224032   6.625   1.098   7.485 -0.8727  0.0488 -0.0458
  825TIP3   OH224033   4.109   3.695   6.814  0.2216  0.0129  0.1940
  825TIP3    H124034   4.075   3.622   6.867 -0.3290  0.8622  1.0371
  825TIP3    H224035   4.131   3.763   6.877 -0.1475  0.9342 -0.6433
  826TIP3   OH224036   1.339   5.169   0.365  0.1580  0.3307  0.6676
  826TIP3    H124037   1.259   5.125   0.393  0.0575  0.3549  0.4194
  826TIP3    H224038   1.326   5.260   0.391  0.1856  0.2991  0.7957
  827TIP3   OH224039   0.091   3.831   1.250  0.3598  0.2464  0.0167
  827TIP3    H124040   0.147   3.771   1.300 -1.7673 -0.0026  2.3180
  827TIP3    H224041   0.138   3.914   1.253  2.2340 -0.6884 -1.2016
  828TIP3   OH224042   1.087   5.305   1.814 -0.4985  0.0824 -0.2249
  828TIP3    H124043   1.061   5.356   1.891  0.2735 -0.2512  0.2664
  828TIP3    H224044   1.155   5.245   1.846  1.1362  1.1474 -1.5297
  829TIP3   OH224045   0.409   6.718   1.845 -0.4409 -0.6297 -0.2698
  829TIP3    H124046   0.390   6.785   1.912  0.0073  1.5740 -2.2116
  829TIP3    H224047   0.479   6.666   1.883  0.7473  1.4103  0.5072
  830TIP3   OH224048   3.836   0.170   6.709  0.0416 -0.6046 -0.1680
  830TIP3    H124049   3.914   0.114   6.705  0.6486  0.0358  1.5437
  830TIP3    H224050   3.782   0.132   6.778 -0.8062 -0.5931 -0.8108
  831TIP3   OH224051   6.056   6.141   7.585 -0.6639 -0.2983  0.1293
  831TIP3    H124052   6.091   6.053   7.602  1.9335  0.6798  0.2565
  831TIP3    H224053   5.999   6.130   7.509 -0.1859 -2.0513 -0.0262
  832TIP3   OH224054   1.357   5.634   1.369  0.3080 -0.1876  0.5281
  832TIP3    H124055   1.396   5.605   1.451 -1.1304 -1.6194  0.7628
  832TIP3    H224056   1.425   5.618   1.303 -0.0058 -3.3568  0.7923
  833TIP3   OH224057   5.056   0.190   8.336  0.1269 -0.0227  0.1531
  833TIP3    H124058   5.046   0.165   8.244 -1.3234  1.3030 -0.0883
  833TIP3    H224059   5.136   0.243   8.338  0.1231  0.0080 -0.3715
  834TIP3   OH224060   3.304   5.467   7.214 -0.1465  0.3510 -0.6158
  834TIP3    H124061   3.296   5.560   7.237  2.5043  0.7694 -1.0498
  834TIP3    H224062   3.282   5.420   7.294 -1.1435  1.3539 -0.2727
  835TIP3   OH224063   1.747   1.723   1.629  0.1029 -0.3990  0.5683
  835TIP3    H124064   1.673   1.762   1.677  0.4778 -1.2718  1.9006
  835TIP3    H224065   1.769   1.789   1.563 -1.2633  0.2840  0.7456
  836TIP3   OH224066   2.443   2.425   1.178 -0.0688  0.3500  0.4653
  836TIP3    H124067   2.432   2.376   1.260  0.3847  1.1967  1.0566
  836TIP3    H224068   2.404   2.511   1.196 -1.3915  0.0422 -0.7494
  837TIP3   OH224069   0.539   6.572   7.932  0.6026  0.7243 -0.0747
  837TIP3    H124070   0.629   6.604   7.935  1.2042 -0.9178  1.1826
  837TIP3    H224071   0.547   6.478   7.949 -1.5045  0.8762  2.4083
  838TIP3   OH224072   6.158   6.453   7.184 -0.1495 -0.1504 -0.4259
  838TIP3    H124073   6.188   6.496   7.103 -0.0351 -0.5002 -0.5729
  838TIP3    H224074   6.209   6.494   7.253 -1.1611  1.0789 -0.3660
  839TIP3   OH224075   1.869   6.352   7.586 -0.0867  0.6366  0.1123
  839TIP3    H124076   1.939   6.377   7.647  0.4202 -1.3745  0.4251
  839TIP3    H224077   1.850   6.432   7.537  1.7743  1.4791  0.6819
  840TIP3   OH224078   0.003   3.054   1.438 -0.5070 -0.0261  0.7220
  840TIP3    H124079   0.006   3.037   1.344 -0.4175 -1.7904  1.0103
  840TIP3    H224080  -0.028   2.973   1.476 -0.9129  0.7905  2.2040
  841TIP3   OH224081   3.068   0.335   6.827 -0.2263 -0.4160  0.4583
  841TIP3    H124082   3.057   0.298   6.739 -0.8274  0.1902  0.2687
  841TIP3    H224083   3.035   0.425   6.819 -1.3723 -0.7143  1.5846
  842TIP3   OH224084   2.753   2.885   8.565  0.0025 -0.5249 -0.8556
  842TIP3    H124085   2.674   2.843   8.531  0.2443 -0.9916 -0.8530
  842TIP3    H224086   2.785   2.824   8.632  0.3006 -0.2853 -0.7817
  843TIP3   OH224087   1.338   4.848   7.934  0.4433  0.6254 -0.7589
  843TIP3    H124088   1.254   4.809   7.959  0.7247 -0.0423 -0.8374
  843TIP3    H224089   1.394   4.835   8.011  1.6775 -2.4765 -2.0209
  844TIP3   OH224090   3.335   3.154   1.765  0.1421 -0.0111 -0.1377
  844TIP3    H124091   3.398   3.187   1.830 -0.0030 -0.3565  0.1784
  844TIP3    H224092   3.251   3.190   1.793  0.1463  0.2012 -0.3897
  845TIP3   OH224093   2.560   0.082   7.893 -0.5933  0.2088 -0.0372
  845TIP3    H124094   2.642   0.069   7.846 -1.6672 -0.3269 -1.8555
  845TIP3    H224095   2.551   0.177   7.899  0.8400  0.2966  1.5270
  846TIP3   OH224096   2.100   2.046   0.714 -0.0870 -0.2704  0.3525
  846TIP3    H124097   2.009   2.071   0.730  0.1206  1.9481 -1.4415
  846TIP3    H224098   2.096   1.953   0.690 -1.8889 -0.2006  0.2999
  847TIP3   OH224099   6.779   4.190   7.969 -0.0738  0.2416  0.4113
  847TIP3    H124100   6.801   4.278   8.001  0.7955  0.2489 -0.1871
  847TIP3    H224101   6.793   4.194   7.874 -1.0806 -0.2367  0.2298
  848TIP3   OH224102   0.674   4.231   6.532 -0.0677 -0.8055  0.5173
  848TIP3    H124103   0.745   4.245   6.595 -0.6661 -1.6645  1.4147
  848TIP3    H224104   0.714   4.175   6.465  0.1989 -1.0110  0.8417
  849TIP3   OH224105   2.851   0.602   6.553 -0.0721  0.1563  0.0982
  849TIP3    H124106   2.813   0.628   6.469 -0.9241 -2.3351 -0.3851
  849TIP3    H224107   2.923   0.543   6.529  0.8744  0.8534  1.1191
  850TIP3   OH224108   5.151   6.237   1.621 -0.7993 -0.1190 -0.2477
  850TIP3    H124109   5.056   6.247   1.623 -0.7905 -0.0163 -0.3357
  850TIP3    H224110   5.170   6.169   1.685 -1.0449 -1.1163 -1.2195
  851TIP3   OH224111   5.732   2.521   2.010  0.0236 -0.1627  0.3650
  851TIP3    H124112   5.659   2.580   1.991  0.0698 -0.3493 -0.4048
  851TIP3    H224113   5.738   2.521   2.106 -2.0421 -1.3963  0.5466
  852TIP3   OH224114   0.001   3.860   7.282 -0.1916 -1.5740 -0.7510
  852TIP3    H124115   0.006   3.907   7.365  1.5258 -0.9846 -1.1582
  852TIP3    H224116   0.004   3.767   7.306 -0.8403 -1.4326 -0.1051
  853TIP3   OH224117   5.724   2.876   8.455 -0.3533 -0.1763  0.2314
  853TIP3    H124118   5.819   2.886   8.447 -0.0306 -3.0890 -0.5528
  853TIP3    H224119   5.692   2.870   8.365 -1.5422  2.0844  0.4149
  854TIP3   OH224120   5.905   4.069   1.055 -0.7933 -0.5367 -0.2541
  854TIP3    H124121   5.915   4.083   1.149  1.0059  1.1452 -0.6321
  854TIP3    H224122   5.810   4.058   1.042 -1.6687  3.4786  1.3105
  855TIP3   OH224123   3.233   2.092   1.767 -0.4624  0.4466  0.6911
  855TIP3    H124124   3.202   2.003   1.751  2.7440 -0.9710  1.6450
  855TIP3    H224125   3.169   2.129   1.828 -1.0741 -1.7265  1.4421
  856TIP3   OH224126   2.760   3.674   8.193 -0.0035  0.1392 -0.2387
  856TIP3    H124127   2.834   3.654   8.250  1.0398  0.6484 -1.3818
  856TIP3    H224128   2.707   3.594   8.194  1.3143 -0.7636 -0.5539
  857TIP3   OH224129   3.747   2.246   7.534  0.2072  0.3513  0.3226
  857TIP3    H124130   3.678   2.285   7.482  0.2784  0.5331  0.3632
  857TIP3    H224131   3.775   2.169   7.484  0.5629  0.7583 -0.1129
  858TIP3   OH224132   1.776   1.900   7.710  0.5333 -0.6048  0.1692
  858TIP3    H124133   1.745   1.824   7.661  0.8198 -1.4287  1.2116
  858TIP3    H224134   1.870   1.886   7.720  0.3791 -0.8277  1.5259
  859TIP3   OH224135   5.725   4.396   6.799  0.3889  0.7144  0.8449
  859TIP3    H124136   5.635   4.405   6.768  0.3867  1.7091  1.0785
  859TIP3    H224137   5.766   4.334   6.739 -0.2668  0.7748  0.3267
  860TIP3   OH224138   6.755   0.779   7.260 -0.1756 -0.1618 -0.6994
  860TIP3    H124139   6.718   0.778   7.172 -1.3309  0.3312 -0.2322
  860TIP3    H224140   6.718   0.702   7.303  1.3656 -1.1261 -1.0025
  861TIP3   OH224141   3.846   5.223   8.527 -0.3338 -0.1634 -0.5381
  861TIP3    H124142   3.819   5.199   8.616  0.8025 -0.1390 -0.1656
  861TIP3    H224143   3.933   5.260   8.538  0.6391 -1.9090 -1.8653
  862TIP3   OH224144   0.404   5.538   6.951  0.0329 -0.3814  0.0160
  862TIP3    H124145   0.389   5.456   6.904 -0.3629 -0.1164 -0.3165
  862TIP3    H224146   0.336   5.597   6.920  0.5622  0.2042 -0.0391
  863TIP3   OH224147   6.119   6.420   0.561  0.4288 -0.3226  0.3461
  863TIP3    H124148   6.028   6.397   0.540  0.2990 -0.4270  0.9989
  863TIP3    H224149   6.117   6.444   0.654  1.1558 -0.7907  0.4896
  864TIP3   OH224150   0.840   0.012   8.179  0.1254  0.0776  0.1812
  864TIP3    H124151   0.830   0.107   8.187 -0.1257 -0.0920  2.5695
  864TIP3    H224152   0.753  -0.018   8.153  0.1106  0.4555 -0.2288
  865TIP3   OH224153   3.666   6.827   7.335  0.2418 -0.0835  0.2742
  865TIP3    H124154   3.607   6.756   7.359 -0.8440  0.6662 -0.0981
  865TIP3    H224155   3.632   6.860   7.252  1.1397  0.4263  0.0923
  866TIP3   OH224156   2.663   0.131   0.314  0.2276 -0.1941  0.4492
  866TIP3    H124157   2.691   0.043   0.340  2.3291  0.2769 -0.0301
  866TIP3    H224158   2.611   0.116   0.236  0.9658 -1.0133  0.0836
  867TIP3   OH224159   0.671   6.072   7.736  0.5431 -0.2334 -0.8863
  867TIP3    H124160   0.676   6.151   7.791 -0.0086 -2.4290  2.6727
  867TIP3    H224161   0.578   6.057   7.723  0.6382 -0.4174 -1.3741
  868TIP3   OH224162   5.562   2.697   0.854 -0.2143  0.2366 -0.6076
  868TIP3    H124163   5.646   2.743   0.843 -0.8593  1.5118 -0.3965
  868TIP3    H224164   5.496   2.766   0.846 -1.2397 -0.7079 -0.4995
  869TIP3   OH224165   3.480   4.140   7.588  0.3551  0.4344 -0.1425
  869TIP3    H124166   3.478   4.107   7.498  1.5010 -0.6524  0.1962
  869TIP3    H224167   3.480   4.235   7.578  1.7794  0.3495 -1.3707
  870TIP3   OH224168   6.605   6.244   0.011  0.1180  0.0100 -0.0676
  870TIP3    H124169   6.557   6.257   0.092  1.5351 -0.2636  0.8533
  870TIP3    H224170   6.602   6.329  -0.033 -1.4016 -0.0746 -0.1826
  871TIP3   OH224171   6.143   4.078   7.483 -0.3666 -0.0528 -0.0248
  871TIP3    H124172   6.097   4.010   7.435 -1.1495  0.2852  0.2320
  871TIP3    H224173   6.202   4.117   7.419 -0.7850 -0.1724 -0.4871
  872TIP3   OH224174   5.884   4.581   1.495 -0.1739 -0.2757  0.2952
  872TIP3    H124175   5.948   4.516   1.525 -0.4748  0.2615  2.2209
  872TIP3    H224176   5.930   4.664   1.503  0.0559 -0.1541 -1.7333
  873TIP3   OH224177   2.068   5.953   8.393  0.0045  0.4827  0.2311
  873TIP3    H124178   2.134   5.894   8.356  0.0497 -0.6670  2.0160
  873TIP3    H224179   2.106   6.040   8.384  1.5634 -0.1077  0.7118
  874TIP3   OH224180   2.397   0.538   7.547 -0.6769  0.0349  0.3383
  874TIP3    H124181   2.329   0.481   7.581 -0.5540  0.6173  1.6009
  874TIP3    H224182   2.350   0.608   7.501 -0.9899  0.8416  1.8383
  875TIP3   OH224183   1.243   2.965   8.131 -0.6972  0.1701  0.1719
  875TIP3    H124184   1.315   2.984   8.070 -1.4663  3.2021  0.0484
  875TIP3    H224185   1.174   2.928   8.075 -0.6518  0.9848 -0.4391
  876TIP3   OH224186   6.238   0.523   8.639  0.1705  0.6151  0.7239
  876TIP3    H124187   6.159   0.534   8.692 -1.5087 -1.4874 -1.1789
  876TIP3    H224188   6.301   0.482   8.698 -0.1957  2.0326  2.1781
  877TIP3   OH224189   0.691   0.314   7.377  0.3332  0.0699 -0.1831
  877TIP3    H124190   0.646   0.237   7.414 -0.5749  0.7285  0.1192
  877TIP3    H224191   0.760   0.333   7.440  0.8600 -0.7626 -0.4897
  878TIP3   OH224192   3.254   3.123   7.317 -0.3334  0.5063 -0.7288
  878TIP3    H124193   3.174   3.154   7.359  0.2142  0.4096  0.4337
  878TIP3    H224194   3.313   3.199   7.321 -0.4194  0.6448 -1.7663
  879TIP3   OH224195   4.329   0.034   1.196 -0.6416  0.5833 -0.1111
  879TIP3    H124196   4.283   0.118   1.199  0.1433  1.0120 -0.0032
  879TIP3    H224197   4.346   0.012   1.287  0.0445  0.8052 -0.1818
  880TIP3   OH224198   1.667   2.549   1.286  0.1696 -0.3167 -0.0727
  880TIP3    H124199   1.710   2.631   1.261  0.0867 -0.3294 -0.2558
  880TIP3    H224200   1.628   2.568   1.372 -1.9596  0.6380 -1.1649
  881TIP3   OH224201   6.593   2.782   0.340 -0.3245 -0.6200  0.8013
  881TIP3    H124202   6.622   2.718   0.275 -0.7862 -0.3639  0.3360
  881TIP3    H224203   6.615   2.867   0.301 -1.1394 -0.4453  0.7141
  882TIP3   OH224204   1.859   2.128   0.830  0.2890  0.2798 -0.0689
  882TIP3    H124205   1.835   2.220   0.842  1.3210  0.9194 -2.3839
  882TIP3    H224206   1.867   2.093   0.919 -0.5237  2.2969  0.8517
  883TIP3   OH224207   3.501   6.858   1.190 -0.0907  0.1529  0.8553
  883TIP3    H124208   3.572   6.819   1.239  0.8118  1.0296  0.2966
  883TIP3    H224209   3.473   6.790   1.129 -0.0537 -0.3538  1.4007
  884TIP3   OH224210   0.172   5.202   7.602 -0.0619  0.5831 -0.3378
  884TIP3    H124211   0.142   5.220   7.692  0.6213  1.1760 -0.2210
  884TIP3    H224212   0.246   5.261   7.589 -0.6808  1.1190 -1.5953
  885TIP3   OH224213   5.975   2.537   0.622  0.6905 -0.1178 -0.0657
  885TIP3    H124214   5.961   2.632   0.622 -2.2570 -0.4623  0.4757
  885TIP3    H224215   5.935   2.507   0.540  0.3909 -1.0136  0.3965
  886TIP3   OH224216   0.236   4.195   0.717  0.1822  0.4370  0.1828
  886TIP3    H124217   0.166   4.153   0.766 -0.8739 -0.0428 -1.6338
  886TIP3    H224218   0.191   4.254   0.656  1.3726  0.5741 -0.6039
  887TIP3   OH224219   6.116   0.833   1.979  0.5756  0.3600 -0.0579
  887TIP3    H124220   6.198   0.822   2.027  1.3807 -0.2259 -1.4854
  887TIP3    H224221   6.054   0.774   2.022  1.6996 -1.3283 -0.6329
  888TIP3   OH224222   1.083   0.582   8.475  0.0547  0.1602 -0.0675
  888TIP3    H124223   1.107   0.620   8.391  1.0547  2.2394  1.0825
  888TIP3    H224224   0.988   0.575   8.472  0.0891  0.0360 -1.4148
  889TIP3   OH224225   0.103   0.425   1.080 -0.1463  0.3471 -0.2104
  889TIP3    H124226   0.124   0.383   0.996  0.2955  0.1267  0.0075
  889TIP3    H224227   0.010   0.403   1.095 -0.2566  0.4795 -0.6912
  890TIP3   OH224228   0.664   0.094   1.605 -0.0111  0.1340  0.0093
  890TIP3    H124229   0.596   0.085   1.539  0.2767  0.3047 -0.3105
  890TIP3    H224230   0.694   0.185   1.597 -1.6116  0.9086  1.9638
  891TIP3   OH224231   2.145   6.560   2.386 -0.5730 -0.4507  0.1281
  891TIP3    H124232   2.217   6.509   2.349 -0.0171  0.2199  0.2676
  891TIP3    H224233   2.089   6.581   2.312 -1.3386 -2.0975  0.2143
  892TIP3   OH224234   4.096   0.752   1.945 -0.2690 -0.0812  0.1727
  892TIP3    H124235   4.080   0.809   1.870  1.7765  0.1016 -0.1964
  892TIP3    H224236   4.039   0.676   1.931 -0.5821  0.3717 -1.0883
  893TIP3   OH224237   1.938   1.038   7.801  0.1665 -0.1427 -0.4578
  893TIP3    H124238   1.945   1.069   7.892 -1.3751 -1.1515  0.0533
  893TIP3    H224239   1.911   0.947   7.809  0.9111 -0.5148 -1.9474
  894TIP3   OH224240   2.304   5.668   0.873  0.1589 -0.1102 -0.6055
  894TIP3    H124241   2.300   5.727   0.798 -0.0820  0.1255 -0.4083
  894TIP3    H224242   2.360   5.712   0.936  3.2502 -1.8134 -1.9439
  895TIP3   OH224243   2.991   4.979   1.070  0.2646  0.1428  0.0219
  895TIP3    H124244   2.967   4.890   1.043 -0.1627  0.2085  0.1829
  895TIP3    H224245   3.045   5.012   0.998 -1.2921  0.5182 -1.0102
  896TIP3   OH224246   1.366   3.100   2.357  0.1776 -0.0868  0.4391
  896TIP3    H124247   1.339   3.165   2.422 -1.4326  0.0199 -0.2990
  896TIP3    H224248   1.297   3.102   2.290 -0.7362 -3.5362  1.0662
  897TIP3   OH224249   6.267   4.989   8.245  0.4443  0.1569 -0.3517
  897TIP3    H124250   6.211   4.987   8.167 -0.9202 -0.7651  0.6058
  897TIP3    H224251   6.288   5.082   8.256 -1.1052  0.5781 -0.6199
  898TIP3   OH224252   6.035   4.289   0.649 -0.0738 -0.5875  0.2706
  898TIP3    H124253   6.007   4.337   0.572 -0.1624  0.8815  1.1681
  898TIP3    H224254   6.124   4.320   0.666 -0.2517 -0.4764  1.0583
  899TIP3   OH224255   0.812   0.946   8.641  0.2054  0.1103 -0.2873
  899TIP3    H124256   0.765   0.912   8.565 -0.1375  2.9992 -1.5303
  899TIP3    H224257   0.897   0.973   8.606  1.7980 -2.4172  1.3458
  900TIP3   OH224258   1.542   3.520   7.640  0.1791  0.1943  0.2547
  900TIP3    H124259   1.525   3.457   7.570  0.0680 -0.1124  0.5529
  900TIP3    H224260   1.623   3.564   7.614 -0.9951  1.6174 -1.1570
  901TIP3   OH224261   0.698   1.688   0.614 -0.4246 -1.0120 -0.0588
  901TIP3    H124262   0.717   1.768   0.564  1.9924 -1.7102 -0.4181
  901TIP3    H224263   0.720   1.711   0.705 -1.6096 -0.7240  0.1685
  902TIP3   OH224264   0.475   5.274   1.403  0.1155  0.3082  0.7829
  902TIP3    H124265   0.539   5.213   1.365 -1.1614 -0.4166 -0.3116
  902TIP3    H224266   0.432   5.224   1.471 -1.8779 -0.5833 -1.0093
  903TIP3   OH224267   1.273   1.207   1.370 -0.8094 -0.3565  0.0218
  903TIP3    H124268   1.309   1.259   1.442 -3.5896 -0.5584  1.6774
  903TIP3    H224269   1.216   1.267   1.322 -1.7667 -1.1070  0.1876
  904TIP3   OH224270   4.800   6.708   0.895 -0.0260  0.3433  0.5556
  904TIP3    H124271   4.801   6.660   0.812  1.7199 -0.0453  0.7698
  904TIP3    H224272   4.715   6.686   0.934 -0.0142 -1.1456 -0.1688
  905TIP3   OH224273   1.680   2.612   7.342  0.2071  0.2295  0.2164
  905TIP3    H124274   1.696   2.673   7.269 -1.6259  1.7348  0.9777
  905TIP3    H224275   1.746   2.636   7.407  1.3703 -0.6148 -0.6125
  906TIP3   OH224276   6.803   2.111   1.518  0.3059 -0.2626  0.2000
  906TIP3    H124277   6.778   2.021   1.540  1.2789 -1.6887 -3.7406
  906TIP3    H224278   6.886   2.125   1.563  1.4683 -2.3922 -1.1491
  907TIP3   OH224279   1.115   1.451   6.052  0.3889 -0.0206  0.3701
  907TIP3    H124280   1.077   1.440   6.139  0.6899  0.3718  0.5588
  907TIP3    H224281   1.124   1.363   6.018  1.8203 -0.3200  1.4133
  908TIP3   OH224282   3.674   6.458   8.556 -0.5291 -0.8480  0.3758
  908TIP3    H124283   3.648   6.486   8.469  1.2587 -1.2985 -0.3509
  908TIP3    H224284   3.622   6.379   8.573 -1.0705 -0.6095 -0.1497
  909TIP3   OH224285   1.598   0.281   0.137  0.1250  0.2693 -0.0923
  909TIP3    H124286   1.675   0.266   0.192 -0.3403  0.8450  0.7564
  909TIP3    H224287   1.548   0.200   0.143 -0.5376  0.7382  1.4030
  910TIP3   OH224288   4.472   4.758   2.197 -0.5697 -0.4851  0.1172
  910TIP3    H124289   4.520   4.792   2.273  1.1757  2.3996 -2.0675
  910TIP3    H224290   4.427   4.835   2.161 -0.5749 -1.5286 -2.3193
  911TIP3   OH224291   1.218   3.990   7.791  0.4931  0.6549  0.0181
  911TIP3    H124292   1.183   3.922   7.849 -1.1879 -0.6124 -2.3053
  911TIP3    H224293   1.302   3.955   7.761  0.0044 -0.0662 -0.5449
  912TIP3   OH224294   0.870   5.246   7.083 -0.4937 -0.2296  0.1587
  912TIP3    H124295   0.888   5.286   6.998  0.1539  0.7534  0.7395
  912TIP3    H224296   0.955   5.220   7.116 -0.7547 -0.7001  0.4717
  913TIP3   OH224297   5.909   2.979   0.106 -0.0001  0.1853  0.2032
  913TIP3    H124298   5.838   2.983   0.170 -1.1715 -0.5109 -1.0029
  913TIP3    H224299   5.877   3.033   0.033  1.1693  0.7005  0.0541
  914TIP3   OH224300   5.097   6.177   7.889  0.0309 -0.3632  0.8128
  914TIP3    H124301   5.127   6.087   7.907  0.7875 -0.1165  0.8416
  914TIP3    H224302   5.006   6.177   7.917  0.2051 -0.9507  1.4446
  915TIP3   OH224303   2.875   0.741   0.106  0.3386 -0.5350  0.5980
  915TIP3    H124304   2.822   0.684   0.050 -0.1858  0.8970 -0.4009
  915TIP3    H224305   2.898   0.685   0.181 -1.2838 -1.6645  0.3205
  916TIP3   OH224306   3.351   6.642   6.361 -0.1407  0.1034  0.0745
  916TIP3    H124307   3.307   6.619   6.279  1.5360 -0.2783 -0.7707
  916TIP3    H224308   3.408   6.568   6.380  0.6508  0.8523  0.7406
  917TIP3   OH224309   4.865   6.333   1.653  0.2256  0.0205 -0.3835
  917TIP3    H124310   4.829   6.422   1.650 -0.8504 -0.3912 -0.3293
  917TIP3    H224311   4.802   6.281   1.603 -0.1651 -1.0433  1.1573
  918TIP3   OH224312   5.703   3.347   0.384  0.7031 -0.3051  0.0742
  918TIP3    H124313   5.729   3.433   0.354  0.4537  0.0957  0.9575
  918TIP3    H224314   5.785   3.303   0.407  0.7402  0.5177  1.7149
  919TIP3   OH224315   2.504   6.572   7.816 -0.0377 -0.3640  0.1070
  919TIP3    H124316   2.575   6.554   7.755  1.3703  1.1264  1.2252
  919TIP3    H224317   2.480   6.486   7.850  1.1656 -0.9090 -0.3552
  920TIP3   OH224318   3.389   6.182   7.510  0.0736 -0.1570 -0.1853
  920TIP3    H124319   3.481   6.202   7.490  0.6177 -0.4342  1.8174
  920TIP3    H224320   3.393   6.105   7.567 -1.5294 -1.2216 -1.4189
  921TIP3   OH224321   3.060   4.198   0.670  0.1151  1.1123  0.0956
  921TIP3    H124322   2.990   4.194   0.605 -0.0535  0.7444  0.2981
  921TIP3    H224323   3.032   4.267   0.731 -0.0585  0.9873  0.1592
  922TIP3   OH224324   2.096   0.734   7.768 -0.1130  0.3912  0.0362
  922TIP3    H124325   2.001   0.726   7.777 -0.3657  0.5401 -2.0653
  922TIP3    H224326   2.121   0.798   7.835 -1.4640  0.2745  0.6909
  923TIP3   OH224327   6.290   3.390   1.790  0.2182 -0.1466 -0.0785
  923TIP3    H124328   6.330   3.305   1.806 -0.2383 -0.3839 -0.1703
  923TIP3    H224329   6.223   3.399   1.858 -0.5451 -0.3932 -0.7806
  924TIP3   OH224330   2.323   1.674   0.356 -0.1816 -0.5106 -0.3676
  924TIP3    H124331   2.262   1.605   0.331 -0.4436 -0.9124  1.2721
  924TIP3    H224332   2.406   1.629   0.371 -0.7116 -0.7751  2.1699
  925TIP3   OH224333   3.087   4.747   0.764  0.3423  0.2762  0.3114
  925TIP3    H124334   3.059   4.730   0.854  0.6556 -0.6926  0.2427
  925TIP3    H224335   3.009   4.781   0.721  0.0303  0.2076  0.8052
  926TIP3   OH224336   4.135   5.153   0.600  0.3507 -0.0220 -0.5923
  926TIP3    H124337   4.187   5.197   0.668 -0.8866  0.2001  0.2489
  926TIP3    H224338   4.047   5.188   0.611 -0.4714 -1.9493 -0.5547
  927TIP3   OH224339   6.107   5.129   1.332  0.4598 -0.0282  0.2067
  927TIP3    H124340   6.114   5.142   1.427  1.5690  1.3709 -0.0312
  927TIP3    H224341   6.192   5.094   1.306  1.3276  2.4522 -0.6279
  928TIP3   OH224342   4.884   2.457   2.248 -0.3490 -0.0286 -0.0669
  928TIP3    H124343   4.866   2.400   2.323  1.1682 -0.3915  0.0669
  928TIP3    H224344   4.882   2.399   2.172  0.8203 -0.2338  0.0284
  929TIP3   OH224345   6.549   2.712   8.305  0.0969 -0.2589  0.1876
  929TIP3    H124346   6.566   2.754   8.220  0.1600 -0.5508  0.0545
  929TIP3    H224347   6.460   2.740   8.328  0.8930  1.7230  1.1411
  930TIP3   OH224348   1.443   6.749   7.680  0.5216  0.1603 -0.0270
  930TIP3    H124349   1.534   6.778   7.671 -0.1705  2.2686 -0.8336
  930TIP3    H224350   1.430   6.737   7.774  2.0302 -1.7054 -0.0002
  931TIP3   OH224351   1.334   5.582   7.731  0.6592 -0.0064  0.2529
  931TIP3    H124352   1.282   5.518   7.780 -2.6363  0.5338 -2.1541
  931TIP3    H224353   1.332   5.661   7.785 -1.0680 -0.0465  0.3158
  932TIP3   OH224354   6.813   5.416   8.386 -0.5937  0.2628  0.2921
  932TIP3    H124355   6.788   5.407   8.295 -1.2412 -1.1682  0.5822
  932TIP3    H224356   6.894   5.467   8.384  0.8870 -1.9550 -1.3268
  933TIP3   OH224357   5.425   0.511   8.026 -0.2432 -0.1450  0.3553
  933TIP3    H124358   5.352   0.573   8.022  1.4136  1.8717 -0.2830
  933TIP3    H224359   5.493   0.557   8.075  1.1928 -1.3106 -0.4638
  934TIP3   OH224360   2.521   6.345   7.310  0.5721  0.8386  0.3759
  934TIP3    H124361   2.550   6.380   7.226  1.0000  1.3341  0.7300
  934TIP3    H224362   2.597   6.298   7.345 -0.1109 -0.8519 -0.2884
  935TIP3   OH224363   1.141   5.273   6.969 -0.6112 -0.6336 -0.0277
  935TIP3    H124364   1.139   5.202   7.034 -1.3254 -0.3904  0.2324
  935TIP3    H224365   1.086   5.240   6.897 -1.6512 -0.0240  0.4584
  936TIP3   OH224366   4.828   6.543   0.644 -0.0790  0.7502  0.5370
  936TIP3    H124367   4.808   6.549   0.551 -1.0631  0.5566  0.7275
  936TIP3    H224368   4.797   6.457   0.670  0.1916  0.8009  1.0475
  937TIP3   OH224369   0.467   5.972   6.994 -0.3572 -0.2176  0.0985
  937TIP3    H124370   0.386   5.922   7.003 -0.5065  0.1074  0.5754
  937TIP3    H224371   0.468   6.031   7.069 -0.2396  0.5894 -0.5200
  938TIP3   OH224372   5.169   6.617   6.917 -0.0860 -0.0263 -0.3172
  938TIP3    H124373   5.097   6.669   6.883 -2.0130 -1.7757  0.8161
  938TIP3    H224374   5.174   6.640   7.010 -1.3386 -2.0910  0.3414
  939TIP3   OH224375   4.992   3.490   0.240 -0.2560  0.4725 -0.1657
  939TIP3    H124376   4.972   3.575   0.201 -0.3924  0.2729 -0.5313
  939TIP3    H224377   5.036   3.512   0.323  2.6457  0.9263 -1.6911
  940TIP3   OH224378   5.571   2.037   0.313  0.0209  0.2924  0.2566
  940TIP3    H124379   5.494   2.007   0.361 -0.3049 -0.6525 -0.8360
  940TIP3    H224380   5.593   2.121   0.354 -1.0550  0.1560  1.1585
  941TIP3   OH224381   6.848   2.533   1.876  0.0718 -0.0543  0.4158
  941TIP3    H124382   6.915   2.600   1.867 -2.9045  3.6343  2.4893
  941TIP3    H224383   6.866   2.491   1.960  0.2960  0.3105  0.5502
  942TIP3   OH224384   6.694   2.528   2.508 -0.7959 -0.4956 -0.1976
  942TIP3    H124385   6.631   2.550   2.577 -1.1083  1.5203 -1.0572
  942TIP3    H224386   6.755   2.467   2.550 -1.0688  0.5384  1.8151
  943TIP3   OH224387   4.328   3.652   0.782 -0.0067 -0.4093 -0.0339
  943TIP3    H124388   4.400   3.714   0.774 -1.4846  1.1602 -2.2607
  943TIP3    H224389   4.284   3.654   0.697 -0.9449 -3.5338  0.2443
  944TIP3   OH224390   6.240   4.005   0.015 -0.0427  0.6980 -0.6021
  944TIP3    H124391   6.228   3.927  -0.039 -1.7751  0.4391  0.0929
  944TIP3    H224392   6.158   4.014   0.063 -0.5467  3.8677 -1.8023
  945TIP3   OH224393   1.381   6.416   7.742 -0.3556 -0.5222 -0.1949
  945TIP3    H124394   1.372   6.462   7.659 -1.2424  2.1230  1.2560
  945TIP3    H224395   1.474   6.397   7.750 -0.1240  0.0809 -1.3504
  946TIP3   OH224396   4.064   5.707   1.688  0.1856  0.0818 -0.1968
  946TIP3    H124397   4.141   5.762   1.697 -0.2453  0.6616  0.0057
  946TIP3    H224398   3.995   5.766   1.658 -0.7461  0.0610  1.7462
  947TIP3   OH224399   4.087   5.501   0.147 -0.3894 -0.1446  0.1466
  947TIP3    H124400   4.162   5.561   0.138  0.3628 -1.3489 -2.3136
  947TIP3    H224401   4.120   5.430   0.202  0.3599 -0.6986 -0.9712
  948TIP3   OH224402   6.250   0.990   1.317 -0.7653  0.0590 -0.0435
  948TIP3    H124403   6.190   0.923   1.351 -0.4536 -0.7497 -1.0197
  948TIP3    H224404   6.335   0.944   1.310 -0.2961  0.8647  0.2719
  949TIP3   OH224405   6.709   4.060   7.089  0.0705  0.0911 -0.3994
  949TIP3    H124406   6.677   4.016   7.168  1.7346 -0.0267  0.2590
  949TIP3    H224407   6.735   3.988   7.031 -2.1767  0.1400 -1.5835
  950TIP3   OH224408   4.480   1.567   1.107  0.2361  0.1851 -0.3012
  950TIP3    H124409   4.552   1.627   1.126  0.3237 -0.1105  0.3369
  950TIP3    H224410   4.406   1.624   1.089  0.6823  0.4954 -1.2045
  951TIP3   OH224411   6.742   6.177   1.941  0.1128 -0.3678 -0.1140
  951TIP3    H124412   6.789   6.216   1.867  1.6722 -0.8020  0.5981
  951TIP3    H224413   6.796   6.103   1.967 -1.1564 -1.0858  0.5777
  952TIP3   OH224414   1.205   2.697   0.247 -0.1698 -0.6056 -0.2855
  952TIP3    H124415   1.206   2.678   0.153 -0.7370 -1.6670 -0.0996
  952TIP3    H224416   1.151   2.775   0.255 -0.4213 -0.7171 -0.8151
  953TIP3   OH224417   2.509   4.801   1.676  0.0556 -0.0946 -0.0992
  953TIP3    H124418   2.578   4.837   1.731 -1.1692  2.5964 -0.1725
  953TIP3    H224419   2.516   4.849   1.593 -0.3542 -1.5690 -1.0353
  954TIP3   OH224420   2.837   1.636   7.425  0.4668  0.3506 -0.5696
  954TIP3    H124421   2.918   1.642   7.374  0.6764 -0.4046 -0.3375
  954TIP3    H224422   2.848   1.557   7.478  0.1192  0.9443  0.4137
  955TIP3   OH224423   4.620   1.159   7.454  0.2194  0.1425  0.0517
  955TIP3    H124424   4.534   1.151   7.412  0.5921 -1.4210 -0.4783
  955TIP3    H224425   4.680   1.118   7.392  1.5332  2.0563 -0.0405
  956TIP3   OH224426   0.255   0.642   7.718  0.3404 -0.2388 -0.6982
  956TIP3    H124427   0.297   0.667   7.635  0.4623  1.5906 -0.1263
  956TIP3    H224428   0.163   0.631   7.696  0.8716 -3.7157 -1.8466
  957TIP3   OH224429   1.779   3.109   7.558 -0.7457  0.2890 -0.0237
  957TIP3    H124430   1.843   3.048   7.522 -0.7136 -0.8483  1.8503
  957TIP3    H224431   1.810   3.127   7.646 -2.0010  1.2315  0.2560
  958TIP3   OH224432   4.369   2.115   7.602  0.2859  0.2576 -0.5936
  958TIP3    H124433   4.441   2.138   7.661 -0.4776 -0.7809  0.7695
  958TIP3    H224434   4.290   2.137   7.650 -0.3496 -0.1895 -1.4083
  959TIP3   OH224435   0.440   1.308   6.405 -0.5750  0.0612  0.0256
  959TIP3    H124436   0.469   1.221   6.378 -2.1564 -0.8970  1.2173
  959TIP3    H224437   0.401   1.346   6.326  0.3630 -0.1926 -0.5714
  960TIP3   OH224438   5.823   5.689   8.214 -0.0139 -0.4112 -0.4622
  960TIP3    H124439   5.740   5.716   8.253  1.3699  0.1874  2.3742
  960TIP3    H224440   5.841   5.603   8.251  2.0181  0.7648  1.5926
  961TIP3   OH224441   1.484   0.137   1.125 -0.4604 -0.2905 -0.0087
  961TIP3    H124442   1.425   0.126   1.050  0.1225 -0.2345 -0.4827
  961TIP3    H224443   1.558   0.079   1.107 -0.4607 -0.5169  0.6849
  962TIP3   OH224444   4.511   3.583   8.092  0.6731  0.3746  0.3670
  962TIP3    H124445   4.428   3.581   8.043 -0.1826  0.9382  1.7259
  962TIP3    H224446   4.498   3.651   8.158  1.6654 -0.5522  1.5649
  963TIP3   OH224447   1.016   6.818   0.145 -0.0532 -0.1801 -0.0428
  963TIP3    H124448   1.063   6.741   0.114  0.2192  0.4409 -1.2072
  963TIP3    H224449   0.924   6.789   0.151 -0.1695 -0.2535 -1.7240
  964TIP3   OH224450   2.419   1.615   1.625 -0.0367  0.1974  0.8584
  964TIP3    H124451   2.402   1.698   1.581 -0.3387 -0.4481 -0.2865
  964TIP3    H224452   2.360   1.616   1.701 -0.8886  0.5322  0.2073
  965TIP3   OH224453   6.732   0.936   1.001 -0.0925 -0.1321 -0.2563
  965TIP3    H124454   6.637   0.938   0.998 -0.1193  0.1743  0.4869
  965TIP3    H224455   6.760   0.947   0.910 -0.7666 -0.6322 -0.5262
  966TIP3   OH224456   6.798   0.551   0.799  0.5854 -0.3346  0.3301
  966TIP3    H124457   6.866   0.617   0.809  0.3082 -0.1081  0.7859
  966TIP3    H224458   6.780   0.522   0.889  0.1444 -0.4538  0.2045
  967TIP3   OH224459   1.093   5.544   0.265 -0.0721  0.1577 -0.0824
  967TIP3    H124460   1.015   5.528   0.211  0.8994 -1.6344 -1.0468
  967TIP3    H224461   1.067   5.518   0.353 -1.2593  1.8072  0.0925
  968TIP3   OH224462   0.915   6.754   6.570  0.1681 -0.3631  0.2568
  968TIP3    H124463   0.936   6.667   6.536  2.6940 -0.2849  1.4127
  968TIP3    H224464   0.873   6.737   6.655  0.4113 -0.4539  0.3586
  969TIP3   OH224465   5.931   0.640   7.468  0.5485 -0.2324  0.5630
  969TIP3    H124466   5.871   0.574   7.502 -0.0229 -0.0282 -0.0306
  969TIP3    H224467   5.943   0.617   7.376  0.6779  0.2433  0.4587
  970TIP3   OH224468   6.562   0.077   0.211  0.0865  0.9403  0.1576
  970TIP3    H124469   6.467   0.080   0.215 -0.0520 -1.8467  1.3620
  970TIP3    H224470   6.582   0.049   0.122 -0.2764  0.5575  0.1942
  971TIP3   OH224471   5.433   4.661   0.425  0.1046  0.3208  0.7524
  971TIP3    H124472   5.435   4.714   0.504  2.9304 -0.3497  1.2336
  971TIP3    H224473   5.503   4.597   0.437 -0.4673 -0.8645 -1.6004
  972TIP3   OH224474   2.543   0.366   7.900  0.2240  0.0812 -0.0351
  972TIP3    H124475   2.480   0.439   7.902  0.6828  0.4948 -0.3178
  972TIP3    H224476   2.584   0.373   7.814 -0.2579 -0.9784 -0.3667
  973TIP3   OH224477   4.729   0.085   0.121  0.1468 -0.2267  0.8808
  973TIP3    H124478   4.716  -0.010   0.114  0.2302 -0.1551 -0.5939
  973TIP3    H224479   4.643   0.122   0.103  0.5847  0.0219 -0.8333
  974TIP3   OH224480   5.337   6.078   1.872  0.0557  0.3920 -0.7206
  974TIP3    H124481   5.340   5.984   1.850  0.6944  0.1829  0.1862
  974TIP3    H224482   5.253   6.089   1.917  0.4356  0.0253  0.0978
  975TIP3   OH224483   6.305   4.420   0.614  0.0785  0.0055 -0.3931
  975TIP3    H124484   6.334   4.428   0.523 -3.0009  1.0555 -1.4274
  975TIP3    H224485   6.255   4.500   0.630  0.1717 -0.3576  2.1075
  976TIP3   OH224486   4.740   2.877   7.325  0.0882  0.4782 -0.2668
  976TIP3    H124487   4.743   2.948   7.388 -1.7789  0.3654  0.0015
  976TIP3    H224488   4.771   2.800   7.373 -1.3403  0.3870  0.5617
  977TIP3   OH224489   6.072   2.511   7.441 -0.3088  0.3923  0.2892
  977TIP3    H124490   6.115   2.498   7.356 -0.4108 -1.6153  0.4985
  977TIP3    H224491   5.979   2.518   7.420 -0.2970  0.2814  0.1995
  978TIP3   OH224492   2.927   6.765   8.182 -0.0497 -0.1657  0.0578
  978TIP3    H124493   2.993   6.697   8.195  0.6899  0.4874 -0.1932
  978TIP3    H224494   2.847   6.717   8.161  0.9875 -0.9379 -2.5164
  979TIP3   OH224495   2.095   5.380   0.523 -0.3462  0.2626 -0.3439
  979TIP3    H124496   2.073   5.472   0.538  0.7858  0.4152  0.5749
  979TIP3    H224497   2.059   5.360   0.437 -0.1331  1.7279 -0.8103
  980TIP3   OH224498   0.361   3.848   8.131  0.4533  0.3064  0.0503
  980TIP3    H124499   0.317   3.805   8.057 -0.0766  0.2404  0.3993
  980TIP3    H224500   0.300   3.916   8.158 -0.0348 -0.6171  1.3703
  981TIP3   OH224501   3.271   0.931   8.585  0.6958  0.3756 -0.3996
  981TIP3    H124502   3.300   0.970   8.503  0.2079 -0.7412 -1.1285
  981TIP3    H224503   3.189   0.887   8.563 -0.5232  1.7255  1.1341
  982TIP3   OH224504   5.304   5.423   1.101 -0.7259  0.0259 -0.5854
  982TIP3    H124505   5.380   5.480   1.088 -1.8582  1.6364 -0.4700
  982TIP3    H224506   5.247   5.472   1.160 -1.0919 -1.9307  0.7767
  983TIP3   OH224507   0.546   3.346   1.906  0.2231 -0.2589  0.1982
  983TIP3    H124508   0.579   3.273   1.959  0.9972 -0.1410 -0.1086
  983TIP3    H224509   0.624   3.383   1.865  0.1575  2.1735  2.0929
  984TIP3   OH224510   2.273   6.481   7.517 -0.5250 -0.0852  0.1209
  984TIP3    H124511   2.244   6.477   7.426  1.0098 -3.6656 -0.4030
  984TIP3    H224512   2.366   6.500   7.512 -0.1042 -1.8001  0.7663
  985TIP3   OH224513   6.854   5.410   0.255 -0.1296 -0.9355  0.1585
  985TIP3    H124514   6.841   5.457   0.337 -1.8701 -1.8122  0.4418
  985TIP3    H224515   6.776   5.430   0.203 -0.1007 -2.1361 -0.3848
  986TIP3   OH224516   5.564   1.512   7.567 -0.0289 -0.3292  0.8082
  986TIP3    H124517   5.583   1.578   7.634  0.7847  0.6243 -0.3321
  986TIP3    H224518   5.557   1.430   7.616 -1.5767  0.6391  2.3382
  987TIP3   OH224519   2.285   6.130   0.475  0.2040  0.1043  0.3633
  987TIP3    H124520   2.277   6.225   0.468 -3.6069 -0.0931  0.0486
  987TIP3    H224521   2.242   6.096   0.397 -1.4606 -1.8738  2.0269
  988TIP3   OH224522   5.161   2.226   1.958 -0.0341  0.0111 -0.0660
  988TIP3    H124523   5.241   2.189   1.922 -0.2199 -1.0936  0.6036
  988TIP3    H224524   5.162   2.199   2.050 -1.0794  0.1566 -0.0057
  989TIP3   OH224525   4.353   0.767   6.134 -0.1230  0.2363 -0.1725
  989TIP3    H124526   4.319   0.682   6.107 -0.9418  0.6448 -0.4301
  989TIP3    H224527   4.426   0.784   6.075 -1.0086  0.4752 -1.2166
  990TIP3   OH224528   6.826   4.199   2.085 -0.0542 -0.0318  0.0181
  990TIP3    H124529   6.845   4.287   2.052  1.2802 -1.0571 -2.1624
  990TIP3    H224530   6.911   4.155   2.085 -0.7753 -1.4835  0.6355
  991TIP3   OH224531   2.098   2.366   0.928 -0.4684 -0.4841  0.0956
  991TIP3    H124532   2.036   2.439   0.937  0.3774  0.0809  1.8351
  991TIP3    H224533   2.049   2.289   0.957 -1.1577 -0.5384 -1.1172
  992TIP3   OH224534   3.282   6.534   0.650 -0.1082 -0.3510 -0.2227
  992TIP3    H124535   3.250   6.566   0.735  1.2997  0.1644  0.1329
  992TIP3    H224536   3.228   6.580   0.586 -0.9266 -0.4514  0.3738
  993TIP3   OH224537   0.056   3.013   6.709 -0.5067  0.8519 -0.0118
  993TIP3    H124538  -0.001   2.953   6.662  1.0614  0.0224 -0.9300
  993TIP3    H224539   0.081   3.079   6.644  2.0026 -0.5270 -0.5994
  994TIP3   OH224540   3.600   1.065   8.568 -0.0207  0.1446  0.1841
  994TIP3    H124541   3.532   0.998   8.578 -1.4549  1.1473 -2.1042
  994TIP3    H224542   3.583   1.127   8.639 -1.1409  0.0857 -0.0236
  995TIP3   OH224543   5.249   0.591   7.204  0.1418  0.5941  0.3755
  995TIP3    H124544   5.293   0.545   7.133 -0.8550 -0.6947  0.5427
  995TIP3    H224545   5.212   0.521   7.258 -2.0581  1.5758  0.2568
  996TIP3   OH224546   2.637   5.621   1.837  0.2762 -0.4411  0.3143
  996TIP3    H124547   2.551   5.658   1.817 -0.5040 -2.6469 -0.7167
  996TIP3    H224548   2.621   5.563   1.911  0.2763 -2.7456 -1.3855
  997TIP3   OH224549   5.552   1.708   1.644 -0.3832 -0.1985  0.1445
  997TIP3    H124550   5.616   1.740   1.708  1.2189 -1.1254 -0.9164
  997TIP3    H224551   5.533   1.783   1.589  1.0153 -0.2623 -0.4674
  998TIP3   OH224552   4.443   2.298   0.194  0.3784  0.3279  0.1035
  998TIP3    H124553   4.474   2.243   0.265  0.7881 -0.6903 -0.8251
  998TIP3    H224554   4.361   2.257   0.166  0.2134  0.7268 -0.0032
  999TIP3   OH224555   0.413   6.228   7.898 -0.1591 -0.1099  0.5592
  999TIP3    H124556   0.352   6.301   7.886 -0.1175 -0.1992 -0.1970
  999TIP3    H224557   0.438   6.234   7.990  0.4948  1.3506  0.3169
 1000TIP3   OH224558   2.623   4.356   7.747 -0.1434 -0.7877 -0.1087
 1000TIP3    H124559   2.583   4.274   7.776  0.5900 -2.2736 -2.9060
 1000TIP3    H224560   2.711   4.354   7.784 -0.6081 -0.4832  1.0602
 1001TIP3   OH224561   6.692   2.167   2.250 -0.5389 -0.1866 -0.0406
 1001TIP3    H124562   6.694   2.152   2.344 -0.7150  0.8776  0.1381
 1001TIP3    H224563   6.604   2.199   2.232 -0.0801  0.9299 -0.3539
 1002TIP3   OH224564   3.813   5.599   0.731 -0.3839  0.7027  0.2693
 1002TIP3    H124565   3.754   5.667   0.763 -0.3641  0.2294  1.3213
 1002TIP3    H224566   3.832   5.626   0.641 -2.3074  0.7888 -0.1655
 1003TIP3   OH224567   6.378   1.866   1.075  0.2971  0.3314 -0.0639
 1003TIP3    H124568   6.379   1.771   1.085  0.1330  0.2976 -0.3348
 1003TIP3    H224569   6.451   1.884   1.015 -0.4009  0.2488 -0.9689
 1004TIP3   OH224570   5.167   3.586   8.063 -0.1294 -0.4905  0.0188
 1004TIP3    H124571   5.182   3.622   8.151  1.6032  0.5334 -0.6617
 1004TIP3    H224572   5.174   3.661   8.004 -2.4875 -0.9400 -0.9611
 1005TIP3   OH224573   0.277   3.587   1.374  0.3673  0.1433  0.2110
 1005TIP3    H124574   0.352   3.634   1.412 -0.7060  0.3970  2.0936
 1005TIP3    H224575   0.216   3.575   1.446 -0.7053 -1.5698 -0.9019
 1006TIP3   OH224576   3.514   6.659   1.760 -0.6354 -0.1101 -0.1936
 1006TIP3    H124577   3.548   6.573   1.734 -1.2387  0.4695 -3.2361
 1006TIP3    H224578   3.577   6.721   1.724  0.2691  0.8366  2.7088
 1007TIP3   OH224579   2.410   5.405   1.036 -0.3387 -0.2480 -0.8003
 1007TIP3    H124580   2.422   5.313   1.060 -1.4903  0.1871  1.6915
 1007TIP3    H224581   2.357   5.402   0.956  1.6446 -1.7394 -2.1736
 1008TIP3   OH224582   4.714   5.815   0.719 -0.0618 -0.1701  0.0897
 1008TIP3    H124583   4.729   5.865   0.799 -1.1345 -0.1067  0.2581
 1008TIP3    H224584   4.755   5.730   0.737 -0.0257 -0.0514  0.5803
 1009TIP3   OH224585   1.938   1.193   6.604 -0.2073  0.6066 -0.1449
 1009TIP3    H124586   1.868   1.133   6.578 -1.4060  1.6110  0.6302
 1009TIP3    H224587   1.960   1.167   6.693 -0.7121  1.2717  0.1852
 1010TIP3   OH224588   0.093   6.309   6.066  0.2150  0.4028 -0.7794
 1010TIP3    H124589   0.187   6.328   6.062  0.0278  1.1231 -2.5906
 1010TIP3    H224590   0.089   6.213   6.071  1.0435  0.3399 -1.1041
 1011TIP3   OH224591   5.421   1.130   0.671  0.9314  0.2693 -0.0646
 1011TIP3    H124592   5.451   1.111   0.582  1.5370  2.1898 -0.3016
 1011TIP3    H224593   5.406   1.224   0.672 -0.1672  0.1206  1.5610
 1012TIP3   OH224594   6.398   3.205   0.247  0.1309 -0.1434 -0.0276
 1012TIP3    H124595   6.354   3.136   0.297  1.1575 -0.1169  0.9490
 1012TIP3    H224596   6.372   3.189   0.157  0.9431 -2.3066  0.0623
 1013TIP3   OH224597   2.291   1.188   6.900 -0.2086  0.0613  0.3417
 1013TIP3    H124598   2.217   1.132   6.881  0.5010 -0.7391 -0.1271
 1013TIP3    H224599   2.285   1.259   6.836 -0.8331  0.2590  0.6182
 1014TIP3   OH224600   1.168   3.643   7.408  0.2634  0.6629 -0.0872
 1014TIP3    H124601   1.246   3.677   7.364  0.4509  1.0818  0.5560
 1014TIP3    H224602   1.193   3.640   7.501 -0.2464  0.1305  0.0384
 1015TIP3   OH224603   5.566   5.920   1.619  0.0162 -0.2040 -0.1277
 1015TIP3    H124604   5.646   5.868   1.612  0.0541 -0.2385  0.5332
 1015TIP3    H224605   5.595   6.005   1.651 -0.2153 -0.2157  0.1141
 1016TIP3   OH224606   1.614   0.420   6.965 -0.6322 -0.0538 -0.2280
 1016TIP3    H124607   1.542   0.364   6.995 -1.3515  0.4304 -1.0109
 1016TIP3    H224608   1.617   0.406   6.871  0.2544  0.0020 -0.2110
 1017TIP3   OH224609   3.782   6.415   7.330 -0.6278 -0.0587  0.0698
 1017TIP3    H124610   3.743   6.478   7.270 -1.0324 -0.0083  0.3852
 1017TIP3    H224611   3.792   6.463   7.412  0.0870 -0.0726  0.0003
 1018TIP3   OH224612   0.319   3.400   7.583  0.4502  0.2867  0.1558
 1018TIP3    H124613   0.277   3.383   7.499 -0.5809  1.8364  0.3311
 1018TIP3    H224614   0.392   3.458   7.562  0.3384  0.4807  0.3074
 1019TIP3   OH224615   2.334   3.003   8.585 -0.3768  0.0729 -0.1094
 1019TIP3    H124616   2.245   2.971   8.601 -1.2936  2.2183 -0.6546
 1019TIP3    H224617   2.370   3.020   8.672 -0.6328 -0.4336  0.0994
 1020TIP3   OH224618   3.985   6.541   6.408  0.2957 -0.7034  0.2661
 1020TIP3    H124619   3.909   6.492   6.442 -0.0684 -2.1808 -2.4018
 1020TIP3    H224620   3.999   6.505   6.320  1.9102  2.0074 -0.6895
 1021TIP3   OH224621   2.609   0.679   7.848  0.2895  0.1233  0.4176
 1021TIP3    H124622   2.516   0.654   7.847  0.3991 -0.2864  0.1310
 1021TIP3    H224623   2.638   0.666   7.757  0.4866  0.7991  0.3756
 1022TIP3   OH224624   3.864   6.771   6.478  0.1019  0.2687  0.4215
 1022TIP3    H124625   3.922   6.821   6.536 -0.0738 -0.3403  1.1412
 1022TIP3    H224626   3.920   6.703   6.442 -0.2603 -0.6574  1.5404
 1023TIP3   OH224627   6.310   2.746   6.672  0.1075  0.1202 -0.1319
 1023TIP3    H124628   6.299   2.789   6.588 -0.6128 -0.5199 -0.3789
 1023TIP3    H224629   6.329   2.817   6.734  0.6620  0.5859 -0.8298
 1024TIP3   OH224630   1.309   6.640   7.097  0.2569  0.7537  0.2061
 1024TIP3    H124631   1.215   6.626   7.085  0.7014 -1.1028 -1.6957
 1024TIP3    H224632   1.333   6.579   7.167 -0.0978  2.0053  1.4538
 1025TIP3   OH224633   1.722   1.846   0.739  0.2941 -0.2069  0.0451
 1025TIP3    H124634   1.645   1.796   0.712  0.5657 -1.1370  0.9376
 1025TIP3    H224635   1.696   1.888   0.821 -0.2968  2.0604 -1.1964
 1026TIP3   OH224636   0.803   6.286   0.292 -0.1462  0.2865 -0.5207
 1026TIP3    H124637   0.728   6.227   0.300 -1.3231  1.3308 -2.7862
 1026TIP3    H224638   0.872   6.233   0.252 -0.3448 -0.1664 -0.2660
 1027TIP3   OH224639   6.391   4.444   6.860 -0.1046 -0.4522 -0.0205
 1027TIP3    H124640   6.383   4.481   6.948  0.7454  1.7871 -0.8170
 1027TIP3    H224641   6.464   4.382   6.867 -0.3617 -0.6666  0.9371
 1028TIP3   OH224642   1.975   1.245   7.421  0.5234  0.8855 -0.1035
 1028TIP3    H124643   2.018   1.238   7.336  0.2694 -1.7577 -0.1060
 1028TIP3    H224644   1.992   1.161   7.464 -2.5643  0.6271  0.8800
 1029TIP3   OH224645   4.511   1.894   7.659  0.1262  0.0355  0.5467
 1029TIP3    H124646   4.458   1.965   7.624  0.5251 -0.6388 -1.5505
 1029TIP3    H224647   4.490   1.892   7.753 -3.5563 -0.2265 -0.1396
 1030TIP3   OH224648   4.302   5.709   1.992  0.4837 -0.0557  0.2018
 1030TIP3    H124649   4.364   5.724   1.920  0.2130  1.1369  0.1983
 1030TIP3    H224650   4.253   5.631   1.966  1.5110 -0.6090 -0.1196
 1031TIP3   OH224651   4.210   3.215   6.885 -0.1868 -0.2583 -0.2528
 1031TIP3    H124652   4.272   3.171   6.943  1.3960  2.0019 -0.1224
 1031TIP3    H224653   4.249   3.208   6.798  0.6958  1.7957 -0.0680
 1032TIP3   OH224654   2.392   4.670   6.929  0.6717 -0.5360 -0.4679
 1032TIP3    H124655   2.357   4.660   7.018  0.9610  1.3991 -0.0770
 1032TIP3    H224656   2.323   4.717   6.881  1.1675 -0.1159 -0.7818
 1033TIP3   OH224657   3.680   4.604   7.396  0.2313 -0.0216  0.5079
 1033TIP3    H124658   3.755   4.551   7.423  0.6668  0.8818  1.1342
 1033TIP3    H224659   3.694   4.620   7.302  0.8904  0.2348  0.6452
 1034TIP3   OH224660   6.743   0.913   6.501  0.0026 -0.2009  0.1538
 1034TIP3    H124661   6.693   0.921   6.582 -0.8419 -2.0397 -0.1203
 1034TIP3    H224662   6.821   0.966   6.516 -0.9478  0.9150  1.4787
 1035TIP3   OH224663   0.000   2.684   1.320 -0.6165  0.1431 -0.6950
 1035TIP3    H124664   0.045   2.758   1.279  1.3595 -1.1841 -1.0610
 1035TIP3    H224665  -0.066   2.724   1.376  2.2825  2.3685  1.4391
 1036TIP3   OH224666   3.176   5.717   8.171 -0.4613  0.2710 -0.2094
 1036TIP3    H124667   3.108   5.764   8.123 -0.7160 -1.9352 -2.1698
 1036TIP3    H224668   3.132   5.639   8.205  0.9235 -0.9310 -1.0526
 1037TIP3   OH224669   2.380   2.162   8.542  0.1447 -0.0020 -0.0080
 1037TIP3    H124670   2.456   2.195   8.589  1.7364 -1.9498 -1.1114
 1037TIP3    H224671   2.344   2.094   8.599 -1.8970  1.9702  1.2880
 1038TIP3   OH224672   4.694   5.921   0.466 -0.1361  0.1730  0.1879
 1038TIP3    H124673   4.754   5.984   0.505  0.9689  0.0940 -1.3149
 1038TIP3    H224674   4.663   5.868   0.540  0.5215  1.1351  1.1773
 1039TIP3   OH224675   4.438   2.904   0.556  0.2887 -0.0677 -0.0673
 1039TIP3    H124676   4.462   2.914   0.464  2.5718 -1.8318  0.2220
 1039TIP3    H224677   4.521   2.880   0.599 -0.4346  1.8935  2.6905
 1040TIP3   OH224678   0.470   3.164   1.645 -0.8239 -0.5172  0.3043
 1040TIP3    H124679   0.465   3.179   1.551 -2.7516 -3.2543 -0.1755
 1040TIP3    H224680   0.395   3.211   1.681 -0.0167  0.6301  0.5232
 1041TIP3   OH224681   6.698   5.604   1.949 -0.6153 -0.5000 -0.5025
 1041TIP3    H124682   6.671   5.530   2.003  1.2393  0.2914  1.6631
 1041TIP3    H224683   6.777   5.575   1.905 -0.1537 -0.0058 -0.0222
 1042TIP3   OH224684   1.115   2.632   7.434 -0.5960  0.7911  0.5891
 1042TIP3    H124685   1.193   2.633   7.379 -1.7283  0.7599 -1.0868
 1042TIP3    H224686   1.081   2.543   7.426  0.0194  0.3201  2.5915
 1043TIP3   OH224687   6.332   4.215   1.888 -0.3372  0.5350  0.0595
 1043TIP3    H124688   6.306   4.127   1.917  3.8024 -0.8258  0.2512
 1043TIP3    H224689   6.399   4.199   1.822  0.7963  3.5738  0.3623
 1044TIP3   OH224690   1.260   2.325   0.640  0.1447  0.0565  0.0257
 1044TIP3    H124691   1.289   2.382   0.569 -0.7632  1.7792  0.9360
 1044TIP3    H224692   1.179   2.367   0.672 -0.7846 -1.9835  0.5254
 1045TIP3   OH224693   1.949   0.502   7.440  0.4794  0.5767 -0.1241
 1045TIP3    H124694   1.855   0.498   7.457 -0.0989  1.7068 -2.5786
 1045TIP3    H224695   1.958   0.476   7.348  2.6955 -0.4296  0.3026
 1046TIP3   OH224696   5.219   4.057   8.052 -0.1399  1.1552 -0.6830
 1046TIP3    H124697   5.168   4.039   8.131  0.7122 -0.8733 -0.5361
 1046TIP3    H224698   5.308   4.074   8.084  0.9865 -2.7893 -1.2298
 1047TIP3   OH224699   1.969   3.835   7.100  0.1121 -0.2369  0.5919
 1047TIP3    H124700   2.015   3.914   7.130 -0.3089 -0.2455  1.2754
 1047TIP3    H224701   1.957   3.849   7.006 -2.1111  1.6433  1.0834
 1048TIP3   OH224702   5.148   5.827   8.488  0.0352  0.3285  0.7402
 1048TIP3    H124703   5.109   5.780   8.414  1.2211 -1.7951  1.3914
 1048TIP3    H224704   5.077   5.838   8.551  0.0447 -2.0263  1.2209
 1049TIP3   OH224705   0.287   6.860   2.532  0.5446  0.1849  0.0739
 1049TIP3    H124706   0.230   6.929   2.564 -1.0372 -1.2145  0.3799
 1049TIP3    H224707   0.315   6.890   2.445 -1.0175  0.7024 -0.2746
 1050TIP3   OH224708   5.706   6.096   0.281 -0.4374  0.2325 -0.3332
 1050TIP3    H124709   5.730   6.169   0.338  0.9458 -0.4130 -0.0385
 1050TIP3    H224710   5.777   6.032   0.293 -2.4190 -1.9033  0.7141
 1051TIP3   OH224711   3.038   3.240   8.371 -0.2184 -0.4143  0.3276
 1051TIP3    H124712   3.115   3.188   8.347  1.3646  0.9344  2.1750
 1051TIP3    H224713   3.040   3.315   8.310  1.2358  0.7187  1.6853
 1052TIP3   OH224714   1.418   1.397   1.057 -0.1588 -0.5128  0.0331
 1052TIP3    H124715   1.470   1.361   0.986 -1.2758 -0.0523 -1.0597
 1052TIP3    H224716   1.328   1.369   1.038 -1.0045  2.2512 -0.5379
 1053TIP3   OH224717   5.314   1.358   0.537 -0.7551  0.0534 -0.3255
 1053TIP3    H124718   5.254   1.408   0.592 -0.8452  2.1827 -2.2290
 1053TIP3    H224719   5.257   1.312   0.474 -0.6577 -2.3719  1.2127
 1054TIP3   OH224720   5.044   6.693   6.292  0.5737 -0.3510  0.0639
 1054TIP3    H124721   4.957   6.716   6.259  0.9853 -0.5196 -1.1981
 1054TIP3    H224722   5.043   6.598   6.300  1.0823 -0.4958 -1.3337
 1055TIP3   OH224723   5.754   6.728   1.927 -0.2366  0.3911  0.5407
 1055TIP3    H124724   5.810   6.804   1.912 -0.8477  0.9726  1.1349
 1055TIP3    H224725   5.735   6.695   1.839  0.2351  0.7707  0.2893
 1056TIP3   OH224726   2.814   2.434   0.444 -0.3111  0.1501 -0.5774
 1056TIP3    H124727   2.761   2.438   0.364  0.0757  2.3958 -0.7770
 1056TIP3    H224728   2.753   2.453   0.515 -0.1988  0.5097 -0.5776
 1057TIP3   OH224729   4.597   4.052   2.444 -0.2695 -0.4781 -0.4928
 1057TIP3    H124730   4.516   4.006   2.421 -0.5448  0.0132 -0.5264
 1057TIP3    H224731   4.665   3.985   2.439 -0.9680 -1.4413  1.6527
 1058TIP3   OH224732   6.719   3.585   0.964 -0.4262 -0.0415  0.1587
 1058TIP3    H124733   6.673   3.528   1.026 -1.7974  0.7193 -0.1094
 1058TIP3    H224734   6.735   3.530   0.888 -1.0465 -0.2889  0.1991
 1059TIP3   OH224735   4.690   5.769   0.006 -0.6650  0.0737  0.3255
 1059TIP3    H124736   4.640   5.800   0.082  0.6747 -0.2385  1.3839
 1059TIP3    H224737   4.755   5.709   0.044  2.7681  2.9788 -0.4517
 1060TIP3   OH224738   1.405   4.171   2.597 -0.2053 -0.2643  0.3027
 1060TIP3    H124739   1.461   4.197   2.524 -1.5531 -0.9070 -1.0211
 1060TIP3    H224740   1.326   4.224   2.587 -0.7635 -0.9814  0.7687
 1061TIP3   OH224741   1.912   1.594   1.911 -0.2549 -0.4292  0.0959
 1061TIP3    H124742   1.843   1.660   1.919  0.6417  0.7674 -1.4728
 1061TIP3    H224743   1.955   1.594   1.997  0.3766  1.8178 -0.1521
 1062TIP3   OH224744   1.302   0.634   1.522  0.4584 -0.8442 -0.1418
 1062TIP3    H124745   1.302   0.604   1.431 -0.0807  0.2197 -0.5058
 1062TIP3    H224746   1.210   0.654   1.540  0.5126 -1.3387  0.7454
 1063TIP3   OH224747   1.797   3.907   0.268 -0.4607 -0.8256 -0.2012
 1063TIP3    H124748   1.762   3.957   0.341  0.6356 -1.4143  0.7550
 1063TIP3    H224749   1.727   3.908   0.203 -0.6615  1.4958 -0.0256
 1064TIP3   OH224750   2.070   1.477   2.100  0.0677  0.2214 -0.2785
 1064TIP3    H124751   2.141   1.523   2.144  0.3407 -0.9201  0.5021
 1064TIP3    H224752   2.112   1.406   2.053 -0.2704  1.1402 -2.0790
 1065TIP3   OH224753   0.962   5.032   8.647 -0.0989 -0.2765  0.5390
 1065TIP3    H124754   1.052   5.066   8.641 -0.3751  0.1678 -2.9668
 1065TIP3    H224755   0.907   5.110   8.641 -0.7645 -0.6957  1.0557
 1066TIP3   OH224756   2.813   5.206   1.073 -0.0644  0.8480 -0.2365
 1066TIP3    H124757   2.796   5.215   1.166  0.1935 -0.5946 -0.0279
 1066TIP3    H224758   2.870   5.129   1.066 -1.8537 -0.4521 -1.7457
 1067TIP3   OH224759   2.645   4.153   0.303  0.0024 -0.1350  0.0347
 1067TIP3    H124760   2.640   4.191   0.215  2.3319  2.0830  0.7625
 1067TIP3    H224761   2.558   4.168   0.340 -1.0306 -1.1090 -1.8156
 1068TIP3   OH224762   1.596   2.242   1.075 -0.1871 -0.0095  0.3823
 1068TIP3    H124763   1.676   2.286   1.045  0.5627 -0.0982  2.1420
 1068TIP3    H224764   1.531   2.262   1.007  0.3960  2.9285  0.5766
 1069TIP3   OH224765   2.450   2.110   8.153  0.3124 -0.2827  0.1144
 1069TIP3    H124766   2.527   2.114   8.096 -0.6010  0.6161 -1.0941
 1069TIP3    H224767   2.478   2.056   8.227  2.3511  0.6645  0.0934
 1070TIP3   OH224768   6.218   1.141   1.059 -0.0916  0.1968  0.0580
 1070TIP3    H124769   6.162   1.092   0.998  1.0943  0.5148 -1.3378
 1070TIP3    H224770   6.237   1.079   1.129  1.3720 -1.4289 -1.6653
 1071TIP3   OH224771   0.559   5.661   2.006  0.0114  0.2467  0.1265
 1071TIP3    H124772   0.646   5.621   1.996 -1.0829 -2.3267  0.3098
 1071TIP3    H224773   0.572   5.730   2.072  2.1788  0.9420 -0.9142
 1072TIP3   OH224774   0.699   4.841   6.592  0.6376 -0.1171  0.0681
 1072TIP3    H124775   0.707   4.747   6.572 -1.0421 -0.5747  1.2996
 1072TIP3    H224776   0.750   4.852   6.672 -0.6628 -0.4130  0.9708
 1073TIP3   OH224777   2.053   4.752   7.248 -0.0170 -0.3592 -0.1880
 1073TIP3    H124778   1.970   4.723   7.211  0.0106  0.3185 -0.8077
 1073TIP3    H224779   2.033   4.771   7.339 -0.8090  0.7863 -0.5718
 1074TIP3   OH224780   5.268   0.386   8.287 -0.1135 -0.7205 -0.0699
 1074TIP3    H124781   5.268   0.398   8.192  0.6219  0.6437  0.0791
 1074TIP3    H224782   5.229   0.466   8.322  4.0489  1.1513  0.9444
 1075TIP3   OH224783   2.464   1.895   6.884 -0.3562 -0.0336  0.1142
 1075TIP3    H124784   2.514   1.830   6.835 -1.6942 -0.9613 -0.0802
 1075TIP3    H224785   2.411   1.939   6.817 -0.6194  0.1646  0.4499
 1076TIP3   OH224786   2.307   1.363   8.353  0.2710  0.2191  0.2367
 1076TIP3    H124787   2.359   1.307   8.294  1.6349  2.4398 -0.7917
 1076TIP3    H224788   2.252   1.415   8.295 -1.9223 -0.8568  1.2417
 1077TIP3   OH224789   4.615   3.651   1.752  0.2790 -0.2809  0.5910
 1077TIP3    H124790   4.650   3.680   1.667  1.0075 -0.6453  0.7569
 1077TIP3    H224791   4.533   3.607   1.731 -2.2437  3.8716  0.4704
 1078TIP3   OH224792   6.781   0.700   0.285  0.2089 -0.5608  0.2094
 1078TIP3    H124793   6.774   0.736   0.374 -1.2968  1.1758 -0.5686
 1078TIP3    H224794   6.700   0.726   0.242  1.1193 -0.9820 -1.8461
 1079TIP3   OH224795   1.959   4.054   6.844 -0.1278 -0.3263 -0.7292
 1079TIP3    H124796   1.871   4.016   6.842 -0.5303  0.6086 -2.1477
 1079TIP3    H224797   1.952   4.133   6.791  1.2735  0.4462  0.1968
 1080TIP3   OH224798   4.045   5.710   8.546 -0.1336 -0.4340 -0.1855
 1080TIP3    H124799   3.970   5.677   8.596  0.7984  0.5131  1.9227
 1080TIP3    H224800   4.012   5.790   8.504 -0.9529 -1.2914 -1.2174
 1081TIP3   OH224801   4.432   5.287   2.231  0.2568 -0.2009 -0.0412
 1081TIP3    H124802   4.358   5.236   2.264  2.0156 -1.2989  2.4582
 1081TIP3    H224803   4.421   5.373   2.270 -0.4614  0.1316 -0.9192
 1082TIP3   OH224804   2.035   1.491   8.424  0.2907  0.2220  0.3965
 1082TIP3    H124805   2.113   1.531   8.464  0.6309  1.3724 -1.3013
 1082TIP3    H224806   2.060   1.478   8.332 -1.8057  1.3846 -0.3828
 1083TIP3   OH224807   3.364   3.193   8.450  0.1545 -0.1908  0.0802
 1083TIP3    H124808   3.366   3.101   8.475  1.3245 -0.3853 -0.6476
 1083TIP3    H224809   3.342   3.192   8.357  1.3457  0.1797 -0.2217
 1084TIP3   OH224810   1.376   5.680   1.086 -0.1405  0.0059  0.4104
 1084TIP3    H124811   1.419   5.761   1.056 -1.4013  0.6757  0.3540
 1084TIP3    H224812   1.440   5.611   1.067  0.1691  0.7313 -1.3850
 1085TIP3   OH224813   1.983   0.132   2.038 -0.3618  0.2510 -0.4863
 1085TIP3    H124814   1.958   0.105   1.949  0.9919  1.6595 -1.3548
 1085TIP3    H224815   2.067   0.089   2.053 -0.9089 -0.5309  0.4160
 1086TIP3   OH224816   3.565   2.738   7.042 -0.3727 -0.0008  0.4649
 1086TIP3    H124817   3.510   2.668   7.007  1.2612 -1.0051 -0.2519
 1086TIP3    H224818   3.653   2.716   7.011  0.9983 -0.2035  4.0586
 1087TIP3   OH224819   4.442   4.729   7.621  0.1095 -0.1874  0.3164
 1087TIP3    H124820   4.520   4.695   7.576  0.7691  3.0432 -1.2468
 1087TIP3    H224821   4.370   4.711   7.561  0.1180 -0.6052  0.4291
 1088TIP3   OH224822   0.549   4.702   7.781 -0.0731  0.6637  0.2967
 1088TIP3    H124823   0.530   4.633   7.717 -1.1041 -0.1931  1.4752
 1088TIP3    H224824   0.463   4.735   7.807  0.2357  0.1422  2.1221
 1089TIP3   OH224825   3.712   1.296   1.752  0.2471  0.3349  0.1626
 1089TIP3    H124826   3.807   1.280   1.752  0.1884 -0.4274 -2.0091
 1089TIP3    H224827   3.681   1.260   1.835  1.5004 -2.0866 -0.3357
 1090TIP3   OH224828   6.168   4.171   8.333 -0.7407  0.1065 -0.0914
 1090TIP3    H124829   6.114   4.109   8.285  0.2716 -0.9734  0.1215
 1090TIP3    H224830   6.248   4.122   8.355  0.6980  1.8664 -1.1039
 1091TIP3   OH224831   0.267   0.244   6.754 -0.0926 -0.0400 -0.5336
 1091TIP3    H124832   0.227   0.273   6.672 -2.0990 -2.9010 -0.7131
 1091TIP3    H224833   0.195   0.204   6.803  1.5088 -0.4142  1.6801
 1092TIP3   OH224834   1.419   4.004   8.088 -0.7078 -0.0072 -0.2328
 1092TIP3    H124835   1.455   3.919   8.112 -0.1599 -0.0702 -1.2319
 1092TIP3    H224836   1.327   3.999   8.113 -0.7043 -0.9368 -0.3796
 1093TIP3   OH224837   2.283   4.951   1.486  0.1134  0.5812 -0.2657
 1093TIP3    H124838   2.201   4.918   1.524 -0.4543  1.4647 -0.6694
 1093TIP3    H224839   2.322   4.875   1.444  0.1357 -0.1418  0.9978
 1094TIP3   OH224840   6.134   2.351   7.028 -0.4100 -0.1976 -0.7459
 1094TIP3    H124841   6.117   2.443   7.009 -0.5898  0.2486  1.3537
 1094TIP3    H224842   6.080   2.303   6.964 -0.1220  1.1098 -2.0222
 1095TIP3   OH224843   6.189   0.028   2.594 -0.2817  0.4758  0.6259
 1095TIP3    H124844   6.245  -0.002   2.522 -0.3739  0.3556  0.6024
 1095TIP3    H224845   6.243   0.089   2.643  0.9332 -1.7506  2.2888
 1096TIP3   OH224846   6.105   5.036   7.997 -0.0043 -0.0944  0.2900
 1096TIP3    H124847   6.164   5.094   7.949  0.0692 -0.4522 -0.0563
 1096TIP3    H224848   6.024   5.086   8.004 -1.0048 -1.0927 -2.7458
 1097TIP3   OH224849   3.382   3.170   6.628 -0.6824  0.1539 -0.2731
 1097TIP3    H124850   3.424   3.194   6.545 -0.9508  0.2174 -0.3916
 1097TIP3    H224851   3.290   3.156   6.605 -0.5356 -0.9826 -0.2038
 1098TIP3   OH224852   3.703   1.603   0.392 -0.1064 -0.4881 -0.2371
 1098TIP3    H124853   3.633   1.638   0.337  0.8325 -0.1713 -1.2527
 1098TIP3    H224854   3.737   1.680   0.438  0.3654 -0.4403 -0.6581
 1099TIP3   OH224855   5.911   4.066   0.359  0.0596 -0.3831 -0.2052
 1099TIP3    H124856   5.885   4.076   0.268  2.0261 -0.1558 -0.7920
 1099TIP3    H224857   6.005   4.085   0.360  0.2330 -1.0377  1.7569
 1100TIP3   OH224858   4.511   2.161   0.502 -0.2034 -0.6141 -0.5197
 1100TIP3    H124859   4.598   2.182   0.536 -1.0533 -0.2225  1.6039
 1100TIP3    H224860   4.526   2.093   0.436  1.6153 -1.3350  0.5737
 1101TIP3   OH224861   1.824   6.380   1.348  0.7209 -0.4664  0.2941
 1101TIP3    H124862   1.803   6.345   1.434 -1.2712 -0.0182  0.0348
 1101TIP3    H224863   1.863   6.306   1.301 -0.0672 -1.2934  0.9156
 1102TIP3   OH224864   5.986   1.909   1.274 -0.2738 -0.0689  0.4170
 1102TIP3    H124865   6.034   1.992   1.281 -1.0172  0.4961 -0.8992
 1102TIP3    H224866   6.044   1.852   1.225 -0.8112  0.5598 -1.0210
 1103TIP3   OH224867   6.553   1.687   8.037  0.2298 -0.6116 -0.3381
 1103TIP3    H124868   6.498   1.669   8.114 -1.7969  0.3764 -1.4888
 1103TIP3    H224869   6.535   1.615   7.977 -0.1655 -0.0558 -0.8977
 1104TIP3   OH224870   6.163   1.710   8.542 -0.0351  0.3980 -0.1356
 1104TIP3    H124871   6.156   1.735   8.449  2.3198  3.2612  0.2986
 1104TIP3    H224872   6.102   1.768   8.587 -1.2793 -1.0828  0.1606
 1105TIP3   OH224873   2.925   3.002   1.955 -0.2474 -0.1933  0.0602
 1105TIP3    H124874   2.991   3.070   1.968 -0.2930 -0.1664  0.1485
 1105TIP3    H224875   2.973   2.930   1.913  0.3075 -0.9499  1.8751
 1106TIP3   OH224876   2.714   3.197   7.961 -0.0224  0.0493 -0.1375
 1106TIP3    H124877   2.739   3.242   8.042  1.6459  0.2344 -0.7221
 1106TIP3    H224878   2.705   3.105   7.986 -1.4015  0.3622  0.6281
 1107TIP3   OH224879   0.040   5.870   7.827 -0.4683  0.4246 -0.3737
 1107TIP3    H124880   0.015   5.825   7.908  0.1169 -0.3598 -0.6198
 1107TIP3    H224881   0.136   5.869   7.828 -0.4258  1.9658 -0.2257
 1108TIP3   OH224882   4.608   0.874   0.358 -0.1432  0.2333 -0.7217
 1108TIP3    H124883   4.690   0.841   0.396  0.2643  2.7417  0.8713
 1108TIP3    H224884   4.625   0.876   0.264  1.7981  0.9498 -0.4223
 1109TIP3   OH224885   0.552   6.195   0.308  0.1521  0.3717 -0.0200
 1109TIP3    H124886   0.485   6.173   0.373  1.2646 -0.8836  0.7762
 1109TIP3    H224887   0.514   6.264   0.256 -0.9083  1.2548  1.8288
 1110TIP3   OH224888   3.969   3.347   8.554  0.0747  0.0079  0.2979
 1110TIP3    H124889   4.012   3.286   8.614  0.6494  1.1997  1.1369
 1110TIP3    H224890   3.979   3.433   8.596 -1.8422  0.5248 -0.2056
 1111TIP3   OH224891   0.346   1.099   6.654 -0.6502 -0.7857  0.4105
 1111TIP3    H124892   0.436   1.070   6.671 -0.6128 -1.4730 -0.8718
 1111TIP3    H224893   0.355   1.175   6.597 -0.8820 -1.3374 -0.3871
 1112TIP3   OH224894   0.833   5.001   1.109 -0.0881  0.1006  0.4880
 1112TIP3    H124895   0.874   4.916   1.092 -1.4736 -0.3170 -1.0387
 1112TIP3    H224896   0.762   5.006   1.045 -2.2617  0.8927  2.8128
 1113TIP3   OH224897   2.754   2.141   0.013 -0.2767  0.1173 -0.8957
 1113TIP3    H124898   2.747   2.046   0.008  0.0666 -0.0137  0.6331
 1113TIP3    H224899   2.686   2.167   0.076  1.9291  0.4768  1.4818
 1114TIP3   OH224900   2.809   3.683   7.629 -0.4211  0.0026  0.2295
 1114TIP3    H124901   2.828   3.614   7.691  1.3367 -0.7963 -1.0986
 1114TIP3    H224902   2.892   3.729   7.618 -0.5826 -0.0706 -1.7122
 1115TIP3   OH224903   0.945   1.573   0.390 -0.3178  0.1917 -0.0585
 1115TIP3    H124904   1.006   1.512   0.432  0.5756  0.3930 -1.0036
 1115TIP3    H224905   0.934   1.537   0.302 -0.8327  0.6828 -0.1978
 1116TIP3   OH224906   3.594   2.929   0.225  0.4049  0.2178  0.1944
 1116TIP3    H124907   3.604   2.836   0.205 -0.0282  0.3512 -0.7319
 1116TIP3    H224908   3.610   2.936   0.319  1.6220 -0.6036  0.0595
 1117TIP3   OH224909   2.101   3.244   0.220 -0.3704  0.5518 -0.1793
 1117TIP3    H124910   2.028   3.228   0.160 -0.1121 -0.3575 -0.2763
 1117TIP3    H224911   2.064   3.228   0.307 -0.3729  0.4034 -0.2067
 1118TIP3   OH224912   2.109   6.323   0.786 -0.0138 -0.0239  0.6315
 1118TIP3    H124913   2.140   6.378   0.714 -0.7615 -0.3816  0.0134
 1118TIP3    H224914   2.086   6.384   0.855 -1.6989  0.5579 -0.3716
 1119TIP3   OH224915   4.205   2.150   8.188  0.4096 -0.0171  0.1531
 1119TIP3    H124916   4.220   2.106   8.104  0.9519  0.9646 -0.2765
 1119TIP3    H224917   4.136   2.214   8.169 -1.6033 -1.7635  1.1701
 1120TIP3   OH224918   4.857   4.745   6.952 -0.4230  0.3503 -0.2991
 1120TIP3    H124919   4.849   4.658   6.993 -1.4604  1.2840  1.6190
 1120TIP3    H224920   4.948   4.750   6.922  0.2683 -0.5918  1.5112
 1121TIP3   OH224921   3.760   5.941   7.269  0.7332  0.2753  0.2889
 1121TIP3    H124922   3.731   6.001   7.201  0.7598 -0.1981 -0.1450
 1121TIP3    H224923   3.723   5.856   7.244  2.0150 -0.2262  0.0304
 1122TIP3   OH224924   4.680   4.750   0.213 -0.2668  0.6389  0.8490
 1122TIP3    H124925   4.648   4.774   0.300  0.3161  1.7731  0.7750
 1122TIP3    H224926   4.772   4.777   0.213 -0.0509 -0.0471  0.1300
 1123TIP3   OH224927   2.538   4.672   8.224 -0.3277 -0.4510  0.7079
 1123TIP3    H124928   2.572   4.583   8.215 -0.2853 -0.3472 -0.1978
 1123TIP3    H224929   2.453   4.661   8.266 -0.0519 -0.8645  1.1712
 1124TIP3   OH224930   2.936   2.309   1.362 -0.4249 -0.1780 -0.1675
 1124TIP3    H124931   2.857   2.363   1.365 -0.1425  0.1991  0.8365
 1124TIP3    H224932   3.008   2.372   1.362 -0.0930 -0.4722 -2.2981
 1125TIP3   OH224933   4.826   3.890   6.531  0.1398 -0.1042  0.0385
 1125TIP3    H124934   4.753   3.948   6.556  0.8068 -0.1044  2.1421
 1125TIP3    H224935   4.794   3.802   6.552  0.2682 -0.2249 -0.2742
 1126TIP3   OH224936   1.601   0.949   1.006  0.0143  0.1173  0.1951
 1126TIP3    H124937   1.546   0.945   1.084  0.0051 -0.0875  0.1780
 1126TIP3    H224938   1.565   0.884   0.946 -0.3432  0.6874 -0.2245
 1127TIP3   OH224939   0.276   2.001   0.871 -0.2679 -0.0028 -0.2982
 1127TIP3    H124940   0.325   1.918   0.868  0.2632  0.3240 -1.0883
 1127TIP3    H224941   0.189   1.978   0.837 -0.1239 -0.2436 -0.5115
 1128TIP3   OH224942   2.399   5.100   1.260 -0.4531  0.4090  0.1670
 1128TIP3    H124943   2.457   5.039   1.304 -1.4598 -2.5941 -2.3094
 1128TIP3    H224944   2.311   5.075   1.289 -1.0799 -1.2067 -2.7551
 1129TIP3   OH224945   5.482   2.531   1.382 -0.1070 -0.3661 -0.1031
 1129TIP3    H124946   5.492   2.566   1.293  1.2941 -0.5808 -0.0431
 1129TIP3    H224947   5.569   2.536   1.420 -0.4840 -1.2198  0.9136
 1130TIP3   OH224948   3.857   4.341   1.310 -0.1018 -0.1132  0.1608
 1130TIP3    H124949   3.804   4.339   1.230  0.9516 -0.0777 -0.5465
 1130TIP3    H224950   3.847   4.253   1.347  0.9625 -0.7657 -1.0517
 1131TIP3   OH224951   5.620   3.499   0.812  0.3504 -0.1091  0.1180
 1131TIP3    H124952   5.700   3.551   0.802  1.8102 -2.5798 -2.3787
 1131TIP3    H224953   5.560   3.536   0.746  0.4654  0.0058  0.0768
 1132TIP3   OH224954   4.207   4.040   8.337 -0.4204  0.0711 -0.4854
 1132TIP3    H124955   4.123   4.086   8.330 -0.3476  0.0199 -1.9065
 1132TIP3    H224956   4.238   4.033   8.247  0.2653 -1.4796 -0.1607
 1133TIP3   OH224957   2.130   0.495   7.647  0.0317  0.1057 -0.2495
 1133TIP3    H124958   2.105   0.581   7.680  1.2622  0.6066 -0.5502
 1133TIP3    H224959   2.091   0.491   7.559  1.1946  1.0120 -0.8487
 1134TIP3   OH224960   1.328   5.727   7.993 -0.3763  0.4578 -0.2307
 1134TIP3    H124961   1.398   5.784   7.960 -0.0812  0.5894  0.5860
 1134TIP3    H224962   1.368   5.680   8.065 -0.8646 -0.1838 -0.3703
 1135TIP3   OH224963   0.759   2.384   8.544  0.1356 -0.1442 -0.4023
 1135TIP3    H124964   0.720   2.404   8.459  0.8020 -1.0622 -0.9374
 1135TIP3    H224965   0.738   2.292   8.559  0.8951 -0.2613 -0.0417
 1136TIP3   OH224966   6.169   4.173   0.337  0.3205  0.0109 -0.0288
 1136TIP3    H124967   6.146   4.264   0.355 -0.9649 -0.1658 -0.6549
 1136TIP3    H224968   6.249   4.179   0.284 -0.4467  0.8427 -1.1420
 1137TIP3   OH224969   4.468   4.637   2.625  0.0228 -0.2477  0.0645
 1137TIP3    H124970   4.470   4.723   2.585 -0.8827 -0.6156 -0.8189
 1137TIP3    H224971   4.374   4.616   2.633  0.1530 -0.2970  2.1738
 1138TIP3   OH224972   1.444   0.099   2.533 -0.4957 -0.2044  0.1356
 1138TIP3    H124973   1.365   0.130   2.487  0.3186  0.0189 -1.1755
 1138TIP3    H224974   1.504   0.076   2.462  0.6621 -0.2520  1.1159
 1139TIP3   OH224975   2.021   6.032   0.984  0.1151  0.8667  0.0774
 1139TIP3    H124976   1.991   6.091   0.915  0.0342  0.3483 -0.3390
 1139TIP3    H224977   1.987   5.946   0.958  0.2199  0.6407  0.6797
 1140TIP3   OH224978   1.280   6.387   2.022 -0.1962  0.6996 -0.0461
 1140TIP3    H124979   1.231   6.315   2.061  0.7651 -1.1618 -2.0474
 1140TIP3    H224980   1.255   6.464   2.073 -0.5587 -1.1678  2.7849
 1141TIP3   OH224981   6.339   5.915   8.304  0.0513  0.5741  0.2676
 1141TIP3    H124982   6.424   5.952   8.329  0.6804 -0.3968 -0.3736
 1141TIP3    H224983   6.338   5.829   8.347 -0.4296  0.4165 -0.0635
 1142TIP3   OH224984   3.321   1.280   1.352 -0.0383  0.3935  0.3366
 1142TIP3    H124985   3.330   1.191   1.385 -1.8475  0.6053  1.4941
 1142TIP3    H224986   3.314   1.270   1.257  0.3899 -0.6238  0.4005
 1143TIP3   OH224987   0.261   1.039   6.912 -0.5662  0.0658  0.6393
 1143TIP3    H124988   0.248   1.040   6.817  0.2130 -0.2705  0.5231
 1143TIP3    H224989   0.178   1.006   6.946 -0.2972 -1.3762 -0.0356
 1144TIP3   OH224990   0.568   6.621   8.282 -0.2525  0.1252 -0.1391
 1144TIP3    H124991   0.592   6.713   8.295 -0.2041  0.1305 -0.2569
 1144TIP3    H224992   0.478   6.625   8.248 -0.5457  0.0899  0.6084
 1145TIP3   OH224993   6.164   4.578   6.662 -0.4412  0.0251  0.1403
 1145TIP3    H124994   6.146   4.489   6.692  0.0244  0.0497  0.4987
 1145TIP3    H224995   6.260   4.584   6.662 -0.4155  1.5223  3.1593
 1146TIP3   OH224996   0.359   3.337   2.415  0.0509  0.7067  0.0272
 1146TIP3    H124997   0.449   3.310   2.430 -0.6210 -0.7612  1.8452
 1146TIP3    H224998   0.364   3.431   2.395  1.9969  0.5213 -0.4813
 1147TIP3   OH224999   0.851   2.489   7.320  0.3490  0.3408  0.1613
 1147TIP3    H125000   0.759   2.513   7.314  0.3604  0.6186  0.9656
 1147TIP3    H225001   0.892   2.530   7.244 -0.8025 -2.9269 -2.4478
 1148TIP3   OH225002   6.209   1.987   6.606  0.3196  0.2940  0.1471
 1148TIP3    H125003   6.218   2.016   6.697  1.7925 -0.6001  0.3273
 1148TIP3    H225004   6.250   2.055   6.554  1.0568 -0.0199  0.3109
 1149TIP3   OH225005   4.054   1.057   7.882 -0.2694 -0.4326  0.0741
 1149TIP3    H125006   4.099   0.976   7.906 -1.8678 -1.5095 -0.4005
 1149TIP3    H225007   3.976   1.028   7.834 -1.3641  1.3520  0.6706
 1150TIP3   OH225008   6.233   1.164   7.130  0.1885 -0.1028  0.3744
 1150TIP3    H125009   6.257   1.110   7.054  0.0005  0.7102 -0.2707
 1150TIP3    H225010   6.138   1.161   7.132  0.0742  1.7037 -0.7932
 1151TIP3   OH225011   0.459   0.993   0.066  0.2171  0.0715 -0.0641
 1151TIP3    H125012   0.475   1.087   0.071 -1.0933  0.3626 -0.8412
 1151TIP3    H225013   0.486   0.968  -0.022  3.2885 -0.8995  1.0167
 1152TIP3   OH225014   6.629   0.719   7.658 -0.3654 -0.4142  0.4373
 1152TIP3    H125015   6.673   0.728   7.743  0.0250 -2.1891  0.4634
 1152TIP3    H225016   6.631   0.625   7.640 -2.9570 -0.4143 -0.2011
 1153TIP3   OH225017   1.640   5.041   6.997 -0.0134 -0.1833 -0.2543
 1153TIP3    H125018   1.629   5.003   6.910 -0.7480  0.6869 -0.5541
 1153TIP3    H225019   1.700   4.981   7.042  0.6480 -0.4672 -1.4626
 1154TIP3   OH225020   1.481   4.895   2.026 -0.5812 -0.3373  0.7190
 1154TIP3    H125021   1.576   4.889   2.013 -0.5569 -0.0908  0.7767
 1154TIP3    H225022   1.470   4.907   2.120 -0.6577 -0.1420  0.6867
 1155TIP3   OH225023   5.378   5.416   0.247 -0.1618  0.0606  0.0066
 1155TIP3    H125024   5.395   5.342   0.188 -0.9257 -0.4353  0.3925
 1155TIP3    H225025   5.283   5.424   0.248 -0.0694  1.8661 -1.0098
 1156TIP3   OH225026   3.600   5.598   1.250  0.8986 -0.2302 -0.0014
 1156TIP3    H125027   3.600   5.513   1.206  1.7166  0.4637 -1.4312
 1156TIP3    H225028   3.559   5.657   1.187  0.4371  0.4615  0.9313
 1157TIP3   OH225029   0.538   1.100   8.452 -0.7077 -0.4929 -0.2026
 1157TIP3    H125030   0.564   1.181   8.409 -3.0763 -0.1464 -1.1588
 1157TIP3    H225031   0.612   1.041   8.440  0.0897  0.7375 -1.6637
 1158TIP3   OH225032   1.395   0.534   8.316  0.4927  0.0114 -0.0314
 1158TIP3    H125033   1.477   0.494   8.342  2.2862  2.6385 -1.1866
 1158TIP3    H225034   1.387   0.517   8.222  0.5179  0.9714 -0.2275
 1159TIP3   OH225035   0.898   5.611   0.056  0.2046  0.2219  0.0947
 1159TIP3    H125036   0.927   5.669  -0.014  1.0940  0.6625  0.8154
 1159TIP3    H225037   0.802   5.616   0.054  0.2658  1.4860 -0.0362
 1160TIP3   OH225038   0.532   1.852   2.382 -0.1512 -0.1495  0.0993
 1160TIP3    H125039   0.532   1.821   2.473  0.5862 -1.0878 -0.2053
 1160TIP3    H225040   0.561   1.776   2.331  1.9283  1.0905 -0.6683
 1161TIP3   OH225041   2.017   4.061   7.607 -0.1675  0.3709  0.4390
 1161TIP3    H125042   1.974   4.061   7.693 -0.8817  0.8525  0.0898
 1161TIP3    H225043   1.961   4.116   7.552 -0.1614 -0.5811 -0.5662
 1162TIP3   OH225044   4.180   3.194   0.832  0.2505 -0.2913  0.7814
 1162TIP3    H125045   4.112   3.172   0.895 -1.1880 -0.7016 -0.8472
 1162TIP3    H225046   4.173   3.289   0.821 -2.3298 -0.6237 -1.7047
 1163TIP3   OH225047   4.210   4.796   8.108 -0.4780  0.2523  0.5288
 1163TIP3    H125048   4.139   4.788   8.045 -0.5406  1.0287  0.4880
 1163TIP3    H225049   4.258   4.713   8.102 -2.2743 -0.9218  1.6564
 1164TIP3   OH225050   2.262   4.413   7.720 -0.0937  1.3230  0.3249
 1164TIP3    H125051   2.205   4.355   7.770 -0.7803 -0.5456 -2.3705
 1164TIP3    H225052   2.203   4.477   7.682 -0.1790  0.5076 -0.9748
 1165TIP3   OH225053   5.572   6.849   7.971 -0.2996 -0.0445  0.0320
 1165TIP3    H125054   5.479   6.831   7.956  0.3064 -2.7860 -1.1079
 1165TIP3    H225055   5.580   6.944   7.959 -2.9756  0.3528  0.5680
 1166TIP3   OH225056   2.939   3.543   8.395  0.3929 -0.3154  0.2061
 1166TIP3    H125057   2.972   3.633   8.396  2.1556 -0.8839 -1.1788
 1166TIP3    H225058   2.996   3.496   8.456 -1.0144 -0.4017  1.5347
 1167TIP3   OH225059   6.104   6.079   0.876  0.3817  0.0074  0.4115
 1167TIP3    H125060   6.041   6.118   0.814  0.1875 -0.2203  0.4632
 1167TIP3    H225061   6.183   6.131   0.865  0.6606 -0.6176 -0.7151
 1168TIP3   OH225062   4.448   1.436   0.479 -0.0866 -0.5694  0.3548
 1168TIP3    H125063   4.505   1.394   0.414  0.6441  0.3856  0.3492
 1168TIP3    H225064   4.509   1.481   0.538 -0.8401  1.3195 -0.2221
 1169TIP3   OH225065   3.948   1.193   2.124  0.0610  0.1695  0.1581
 1169TIP3    H125066   3.970   1.131   2.193 -0.2009 -0.1557 -0.0501
 1169TIP3    H225067   4.020   1.255   2.124  0.7907 -0.6620 -0.2586
 1170TIP3   OH225068   4.384   6.178   7.877 -0.3742  0.2346  0.1414
 1170TIP3    H125069   4.410   6.116   7.809  0.3766 -0.0125  0.6427
 1170TIP3    H225070   4.457   6.239   7.883  0.2819 -0.6556  1.7965
 1171TIP3   OH225071   3.238   2.716   6.361 -0.0658 -0.4246  0.0940
 1171TIP3    H125072   3.238   2.629   6.320 -0.9238 -0.0435 -0.7400
 1171TIP3    H225073   3.156   2.756   6.334 -0.0973  0.3210  1.2102
 1172TIP3   OH225074   0.725   4.202   2.230  0.4443  0.3497  0.0127
 1172TIP3    H125075   0.760   4.167   2.149  0.0174  1.2497 -0.5830
 1172TIP3    H225076   0.795   4.192   2.294  0.6049 -0.8306 -0.3271
 1173TIP3   OH225077   4.269   3.435   8.567  0.2226  0.5465 -0.4017
 1173TIP3    H125078   4.299   3.503   8.506  1.5963  1.0119  0.7236
 1173TIP3    H225079   4.347   3.382   8.584 -1.0638 -2.1316 -2.1650
 1174TIP3   OH225080   5.543   4.908   7.298  0.2052 -0.2834  0.2359
 1174TIP3    H125081   5.502   4.890   7.213  0.5011 -0.7559  0.1881
 1174TIP3    H225082   5.613   4.843   7.305 -0.1439 -0.5857  1.0668
 1175TIP3   OH225083   1.372   4.527   1.830  0.0414  0.0103  0.2135
 1175TIP3    H125084   1.337   4.487   1.750  2.8394  1.4434 -1.9049
 1175TIP3    H225085   1.440   4.466   1.860  2.2762  1.5629 -1.3497
 1176TIP3   OH225086   4.940   6.047   8.268 -0.1929 -0.5337  0.5542
 1176TIP3    H125087   4.870   5.992   8.303 -0.6718 -0.3072 -0.0167
 1176TIP3    H225088   4.992   5.989   8.214 -1.9907 -0.0560 -1.8915
 1177TIP3   OH225089   5.429   5.484   1.755  0.2214 -0.3297  0.3646
 1177TIP3    H125090   5.415   5.390   1.762  0.4524 -0.3282  0.8260
 1177TIP3    H225091   5.465   5.510   1.839 -0.0736  0.2142  0.3278
 1178TIP3   OH225092   4.389   0.859   7.107  0.2025  0.2054  0.2290
 1178TIP3    H125093   4.417   0.769   7.094  1.2558  0.5689 -0.1305
 1178TIP3    H225094   4.294   0.857   7.096  0.2867 -0.7407 -0.4156
 1179TIP3   OH225095   6.540   4.168   1.715  0.2268  0.3602  0.0376
 1179TIP3    H125096   6.617   4.212   1.679  0.0980 -0.7371 -1.7066
 1179TIP3    H225097   6.508   4.113   1.643 -1.5314 -0.0674  1.0835
 1180TIP3   OH225098   3.686   0.520   8.504  0.3450  0.0646  0.3954
 1180TIP3    H125099   3.753   0.587   8.516  3.0783 -2.5177  0.5509
 1180TIP3    H225100   3.682   0.507   8.409 -1.2887  1.3609  0.2254
 1181TIP3   OH225101   5.915   4.602   6.554 -0.4685 -0.4901 -0.0584
 1181TIP3    H125102   6.001   4.560   6.555 -0.7924 -1.1889 -0.8096
 1181TIP3    H225103   5.856   4.537   6.516 -1.4756 -0.2582  1.0366
 1182TIP3   OH225104   1.140   4.669   8.038 -0.2432  0.0526  0.7538
 1182TIP3    H125105   1.047   4.669   8.014  0.0434 -0.0837 -0.4200
 1182TIP3    H225106   1.180   4.606   7.977  0.6428  0.2402  1.1342
 1183TIP3   OH225107   1.365   0.838   0.095 -0.5869 -0.1686  0.0664
 1183TIP3    H125108   1.444   0.785   0.090 -0.7683 -0.3501 -2.0799
 1183TIP3    H225109   1.296   0.781   0.061 -0.9302  1.1213 -1.5568
 1184TIP3   OH225110   1.024   6.219   1.576 -0.4140 -0.1220  0.1153
 1184TIP3    H125111   1.102   6.239   1.525 -0.2224 -0.4565  0.2715
 1184TIP3    H225112   0.974   6.300   1.576  1.1769  0.9564  2.2099
 1185TIP3   OH225113   6.706   5.234   0.916  0.2788  0.4418 -0.3526
 1185TIP3    H125114   6.771   5.217   0.848  2.1276  0.8053  1.2318
 1185TIP3    H225115   6.628   5.264   0.868  0.6747 -1.5640 -2.4181
 1186TIP3   OH225116   4.019   2.702   7.494  0.3133 -0.3805 -0.2294
 1186TIP3    H125117   4.061   2.687   7.409 -0.6060 -1.6960 -0.4902
 1186TIP3    H225118   3.938   2.651   7.490 -0.7522  1.1486  0.6895
 1187TIP3   OH225119   0.078   1.163   8.585 -0.3969 -0.7185 -0.1555
 1187TIP3    H125120   0.074   1.258   8.578 -0.6074 -0.7154  0.0035
 1187TIP3    H225121   0.143   1.137   8.520  0.5531 -0.3609  0.6309
 1188TIP3   OH225122   3.177   2.599   7.027 -0.1825 -0.2411 -0.1599
 1188TIP3    H125123   3.152   2.677   7.076 -1.1310 -1.0153  0.6558
 1188TIP3    H225124   3.225   2.545   7.090 -0.6595 -0.8712 -0.3194
 1189TIP3   OH225125   3.325   5.111   7.481 -0.6285  0.4191 -0.2665
 1189TIP3    H125126   3.292   5.023   7.464  0.1600 -0.1372  0.9372
 1189TIP3    H225127   3.403   5.119   7.426 -0.4886  0.2207 -0.0969
 1190TIP3   OH225128   2.135   2.606   0.715  0.2704  0.3177  0.2934
 1190TIP3    H125129   2.192   2.535   0.746  0.1571 -0.8756 -1.9595
 1190TIP3    H225130   2.050   2.564   0.702  0.1950  0.8438 -1.0407
 1191TIP3   OH225131   3.963   0.969   8.402  0.1833 -0.1966 -0.4273
 1191TIP3    H125132   3.989   0.880   8.381  1.1454  0.0412 -0.2920
 1191TIP3    H225133   4.042   1.021   8.387 -0.3636  0.6282 -0.4973
 1192TIP3   OH225134   2.278   1.102   2.168  1.4853 -0.6074  0.0620
 1192TIP3    H125135   2.284   1.042   2.242  1.3202  0.5592  1.0420
 1192TIP3    H225136   2.293   1.188   2.205 -2.4004  0.5041 -0.4818
 1193TIP3   OH225137   1.056   1.621   0.756  0.0212  0.4693 -0.3438
 1193TIP3    H125138   0.963   1.607   0.739  0.1395 -1.1877  0.1556
 1193TIP3    H225139   1.101   1.561   0.696  0.8349  1.7771 -1.1160
 1194TIP3   OH225140   4.463   1.304   8.149 -0.0254 -0.3087  0.1399
 1194TIP3    H125141   4.394   1.243   8.124 -0.6279  0.0731  0.8226
 1194TIP3    H225142   4.544   1.256   8.134 -0.3155 -0.1515 -2.4064
 1195TIP3   OH225143   2.383   1.435   7.684 -0.3295 -0.4185  0.3049
 1195TIP3    H125144   2.329   1.423   7.606  0.1849 -0.3544 -0.0647
 1195TIP3    H225145   2.455   1.491   7.655 -1.1656  1.2410  1.2872
 1196TIP3   OH225146   0.817   1.892   7.358  0.8462 -0.1658 -0.4367
 1196TIP3    H125147   0.756   1.965   7.361  0.4279 -0.5565  1.0863
 1196TIP3    H225148   0.834   1.870   7.449 -1.9654 -4.3442 -0.6147
 1197TIP3   OH225149   0.385   0.957   7.914  0.0517  0.8319  0.1167
 1197TIP3    H125150   0.421   0.968   8.002  0.0945  0.2056  0.1809
 1197TIP3    H225151   0.453   0.990   7.856 -0.0305  1.3723  0.3228
 1198TIP3   OH225152   0.821   5.670   7.318  0.6274 -0.2319  0.1544
 1198TIP3    H125153   0.746   5.728   7.301  1.4032  0.8034  0.2209
 1198TIP3    H225154   0.789   5.583   7.291  0.4349  0.6653 -2.9022
 1199TIP3   OH225155   5.748   3.154   1.478  0.1891 -0.1980 -0.3347
 1199TIP3    H125156   5.685   3.221   1.503  0.8888  0.7051 -0.9137
 1199TIP3    H225157   5.706   3.071   1.499 -0.8195  0.4197  0.1051
 1200TIP3   OH225158   2.878   1.097   8.590 -0.5098 -0.0493 -0.5648
 1200TIP3    H125159   2.787   1.070   8.582 -0.1095 -1.0372 -2.3968
 1200TIP3    H225160   2.928   1.016   8.578  0.6302  0.6853 -0.9256
 1201TIP3   OH225161   6.519   1.960   1.514 -0.2034 -0.2629  0.1387
 1201TIP3    H125162   6.527   2.024   1.443 -0.0824  0.3164  0.6690
 1201TIP3    H225163   6.530   1.875   1.471 -2.0276 -0.0586 -0.8755
 1202TIP3   OH225164   6.824   0.414   0.352  0.0709 -0.3522  0.2262
 1202TIP3    H125165   6.866   0.456   0.427  0.4367 -0.3442  0.0192
 1202TIP3    H225166   6.857   0.462   0.276 -0.9922  0.2334  0.1111
 1203TIP3   OH225167   6.316   6.470   1.283  0.1136  0.0093  0.2067
 1203TIP3    H125168   6.266   6.405   1.234 -1.6484  1.4683 -0.0090
 1203TIP3    H225169   6.388   6.495   1.225 -0.4328 -0.1907 -0.5571
 1204TIP3   OH225170   5.080   1.393   1.402  0.2619 -0.1449 -0.0427
 1204TIP3    H125171   5.016   1.373   1.334 -0.3161 -1.4245  0.8384
 1204TIP3    H225172   5.029   1.432   1.473  0.5989 -0.3425  0.3116
 1205TIP3   OH225173   4.886   2.355   7.570  0.3936  0.0543  0.0152
 1205TIP3    H125174   4.921   2.437   7.603  0.4274  0.5897 -1.2911
 1205TIP3    H225175   4.881   2.298   7.647  0.6652  1.1665  0.8776
 1206TIP3   OH225176   2.989   1.436   0.704 -0.0350  0.4528 -0.6707
 1206TIP3    H125177   3.012   1.525   0.676 -2.7435  1.3741 -0.3642
 1206TIP3    H225178   2.970   1.389   0.623 -1.5738  1.1496 -0.7563
 1207TIP3   OH225179   1.075   4.968   1.897  0.6850  0.3118  0.2548
 1207TIP3    H125180   1.112   4.919   1.970  2.1254  0.7780 -0.1220
 1207TIP3    H225181   1.031   5.043   1.938 -0.6038 -0.6952  0.7622
 1208TIP3   OH225182   2.050   2.262   2.266 -0.1804 -0.0140  0.0354
 1208TIP3    H125183   1.984   2.297   2.325  0.4931  0.4917  0.5132
 1208TIP3    H225184   2.014   2.179   2.235 -2.1509  1.3774 -1.6805
 1209TIP3   OH225185   6.407   6.239   7.390 -0.3799 -0.1702 -0.4226
 1209TIP3    H125186   6.314   6.264   7.394  0.2551  2.9827 -1.9506
 1209TIP3    H225187   6.426   6.237   7.296  1.2840  0.1357 -0.1125
 1210TIP3   OH225188   3.276   6.605   8.502 -0.4599 -0.7719 -0.8722
 1210TIP3    H125189   3.331   6.547   8.555 -0.4906  1.7737  2.2799
 1210TIP3    H225190   3.317   6.691   8.510 -3.3797  0.7093 -0.6524
 1211TIP3   OH225191   3.086   4.281   0.054 -0.2921  0.4019  0.7615
 1211TIP3    H125192   3.112   4.269  -0.037 -0.0257  0.2214  0.8609
 1211TIP3    H225193   3.084   4.193   0.091  0.3002  0.5319  1.1181
 1212TIP3   OH225194   0.797   0.262   6.166  0.3708  0.1199  0.0523
 1212TIP3    H125195   0.794   0.320   6.242 -1.7102  0.9153 -0.5504
 1212TIP3    H225196   0.786   0.320   6.091  0.3417 -0.8503 -0.7210
 1213TIP3   OH225197   4.588   5.121   6.271  0.1243 -0.0633 -0.3127
 1213TIP3    H125198   4.570   5.046   6.214 -0.3353 -0.2790  0.1172
 1213TIP3    H225199   4.505   5.139   6.315  0.6259 -0.2586  0.7293
 1214TIP3   OH225200   0.617   5.648   8.605  1.1152 -0.4142  0.8828
 1214TIP3    H125201   0.626   5.739   8.577 -4.3116 -0.2902 -1.6147
 1214TIP3    H225202   0.616   5.598   8.524 -1.8995 -1.8091  1.6566
 1215TIP3   OH225203   0.281   4.954   2.083  0.0618  0.3933  0.6250
 1215TIP3    H125204   0.228   4.996   2.152 -1.0860  2.5327 -1.4300
 1215TIP3    H225205   0.254   4.862   2.086 -0.0955  0.4473  2.8609
 1216TIP3   OH225206   0.367   5.878   1.390 -0.1753 -0.2395  0.0407
 1216TIP3    H125207   0.392   5.800   1.341 -1.2238 -0.1376 -0.6830
 1216TIP3    H225208   0.421   5.948   1.352 -1.0668 -0.1345 -1.0920
 1217TIP3   OH225209   2.578   3.554   0.174  0.0315  0.2464 -0.3917
 1217TIP3    H125210   2.577   3.626   0.111 -0.6474  0.4374 -0.1735
 1217TIP3    H225211   2.496   3.507   0.159 -0.3425  0.5472  0.6260
 1218TIP3   OH225212   3.949   6.710   2.102 -0.2500  0.4498 -0.2508
 1218TIP3    H125213   3.854   6.700   2.109 -0.0925 -0.4075  0.8616
 1218TIP3    H225214   3.968   6.792   2.147 -0.1562 -0.9503  2.4554
 1219TIP3   OH225215   6.222   3.872   0.861 -0.2352 -0.0908 -0.2901
 1219TIP3    H125216   6.136   3.865   0.901 -0.3221  0.9138 -0.2683
 1219TIP3    H225217   6.282   3.834   0.926 -0.8008 -2.2377 -0.9555
 1220TIP3   OH225218   0.283   1.648   1.527  0.3390  0.0895 -0.5494
 1220TIP3    H125219   0.239   1.563   1.521 -0.7685  0.4565  1.4722
 1220TIP3    H225220   0.236   1.695   1.596  1.7486  1.8669 -0.7123
 1221TIP3   OH225221   6.717   4.872   7.370 -0.0772  0.0560 -0.5120
 1221TIP3    H125222   6.805   4.900   7.396  0.2111 -3.2176  2.9053
 1221TIP3    H225223   6.659   4.912   7.434 -0.6950 -0.2662 -0.8659
 1222TIP3   OH225224   1.407   3.423   8.264 -0.0237  0.0388 -0.5518
 1222TIP3    H125225   1.368   3.510   8.258  1.0417  0.5728 -0.0548
 1222TIP3    H225226   1.332   3.363   8.270 -0.8154  1.1330  1.9058
 1223TIP3   OH225227   5.898   4.186   7.561  0.3139  0.5623 -0.3044
 1223TIP3    H125228   5.970   4.124   7.553 -0.0010  0.0341  0.7268
 1223TIP3    H225229   5.886   4.221   7.473  2.1212  1.0018 -0.4150
 1224TIP3   OH225230   0.001   6.560   7.777 -1.1981  0.3742  0.5317
 1224TIP3    H125231   0.082   6.609   7.762 -0.7470 -0.5178 -0.0256
 1224TIP3    H225232  -0.027   6.586   7.865  0.8856 -0.9513  1.6438
 1225TIP3   OH225233   2.125   3.276   1.465 -0.5398  0.2750  0.4840
 1225TIP3    H125234   2.162   3.221   1.535 -2.7063 -1.5634  0.3032
 1225TIP3    H225235   2.172   3.249   1.386 -2.3229 -2.3388  0.1814
 1226TIP3   OH225236   6.506   2.533   2.702 -0.1978 -0.4165  0.4507
 1226TIP3    H125237   6.494   2.574   2.788  2.1631  2.6122 -0.4754
 1226TIP3    H225238   6.426   2.554   2.654 -0.6489 -0.2836  1.2473
 1227TIP3   OH225239   2.988   2.347   2.316 -0.3836 -0.0693 -0.0618
 1227TIP3    H125240   2.928   2.419   2.336 -0.7818 -0.4572  0.1529
 1227TIP3    H225241   2.963   2.278   2.377  1.5323  0.4325  1.3643
 1228TIP3   OH225242   3.151   4.536   7.954  0.2136  0.3458  0.0140
 1228TIP3    H125243   3.198   4.467   8.001 -1.1227 -1.3083 -0.9713
 1228TIP3    H225244   3.061   4.505   7.949 -0.4541  2.2010 -0.4455
 1229TIP3   OH225245   2.473   4.319   2.214  0.0739 -0.0287  0.3469
 1229TIP3    H125246   2.437   4.246   2.265  1.6705 -2.5594 -1.8500
 1229TIP3    H225247   2.567   4.300   2.208  0.2748  1.2482 -1.7067
 1230TIP3   OH225248   0.821   3.676   7.247 -0.7010  0.2699 -0.5251
 1230TIP3    H125249   0.756   3.645   7.184  0.0509  0.0413 -1.2045
 1230TIP3    H225250   0.893   3.708   7.193  0.0132 -0.0624  0.2200
 1231TIP3   OH225251   3.124   4.097   7.749 -0.3272 -0.2946 -0.3707
 1231TIP3    H125252   3.213   4.070   7.773 -0.9135 -1.8738  0.1863
 1231TIP3    H225253   3.136   4.161   7.680  1.2650  0.0824  0.2148
 1232TIP3   OH225254   1.729   2.853   1.276  0.3497  0.0575  0.0525
 1232TIP3    H125255   1.801   2.804   1.315 -0.8169 -2.4293 -0.6916
 1232TIP3    H225256   1.711   2.922   1.338  1.3267 -1.1924  1.8154
 1233TIP3   OH225257   3.133   2.099   7.082 -0.1315 -0.2701  0.5199
 1233TIP3    H125258   3.123   2.166   7.014  0.6634 -2.4167 -1.8674
 1233TIP3    H225259   3.216   2.120   7.124  0.7886 -0.4145 -1.1067
 1234TIP3   OH225260   4.491   0.608   0.446  0.2218  0.3655  0.3222
 1234TIP3    H125261   4.491   0.704   0.444  0.1266  0.3594 -0.1058
 1234TIP3    H225262   4.424   0.586   0.511 -0.7552  0.5857 -0.5610
 1235TIP3   OH225263   0.198   2.701   2.174  0.1576  0.5131  0.2308
 1235TIP3    H125264   0.195   2.660   2.260 -0.8093  0.3841  0.1521
 1235TIP3    H225265   0.272   2.660   2.130 -1.2551 -1.8231 -0.1393
 1236TIP3   OH225266   6.652   3.398   6.506 -0.0007  0.0276 -0.3043
 1236TIP3    H125267   6.745   3.416   6.503  0.1038 -0.3932  0.2189
 1236TIP3    H225268   6.625   3.421   6.595 -0.7733  1.8844 -0.9732
 1237TIP3   OH225269   5.808   6.316   7.023 -0.0879 -0.2720  0.0085
 1237TIP3    H125270   5.755   6.284   6.950 -1.0332 -1.2932  1.0997
 1237TIP3    H225271   5.858   6.240   7.051 -0.1867 -0.0494  0.8049
 1238TIP3   OH225272   5.240   3.311   0.450  0.4945  0.1600  0.5295
 1238TIP3    H125273   5.217   3.276   0.536 -1.9449 -0.8038 -0.4113
 1238TIP3    H225274   5.157   3.345   0.416  0.8665 -1.3960 -2.2326
 1239TIP3   OH225275   3.979   1.570   0.831  0.0680 -0.0706  0.0401
 1239TIP3    H125276   3.892   1.595   0.799  0.4881  0.2830 -0.8742
 1239TIP3    H225277   4.027   1.653   0.838  0.3615 -0.2719  0.4357
 1240TIP3   OH225278   2.451   5.862   0.994  0.2637  0.2979 -0.3845
 1240TIP3    H125279   2.407   5.939   0.959  0.6568  0.5633 -0.2980
 1240TIP3    H225280   2.544   5.884   0.993  0.4468 -0.4504 -1.0344
 1241TIP3   OH225281   1.155   2.602   7.712  0.0019  0.1114 -0.4468
 1241TIP3    H125282   1.151   2.646   7.627 -2.8531 -1.2267 -1.1188
 1241TIP3    H225283   1.184   2.514   7.692 -2.0190 -0.6346 -0.3145
 1242TIP3   OH225284   0.748   6.783   1.078  0.0143  0.5332  0.1195
 1242TIP3    H125285   0.753   6.801   1.172 -0.7449  0.7368  0.1258
 1242TIP3    H225286   0.654   6.778   1.060  0.1018 -2.5431 -0.0505
 1243TIP3   OH225287   4.981   0.189   7.172  0.1435  0.6332  0.0820
 1243TIP3    H125288   5.075   0.190   7.189  0.2590  1.0350 -0.5575
 1243TIP3    H225289   4.971   0.238   7.090 -0.5800  0.2742 -0.0516
 1244TIP3   OH225290   3.150   0.876   1.262  0.2132 -0.2580 -0.1791
 1244TIP3    H125291   3.154   0.970   1.279 -0.7765 -0.4232  1.0946
 1244TIP3    H225292   3.167   0.867   1.168  0.8382  1.1399 -0.2112
 1245TIP3   OH225293   3.163   5.417   0.201 -0.4345 -0.2916  0.0331
 1245TIP3    H125294   3.167   5.370   0.285 -0.1834 -0.9821 -0.3559
 1245TIP3    H225295   3.162   5.347   0.135 -0.3777  0.2521 -0.5476
 1246TIP3   OH225296   4.438   5.350   1.954  0.0415 -0.5575 -0.1213
 1246TIP3    H125297   4.444   5.312   2.041 -1.0968 -1.1855 -0.2920
 1246TIP3    H225298   4.503   5.420   1.953  1.6772 -1.9855  0.4596
 1247TIP3   OH225299   3.259   0.408   6.306 -0.7994  0.4902  0.3095
 1247TIP3    H125300   3.306   0.470   6.249 -0.9741  0.4270  0.0947
 1247TIP3    H225301   3.192   0.370   6.249 -2.0632  1.6305  0.9647
 1248TIP3   OH225302   6.534   5.736   7.119 -0.0833 -0.5869  0.7103
 1248TIP3    H125303   6.469   5.805   7.135 -0.4089 -0.4278 -1.1021
 1248TIP3    H225304   6.607   5.782   7.078 -0.7629 -1.4231 -1.5864
 1249TIP3   OH225305   4.969   5.604   0.505 -0.4611  0.3696 -0.4160
 1249TIP3    H125306   4.885   5.559   0.514  0.5076 -1.7302 -1.1435
 1249TIP3    H225307   4.968   5.639   0.416 -0.0299 -0.8978 -0.9372
 1250TIP3   OH225308   4.775   6.001   7.680  0.0931 -0.3336 -0.0548
 1250TIP3    H125309   4.812   5.916   7.656 -1.1105 -0.7171 -0.6628
 1250TIP3    H225310   4.837   6.064   7.645  1.8545 -0.9172  1.8106
 1251TIP3   OH225311   0.826   0.513   0.421  0.1197  0.1764  0.0883
 1251TIP3    H125312   0.870   0.596   0.439  0.3255 -0.1830  1.3224
 1251TIP3    H225313   0.734   0.530   0.438  0.0514  0.3423 -0.4076
 1252TIP3   OH225314   0.677   3.144   0.394 -0.1490 -0.0244 -0.0523
 1252TIP3    H125315   0.639   3.095   0.467 -0.7601  0.4291 -0.0514
 1252TIP3    H225316   0.696   3.078   0.327 -0.9260 -0.2724 -0.0371
 1253TIP3   OH225317   5.755   6.773   7.238 -0.1874 -0.1676  0.1356
 1253TIP3    H125318   5.733   6.732   7.322 -0.0102  0.2655  0.3971
 1253TIP3    H225319   5.779   6.700   7.181  1.4210 -0.3595  0.9824
 1254TIP3   OH225320   6.364   0.184   2.733  0.2771 -0.2842 -0.1755
 1254TIP3    H125321   6.419   0.197   2.656 -0.7633  1.2185 -0.7087
 1254TIP3    H225322   6.423   0.197   2.808  0.9413 -0.1256 -0.7198
 1255TIP3   OH225323   2.990   3.348   0.525  0.5286 -0.2916  0.0439
 1255TIP3    H125324   3.008   3.438   0.551  0.6184 -0.0179 -0.9369
 1255TIP3    H225325   2.974   3.352   0.430 -1.4307 -0.9982  0.2933
 1256TIP3   OH225326   6.799   4.652   1.762  0.1853  0.2256 -0.0943
 1256TIP3    H125327   6.843   4.720   1.710 -0.3833  0.4561 -0.2826
 1256TIP3    H225328   6.774   4.697   1.843 -0.7750  0.4344 -0.4863
 1257TIP3   OH225329   5.978   4.338   8.006  0.4041  0.3594 -0.1358
 1257TIP3    H125330   5.970   4.384   7.923 -1.5139  2.0368  0.9063
 1257TIP3    H225331   5.902   4.280   8.009  0.6189  0.0955  0.3312
 1258TIP3   OH225332   4.306   2.456   6.300  0.1178  0.0396 -0.1313
 1258TIP3    H125333   4.354   2.501   6.370  0.9268 -0.6245 -0.2287
 1258TIP3    H225334   4.222   2.501   6.295 -0.6271 -0.9120  2.3872
 1259TIP3   OH225335   1.975   2.182   7.886  0.1553  0.2219  0.1289
 1259TIP3    H125336   1.993   2.180   7.792 -0.7531 -2.0986 -0.0577
 1259TIP3    H225337   2.058   2.155   7.926  0.9312  2.4373  0.1214
 1260TIP3   OH225338   6.608   0.419   8.229 -0.4071 -0.0962 -0.1229
 1260TIP3    H125339   6.609   0.423   8.133 -0.2347  0.3752 -0.1050
 1260TIP3    H225340   6.526   0.376   8.250 -0.3341 -0.4190 -0.4916
 1261TIP3   OH225341   1.262   4.182   0.745 -0.1950 -0.2288  0.2455
 1261TIP3    H125342   1.260   4.245   0.672 -1.1121  1.4619  1.6503
 1261TIP3    H225343   1.265   4.097   0.702  0.4177  0.7292 -1.7619
 1262TIP3   OH225344   3.527   5.582   6.571  0.2068 -0.3460  0.4566
 1262TIP3    H125345   3.434   5.595   6.554 -0.2818 -1.1347  2.2567
 1262TIP3    H225346   3.570   5.603   6.488 -1.4963  0.7166 -0.2073
 1263TIP3   OH225347   1.339   2.246   7.894  0.4696  0.3286 -0.1361
 1263TIP3    H125348   1.257   2.211   7.928 -0.0399  0.8020 -0.8500
 1263TIP3    H225349   1.396   2.170   7.883 -0.6572 -0.3224 -1.7918
 1264TIP3   OH225350   6.158   0.028   0.617  0.5153 -0.3357 -0.3206
 1264TIP3    H125351   6.239   0.034   0.566  1.0150 -1.3283  0.3305
 1264TIP3    H225352   6.117   0.114   0.606  1.3912  0.0026 -1.0929
 1265TIP3   OH225353   5.350   3.451   8.414 -0.9251 -0.4932  0.0856
 1265TIP3    H125354   5.304   3.369   8.395  0.6565 -1.1363 -1.2226
 1265TIP3    H225355   5.286   3.504   8.461 -2.0486 -2.4165  0.8588
 1266TIP3   OH225356   1.161   3.279   1.209 -0.0328  0.2926  0.3517
 1266TIP3    H125357   1.098   3.303   1.277 -0.0298 -2.1046  1.2972
 1266TIP3    H225358   1.110   3.281   1.128 -0.2613  2.3087  0.4963
 1267TIP3   OH225359   0.652   3.351   8.046 -0.3869  0.1754  0.0624
 1267TIP3    H125360   0.562   3.362   8.014  0.0953 -0.4582 -1.6004
 1267TIP3    H225361   0.649   3.269   8.096 -0.5735 -0.2420 -0.6264
 1268TIP3   OH225362   3.665   4.293   0.549 -0.0675 -0.4430  0.4155
 1268TIP3    H125363   3.587   4.348   0.559 -0.3076 -0.5544 -0.7413
 1268TIP3    H225364   3.657   4.227   0.617 -1.4828 -1.0306 -0.2916
 1269TIP3   OH225365   0.055   3.997   0.810 -0.4003  0.2768  0.5657
 1269TIP3    H125366   0.005   3.951   0.878 -1.0001  0.5050  0.2790
 1269TIP3    H225367   0.059   3.935   0.738  1.6054 -0.6128  1.3471
 1270TIP3   OH225368   6.299   1.422   0.985 -0.9676 -0.4818  0.6719
 1270TIP3    H125369   6.312   1.330   1.007 -2.0184 -0.2410  2.5094
 1270TIP3    H225370   6.217   1.424   0.936  0.7962 -0.8770 -2.5193
 1271TIP3   OH225371   2.510   4.421   6.843  0.3206 -0.4481 -0.0809
 1271TIP3    H125372   2.460   4.502   6.855  0.1145 -0.4373 -0.9757
 1271TIP3    H225373   2.591   4.449   6.800  0.8202 -0.5545  0.7674
 1272TIP3   OH225374   4.562   2.413   1.095 -0.0577 -0.2096  0.4331
 1272TIP3    H125375   4.636   2.405   1.156 -2.0564 -0.0151  3.0360
 1272TIP3    H225376   4.526   2.500   1.112 -3.4276 -1.8129  2.4592
 1273TIP3   OH225377   1.620   6.316   2.179  0.2937 -0.0763 -0.3859
 1273TIP3    H125378   1.716   6.317   2.176  0.3964 -2.7031 -3.4022
 1273TIP3    H225379   1.593   6.357   2.097 -1.2202  0.8664  0.5388
 1274TIP3   OH225380   2.575   3.454   7.933  0.7382  0.3633  0.6200
 1274TIP3    H125381   2.643   3.391   7.958 -0.3031 -0.1268  2.4259
 1274TIP3    H225382   2.531   3.475   8.015 -0.9249  1.0992 -0.4053
 1275TIP3   OH225383   1.652   0.522   1.731 -0.5209  0.4538 -0.5192
 1275TIP3    H125384   1.612   0.456   1.675  0.7932 -1.7031  0.9059
 1275TIP3    H225385   1.701   0.579   1.671 -0.8564 -0.4860 -1.7195
 1276TIP3   OH225386   2.829   3.940   1.381 -0.0479 -0.3879 -0.6797
 1276TIP3    H125387   2.919   3.910   1.377 -0.0307 -0.4215 -0.1858
 1276TIP3    H225388   2.835   4.036   1.374 -0.0064 -0.4184 -1.0476
 1277TIP3   OH225389   2.257   0.437   7.007 -0.5368 -0.6615 -0.3012
 1277TIP3    H125390   2.229   0.513   6.957 -1.0956 -0.6918 -0.0396
 1277TIP3    H225391   2.224   0.362   6.957  0.4750 -0.7615 -0.8460
 1278TIP3   OH225392   2.725   2.644   6.623  0.1666 -0.0282 -0.0472
 1278TIP3    H125393   2.805   2.597   6.602 -0.0645 -0.7204  0.5970
 1278TIP3    H225394   2.678   2.650   6.539  1.5830  1.8040 -0.7880
 1279TIP3   OH225395   5.808   5.460   0.380  0.4651  0.2383 -0.0880
 1279TIP3    H125396   5.863   5.408   0.321  1.7577 -0.2872  1.4930
 1279TIP3    H225397   5.726   5.412   0.385  0.4644  0.0958 -1.1308
 1280TIP3   OH225398   5.653   5.305   1.986 -0.3094 -0.4417  0.0616
 1280TIP3    H125399   5.675   5.374   2.049 -0.3795 -0.5733  0.2311
 1280TIP3    H225400   5.669   5.345   1.900 -1.2014  0.0922  0.1290
 1281TIP3   OH225401   1.561   1.554   7.883  0.4171  0.2712  1.3189
 1281TIP3    H125402   1.494   1.587   7.823 -0.4584  0.8028  2.5527
 1281TIP3    H225403   1.591   1.472   7.843  0.1912  0.8362 -0.0632
 1282TIP3   OH225404   2.652   1.375   0.779 -0.2879  0.0604 -0.5572
 1282TIP3    H125405   2.606   1.452   0.747  0.5271  1.5283  1.6236
 1282TIP3    H225406   2.740   1.406   0.801  0.1840 -1.5634  0.0357
 1283TIP3   OH225407   2.805   1.284   2.385  0.5228  0.1852 -0.4881
 1283TIP3    H125408   2.730   1.286   2.326  0.3619  0.9049 -0.2683
 1283TIP3    H225409   2.849   1.202   2.365 -0.2141 -0.1541 -0.7544
 1284TIP3   OH225410   1.925   1.482   0.550  0.6138 -0.0066  0.3081
 1284TIP3    H125411   1.865   1.437   0.490 -0.2358  1.9302 -0.3967
 1284TIP3    H225412   1.918   1.434   0.632 -1.1237 -0.4799 -0.0710
 1285TIP3   OH225413   5.432   5.728   7.352  0.0175 -0.2144 -0.0239
 1285TIP3    H125414   5.462   5.641   7.378  1.8488  0.5069  0.4231
 1285TIP3    H225415   5.452   5.733   7.258 -2.8165 -1.3047 -0.7785
 1286TIP3   OH225416   3.580   4.757   8.317 -0.3910  0.2225  0.3566
 1286TIP3    H125417   3.637   4.730   8.388 -1.0384  1.3053  1.3158
 1286TIP3    H225418   3.593   4.691   8.249  0.8344 -0.3830  1.1583
 1287TIP3   OH225419   3.818   5.271   0.336 -0.5063  0.3277  0.5062
 1287TIP3    H125420   3.829   5.231   0.422  1.3076 -0.1422  0.0954
 1287TIP3    H225421   3.906   5.291   0.307 -1.1548  1.4130 -0.8283
 1288TIP3   OH225422   3.014   2.765   1.850  0.2329 -0.8057 -0.4816
 1288TIP3    H125423   3.089   2.807   1.808  0.3141  0.8829  1.2100
 1288TIP3    H225424   3.050   2.722   1.927 -0.2298 -1.9808 -0.8961
 1289TIP3   OH225425   1.921   1.742   8.457  0.8230 -0.5545 -0.3785
 1289TIP3    H125426   1.935   1.710   8.368 -0.0772 -0.7570 -0.4605
 1289TIP3    H225427   1.942   1.667   8.514 -0.3580 -1.0240 -0.5233
 1290TIP3   OH225428   2.883   0.755   1.406 -0.1004  1.0068  0.3420
 1290TIP3    H125429   2.836   0.683   1.449  1.2015 -0.2398 -0.2353
 1290TIP3    H225430   2.814   0.806   1.364 -0.9748 -0.7200 -0.4406
 1291TIP3   OH225431   1.727   0.755   8.119 -0.4733  0.6797 -0.2294
 1291TIP3    H125432   1.669   0.690   8.078  1.4702 -0.9174 -0.5579
 1291TIP3    H225433   1.740   0.724   8.208  1.6063 -0.2337 -0.8052
 1292TIP3   OH225434   6.527   1.143   8.634  0.8360  0.5350 -0.8068
 1292TIP3    H125435   6.560   1.198   8.563  0.7888  0.8841 -0.5606
 1292TIP3    H225436   6.604   1.125   8.688  0.7893  0.6171 -0.7143
 1293TIP3   OH225437   4.295   5.165   8.639 -0.4067 -0.7450  0.2083
 1293TIP3    H125438   4.338   5.082   8.662  0.0124 -0.8026 -0.6957
 1293TIP3    H225439   4.345   5.232   8.686  2.2783 -0.5688 -2.5685
 1294TIP3   OH225440   1.423   0.078   0.108  0.1178 -0.4514  0.1182
 1294TIP3    H125441   1.377   0.071   0.024 -0.7339 -1.7736  0.6653
 1294TIP3    H225442   1.369   0.028   0.169 -0.3357  2.0629  1.9237
 1295TIP3   OH225443   6.559   2.516   0.722 -0.3187 -0.0322 -0.1275
 1295TIP3    H125444   6.634   2.563   0.685  0.3693 -0.6748  0.4337
 1295TIP3    H225445   6.521   2.468   0.648 -0.3970  0.5662 -0.4825
 1296TIP3   OH225446   1.521   1.644   8.292  0.4632 -0.0375  0.0506
 1296TIP3    H125447   1.594   1.592   8.326 -0.3945 -1.1749  0.2172
 1296TIP3    H225448   1.513   1.716   8.355  0.2514 -0.9442  1.1013
 1297TIP3   OH225449   2.191   3.413   6.659 -0.1729 -0.0883  0.0903
 1297TIP3    H125450   2.263   3.392   6.718 -0.7561 -2.4408  0.0850
 1297TIP3    H225451   2.157   3.327   6.633 -2.2833  0.9443 -0.7412
 1298TIP3   OH225452   4.263   0.275   7.411  0.3991  0.7642  0.1054
 1298TIP3    H125453   4.321   0.253   7.484 -0.0634  0.0929  0.2837
 1298TIP3    H225454   4.188   0.317   7.452  0.1985  0.5044  0.0047
 1299TIP3   OH225455   3.444   2.460   1.347 -0.5791 -0.3711 -0.3535
 1299TIP3    H125456   3.408   2.477   1.259 -1.5284 -1.5914 -0.2179
 1299TIP3    H225457   3.377   2.494   1.407 -0.4170 -0.5041 -0.0986
 1300TIP3   OH225458   3.701   2.794   7.513  0.0792 -0.1351 -0.6769
 1300TIP3    H125459   3.737   2.710   7.541  4.5951  1.3772 -1.2045
 1300TIP3    H225460   3.677   2.838   7.595  0.3406 -0.8264 -0.2195
 1301TIP3   OH225461   2.749   0.029   6.481 -0.0375 -0.1626  0.1715
 1301TIP3    H125462   2.685   0.005   6.414  2.0356 -1.7748 -1.3824
 1301TIP3    H225463   2.791   0.107   6.447 -1.5508  1.3476  1.5480
 1302TIP3   OH225464   5.364   4.294   7.434 -0.0635 -0.2298 -0.5898
 1302TIP3    H125465   5.398   4.211   7.400  3.0283  1.7160 -2.7215
 1302TIP3    H225466   5.300   4.322   7.369  1.0144  0.3626 -1.4255
 1303TIP3   OH225467   6.313   3.784   0.625 -0.0389 -0.0030 -0.1475
 1303TIP3    H125468   6.262   3.799   0.705 -1.5343 -4.7657  0.1001
 1303TIP3    H225469   6.404   3.787   0.654 -0.5180 -0.3856  1.5192
 1304TIP3   OH225470   3.352   5.847   8.384 -0.2732  0.3697 -0.2112
 1304TIP3    H125471   3.274   5.862   8.330 -0.7230 -0.7523  0.0965
 1304TIP3    H225472   3.391   5.768   8.347 -1.9202 -1.8962  2.5059
 1305TIP3   OH225473   1.761   5.333   7.412 -0.3224 -0.7264  0.0067
 1305TIP3    H125474   1.772   5.238   7.420 -0.4846 -0.8341 -0.9182
 1305TIP3    H225475   1.847   5.365   7.384 -0.0602 -0.4976  1.0335
 1306TIP3   OH225476   3.907   5.908   1.327  0.0915 -0.2286  0.2406
 1306TIP3    H125477   3.985   5.931   1.378  0.9647  0.4349 -1.3138
 1306TIP3    H225478   3.904   5.974   1.257 -1.3503 -0.7962 -0.2723
 1307TIP3   OH225479   6.647   0.428   7.560  0.3213 -0.3623 -0.1285
 1307TIP3    H125480   6.656   0.358   7.624  1.4778 -0.9492 -0.8990
 1307TIP3    H225481   6.553   0.435   7.545 -0.2247  1.2449  3.1653
 1308TIP3   OH225482   1.619   0.192   7.625 -0.1023 -0.2364  0.4634
 1308TIP3    H125483   1.611   0.130   7.553 -1.3213 -0.3401  0.6709
 1308TIP3    H225484   1.713   0.200   7.640  0.2513  0.6735 -1.9005
 1309TIP3   OH225485   1.109   4.367   8.230  0.3831 -0.6110  0.1157
 1309TIP3    H125486   1.027   4.338   8.191  2.2254 -3.3746 -2.1517
 1309TIP3    H225487   1.124   4.454   8.192 -0.0163 -1.4049 -2.0117
 1310TIP3   OH225488   2.315   1.276   8.639  0.3588 -0.0992 -0.1487
 1310TIP3    H125489   2.225   1.245   8.650  0.7302 -0.8888  0.7912
 1310TIP3    H225490   2.313   1.326   8.557 -0.3232 -2.4836 -1.7138
 1311TIP3   OH225491   4.827   3.873   7.970 -0.2347 -0.0895 -0.0348
 1311TIP3    H125492   4.835   3.892   7.876 -1.1728  0.3349 -0.0322
 1311TIP3    H225493   4.830   3.777   7.975 -0.0356 -0.1109 -0.4790
 1312TIP3   OH225494   2.512   5.673   0.031  0.1255 -0.1170  0.1054
 1312TIP3    H125495   2.580   5.605   0.037  1.3332  1.0128 -0.2030
 1312TIP3    H225496   2.516   5.719   0.115  1.4392  1.4513 -0.7538
 1313TIP3   OH225497   4.577   3.173   1.696  0.3280 -0.1419 -0.4446
 1313TIP3    H125498   4.513   3.243   1.681 -0.4470 -0.5316  0.8624
 1313TIP3    H225499   4.541   3.124   1.770  1.6717 -0.9573 -0.3128
 1314TIP3   OH225500   1.968   6.306   7.103 -0.2060  0.4146  0.3255
 1314TIP3    H125501   2.048   6.262   7.073 -0.0422 -0.1581  1.5320
 1314TIP3    H225502   1.899   6.270   7.047  0.3271  0.6896 -0.5313
 1315TIP3   OH225503   3.591   1.850   1.853  0.0807  0.4458 -0.0658
 1315TIP3    H125504   3.555   1.938   1.838  0.8933  1.0457  1.2703
 1315TIP3    H225505   3.559   1.827   1.941 -0.6171 -0.8667 -0.6391
 1316TIP3   OH225506   5.417   2.777   6.879  0.1831  0.0807  0.5938
 1316TIP3    H125507   5.354   2.736   6.820 -0.4552 -0.5935  1.7083
 1316TIP3    H225508   5.459   2.845   6.826 -0.1323 -0.7128 -0.7232
 1317TIP3   OH225509   2.811   1.092   7.317  0.2525 -0.6515  0.0265
 1317TIP3    H125510   2.716   1.083   7.330  0.2038 -2.8224 -1.3650
 1317TIP3    H225511   2.819   1.145   7.237  0.2317 -0.3254  0.2373
 1318TIP3   OH225512   2.752   1.002   0.585 -0.5118 -0.0563  0.1076
 1318TIP3    H125513   2.785   1.037   0.668  0.3899  0.1964 -0.3422
 1318TIP3    H225514   2.706   1.075   0.545 -1.0511 -0.2130  0.4342
 1319TIP3   OH225515   4.475   4.286   6.357 -0.5354 -0.3488  0.4456
 1319TIP3    H125516   4.496   4.296   6.449 -2.7987 -0.4554  1.0457
 1319TIP3    H225517   4.539   4.224   6.323  0.6922  0.1527  1.7890
 1320TIP3   OH225518   2.845   4.661   7.836 -0.0026  0.4142 -0.3305
 1320TIP3    H125519   2.816   4.728   7.897  1.6430  0.6169  0.2823
 1320TIP3    H225520   2.909   4.705   7.780  0.6324 -0.4862 -0.3304
 1321TIP3   OH225521   1.267   5.641   0.011 -0.0520 -0.3666 -0.0154
 1321TIP3    H125522   1.223   5.578   0.068  2.1271 -3.2527 -1.2330
 1321TIP3    H225523   1.348   5.663   0.058 -0.4136  0.9047  0.0231
 1322TIP3   OH225524   4.218   2.854   8.237  0.4023 -0.6432 -0.1590
 1322TIP3    H125525   4.271   2.898   8.170 -0.0025 -0.1180 -0.1407
 1322TIP3    H225526   4.280   2.796   8.282  0.9632 -0.0632 -0.1614
 1323TIP3   OH225527   4.109   6.551   7.334  0.4006  0.0804 -0.2828
 1323TIP3    H125528   4.043   6.594   7.280  0.4052 -0.1668 -0.4876
 1323TIP3    H225529   4.067   6.540   7.419 -0.2067 -0.9932 -0.6937
 1324TIP3   OH225530   6.833   6.646   8.064 -0.3011 -0.5099 -0.0614
 1324TIP3    H125531   6.783   6.567   8.046 -1.4837  0.0178  0.8556
 1324TIP3    H225532   6.818   6.666   8.156 -0.1157  0.8474 -0.2896
 1325TIP3   OH225533   5.539   1.760   0.252  0.1454  0.4258  0.3661
 1325TIP3    H125534   5.592   1.726   0.324 -0.2055  1.2989  1.0547
 1325TIP3    H225535   5.558   1.854   0.250 -1.0297  0.6766  0.3327
 1326TIP3   OH225536   6.310   3.887   8.327 -0.3949 -0.4867 -0.2076
 1326TIP3    H125537   6.344   3.801   8.352 -2.0148 -0.4959  2.3226
 1326TIP3    H225538   6.219   3.885   8.354 -0.2266  2.3542  0.8040
 1327TIP3   OH225539   4.741   5.187   0.408  0.4446  0.3180  0.0707
 1327TIP3    H125540   4.683   5.207   0.482  0.2085  2.1328 -0.5622
 1327TIP3    H225541   4.824   5.227   0.432  1.4047 -1.9520  0.8009
 1328TIP3   OH225542   3.390   1.461   8.147 -0.0945  0.5747  0.0066
 1328TIP3    H125543   3.471   1.472   8.196 -0.3304 -2.1833  1.2228
 1328TIP3    H225544   3.321   1.472   8.212 -0.4652 -1.4988  0.0469
 1329TIP3   OH225545   3.469   3.436   1.613  0.4551 -0.1650  0.0585
 1329TIP3    H125546   3.514   3.434   1.528  0.0920 -1.0088 -0.1261
 1329TIP3    H225547   3.455   3.529   1.630  0.2644  0.0047 -0.9582
 1330TIP3   OH225548   1.881   3.766   6.816 -0.1093  0.1374 -0.1322
 1330TIP3    H125549   1.949   3.792   6.754 -0.3995 -0.1380 -0.5714
 1330TIP3    H225550   1.807   3.740   6.762  0.4772 -2.5989  0.1823
 1331TIP3   OH225551   0.859   6.296   1.096  0.3139 -0.5896 -0.2775
 1331TIP3    H125552   0.854   6.353   1.019  0.3087 -1.1139 -0.6753
 1331TIP3    H225553   0.893   6.352   1.166 -1.5196  0.4248 -0.1357
 1332TIP3   OH225554   6.111   2.434   2.162  0.5424 -0.1534 -0.2333
 1332TIP3    H125555   6.136   2.349   2.197 -0.4385  0.2754  1.6208
 1332TIP3    H225556   6.049   2.414   2.091  1.2783 -0.9955 -0.6523
 1333TIP3   OH225557   4.323   2.954   6.790  0.0379 -0.2222  0.9193
 1333TIP3    H125558   4.296   2.881   6.845 -0.5431 -0.1226  0.7660
 1333TIP3    H225559   4.243   2.986   6.749  0.3853  0.0461  0.4257
 1334TIP3   OH225560   1.057   5.827   0.172  0.3107  0.2238  0.5165
 1334TIP3    H125561   1.012   5.748   0.203 -0.1240  0.7189  1.1763
 1334TIP3    H225562   1.146   5.797   0.153 -0.0593 -0.5883  0.0088
 1335TIP3   OH225563   0.987   4.428   8.514  0.1786 -0.2611 -0.0051
 1335TIP3    H125564   1.027   4.486   8.450 -0.6034  1.1791  0.7643
 1335TIP3    H225565   0.899   4.413   8.480 -0.4379  0.9674  0.9577
 1336TIP3   OH225566   5.470   3.046   1.157  0.1067  0.5300 -1.2252
 1336TIP3    H125567   5.469   3.131   1.200 -0.8780  0.5163 -1.2047
 1336TIP3    H225568   5.411   3.056   1.082 -0.7062 -0.3878 -0.7228
 1337TIP3   OH225569   5.123   2.808   0.157 -0.0736  0.1970  0.5208
 1337TIP3    H125570   5.122   2.780   0.066  0.5359 -0.2915  0.6515
 1337TIP3    H225571   5.171   2.890   0.158 -0.7379  0.5952  0.3068
 1338TIP3   OH225572   5.087   3.979   0.229 -0.2438  0.2162  0.3592
 1338TIP3    H125573   5.180   4.004   0.226 -0.3108  0.3842 -1.0931
 1338TIP3    H225574   5.040   4.060   0.211 -0.5593 -0.3240 -1.4629
 1339TIP3   OH225575   0.965   5.349   0.049 -0.4836  0.2038  0.0635
 1339TIP3    H125576   0.918   5.335   0.131 -0.5810 -0.4211 -0.0956
 1339TIP3    H225577   0.945   5.440   0.025 -0.7533  0.2720  0.5358
 1340TIP3   OH225578   2.738   5.558   0.389  0.1131  0.0176  0.3967
 1340TIP3    H125579   2.681   5.491   0.351 -0.3754  0.0568  1.0414
 1340TIP3    H225580   2.680   5.610   0.445  0.3127  1.4704 -0.6840
 1341TIP3   OH225581   1.338   5.576   6.567 -0.1347 -0.3846  0.7750
 1341TIP3    H125582   1.287   5.512   6.518  0.9476 -0.1533 -0.7458
 1341TIP3    H225583   1.343   5.541   6.656 -1.1816 -1.4201  0.4418
 1342TIP3   OH225584   3.303   3.269   0.356 -0.7871  0.3764 -0.0261
 1342TIP3    H125585   3.384   3.249   0.310  0.0243  1.3543  0.9231
 1342TIP3    H225586   3.246   3.306   0.288 -0.4599 -0.3542 -0.7072
 1343TIP3   OH225587   4.731   5.732   8.152  0.5068 -0.3431  0.3234
 1343TIP3    H125588   4.650   5.690   8.179  0.2677  0.3623  0.7104
 1343TIP3    H225589   4.743   5.804   8.213  1.4824 -0.5012  0.3348
 1344TIP3   OH225590   2.600   1.931   6.545  0.0584 -0.1320 -0.5395
 1344TIP3    H125591   2.511   1.932   6.579  0.5661  0.3100  0.8342
 1344TIP3    H225592   2.592   1.964   6.455 -0.9643  1.4825  0.1131
 1345TIP3   OH225593   1.197   2.724   8.630  0.3102  0.3482 -0.4058
 1345TIP3    H125594   1.180   2.643   8.582 -1.0791 -0.5438  1.4439
 1345TIP3    H225595   1.159   2.793   8.576  0.4193 -0.3874 -1.4291
 1346TIP3   OH225596   5.537   1.936   1.480  0.3864 -0.1071 -0.0605
 1346TIP3    H125597   5.496   1.989   1.411 -0.2027  2.8392  2.3548
 1346TIP3    H225598   5.629   1.933   1.457 -0.1374 -1.4353 -2.2720
 1347TIP3   OH225599   2.288   5.852   0.678 -0.0316  0.5829  0.5555
 1347TIP3    H125600   2.212   5.910   0.676 -0.9149 -0.5418  1.1374
 1347TIP3    H225601   2.363   5.912   0.689 -0.4987  1.9690 -2.6029
 1348TIP3   OH225602   6.157   2.246   1.399  0.1580  0.0121  0.1281
 1348TIP3    H125603   6.182   2.179   1.335  1.1182  1.1161 -0.6804
 1348TIP3    H225604   6.140   2.324   1.347  0.8876  0.9179  1.2032
 1349TIP3   OH225605   0.161   1.381   1.137 -0.6395 -0.2632 -0.2177
 1349TIP3    H125606   0.168   1.336   1.221 -1.3860 -1.8383 -0.9569
 1349TIP3    H225607   0.120   1.317   1.079 -2.6981  1.6950 -1.0770
 1350TIP3   OH225608   1.932   2.419   1.217 -0.6664 -0.5559 -0.2688
 1350TIP3    H125609   1.989   2.383   1.285 -1.3869  1.1364  1.3175
 1350TIP3    H225610   1.846   2.425   1.259 -1.0996  0.6624 -1.2714
 1351TIP3   OH225611   5.109   5.947   1.311  0.8400  0.6417  0.1975
 1351TIP3    H125612   5.022   5.986   1.314  1.2623  1.5433  1.4100
 1351TIP3    H225613   5.116   5.896   1.392  1.2580  0.1705 -0.1278
 1352TIP3   OH225614   3.131   3.442   6.608  0.1702 -0.3084 -0.1591
 1352TIP3    H125615   3.084   3.420   6.689 -1.2331  0.4276 -0.7414
 1352TIP3    H225616   3.152   3.357   6.569 -1.0987 -0.6597 -0.1089
 1353TIP3   OH225617   4.522   1.757   1.933  0.1845 -0.1761 -0.3028
 1353TIP3    H125618   4.598   1.720   1.978  0.5780  0.6880 -0.2439
 1353TIP3    H225619   4.472   1.799   2.002  0.2791  0.3078 -0.5301
 1354TIP3   OH225620   6.691   3.669   1.943  0.4962 -0.5473  0.0062
 1354TIP3    H125621   6.739   3.642   2.022 -1.7432 -1.0357  1.2974
 1354TIP3    H225622   6.641   3.745   1.971  1.0695  0.4363 -1.5243
 1355TIP3   OH225623   3.791   0.152   8.076  0.5339  0.0279 -0.1983
 1355TIP3    H125624   3.812   0.158   8.170 -1.0029 -1.6210  0.2994
 1355TIP3    H225625   3.819   0.236   8.040  1.2251  0.6768  1.7219
 1356TIP3   OH225626   5.037   4.084   7.034 -0.1821  0.3139  0.4694
 1356TIP3    H125627   5.059   4.067   6.942  0.6009 -0.5621  0.8085
 1356TIP3    H225628   5.012   4.177   7.035  0.7080  0.5921 -0.4681
 1357TIP3   OH225629   5.792   1.546   1.438  0.5355 -0.2304  0.0300
 1357TIP3    H125630   5.857   1.529   1.506  1.1135  0.8911 -0.2282
 1357TIP3    H225631   5.711   1.510   1.474 -0.0640  3.4163  3.0481
 1358TIP3   OH225632   2.155   6.302   6.407 -0.7458  0.7020 -0.4836
 1358TIP3    H125633   2.244   6.278   6.434 -0.7491  1.4983  0.3278
 1358TIP3    H225634   2.166   6.345   6.323 -0.4159  0.3912 -0.6009
 1359TIP3   OH225635   5.272   2.420   7.532 -0.0591  0.1282 -0.1616
 1359TIP3    H125636   5.242   2.354   7.594 -0.2007  1.5334  1.3444
 1359TIP3    H225637   5.193   2.443   7.482 -1.3003  2.5320  2.5900
 1360TIP3   OH225638   0.859   3.020   0.848 -0.0466  0.0477  0.1660
 1360TIP3    H125639   0.804   2.981   0.781  0.9768 -3.1679  1.0331
 1360TIP3    H225640   0.944   3.032   0.805 -0.3922  1.6153 -0.1393
 1361TIP3   OH225641   0.493   1.649   0.456 -0.4308 -0.1706 -0.1809
 1361TIP3    H125642   0.441   1.726   0.480  0.2014  0.5819 -1.1237
 1361TIP3    H225643   0.554   1.637   0.529 -0.4821  0.2853 -0.0594
 1362TIP3   OH225644   4.170   1.790   0.818  0.0670  0.1388 -0.0519
 1362TIP3    H125645   4.249   1.811   0.769  0.6709  0.3559  0.9713
 1362TIP3    H225646   4.099   1.832   0.770  0.7493  1.1024 -0.2384
 1363TIP3   OH225647   2.249   6.460   1.945 -0.2638  0.4109  0.2279
 1363TIP3    H125648   2.302   6.522   1.994  0.9514 -0.1309 -0.3706
 1363TIP3    H225649   2.305   6.431   1.874 -1.0559 -0.8378  0.0791
 1364TIP3   OH225650   5.192   4.987   8.422 -0.1468  0.0928 -0.3702
 1364TIP3    H125651   5.278   5.019   8.450  0.7345 -1.7995 -0.7441
 1364TIP3    H225652   5.206   4.955   8.333 -1.4481  0.4829 -0.7310
 1365TIP3   OH225653   4.988   3.793   0.662 -0.1328  0.2401 -0.1136
 1365TIP3    H125654   4.930   3.815   0.589 -1.2381  1.2622  0.9938
 1365TIP3    H225655   5.021   3.878   0.693  3.3332 -0.3768 -1.6806
 1366TIP3   OH225656   0.348   2.598   1.433  0.1009  0.4724 -0.1298
 1366TIP3    H125657   0.308   2.682   1.411  0.1210  0.3263 -0.7273
 1366TIP3    H225658   0.275   2.543   1.460 -0.2107 -0.0182 -1.9065
 1367TIP3   OH225659   6.544   4.858   1.661  0.4303  0.2074  0.7200
 1367TIP3    H125660   6.519   4.848   1.754 -2.6743 -0.8185 -0.0927
 1367TIP3    H225661   6.492   4.932   1.630 -1.9672 -2.0532 -1.1141
 1368TIP3   OH225662   6.739   5.915   7.278 -0.1901 -0.1845 -0.4431
 1368TIP3    H125663   6.696   5.991   7.318 -1.8303 -1.7857  1.0509
 1368TIP3    H225664   6.802   5.887   7.343 -2.6453 -2.6139  1.1115
 1369TIP3   OH225665   2.429   2.711   7.230  0.1044 -0.1793 -0.2883
 1369TIP3    H125666   2.521   2.735   7.221  0.8874 -2.0303  1.7873
 1369TIP3    H225667   2.402   2.686   7.142  1.6069  0.3291 -0.9311
 1370TIP3   OH225668   4.213   0.822   2.189  0.0924 -0.4514  0.0391
 1370TIP3    H125669   4.161   0.896   2.221 -1.7293 -1.9971  0.9015
 1370TIP3    H225670   4.181   0.807   2.100  2.0324  1.1108 -0.9781
 1371TIP3   OH225671   2.171   6.249   7.620  0.1496  0.4092 -0.3410
 1371TIP3    H125672   2.195   6.327   7.570 -0.3696  1.7845  1.4469
 1371TIP3    H225673   2.129   6.283   7.699 -0.7642 -1.7205  0.1600
 1372TIP3   OH225674   3.448   5.443   6.914 -0.2317 -0.0844 -0.6825
 1372TIP3    H125675   3.383   5.475   6.850 -1.0731  2.0257  1.1124
 1372TIP3    H225676   3.423   5.485   6.996  2.0859 -1.0458  0.5920
 1373TIP3   OH225677   1.427   3.183   1.236 -0.5242  0.4437 -0.4311
 1373TIP3    H125678   1.448   3.147   1.150 -2.0431 -1.0585 -0.2076
 1373TIP3    H225679   1.339   3.220   1.226  0.3744  2.8269 -0.2324
 1374TIP3   OH225680   0.418   2.582   0.653 -0.1701 -0.2902 -0.2375
 1374TIP3    H125681   0.404   2.578   0.747  0.4489 -0.1842 -0.1398
 1374TIP3    H225682   0.331   2.564   0.615 -0.1987 -1.4419  0.3384
 1375TIP3   OH225683   6.359   0.619   6.640  0.2699  0.0391  0.3163
 1375TIP3    H125684   6.413   0.602   6.562  0.4598 -0.9082  0.6303
 1375TIP3    H225685   6.394   0.559   6.706 -0.7573 -0.1287  0.7249
 1376TIP3   OH225686   2.523   3.921   1.466  0.6765 -0.3927  0.0723
 1376TIP3    H125687   2.482   3.839   1.441  0.1457 -0.5858  1.4764
 1376TIP3    H225688   2.617   3.904   1.463  0.5825 -0.8385 -0.3168
 1377TIP3   OH225689   0.689   5.221   1.959  0.3025 -0.5893  0.4034
 1377TIP3    H125690   0.720   5.288   2.020  0.5256 -1.1001  0.8693
 1377TIP3    H225691   0.607   5.190   1.998 -0.5849  0.4379 -0.5853
 1378TIP3   OH225692   3.762   0.554   1.254 -0.1203  0.0847 -0.3518
 1378TIP3    H125693   3.736   0.462   1.251 -1.0796  0.2092  1.9837
 1378TIP3    H225694   3.856   0.552   1.273 -0.0430 -0.3772 -0.7459
 1379TIP3   OH225695   4.083   0.594   0.013 -0.0207  0.1590  0.2445
 1379TIP3    H125696   4.171   0.628   0.030 -0.0200 -0.1683  0.9533
 1379TIP3    H225697   4.042   0.591   0.100 -1.2788  1.7878 -0.2389
 1380TIP3   OH225698   2.610   5.763   2.199  0.4711  0.3876  0.3631
 1380TIP3    H125699   2.626   5.674   2.169 -0.4678  0.4646 -0.4354
 1380TIP3    H225700   2.518   5.763   2.228  0.7811  0.8250  1.3884
 1381TIP3   OH225701   6.671   2.404   0.976  0.0398 -0.1932  0.1402
 1381TIP3    H125702   6.618   2.332   0.943 -0.6913  0.1491  0.5583
 1381TIP3    H225703   6.640   2.417   1.066  1.1404 -0.2934  0.5530
 1382TIP3   OH225704   6.495   0.766   1.754 -0.0817 -0.2592  0.1926
 1382TIP3    H125705   6.429   0.821   1.797  0.4275  0.6679 -0.1728
 1382TIP3    H225706   6.549   0.828   1.705 -2.5660 -1.4106 -4.5949
 1383TIP3   OH225707   4.615   0.212   1.136 -0.3271 -0.1245  0.3144
 1383TIP3    H125708   4.692   0.268   1.145 -1.3034  1.6360 -1.4188
 1383TIP3    H225709   4.647   0.124   1.155  1.6569  0.7764  1.5071
 1384TIP3   OH225710   6.601   2.258   7.591 -0.5405  0.0176 -0.0448
 1384TIP3    H125711   6.613   2.185   7.651 -0.3870  0.4978  0.5227
 1384TIP3    H225712   6.508   2.258   7.570 -0.3778 -0.9398 -0.8392
 1385TIP3   OH225713   3.862   0.025   1.886  0.2586  0.0144  0.1059
 1385TIP3    H125714   3.830   0.095   1.942 -0.7821  0.5759 -1.1295
 1385TIP3    H225715   3.891  -0.043   1.947 -0.9035  0.5576  1.3326
 1386TIP3   OH225716   0.811   0.920   0.647  0.2080 -0.0343  0.1822
 1386TIP3    H125717   0.817   0.854   0.578 -1.9561 -0.2226  0.1226
 1386TIP3    H225718   0.888   0.976   0.632  0.5705 -0.8940 -1.4842
 1387TIP3   OH225719   4.728   6.644   7.348  0.2950  0.1387 -0.4342
 1387TIP3    H125720   4.796   6.700   7.311 -0.2814  1.3509  0.2656
 1387TIP3    H225721   4.748   6.557   7.315  1.5097  0.6661 -1.1679
 1388TIP3   OH225722   2.265   1.347   7.936 -0.6639  0.1881  0.6011
 1388TIP3    H125723   2.325   1.284   7.976 -0.0062  1.7769  2.2698
 1388TIP3    H225724   2.296   1.355   7.846 -0.9324 -2.0157  0.2518
 1389TIP3   OH225725   0.387   5.103   7.892 -0.2961  0.5978 -0.1216
 1389TIP3    H125726   0.327   5.042   7.849 -0.0826  0.0823  0.2930
 1389TIP3    H225727   0.434   5.145   7.820  0.9538 -1.1659 -0.3950
 1390TIP3   OH225728   3.181   4.744   0.056 -0.4020 -0.0603 -0.0896
 1390TIP3    H125729   3.245   4.814   0.042 -0.7175  0.5101  1.1920
 1390TIP3    H225730   3.234   4.663   0.058  0.5226  0.5111  2.2706
 1391TIP3   OH225731   1.992   4.716   2.003  0.0001  0.6187 -0.5060
 1391TIP3    H125732   2.086   4.723   2.020 -0.3199 -0.6482  2.3509
 1391TIP3    H225733   1.968   4.630   2.038 -2.2930  1.0598 -0.8568
 1392TIP3   OH225734   4.442   6.564   2.454 -0.1876  0.1567 -0.0290
 1392TIP3    H125735   4.364   6.603   2.414  0.4481  0.6180 -0.8677
 1392TIP3    H225736   4.463   6.489   2.398 -0.3239 -0.2810  0.4963
 1393TIP3   OH225737   4.722   5.886   8.390  0.0111  0.2604 -0.5995
 1393TIP3    H125738   4.648   5.946   8.400 -0.1247  0.0348 -0.2299
 1393TIP3    H225739   4.727   5.840   8.473  2.2741  2.1839  0.4374
 1394TIP3   OH225740   6.388   0.464   3.038 -0.1862  0.2994  0.4221
 1394TIP3    H125741   6.470   0.513   3.046 -0.5577  0.7260  2.1846
 1394TIP3    H225742   6.415   0.376   3.013  0.5472  1.1938 -2.1841
 1395TIP3   OH225743   0.135   4.558   1.191  0.3462  0.4890  0.4068
 1395TIP3    H125744   0.201   4.584   1.126 -0.5058 -0.0166 -0.7065
 1395TIP3    H225745   0.062   4.525   1.138 -0.5034  0.3529  1.6320
 1396TIP3   OH225746   6.454   1.388   7.481  0.0966 -0.1952  0.1551
 1396TIP3    H125747   6.479   1.435   7.560 -1.0652 -0.2824  0.5838
 1396TIP3    H225748   6.517   1.316   7.475  0.2670 -0.1161  0.9287
 1397TIP3   OH225749   6.427   5.381   7.677 -0.0584 -0.2794  0.0582
 1397TIP3    H125750   6.372   5.313   7.637  0.3863  1.0779 -3.1579
 1397TIP3    H225751   6.498   5.395   7.614  0.1232  2.8274  0.7782
 1398TIP3   OH225752   2.767   2.413   7.978  0.5778 -0.2927 -0.7196
 1398TIP3    H125753   2.748   2.442   8.067  0.8065 -1.3681 -0.3049
 1398TIP3    H225754   2.858   2.385   7.981  0.5898 -0.3211 -1.3021
 1399TIP3   OH225755   2.582   4.685   7.819 -0.4626 -0.1299 -0.5001
 1399TIP3    H125756   2.584   4.753   7.752  0.2346 -0.9755 -1.3627
 1399TIP3    H225757   2.670   4.648   7.818 -0.8120 -1.0040  0.0036
 1400TIP3   OH225758   5.034   4.116   1.951  0.4367  0.0055  0.0531
 1400TIP3    H125759   4.953   4.136   1.997  1.2608 -1.2654  2.2424
 1400TIP3    H225760   5.101   4.167   1.995  1.1247 -0.4565 -0.4190
 1401TIP3   OH225761   5.810   4.867   7.222 -0.2924  0.3476  0.2051
 1401TIP3    H125762   5.789   4.947   7.270 -0.4085  0.0512  0.6504
 1401TIP3    H225763   5.905   4.856   7.233 -0.0810  1.0234 -0.7901
 1402TIP3   OH225764   2.978   0.356   0.490 -0.2985  0.0128  0.4200
 1402TIP3    H125765   3.066   0.341   0.525  0.7383  2.5102 -0.8728
 1402TIP3    H225766   2.950   0.439   0.529 -1.2769  0.2304 -0.6745
 1403TIP3   OH225767   6.564   1.537   7.673  0.0086 -0.3238 -0.5983
 1403TIP3    H125768   6.639   1.478   7.679  0.3447  0.1466 -0.1572
 1403TIP3    H225769   6.602   1.624   7.673 -0.4644 -0.1030 -1.6471
 1404TIP3   OH225770   5.948   1.067   6.881 -0.0206 -0.4876  0.2765
 1404TIP3    H125771   5.880   1.011   6.918  0.5224 -1.0024  0.5092
 1404TIP3    H225772   5.900   1.134   6.832 -0.7628 -0.0290  1.5523
 1405TIP3   OH225773   1.927   1.536   0.039 -0.4037  0.3259  0.5783
 1405TIP3    H125774   1.837   1.520   0.064 -0.8590 -0.2620 -1.2930
 1405TIP3    H225775   1.939   1.487  -0.042  1.5664  0.4868  0.7192
 1406TIP3   OH225776   5.029   4.404   8.513  0.0514 -0.6366 -0.5817
 1406TIP3    H125777   5.083   4.452   8.576  0.4721 -0.2742 -1.2101
 1406TIP3    H225778   4.953   4.461   8.500 -1.0757 -1.6326  1.1331
 1407TIP3   OH225779   2.065   2.878   6.912 -0.2978 -0.3303  0.2393
 1407TIP3    H125780   2.098   2.888   7.001  1.5750 -0.8044 -0.3563
 1407TIP3    H225781   1.971   2.859   6.922 -0.0672 -0.5876  2.1023
 1408TIP3   OH225782   4.873   1.301   0.627  0.2314  0.3738  0.1705
 1408TIP3    H125783   4.875   1.384   0.674  0.6947  0.7084 -0.4298
 1408TIP3    H225784   4.798   1.255   0.664  0.1851  0.9050  0.7625
 1409TIP3   OH225785   6.611   0.788   7.036  0.0194  0.2586  0.5662
 1409TIP3    H125786   6.654   0.870   7.014 -0.2837 -0.0704 -1.4378
 1409TIP3    H225787   6.519   0.801   7.010 -0.0419 -0.6790  0.2677
 1410TIP3   OH225788   4.899   4.643   8.636  0.4719  0.4504  0.4545
 1410TIP3    H125789   4.956   4.719   8.623  0.5205  0.4699  0.7549
 1410TIP3    H225790   4.934   4.600   8.714  0.7875 -0.2031 -0.0432
 1411TIP3   OH225791   5.289   1.221   8.598  0.1126  0.1213 -0.3708
 1411TIP3    H125792   5.219   1.212   8.534  1.1148 -4.3033 -1.1077
 1411TIP3    H225793   5.369   1.200   8.550  1.1880 -1.0080  1.7863
 1412TIP3   OH225794   3.849   5.632   7.370  0.1234  0.3175 -0.3586
 1412TIP3    H125795   3.763   5.645   7.332 -0.0355 -0.2256 -0.2036
 1412TIP3    H225796   3.845   5.675   7.455 -0.0208  0.2261 -0.3193
 1413TIP3   OH225797   0.751   4.063   8.254  0.1903  0.0036  0.0682
 1413TIP3    H125798   0.663   4.067   8.217  0.0432  1.1597  0.4945
 1413TIP3    H225799   0.759   4.143   8.306  1.3921 -0.2224  0.2720
 1414TIP3   OH225800   5.827   6.045   7.431 -0.0555  0.2317 -0.5449
 1414TIP3    H125801   5.734   6.068   7.425  0.1116  0.9347 -0.4565
 1414TIP3    H225802   5.853   6.033   7.339  0.0582  1.2215 -0.6495
 1415TIP3   OH225803   4.236   6.839   8.493  0.4106  0.0169 -0.1407
 1415TIP3    H125804   4.234   6.815   8.585  1.7230 -2.1857 -0.6006
 1415TIP3    H225805   4.277   6.926   8.491 -2.7821  1.7590  1.4996
 1416TIP3   OH225806   3.316   5.445   0.596 -0.0587 -0.2212  1.2567
 1416TIP3    H125807   3.258   5.507   0.552  1.0179  0.2245  0.4218
 1416TIP3    H225808   3.257   5.379   0.633 -1.0440 -0.2919 -0.3591
 1417TIP3   OH225809   1.179   3.406   8.625 -0.0539 -0.4176 -0.0528
 1417TIP3    H125810   1.144   3.470   8.563 -0.4644  1.1209  1.6963
 1417TIP3    H225811   1.101   3.368   8.667  0.2578  0.3138  1.2151
 1418TIP3   OH225812   4.057   6.853   7.551  0.0073  0.0648 -0.3149
 1418TIP3    H125813   4.032   6.779   7.607  1.6527 -1.6027 -1.6376
 1418TIP3    H225814   4.071   6.925   7.612 -0.5110 -1.0293  1.1758
 1419TIP3   OH225815   1.724   4.258   1.790 -0.2545 -0.4696 -0.1589
 1419TIP3    H125816   1.802   4.297   1.828 -0.4690 -0.0297 -0.1645
 1419TIP3    H225817   1.656   4.269   1.857 -0.3858 -0.5830 -0.2708
 1420TIP3   OH225818   4.317   1.723   8.253  0.3450  0.1060 -0.1306
 1420TIP3    H125819   4.228   1.688   8.259  0.1571  0.3769 -1.1655
 1420TIP3    H225820   4.324   1.757   8.164  2.1707 -1.7541 -0.7814
 1421TIP3   OH225821   1.354   3.235   6.569 -0.1172 -0.0064  0.5722
 1421TIP3    H125822   1.431   3.256   6.621  0.4148  0.2425 -0.2995
 1421TIP3    H225823   1.280   3.251   6.628  0.4739  0.1692  1.2761
 1422TIP3   OH225824   2.517   4.299   7.165 -0.2921  0.0187 -0.6608
 1422TIP3    H125825   2.499   4.219   7.214  0.4062 -0.3665 -1.0180
 1422TIP3    H225826   2.606   4.288   7.131 -0.5598  0.4944 -1.5756
 1423TIP3   OH225827   4.448   6.707   7.340  0.2317 -0.3262 -0.0480
 1423TIP3    H125828   4.400   6.713   7.423  0.1336  0.1044 -0.1313
 1423TIP3    H225829   4.525   6.654   7.361 -1.2033 -2.6809 -0.3560
 1424TIP3   OH225830   1.475   2.837   0.081  0.0747 -0.1237  0.4788
 1424TIP3    H125831   1.426   2.793   0.012 -0.9121 -0.3819  1.3129
 1424TIP3    H225832   1.514   2.913   0.038 -0.0794 -0.5631 -0.4695
 1425TIP3   OH225833   3.634   2.856   7.766  0.0660  0.4372  0.3649
 1425TIP3    H125834   3.646   2.917   7.838  1.5118  3.2749 -2.0698
 1425TIP3    H225835   3.713   2.802   7.766  1.3293  2.2028 -0.5774
 1426TIP3   OH225836   3.412   1.227   0.068 -0.9085 -0.3084 -0.4171
 1426TIP3    H125837   3.376   1.170   0.136  0.8740  0.0710  0.9203
 1426TIP3    H225838   3.442   1.304   0.116  0.9599 -0.2958 -1.5267
 1427TIP3   OH225839   6.361   2.028   7.099 -0.2970  0.4854  0.5382
 1427TIP3    H125840   6.373   2.041   7.193  1.7633  1.2096  0.2179
 1427TIP3    H225841   6.449   2.006   7.066 -0.5070  2.4345 -1.5460
 1428TIP3   OH225842   5.829   4.108   0.612  0.0284  0.2541  0.2809
 1428TIP3    H125843   5.851   4.116   0.520 -0.4683 -1.0380  0.0271
 1428TIP3    H225844   5.893   4.164   0.657  0.8284  0.2179 -0.7688
 1429TIP3   OH225845   6.746   1.227   6.706  0.0701 -0.3805  0.7233
 1429TIP3    H125846   6.789   1.167   6.645  1.3876 -0.3265  1.5645
 1429TIP3    H225847   6.748   1.312   6.662  1.4227 -0.2512  0.9973
 1430TIP3   OH225848   4.041   4.654   1.478 -0.4881  0.1566  0.3440
 1430TIP3    H125849   4.017   4.693   1.394  0.3651 -0.0605 -0.0035
 1430TIP3    H225850   4.095   4.721   1.521  3.6125 -1.6454 -1.5275
 1431TIP3   OH225851   5.449   1.864   8.047 -0.1436  0.1817 -0.4137
 1431TIP3    H125852   5.389   1.920   8.097 -1.0320 -1.6581  0.7144
 1431TIP3    H225853   5.431   1.885   7.956 -0.7458  1.4158 -0.0392
 1432TIP3   OH225854   4.090   0.600   0.282  0.0820 -0.5208 -0.1060
 1432TIP3    H125855   4.034   0.582   0.357 -1.3389 -1.7240 -1.3770
 1432TIP3    H225856   4.064   0.687   0.252 -0.0941 -0.4840  0.1529
 1433TIP3   OH225857   1.202   6.162   1.161  0.1563 -0.1895  0.4516
 1433TIP3    H125858   1.131   6.099   1.154 -1.7878  1.4052  3.5594
 1433TIP3    H225859   1.214   6.194   1.071 -1.9557 -1.6513 -0.4431
 1434TIP3   OH225860   0.775   6.706   7.887 -0.4089  0.1212 -0.2590
 1434TIP3    H125861   0.786   6.752   7.804  1.0820 -0.9886 -0.7220
 1434TIP3    H225862   0.741   6.772   7.947 -1.4209  0.9641 -1.7201
 1435TIP3   OH225863   3.515   0.175   1.420 -0.1205  0.2586 -0.1852
 1435TIP3    H125864   3.469   0.252   1.388  1.1322  1.0123 -0.2413
 1435TIP3    H225865   3.543   0.129   1.342 -0.8942 -0.2907 -0.1519
 1436TIP3   OH225866   0.325   6.657   1.570  0.3649  0.2710  0.1986
 1436TIP3    H125867   0.339   6.693   1.483  0.1759  1.2306  0.5491
 1436TIP3    H225868   0.372   6.717   1.628  0.3706 -0.2804  0.7728
 1437TIP3   OH225869   1.132   3.643   0.760  0.0326  0.4924 -0.0584
 1437TIP3    H125870   1.205   3.582   0.765  1.9913  2.6804 -0.1760
 1437TIP3    H225871   1.090   3.638   0.846 -0.0805 -1.2145 -0.1820
 1438TIP3   OH225872   0.653   4.946   8.483  0.0798  0.0277  0.3943
 1438TIP3    H125873   0.561   4.967   8.498  0.4545  1.5329  0.7541
 1438TIP3    H225874   0.700   4.994   8.552  0.9579 -3.3063  2.3642
 1439TIP3   OH225875   5.139   4.625   8.189  0.1798 -0.3328  0.2849
 1439TIP3    H125876   5.098   4.538   8.196  1.2131 -0.8530  0.1556
 1439TIP3    H225877   5.233   4.608   8.204  0.7259  0.4018 -1.9641
 1440TIP3   OH225878   2.583   5.458   7.455  0.2254 -0.5073 -0.5939
 1440TIP3    H125879   2.612   5.463   7.364 -1.2007  0.2302 -1.0317
 1440TIP3    H225880   2.648   5.510   7.503  1.0112 -0.9355 -1.1714
 1441TIP3   OH225881   3.170   2.484   1.176  0.0390  0.3778  0.3348
 1441TIP3    H125882   3.182   2.402   1.129  0.8411  0.5919  0.1485
 1441TIP3    H225883   3.169   2.459   1.269 -0.8749  0.0358  0.2480
 1442TIP3   OH225884   4.102   6.099   1.919 -0.1391 -0.3429  0.8110
 1442TIP3    H125885   4.103   6.195   1.919 -1.3837 -0.2967 -0.8772
 1442TIP3    H225886   4.194   6.075   1.931  0.5705  1.1135 -1.0724
 1443TIP3   OH225887   6.427   4.743   2.346  0.2622  0.4297 -0.1562
 1443TIP3    H125888   6.334   4.721   2.359  0.2008  0.6748 -0.1717
 1443TIP3    H225889   6.431   4.777   2.257  0.9715 -2.8082 -1.4735
 1444TIP3   OH225890   3.142   6.147   7.147  0.2787  0.3669  0.6754
 1444TIP3    H125891   3.103   6.065   7.115  0.5391  0.7664 -0.7371
 1444TIP3    H225892   3.128   6.145   7.241 -2.4278  0.0954  0.3424
 1445TIP3   OH225893   2.128   0.112   1.345 -0.0699  0.0719  0.5433
 1445TIP3    H125894   2.182   0.186   1.374 -1.0423  1.2096 -0.4640
 1445TIP3    H225895   2.066   0.099   1.417  0.4637 -0.1629  0.9746
 1446TIP3   OH225896   1.900   3.305   7.363  0.1711  0.3543 -0.7013
 1446TIP3    H125897   1.964   3.303   7.434  0.0171  0.2560 -0.5646
 1446TIP3    H225898   1.825   3.352   7.400 -0.3392 -0.6286 -0.4347
 1447TIP3   OH225899   1.473   6.661   6.387  0.3433  0.4226  0.1533
 1447TIP3    H125900   1.407   6.701   6.445 -0.3489  1.6581 -1.4042
 1447TIP3    H225901   1.423   6.622   6.316  1.2560  1.9105 -1.3900
 1448TIP3   OH225902   4.615   2.157   1.346  0.1469  0.1930 -1.0278
 1448TIP3    H125903   4.699   2.131   1.307  1.0844  0.6912  0.5393
 1448TIP3    H225904   4.631   2.245   1.379 -0.2971 -0.4796  1.1353
 1449TIP3   OH225905   0.618   5.079   6.457 -0.3273  0.1402  0.7840
 1449TIP3    H125906   0.648   5.020   6.526 -0.1640 -0.0393  0.5598
 1449TIP3    H225907   0.537   5.040   6.425  1.1260 -1.4567 -1.2105
 1450TIP3   OH225908   4.678   0.340   6.924  0.3619  0.1314  0.1501
 1450TIP3    H125909   4.714   0.407   6.865 -0.3752  0.6151  0.2363
 1450TIP3    H225910   4.746   0.272   6.927  1.0335  0.7715 -0.1132
 1451TIP3   OH225911   0.536   6.301   8.139 -0.0460  0.2193  0.0971
 1451TIP3    H125912   0.532   6.210   8.168  0.2313  0.3765  0.6487
 1451TIP3    H225913   0.536   6.352   8.220  1.0136  0.6645 -0.1577
 1452TIP3   OH225914   3.301   3.702   0.881 -0.4412  0.3757  0.4810
 1452TIP3    H125915   3.297   3.678   0.789 -0.5073 -0.1980  0.6285
 1452TIP3    H225916   3.212   3.690   0.913 -0.5787  1.2555  0.4600
 1453TIP3   OH225917   2.583   5.890   7.677  0.0721  0.5312  0.8465
 1453TIP3    H125918   2.624   5.811   7.641  0.1204  0.1176  1.7809
 1453TIP3    H225919   2.554   5.864   7.764  0.8353  1.7708  1.5064
 1454TIP3   OH225920   1.953   3.925   1.692  0.4379 -0.4516 -0.1669
 1454TIP3    H125921   1.947   3.833   1.663  0.9173 -1.2317  2.0505
 1454TIP3    H225922   1.960   3.920   1.787 -2.3591  2.0272  0.3020
 1455TIP3   OH225923   1.949   6.819   0.178 -0.6277 -0.3221  0.3712
 1455TIP3    H125924   2.037   6.845   0.151 -0.7617 -1.4655 -1.3675
 1455TIP3    H225925   1.891   6.873   0.123 -0.9329 -1.6759 -0.7010
 1456TIP3   OH225926   2.194   5.817   7.444 -0.2260  0.2727 -0.0467
 1456TIP3    H125927   2.244   5.739   7.419 -0.1487  0.2166  0.2730
 1456TIP3    H225928   2.256   5.871   7.493 -0.7325 -0.2680  1.2507
 1457TIP3   OH225929   5.963   6.713   2.617  0.6593  0.6662  0.4298
 1457TIP3    H125930   5.890   6.773   2.638  2.2037  2.8169  0.0048
 1457TIP3    H225931   6.029   6.769   2.577  2.8991 -1.0315  1.5094
 1458TIP3   OH225932   0.561   3.953   7.591  0.2188  0.4956 -0.0031
 1458TIP3    H125933   0.494   3.971   7.525  0.7145  1.5467 -0.2379
 1458TIP3    H225934   0.561   3.857   7.599 -0.8883  0.4413 -0.4268
 1459TIP3   OH225935   5.980   6.810   0.425 -0.3085 -0.0097  0.0591
 1459TIP3    H125936   5.998   6.719   0.403  0.0119  0.5134 -1.9919
 1459TIP3    H225937   6.050   6.835   0.485  0.1564 -0.8237 -0.1361
 1460TIP3   OH225938   4.757   4.533   8.242 -0.1366  0.2557  0.1773
 1460TIP3    H125939   4.774   4.624   8.217 -0.5596  0.5505  0.9487
 1460TIP3    H225940   4.685   4.538   8.305  0.3451 -0.5476  0.8111
 1461TIP3   OH225941   0.130   1.178   0.933  0.1883 -0.3469 -0.0770
 1461TIP3    H125942   0.205   1.120   0.924  0.4070 -0.2149  0.8007
 1461TIP3    H225943   0.125   1.224   0.849  0.9095 -0.5695 -0.2513
 1462TIP3   OH225944   4.070   6.286   8.525 -0.0493  0.1533  0.0315
 1462TIP3    H125945   4.097   6.199   8.495 -1.4244 -0.1496 -0.3779
 1462TIP3    H225946   4.002   6.313   8.463  0.7601  1.7782 -0.1951
 1463TIP3   OH225947   5.435   5.059   8.514  0.9774  0.3764  0.0342
 1463TIP3    H125948   5.418   5.113   8.591 -0.8282 -1.0927  0.7325
 1463TIP3    H225949   5.524   5.026   8.529  1.0302  0.8911  0.9989
 1464TIP3   OH225950   2.558   2.225   0.519  0.2692  0.2842 -0.3683
 1464TIP3    H125951   2.603   2.240   0.602  0.5327  0.6955 -0.5802
 1464TIP3    H225952   2.470   2.198   0.544 -0.2658  2.2672  0.0747
 1465TIP3   OH225953   1.604   6.873   7.337 -0.2583  0.1835 -0.6488
 1465TIP3    H125954   1.656   6.793   7.335 -0.5633 -0.2185  2.4014
 1465TIP3    H225955   1.660   6.939   7.297  1.3242 -0.9128 -0.3335
 1466TIP3   OH225956   1.441   1.213   6.566 -0.0060  0.8927 -0.7307
 1466TIP3    H125957   1.472   1.186   6.652 -1.2846  0.0424 -0.5027
 1466TIP3    H225958   1.417   1.305   6.577 -0.4662  0.7021 -0.0756
 1467TIP3   OH225959   4.010   3.766   0.683  0.3164  0.0065  0.3394
 1467TIP3    H125960   3.923   3.748   0.717  0.9665 -1.8647  1.1311
 1467TIP3    H225961   4.025   3.698   0.617  0.9657  0.6737 -0.2342
 1468TIP3   OH225962   2.106   2.611   8.338  0.0923 -0.6912 -0.0272
 1468TIP3    H125963   2.056   2.532   8.318  0.8521 -1.2014  0.0183
 1468TIP3    H225964   2.161   2.624   8.260 -0.1972 -0.0685 -0.1322
 1469TIP3   OH225965   3.410   3.898   1.528  0.1673 -0.1797  0.3128
 1469TIP3    H125966   3.423   3.824   1.587 -2.0458 -1.8491 -1.1075
 1469TIP3    H225967   3.492   3.905   1.479  0.0583 -2.5181 -0.3157
 1470TIP3   OH225968   3.273   5.778   1.905 -0.8164 -0.0985  0.2302
 1470TIP3    H125969   3.271   5.742   1.994 -2.0136 -0.2807  0.1497
 1470TIP3    H225970   3.251   5.871   1.917 -0.0026  0.0984  0.2161
 1471TIP3   OH225971   5.807   3.862   1.510 -0.3062 -0.0166 -0.2578
 1471TIP3    H125972   5.864   3.914   1.566 -1.9890  0.6789  0.8814
 1471TIP3    H225973   5.719   3.876   1.545 -1.1453 -1.4061 -1.6696
 1472TIP3   OH225974   0.082   1.090   6.522  0.1003  0.0246  0.6869
 1472TIP3    H125975   0.166   1.079   6.567  0.9877 -0.1591 -0.9296
 1472TIP3    H225976   0.106   1.110   6.431 -1.5923 -2.9443 -0.5504
 1473TIP3   OH225977   3.738   5.213   6.966 -0.0675 -0.1465  0.2500
 1473TIP3    H125978   3.812   5.273   6.981  0.4571 -0.7504  0.1369
 1473TIP3    H225979   3.732   5.161   7.046 -0.7377  0.2844  0.4790
 1474TIP3   OH225980   0.494   6.170   1.206  0.3802  0.0410  0.0792
 1474TIP3    H125981   0.580   6.153   1.245  0.9608 -0.8850 -1.5013
 1474TIP3    H225982   0.512   6.184   1.113 -1.0515  1.1997 -0.0647
 1475TIP3   OH225983   6.583   2.075   0.474 -0.1668 -0.2966  0.2213
 1475TIP3    H125984   6.520   2.005   0.455 -1.8715  1.2882 -0.2769
 1475TIP3    H225985   6.613   2.103   0.388 -3.3681  2.8811 -0.0849
 1476TIP3   OH225986   0.676   4.353   1.988 -0.1110 -0.2976 -0.3144
 1476TIP3    H125987   0.688   4.441   2.024 -1.9638 -0.5307  0.9960
 1476TIP3    H225988   0.681   4.295   2.064 -2.1512 -0.9888 -0.6337
 1477TIP3   OH225989   4.838   0.450   1.482  0.1172  0.1244 -0.4785
 1477TIP3    H125990   4.761   0.394   1.473  0.4759 -0.6457  0.8896
 1477TIP3    H225991   4.824   0.521   1.419 -2.6525  1.0790  1.0400
 1478TIP3   OH225992   3.123   0.775   6.457  0.4089 -0.1090 -0.6751
 1478TIP3    H125993   3.198   0.737   6.503  1.1689  0.7480 -1.1692
 1478TIP3    H225994   3.099   0.709   6.392  0.0376 -0.8481  0.1974
 1479TIP3   OH225995   5.470   2.765   1.181 -0.0961  0.2388  0.0745
 1479TIP3    H125996   5.464   2.841   1.124  0.3653 -1.2670 -2.1053
 1479TIP3    H225997   5.417   2.698   1.138  0.0995 -0.9115  1.5384
 1480TIP3   OH225998   6.685   4.021   1.942 -0.3102  0.1114 -0.0422
 1480TIP3    H125999   6.715   4.090   2.001 -2.0898  0.3906  0.5961
 1480TIP3    H226000   6.624   4.065   1.883 -0.4502 -0.6611 -0.4886
 1481TIP3   OH226001   4.839   2.684   7.931  0.2278 -0.1932 -0.1596
 1481TIP3    H126002   4.770   2.636   7.977 -1.4765  2.1309 -0.0638
 1481TIP3    H226003   4.805   2.696   7.842 -0.1021  1.9367  0.1889
 1482TIP3   OH226004   0.920   0.757   0.442  0.5560 -0.1645  0.1520
 1482TIP3    H126005   1.011   0.780   0.463  0.4079 -0.8551  1.7249
 1482TIP3    H226006   0.902   0.803   0.360  2.7298 -1.0495 -0.8991
 1483TIP3   OH226007   0.257   4.736   7.823 -0.3676  0.0912  0.4415
 1483TIP3    H126008   0.193   4.676   7.861 -2.4370 -0.2054 -3.0878
 1483TIP3    H226009   0.221   4.823   7.839  0.2125  0.1470  1.5020
 1484TIP3   OH226010   5.801   5.964   7.696  0.0365 -0.3473 -0.6464
 1484TIP3    H126011   5.715   5.978   7.735 -0.2117  0.8630 -1.5371
 1484TIP3    H226012   5.804   6.027   7.623  2.1738  0.5764  0.1578
 1485TIP3   OH226013   4.116   5.954   1.059  0.1285  0.0974 -0.0403
 1485TIP3    H126014   4.113   5.861   1.036  1.4156 -0.1470  0.6527
 1485TIP3    H226015   4.026   5.975   1.085 -0.7774 -0.2474 -2.6799
 1486TIP3   OH226016   6.657   4.361   8.225 -0.5153 -0.0411  0.6536
 1486TIP3    H126017   6.601   4.340   8.150 -0.8369  0.4089  0.7658
 1486TIP3    H226018   6.650   4.284   8.282  0.5952 -0.8496 -0.2742
 1487TIP3   OH226019   3.821   4.509   1.778 -0.4359  0.3951 -0.4790
 1487TIP3    H126020   3.912   4.532   1.794  0.2601 -2.0217 -0.5370
 1487TIP3    H226021   3.819   4.480   1.686 -0.8490 -1.1561 -0.0160
 1488TIP3   OH226022   3.586   4.986   0.766 -0.0518  0.6491  0.2073
 1488TIP3    H126023   3.508   5.037   0.745  0.9879  2.1072 -0.2421
 1488TIP3    H226024   3.631   4.977   0.682  1.9235  2.6990  0.9711
 1489TIP3   OH226025   3.389   0.273   6.828  0.5123 -0.6549  0.2713
 1489TIP3    H126026   3.466   0.329   6.831  1.0973 -1.3098 -1.4505
 1489TIP3    H226027   3.320   0.325   6.870  1.6289  0.3393  0.9347
 1490TIP3   OH226028   1.353   1.809   8.118  0.6137 -0.0221 -0.1741
 1490TIP3    H126029   1.421   1.748   8.146 -0.7865 -1.1357  0.9593
 1490TIP3    H226030   1.311   1.838   8.199 -1.0030 -0.2837 -0.8655
 1491TIP3   OH226031   3.867   5.648   1.198 -0.4098 -0.2607  0.2430
 1491TIP3    H126032   3.883   5.740   1.222  3.1793 -0.8827  0.7555
 1491TIP3    H226033   3.783   5.627   1.239 -0.5722  2.3500  1.4566
 1492TIP3   OH226034   3.054   1.033   1.564  0.8566  0.1626 -0.0352
 1492TIP3    H126035   3.118   1.034   1.492  0.5921  0.1263 -0.2725
 1492TIP3    H226036   3.092   1.090   1.631  1.5181 -0.4836  0.1588
 1493TIP3   OH226037   4.252   5.906   1.700  0.1348 -0.1136 -0.2539
 1493TIP3    H126038   4.263   5.962   1.777 -0.8497 -1.3539  0.8345
 1493TIP3    H226039   4.342   5.888   1.671  0.4753  1.6319 -0.3720
 1494TIP3   OH226040   4.650   6.752   7.887  0.2341  0.4546 -0.4400
 1494TIP3    H126041   4.632   6.770   7.980  0.5225  1.7166 -0.6186
 1494TIP3    H226042   4.630   6.659   7.877 -0.3838  0.4370  0.7509
 1495TIP3   OH226043   4.112   5.772   0.774 -0.3234  0.6335 -0.0457
 1495TIP3    H126044   4.111   5.676   0.776  0.0634  0.6181 -0.4866
 1495TIP3    H226045   4.037   5.797   0.828 -0.9504  0.0735 -0.6282
 1496TIP3   OH226046   6.269   3.922   6.918 -0.5828 -0.2477  0.0278
 1496TIP3    H126047   6.293   3.999   6.866 -1.7536 -0.0606 -0.2741
 1496TIP3    H226048   6.177   3.938   6.942  0.4262  0.7075  3.9450
 1497TIP3   OH226049   0.467   6.766   6.924 -0.3616 -0.0363 -0.3495
 1497TIP3    H126050   0.448   6.676   6.895 -1.1388  0.3388 -1.0328
 1497TIP3    H226051   0.554   6.784   6.887  0.4969 -1.0361  1.0841
 1498TIP3   OH226052   3.826   0.811   6.987  0.4777  0.2103  0.0389
 1498TIP3    H126053   3.758   0.744   6.988  0.2952  0.3947  0.8895
 1498TIP3    H226054   3.857   0.815   7.078  2.3919 -0.6474 -0.5281
 1499TIP3   OH226055   4.080   2.988   6.680  0.3827  0.1447 -0.2098
 1499TIP3    H126056   4.020   2.924   6.720  1.5691 -0.0489  1.3794
 1499TIP3    H226057   4.026   3.035   6.617 -1.0191 -1.1164 -0.0169
 1500TIP3   OH226058   5.390   5.471   0.616 -0.8650 -0.9611  0.4241
 1500TIP3    H126059   5.360   5.427   0.695  0.9431 -1.2235  1.0071
 1500TIP3    H226060   5.483   5.452   0.611 -0.6165  0.3540 -0.9292
 1501TIP3   OH226061   4.837   5.335   2.241 -0.6187 -0.0187  0.1720
 1501TIP3    H126062   4.919   5.364   2.281 -1.8240  1.7798  1.4723
 1501TIP3    H226063   4.834   5.381   2.157 -0.6548  0.4750  0.4474
 1502TIP3   OH226064   2.185   4.570   6.635  0.1478 -0.5587  0.2693
 1502TIP3    H126065   2.145   4.494   6.678  0.2558 -0.1568  1.0963
 1502TIP3    H226066   2.115   4.607   6.581 -0.0543 -0.9334  0.2721
 1503TIP3   OH226067   3.758   3.786   0.831  0.2205 -0.0334 -0.4696
 1503TIP3    H126068   3.726   3.801   0.741 -2.0975 -0.7397  0.1684
 1503TIP3    H226069   3.716   3.705   0.858  0.8610  0.1785  1.2836
 1504TIP3   OH226070   6.115   4.962   2.873  0.1839  0.1657  0.0386
 1504TIP3    H126071   6.083   4.886   2.922  0.4292 -0.5371 -0.8520
 1504TIP3    H226072   6.078   4.951   2.785  0.1860  1.1130 -0.0937
 1505TIP3   OH226073   0.280   0.171   8.457 -0.6581 -0.3352  0.0703
 1505TIP3    H126074   0.319   0.134   8.537  0.5678  0.4794 -0.1253
 1505TIP3    H226075   0.213   0.231   8.488 -2.1083 -2.0286  0.4098
 1506TIP3   OH226076   0.234   3.857   7.126 -0.5252 -0.5705 -0.0020
 1506TIP3    H126077   0.161   3.863   7.188  0.0579  0.3068  0.6096
 1506TIP3    H226078   0.214   3.923   7.060  0.0484  0.1548  0.5349
 1507TIP3   OH226079   0.575   2.200   1.449 -0.6759  0.0799 -0.0048
 1507TIP3    H126080   0.533   2.256   1.384 -1.9372  0.2761  0.9409
 1507TIP3    H226081   0.619   2.261   1.508  1.5842 -0.1350 -1.3163
 1508TIP3   OH226082   0.517   0.686   7.532  0.2334 -0.0461 -0.4652
 1508TIP3    H126083   0.610   0.708   7.544  0.4491 -0.2208 -1.7597
 1508TIP3    H226084   0.470   0.766   7.557  0.6892 -0.0940  0.6136
 1509TIP3   OH226085   5.290   0.495   7.596 -0.1131  0.5252 -0.3576
 1509TIP3    H126086   5.357   0.471   7.660 -0.1517 -1.1616 -0.9094
 1509TIP3    H226087   5.300   0.589   7.585  1.4201  0.4779  0.4168
 1510TIP3   OH226088   6.583   1.282   0.745  0.4820  0.2572  0.6266
 1510TIP3    H126089   6.499   1.274   0.699  0.6404  1.4776  0.0781
 1510TIP3    H226090   6.583   1.211   0.808 -0.5966 -0.2798  0.0446
 1511TIP3   OH226091   0.110   6.077   2.693 -0.6728 -0.3272 -0.2292
 1511TIP3    H126092   0.110   6.159   2.644 -2.3844  0.3860  0.8925
 1511TIP3    H226093   0.059   6.095   2.772  0.5079 -1.9391  0.9798
 1512TIP3   OH226094   3.887   4.288   6.444  0.2076 -0.1869  0.3978
 1512TIP3    H126095   3.849   4.211   6.402 -0.3812  0.0338  0.5158
 1512TIP3    H226096   3.925   4.338   6.373 -2.1859  0.9931 -0.1399
 1513TIP3   OH226097   5.814   2.116   8.456  0.1281 -0.2913  0.4190
 1513TIP3    H126098   5.732   2.118   8.407  1.0797  1.0550 -1.2286
 1513TIP3    H226099   5.804   2.042   8.516 -1.7933 -0.9157 -0.5719
 1514TIP3   OH226100   1.120   2.488   8.479 -0.0538  0.5288  0.3162
 1514TIP3    H126101   1.082   2.491   8.391  0.6120 -1.2747 -0.0702
 1514TIP3    H226102   1.199   2.435   8.469 -0.9376 -1.3308  2.3092
 1515TIP3   OH226103   4.254   5.724   0.098  0.3724 -0.1420  0.3751
 1515TIP3    H126104   4.249   5.809   0.142  1.1080 -1.1025  2.4732
 1515TIP3    H226105   4.192   5.730   0.026 -1.3339  1.3881  1.8634
 1516TIP3   OH226106   3.567   3.645   7.387  0.5745  0.2860  0.0999
 1516TIP3    H126107   3.587   3.709   7.456  1.6730 -0.5192  0.5550
 1516TIP3    H226108   3.633   3.577   7.398  0.6190  0.0284 -1.6208
 1517TIP3   OH226109   2.176   3.624   6.871  0.7924  0.6506 -0.1703
 1517TIP3    H126110   2.128   3.541   6.871 -2.1824  2.1798 -1.5204
 1517TIP3    H226111   2.254   3.607   6.923  0.6244 -3.1150 -0.8327
 1518TIP3   OH226112   3.777   5.852   0.493  0.2731 -0.3863  0.6620
 1518TIP3    H126113   3.787   5.914   0.566 -0.8558 -1.1986  1.5429
 1518TIP3    H226114   3.709   5.889   0.438  2.0092  0.8745 -0.7201
 1519TIP3   OH226115   5.457   0.017   1.331 -0.3318 -0.1379  0.7380
 1519TIP3    H126116   5.484   0.008   1.422 -0.0705  0.1503  0.6894
 1519TIP3    H226117   5.435  -0.072   1.304  0.6902 -0.3990  0.7408
 1520TIP3   OH226118   2.895   4.733   0.949  0.3562  0.1275  0.0986
 1520TIP3    H126119   2.833   4.682   0.898 -0.4738  0.1340  1.0657
 1520TIP3    H226120   2.922   4.674   1.020 -0.0185  0.7634  0.7815
 1521TIP3   OH226121   4.307   2.918   8.532  0.2747 -0.2449  0.0169
 1521TIP3    H126122   4.336   2.839   8.486 -1.4701 -0.3210 -1.0653
 1521TIP3    H226123   4.301   2.985   8.463 -2.3253 -0.3385  0.0215
 1522TIP3   OH226124   0.964   5.145   2.090  0.1635  0.2354 -0.0940
 1522TIP3    H126125   0.907   5.120   2.163  1.9341  0.2273  1.3923
 1522TIP3    H226126   0.964   5.240   2.092  0.2171  0.2348 -0.0542
 1523TIP3   OH226127   4.088   0.012   7.267  0.0422 -0.3698  0.2842
 1523TIP3    H126128   4.057  -0.006   7.355  0.7428 -2.5890  0.1236
 1523TIP3    H226129   4.158   0.077   7.278 -0.2007 -0.2725  1.2874
 1524TIP3   OH226130   3.809   1.937   7.765 -0.3932 -0.6865  0.3570
 1524TIP3    H126131   3.765   2.018   7.788 -0.6028 -0.6761 -0.0709
 1524TIP3    H226132   3.883   1.931   7.826  0.0436  0.1892 -0.0757
 1525TIP3   OH226133   5.686   4.654   0.174 -0.0180 -0.4274 -0.2637
 1525TIP3    H126134   5.657   4.598   0.102 -0.6798 -1.6126  0.8738
 1525TIP3    H226135   5.638   4.622   0.250  0.9729  0.5144  0.8029
 1526TIP3   OH226136   3.930   6.625   0.894  0.4637  0.3648  0.9324
 1526TIP3    H126137   3.951   6.718   0.901 -2.0346  1.0382  0.3051
 1526TIP3    H226138   3.838   6.619   0.918 -0.3012 -1.4668 -1.8964
 1527TIP3   OH226139   3.748   2.327   2.184 -0.0675 -0.2284 -0.6342
 1527TIP3    H126140   3.711   2.386   2.250  2.2124  0.1267  0.4374
 1527TIP3    H226141   3.737   2.240   2.222 -1.6612 -0.3366 -1.3053
 1528TIP3   OH226142   0.018   0.094   8.590  0.1854  0.1392  0.4578
 1528TIP3    H126143   0.009   0.150   8.513  0.3453 -0.9368 -0.3727
 1528TIP3    H226144   0.094   0.128   8.636  1.6262 -0.6863 -1.2012
 1529TIP3   OH226145   5.919   2.654   6.960 -0.2246 -0.1072 -0.0830
 1529TIP3    H126146   5.983   2.680   6.895  0.4334 -0.6473  0.3323
 1529TIP3    H226147   5.870   2.734   6.979  0.1861  0.2632 -0.5637
 1530TIP3   OH226148   6.396   2.850   8.610  0.4761 -0.2969 -0.1803
 1530TIP3    H126149   6.404   2.755   8.602  1.8097 -0.4350  2.0695
 1530TIP3    H226150   6.359   2.864   8.697 -1.3026  1.2477 -1.1188
 1531TIP3   OH226151   5.651   4.227   8.511  0.4780 -0.0989  0.0273
 1531TIP3    H126152   5.699   4.203   8.432 -1.4121 -0.2571 -1.1307
 1531TIP3    H226153   5.641   4.322   8.504 -0.8113 -0.2564 -0.6452
 1532TIP3   OH226154   4.846   3.992   1.663  0.4431  0.6630  0.1576
 1532TIP3    H126155   4.826   4.060   1.599  0.8843 -0.3118 -1.0650
 1532TIP3    H226156   4.775   3.997   1.727  0.1184  1.8209 -0.2714
 1533TIP3   OH226157   2.836   0.226   7.909  0.1845 -0.3195  0.1009
 1533TIP3    H126158   2.835   0.133   7.885 -0.3822  0.0289 -1.3866
 1533TIP3    H226159   2.810   0.271   7.828  0.6682  1.1472  0.7327
 1534TIP3   OH226160   0.430   6.347   8.380 -0.3102 -0.4459 -0.3923
 1534TIP3    H126161   0.410   6.433   8.417 -0.0874 -0.6029  0.1061
 1534TIP3    H226162   0.472   6.300   8.452 -1.4163 -1.3548 -0.3321
 1535TIP3   OH226163   3.205   2.517   0.551 -0.3220 -0.6584 -0.0109
 1535TIP3    H126164   3.247   2.532   0.636 -1.8293 -0.8172  0.7849
 1535TIP3    H226165   3.122   2.564   0.556  0.0850  0.3508 -1.8696
 1536TIP3   OH226166   3.683   4.447   6.963  0.4414 -0.2791 -0.0308
 1536TIP3    H126167   3.644   4.494   6.889  1.9130 -0.2522 -0.8295
 1536TIP3    H226168   3.713   4.364   6.926 -0.2306 -0.9656  0.9065
 1537TIP3   OH226169   5.536   5.557   1.519  0.0889 -0.4388  0.9155
 1537TIP3    H126170   5.609   5.496   1.523  0.7146  0.2950  1.0193
 1537TIP3    H226171   5.498   5.556   1.606  1.1018  0.4918  1.4005
 1538TIP3   OH226172   3.458   3.519   1.921 -0.1551 -0.0412 -0.3202
 1538TIP3    H126173   3.548   3.525   1.951 -0.3315 -0.5702  0.3518
 1538TIP3    H226174   3.436   3.426   1.930 -0.5282 -0.0408 -1.1867
 1539TIP3   OH226175   3.472   0.845   1.273 -0.0625 -0.0631  0.0122
 1539TIP3    H126176   3.394   0.793   1.253  0.5082 -0.2277 -2.1391
 1539TIP3    H226177   3.456   0.930   1.231  0.3791  0.3387  0.6428
 1540TIP3   OH226178   5.847   3.636   0.791 -0.6313  0.5715 -0.5345
 1540TIP3    H126179   5.917   3.681   0.837  0.6996 -0.5402 -1.3775
 1540TIP3    H226180   5.832   3.689   0.713 -2.1549  1.8817  0.5882
 1541TIP3   OH226181   1.540   2.961   0.323  0.0836 -0.0359 -0.3764
 1541TIP3    H126182   1.530   2.937   0.231 -1.1718 -0.2262 -0.2017
 1541TIP3    H226183   1.618   3.016   0.325  0.1462 -0.0586 -1.5412
 1542TIP3   OH226184   0.093   6.472   6.310  0.2848  0.5474 -0.1329
 1542TIP3    H126185   0.068   6.562   6.291 -2.1588 -0.1165 -0.4111
 1542TIP3    H226186   0.081   6.426   6.226 -0.4631 -0.3982  0.4668
 1543TIP3   OH226187   2.189   0.904   7.998 -0.1006  0.6700  0.3326
 1543TIP3    H126188   2.122   0.956   8.043 -0.7678  0.9171 -0.9103
 1543TIP3    H226189   2.229   0.852   8.068 -3.1586 -1.2670  0.8700
 1544TIP3   OH226190   2.341   6.814   7.819  0.1112  0.3355  0.5019
 1544TIP3    H126191   2.418   6.869   7.838  0.5792  0.4998 -1.5483
 1544TIP3    H226192   2.372   6.725   7.830  0.2823  0.4229  0.7349
 1545TIP3   OH226193   0.904   4.794   1.744  0.3673 -0.1909  0.0842
 1545TIP3    H126194   0.959   4.847   1.802 -0.3860  1.0457 -0.2924
 1545TIP3    H226195   0.832   4.852   1.720 -0.4802 -1.3899 -0.3773
 1546TIP3   OH226196   1.038   6.551   7.102  0.6373 -0.0795  0.3957
 1546TIP3    H126197   1.035   6.514   7.014  1.6072  2.8450 -1.0091
 1546TIP3    H226198   1.056   6.476   7.159 -2.5703 -2.5253 -1.4583
 1547TIP3   OH226199   3.601   3.087   6.375  0.8588  0.0272  0.1296
 1547TIP3    H126200   3.555   3.011   6.410  0.6472 -1.1140 -2.4422
 1547TIP3    H226201   3.582   3.157   6.438 -1.4461 -1.2822  1.0104
 1548TIP3   OH226202   2.893   4.508   1.507 -0.1980  0.0068  0.2900
 1548TIP3    H126203   2.932   4.455   1.577 -0.7601 -1.4845 -0.4802
 1548TIP3    H226204   2.927   4.596   1.522  0.1454 -0.3911  2.0937
 1549TIP3   OH226205   3.492   6.748   0.930 -0.3044  0.2597  0.0778
 1549TIP3    H126206   3.441   6.679   0.973  0.8645 -1.3246 -0.9928
 1549TIP3    H226207   3.482   6.732   0.836  0.4385  1.2186 -0.1899
 1550TIP3   OH226208   5.887   0.199   0.029  0.4557 -0.3089 -0.3772
 1550TIP3    H126209   5.882   0.223  -0.064 -0.3728  0.5425 -0.1311
 1550TIP3    H226210   5.898   0.282   0.075  1.0726 -0.7458  0.2815
 1551TIP3   OH226211   1.162   3.598   1.376 -0.2296  0.0326  0.0804
 1551TIP3    H126212   1.246   3.589   1.421  0.3692  0.8622 -0.8148
 1551TIP3    H226213   1.107   3.528   1.412  0.5908 -0.0545  1.2285
 1552TIP3   OH226214   6.733   0.729   7.919 -0.0657  0.5386  0.3280
 1552TIP3    H126215   6.682   0.797   7.963 -0.6836 -0.7280  1.6889
 1552TIP3    H226216   6.824   0.751   7.936 -0.2725  0.7636  1.1956
 1553TIP3   OH226217   5.423   3.558   0.362  0.0614 -0.5147 -0.4771
 1553TIP3    H126218   5.342   3.565   0.412 -0.8887 -0.7705 -1.9234
 1553TIP3    H226219   5.397   3.514   0.281  1.8189 -1.4183 -0.5874
 1554TIP3   OH226220   1.018   2.797   1.327 -0.0314 -0.3118 -0.3125
 1554TIP3    H126221   0.977   2.800   1.240 -1.2808  2.6491  0.2413
 1554TIP3    H226222   1.075   2.874   1.329 -1.3055  0.6677  1.9970
 1555TIP3   OH226223   0.985   4.052   0.401 -0.2878 -0.0947  0.3043
 1555TIP3    H126224   0.991   4.022   0.491 -0.8439 -0.3693  0.2552
 1555TIP3    H226225   1.075   4.077   0.378  0.1482 -1.4380  0.4441
 1556TIP3   OH226226   0.394   2.451   2.452 -0.0038 -0.1682  0.3644
 1556TIP3    H126227   0.378   2.513   2.524 -0.2825  1.6720 -1.2218
 1556TIP3    H226228   0.483   2.469   2.424 -0.8507  1.2549 -1.6502
 1557TIP3   OH226229   0.178   2.158   0.224  0.0699  0.0943 -0.3668
 1557TIP3    H126230   0.155   2.097   0.294  1.0416 -0.4261 -0.4759
 1557TIP3    H226231   0.102   2.159   0.166 -1.8335  2.4122  1.8884
 1558TIP3   OH226232   4.654   5.120   2.220  0.6139  0.2108  0.2937
 1558TIP3    H126233   4.723   5.183   2.199  0.0404  0.9179  0.5077
 1558TIP3    H226234   4.590   5.170   2.270 -1.5063  0.3593 -2.3162
 1559TIP3   OH226235   2.674   5.828   1.364 -0.3932  0.0377 -0.1970
 1559TIP3    H126236   2.591   5.787   1.388 -0.7547  1.2053  0.6349
 1559TIP3    H226237   2.708   5.772   1.294 -1.1998 -1.2461  0.3843
 1560TIP3   OH226238   4.058   0.995   2.312  0.1806 -0.9628  0.1058
 1560TIP3    H126239   4.012   0.912   2.331  0.2867 -0.7363  1.5036
 1560TIP3    H226240   4.074   1.033   2.399  1.5424 -0.2293 -0.4417
 1561TIP3   OH226241   2.438   5.109   2.309  0.4359 -0.1483  0.4079
 1561TIP3    H126242   2.519   5.157   2.330  0.4172  0.0651  0.0012
 1561TIP3    H226243   2.385   5.117   2.388  0.0325  1.3492  0.0250
 1562TIP3   OH226244   3.095   3.432   1.292  0.2127  0.2627 -0.0763
 1562TIP3    H126245   3.140   3.402   1.371 -0.0339 -1.3917 -0.5065
 1562TIP3    H226246   3.117   3.524   1.284  0.6762  0.3266  1.6243
 1563TIP3   OH226247   4.843   1.530   0.754 -0.2081 -0.3078 -0.3148
 1563TIP3    H126248   4.853   1.584   0.833 -0.1773  0.3018 -0.7332
 1563TIP3    H226249   4.794   1.586   0.693 -3.4572 -1.9908  0.4933
 1564TIP3   OH226250   4.987   3.740   0.141  0.6788 -0.7578  0.3291
 1564TIP3    H126251   5.016   3.814   0.194 -1.0735 -0.0092  0.3095
 1564TIP3    H226252   4.963   3.779   0.057 -1.5116 -1.0936  0.7447
 1565TIP3   OH226253   5.457   0.219   8.384 -0.1710  0.2342 -0.1497
 1565TIP3    H126254   5.382   0.275   8.365 -2.5235 -2.2163  1.1861
 1565TIP3    H226255   5.470   0.227   8.478  0.1104 -0.6406 -0.1011
 1566TIP3   OH226256   3.134   6.584   7.718 -0.6991 -0.8605 -0.0113
 1566TIP3    H126257   3.077   6.519   7.758 -0.9389 -0.4359  0.3486
 1566TIP3    H226258   3.219   6.571   7.761 -1.4065  0.8339  2.0958
 1567TIP3   OH226259   1.885   3.984   1.052 -0.3635 -0.0886  0.1331
 1567TIP3    H126260   1.830   4.055   1.087 -1.9573 -2.4480  2.8083
 1567TIP3    H226261   1.833   3.948   0.980  0.9357  1.9657 -1.9857
 1568TIP3   OH226262   3.879   1.271   7.807 -0.1917  0.0414 -0.3828
 1568TIP3    H126263   3.941   1.333   7.846  0.4246 -1.4445  1.0986
 1568TIP3    H226264   3.913   1.185   7.829 -1.8855 -0.8470 -1.0254
 1569TIP3   OH226265   4.669   6.044   1.698  0.1606 -0.2700  0.2444
 1569TIP3    H126266   4.686   6.103   1.625 -0.5316 -0.1558  0.1700
 1569TIP3    H226267   4.753   6.000   1.713  0.4935  0.2102 -0.1603
 1570TIP3   OH226268   4.914   4.466   7.566  0.2459  0.1499  0.1347
 1570TIP3    H126269   4.994   4.459   7.515  0.2134 -1.9754  0.2853
 1570TIP3    H226270   4.843   4.469   7.502  0.3843  1.2609  0.0179
 1571TIP3   OH226271   2.193   5.182   0.933  0.0999  0.1149  0.1844
 1571TIP3    H126272   2.274   5.143   0.901  0.1484  0.9393 -0.7467
 1571TIP3    H226273   2.178   5.258   0.876 -1.0401  0.2900  0.6773
 1572TIP3   OH226274   3.536   1.486   7.902 -0.3024  0.4092 -0.3287
 1572TIP3    H126275   3.581   1.415   7.947 -0.2687  0.1191 -0.8138
 1572TIP3    H226276   3.460   1.505   7.957 -0.1549  0.1902 -0.0497
 1573TIP3   OH226277   3.754   4.416   0.086 -0.0170 -0.4755  0.2818
 1573TIP3    H126278   3.827   4.441   0.142 -0.2022 -1.9547  1.2528
 1573TIP3    H226279   3.689   4.380   0.147 -0.8457 -0.7609 -0.7392
 1574TIP3   OH226280   1.072   3.462   6.084  0.2253  0.5807  0.0609
 1574TIP3    H126281   1.106   3.383   6.127  1.1987  0.3085 -1.1502
 1574TIP3    H226282   1.150   3.507   6.053 -0.4418  0.5263 -1.8155
 1575TIP3   OH226283   2.447   1.558   0.994  0.4728  0.8956  0.6619
 1575TIP3    H126284   2.428   1.465   1.009 -1.8683  1.4146  1.3066
 1575TIP3    H226285   2.465   1.564   0.901 -1.2320  0.0356  0.2292
 1576TIP3   OH226286   2.484   0.843   7.495  0.2025 -0.4466 -0.8061
 1576TIP3    H126287   2.497   0.932   7.462 -1.3902 -0.2954 -1.0963
 1576TIP3    H226288   2.454   0.856   7.585 -0.5595 -0.6552 -1.0232
 1577TIP3   OH226289   0.910   3.282   7.924  0.2376  0.1982 -0.5124
 1577TIP3    H126290   0.829   3.290   7.976 -0.8339  0.2649 -2.1142
 1577TIP3    H226291   0.974   3.246   7.985 -1.3936 -1.2417  0.4675
 1578TIP3   OH226292   4.725   1.908   0.702 -0.0830 -0.0511 -0.1620
 1578TIP3    H126293   4.738   1.872   0.614 -1.1513 -0.3632 -0.1980
 1578TIP3    H226294   4.752   1.999   0.694 -0.4667  0.0050 -0.8957
 1579TIP3   OH226295   6.820   1.384   6.267 -0.3644 -0.2005 -0.5114
 1579TIP3    H126296   6.837   1.294   6.239 -1.1504 -0.5303  0.0223
 1579TIP3    H226297   6.903   1.415   6.301 -0.4877 -1.3730  1.0043
 1580TIP3   OH226298   4.138   4.411   2.659  0.0861 -0.1459 -0.1147
 1580TIP3    H126299   4.051   4.391   2.692  0.5570 -1.2815  0.4764
 1580TIP3    H226300   4.154   4.344   2.593 -0.4379  1.4919 -2.0370
 1581TIP3   OH226301   2.955   3.869   6.417  0.7644 -0.1755  0.1554
 1581TIP3    H126302   3.014   3.800   6.447 -1.0839 -2.6634 -1.5363
 1581TIP3    H226303   2.961   3.867   6.322 -1.1852  0.2680 -0.0224
 1582TIP3   OH226304   2.542   4.585   7.525  0.2133  0.2244  0.2988
 1582TIP3    H126305   2.599   4.660   7.512 -0.9792  1.1932  0.5241
 1582TIP3    H226306   2.546   4.568   7.619  3.0141 -2.1052 -0.0922
 1583TIP3   OH226307   1.748   3.432   7.963  0.0662 -0.4922 -0.1249
 1583TIP3    H126308   1.761   3.522   7.994  1.3611 -0.5745 -0.3605
 1583TIP3    H226309   1.664   3.433   7.918  0.4263  0.7924 -0.8014
 1584TIP3   OH226310   1.886   4.684   0.943  0.8733  0.2384 -0.4228
 1584TIP3    H126311   1.840   4.609   0.981  0.4958  0.1184 -1.0928
 1584TIP3    H226312   1.978   4.669   0.963  0.6207  0.5902  1.1311
 1585TIP3   OH226313   2.984   3.780   0.194  0.2638 -1.2027  0.0441
 1585TIP3    H126314   2.908   3.739   0.152  0.5872 -1.8457  0.0801
 1585TIP3    H226315   3.052   3.777   0.128  0.7103 -2.0186  0.5306
 1586TIP3   OH226316   0.299   4.876   0.176 -0.5200  0.0166 -0.3187
 1586TIP3    H126317   0.379   4.845   0.219  0.1289 -0.0827 -1.5367
 1586TIP3    H226318   0.263   4.942   0.236  0.0894 -0.4464  0.5757
 1587TIP3   OH226319   0.300   3.993   0.389 -0.1633  0.1394 -0.1607
 1587TIP3    H126320   0.212   3.960   0.371 -0.7302  1.6902 -0.3724
 1587TIP3    H226321   0.300   4.011   0.483  1.2329 -3.4211  0.6908
 1588TIP3   OH226322   1.784   3.267   8.393  0.1579 -0.5784  0.5921
 1588TIP3    H126323   1.749   3.283   8.306  1.6759  0.3308  0.1025
 1588TIP3    H226324   1.786   3.354   8.434 -2.0311 -1.1838  2.1827
 1589TIP3   OH226325   5.261   6.699   2.147  0.1842 -0.3325 -0.7797
 1589TIP3    H126326   5.258   6.605   2.133  0.1802 -0.3519 -0.6514
 1589TIP3    H226327   5.347   6.725   2.116  0.7466 -0.5975  0.4927
 1590TIP3   OH226328   1.932   0.877   1.091 -0.1825  0.3344 -0.4720
 1590TIP3    H126329   1.997   0.808   1.077 -0.4282 -0.0614  0.2839
 1590TIP3    H226330   1.848   0.831   1.094 -0.2415  0.4890  1.2907
 1591TIP3   OH226331   0.199   3.672   6.173  0.6746  0.7155  0.6482
 1591TIP3    H126332   0.196   3.583   6.138  0.5285  1.0335 -0.1660
 1591TIP3    H226333   0.290   3.683   6.202  0.8676  0.5395  0.1195
 1592TIP3   OH226334   4.235   5.353   8.269  0.0171 -0.0607 -0.3799
 1592TIP3    H126335   4.174   5.315   8.332  0.9722 -2.5975 -0.8571
 1592TIP3    H226336   4.295   5.282   8.248  0.7633  1.1819 -2.8876
 1593TIP3   OH226337   4.298   6.628   0.840 -0.5218 -0.5765 -0.0814
 1593TIP3    H126338   4.303   6.536   0.865  0.6067  0.1143  2.5040
 1593TIP3    H226339   4.226   6.663   0.892  0.0618  0.3259  0.1367
 1594TIP3   OH226340   5.061   1.883   6.632  0.3897  1.0043  0.0460
 1594TIP3    H126341   5.027   1.855   6.546  1.2064  0.0298  0.0253
 1594TIP3    H226342   5.030   1.973   6.641  2.2061  1.9761 -2.3155
 1595TIP3   OH226343   5.580   2.949   0.036  0.3829 -0.0265  0.1658
 1595TIP3    H126344   5.630   2.938  -0.045  1.5881 -0.8381  0.9911
 1595TIP3    H226345   5.563   2.860   0.066  0.1499  0.2740  0.9422
 1596TIP3   OH226346   6.678   4.930   7.092 -0.0271 -0.3016  0.7128
 1596TIP3    H126347   6.690   4.907   7.184 -0.0942 -1.9530  0.3319
 1596TIP3    H226348   6.675   5.026   7.092 -0.5414 -0.2808  2.4844
 1597TIP3   OH226349   6.091   0.481   1.144  0.4691 -0.1309  0.7183
 1597TIP3    H126350   6.030   0.413   1.173 -0.0584  0.0042 -0.0425
 1597TIP3    H226351   6.053   0.563   1.176  0.0769 -0.0170 -0.0242
 1598TIP3   OH226352   5.735   1.009   8.133  0.1019 -0.1602 -0.0288
 1598TIP3    H126353   5.825   1.029   8.156  0.1560  1.9046 -1.7543
 1598TIP3    H226354   5.741   0.939   8.067  0.3715 -0.6668  0.5314
 1599TIP3   OH226355   0.593   2.189   7.872  0.2432  0.7052  0.3684
 1599TIP3    H126356   0.584   2.284   7.860  3.6290  1.1043  0.0852
 1599TIP3    H226357   0.531   2.168   7.942 -0.0289  3.2649  0.9926
 1600TIP3   OH226358   5.220   1.900   0.239  0.1517  0.2045  0.1065
 1600TIP3    H126359   5.241   1.810   0.264  1.5134  0.7114  0.8469
 1600TIP3    H226360   5.137   1.892   0.192  1.4773 -1.7613 -2.1010
 1601TIP3   OH226361   6.659   3.161   1.237  0.0268 -0.0238 -0.4124
 1601TIP3    H126362   6.618   3.077   1.215  1.7033 -0.6586 -1.3086
 1601TIP3    H226363   6.637   3.176   1.329  1.8762 -2.8383  0.6263
 1602TIP3   OH226364   2.397   2.065   7.292  0.4210  0.3115 -0.1329
 1602TIP3    H126365   2.460   1.995   7.302 -0.9164 -0.8852  0.2426
 1602TIP3    H226366   2.313   2.027   7.319 -0.2838  2.1715  0.5044
 1603TIP3   OH226367   3.534   4.556   8.099 -0.3299 -1.4113  0.0959
 1603TIP3    H126368   3.559   4.502   8.024 -2.2462 -2.5019  0.1846
 1603TIP3    H226369   3.455   4.515   8.133 -1.1895  0.7836  0.9147
 1604TIP3   OH226370   1.061   1.899   0.650  0.0522 -0.1708  0.0873
 1604TIP3    H126371   1.093   1.891   0.560  1.4260  1.2332  0.4130
 1604TIP3    H226372   1.051   1.809   0.680 -0.9537 -0.6802 -1.6246
 1605TIP3   OH226373   4.686   1.792   8.172 -1.2118 -0.3082  0.0619
 1605TIP3    H126374   4.610   1.750   8.213 -1.4808 -1.1963 -1.2662
 1605TIP3    H226375   4.687   1.757   8.083  0.5683 -0.0506 -0.0586
 1606TIP3   OH226376   2.661   2.923   0.639 -0.2844 -0.3087 -0.4803
 1606TIP3    H126377   2.578   2.940   0.595 -0.6597 -1.0278 -0.0758
 1606TIP3    H226378   2.723   2.903   0.569 -0.1601  1.3274 -0.8650
 1607TIP3   OH226379   3.807   3.930   7.382 -0.2193  0.0137  0.0656
 1607TIP3    H126380   3.876   3.968   7.327 -0.9363  0.7292 -0.3669
 1607TIP3    H226381   3.854   3.888   7.454  0.6644  0.6544 -0.1156
 1608TIP3   OH226382   1.667   6.011   0.988  0.4885 -0.4906 -0.7177
 1608TIP3    H126383   1.680   5.984   1.079 -1.5414  0.6688 -0.0134
 1608TIP3    H226384   1.620   6.094   0.994  2.0600  0.6585 -2.8467
 1609TIP3   OH226385   5.997   1.440   8.300 -0.3784  0.8158  0.4130
 1609TIP3    H126386   5.963   1.501   8.234  1.9153  1.6779 -0.0744
 1609TIP3    H226387   6.092   1.440   8.285 -0.1379 -1.5211  1.5911
 1610TIP3   OH226388   2.070   3.603   7.933  0.5099 -0.3419  0.6645
 1610TIP3    H126389   2.104   3.656   8.005 -1.2180  1.2513  0.3925
 1610TIP3    H226390   2.086   3.513   7.959  0.2615  0.2145  2.8814
 1611TIP3   OH226391   6.205   2.579   6.908 -0.3654  0.3066 -0.1197
 1611TIP3    H126392   6.220   2.513   6.840 -2.0937 -0.2521 -0.0071
 1611TIP3    H226393   6.260   2.653   6.882 -0.5837 -0.0865 -1.8535
 1612TIP3   OH226394   6.144   2.432   1.227  0.4268 -0.2575 -0.0917
 1612TIP3    H126395   6.077   2.494   1.256 -0.8550 -1.5639 -0.1438
 1612TIP3    H226396   6.219   2.487   1.203 -0.5636  1.2377  0.1068
 1613TIP3   OH226397   0.875   0.576   0.146 -0.7400 -0.0251 -0.0633
 1613TIP3    H126398   0.877   0.563   0.241 -1.7618 -1.0408 -0.1712
 1613TIP3    H226399   0.783   0.590   0.125 -0.4797  0.5610 -0.8704
 1614TIP3   OH226400   2.728   5.144   7.078 -0.1541 -0.5778  0.5381
 1614TIP3    H126401   2.711   5.078   7.011  0.4810 -0.5005  0.2969
 1614TIP3    H226402   2.664   5.125   7.147 -3.5769  1.6824 -1.6966
 1615TIP3   OH226403   6.100   0.485   0.804  0.9884 -0.5234 -0.1949
 1615TIP3    H126404   6.088   0.579   0.812  2.3148 -0.3854  0.5515
 1615TIP3    H226405   6.026   0.447   0.851  0.0119  0.1104 -1.1760
 1616TIP3   OH226406   1.817   0.469   2.189  0.3062  0.2973  0.1641
 1616TIP3    H126407   1.774   0.384   2.183  2.2983 -0.6761 -1.0199
 1616TIP3    H226408   1.765   0.525   2.131 -1.7146  0.2931  1.8236
 1617TIP3   OH226409   1.291   3.588   1.989  0.1939 -0.2836  0.7605
 1617TIP3    H126410   1.267   3.644   1.915  4.7224  1.9415  0.5881
 1617TIP3    H226411   1.338   3.515   1.949 -1.9148 -2.0011  1.2683
 1618TIP3   OH226412   2.892   0.856   7.473 -0.5039  0.8150 -0.4322
 1618TIP3    H126413   2.819   0.909   7.442  0.6269  2.6066 -0.1686
 1618TIP3    H226414   2.887   0.861   7.568  1.1291  2.7452 -0.3846
 1619TIP3   OH226415   4.394   3.675   0.130  0.6612 -0.0526  0.3264
 1619TIP3    H126416   4.363   3.720   0.208  0.9944  0.0837  0.3806
 1619TIP3    H226417   4.486   3.699   0.123  0.1855  1.5124 -1.1905
 1620TIP3   OH226418   6.010   1.012   8.534  0.7512  0.0422  0.6642
 1620TIP3    H126419   6.050   0.951   8.472  2.4265  2.2641 -0.5665
 1620TIP3    H226420   6.065   1.007   8.612 -1.7563 -3.2816  2.4932
 1621TIP3   OH226421   0.111   5.082   0.795 -0.2952  0.3562 -0.0048
 1621TIP3    H126422   0.207   5.091   0.797 -0.3219  0.5274  0.6450
 1621TIP3    H226423   0.087   5.108   0.706  0.3649 -0.7757 -0.5474
 1622TIP3   OH226424   6.273   5.677   8.450  0.6742  0.0374 -0.1272
 1622TIP3    H126425   6.288   5.591   8.489 -0.8211 -0.7079 -1.0888
 1622TIP3    H226426   6.177   5.683   8.442  0.8114  1.2695 -1.2051
 1623TIP3   OH226427   5.934   4.535   7.581  0.2011  0.0330  0.1349
 1623TIP3    H126428   5.873   4.601   7.614  0.6446  0.0625  0.9128
 1623TIP3    H226429   5.878   4.463   7.551 -0.3927  1.3950 -2.2653
 1624TIP3   OH226430   6.224   2.656   0.936  0.1978 -0.3749  0.1258
 1624TIP3    H126431   6.315   2.646   0.961 -0.7192 -3.4363  2.9113
 1624TIP3    H226432   6.185   2.710   1.004 -0.2317  0.4193 -0.7197
 1625TIP3   OH226433   1.660   3.116   1.394 -0.0267  0.3028  0.5877
 1625TIP3    H126434   1.716   3.192   1.387 -0.0353  0.2964  0.4505
 1625TIP3    H226435   1.581   3.139   1.345 -0.1825  0.3465  0.8546
 1626TIP3   OH226436   0.597   4.996   7.140 -0.3769 -0.1965  0.1725
 1626TIP3    H126437   0.545   5.048   7.079  0.6642  0.0783 -0.4969
 1626TIP3    H226438   0.673   4.968   7.090  1.1428  1.0567  1.6469
 1627TIP3   OH226439   1.442   3.000   1.516 -0.1342  0.5929  0.2192
 1627TIP3    H126440   1.459   2.971   1.606 -0.8419  3.2685  1.3179
 1627TIP3    H226441   1.529   3.016   1.479  0.1473 -0.0466  0.5767
 1628TIP3   OH226442   2.887   1.336   0.446  0.0600  0.2490  0.1095
 1628TIP3    H126443   2.941   1.297   0.378  1.4072 -0.7887  1.6967
 1628TIP3    H226444   2.804   1.289   0.440  0.0622  0.3530 -0.9526
 1629TIP3   OH226445   6.486   2.235   6.705  0.1162  0.0296 -0.4893
 1629TIP3    H126446   6.479   2.250   6.611 -0.4208 -2.4508 -0.9344
 1629TIP3    H226447   6.551   2.298   6.735 -0.8647  1.9765 -2.1897
 1630TIP3   OH226448   2.056   3.960   6.452  0.5042  0.1633 -0.1372
 1630TIP3    H126449   2.061   4.056   6.461  0.0562  0.0626  1.5099
 1630TIP3    H226450   2.106   3.927   6.527  0.3728 -0.9018 -0.5096
 1631TIP3   OH226451   6.517   5.816   7.502 -0.1479  0.2066  0.2671
 1631TIP3    H126452   6.480   5.903   7.517 -1.3863 -0.4433  1.0887
 1631TIP3    H226453   6.554   5.822   7.414 -1.3169  1.2042 -0.1984
 1632TIP3   OH226454   0.096   0.217   1.543 -0.1339 -0.2803 -0.3639
 1632TIP3    H126455   0.012   0.236   1.502 -1.0983 -0.2683  1.5225
 1632TIP3    H226456   0.158   0.274   1.498 -2.0593  3.9354  1.7354
 1633TIP3   OH226457   3.845   2.211   1.957 -1.0122  0.2367  0.5050
 1633TIP3    H126458   3.793   2.253   2.025 -0.8524  0.0204  0.7656
 1633TIP3    H226459   3.816   2.251   1.875  0.3205  2.0685  0.8787
 1634TIP3   OH226460   3.100   5.130   7.240 -0.0621  0.2300  0.3091
 1634TIP3    H126461   3.186   5.098   7.269  0.7390  1.2627 -0.7965
 1634TIP3    H226462   3.121   5.189   7.168 -1.6776  1.0227  0.4635
 1635TIP3   OH226463   1.161   2.034   0.131 -0.5146 -0.1007 -0.7180
 1635TIP3    H126464   1.206   1.952   0.151 -0.8019 -0.3418 -1.0595
 1635TIP3    H226465   1.183   2.091   0.205  0.4556 -0.1656 -0.9368
 1636TIP3   OH226466   5.460   1.018   6.699  0.0791  0.7371 -0.1110
 1636TIP3    H126467   5.500   1.088   6.647 -1.1933  1.2800 -0.4044
 1636TIP3    H226468   5.424   0.958   6.634  2.7461 -1.2356  0.0876
 1637TIP3   OH226469   4.791   0.629   1.868 -0.5668 -0.0246  0.2643
 1637TIP3    H126470   4.745   0.602   1.789 -0.8496  0.4807  0.2561
 1637TIP3    H226471   4.845   0.553   1.891 -1.4814 -0.6711  0.3385
 1638TIP3   OH226472   6.580   6.303   0.581  0.3593  0.3516  0.1613
 1638TIP3    H126473   6.625   6.300   0.496  0.2566  1.3812  0.0563
 1638TIP3    H226474   6.487   6.307   0.557  0.3327  0.6746  0.3303
 1639TIP3   OH226475   2.337   4.256   6.219  0.3259  0.1218  0.0344
 1639TIP3    H126476   2.246   4.287   6.220  0.2381 -0.1268  1.0550
 1639TIP3    H226477   2.385   4.322   6.270  1.0121  1.0335 -1.6955
 1640TIP3   OH226478   6.577   4.071   1.076 -0.1587 -0.0933 -0.0191
 1640TIP3    H126479   6.649   4.127   1.104 -0.6305  0.3803  0.2724
 1640TIP3    H226480   6.617   3.986   1.062  0.4805  0.1948  0.0180
 1641TIP3   OH226481   0.045   6.322   7.303  0.7271  0.0307  0.0088
 1641TIP3    H126482  -0.025   6.388   7.299  0.4404 -0.3036 -0.6263
 1641TIP3    H226483   0.002   6.244   7.338  0.1664 -0.9058 -2.5521
 1642TIP3   OH226484   5.549   2.292   7.657  0.5842  0.1654  0.3366
 1642TIP3    H126485   5.498   2.215   7.682  0.1385  0.3864  0.1264
 1642TIP3    H226486   5.528   2.305   7.564  3.6640 -1.7920 -0.7981
 1643TIP3   OH226487   4.112   0.603   7.943  0.1433 -0.5831  0.0494
 1643TIP3    H126488   4.051   0.606   8.017  0.6217 -0.4626  0.4463
 1643TIP3    H226489   4.175   0.535   7.968  0.9895  0.2760  0.2955
 1644TIP3   OH226490   4.488   3.136   0.997 -0.0221  0.3452  0.6850
 1644TIP3    H126491   4.465   3.227   0.977 -0.9310  0.2372  1.1729
 1644TIP3    H226492   4.552   3.141   1.067  0.5332  0.6279  0.1618
 1645TIP3   OH226493   6.464   4.171   0.147 -0.4874 -0.0807  0.2080
 1645TIP3    H126494   6.504   4.183   0.061  0.3027 -2.0945  0.2415
 1645TIP3    H226495   6.380   4.129   0.129 -0.3054 -0.5395  0.4085
 1646TIP3   OH226496   1.188   1.926   0.408 -0.2305  0.5895  0.0477
 1646TIP3    H126497   1.161   2.015   0.384 -2.1400 -0.8433 -4.0065
 1646TIP3    H226498   1.284   1.928   0.402 -0.2400  2.2873 -0.1415
 1647TIP3   OH226499   4.644   0.480   8.011  0.3850 -0.0541 -0.4719
 1647TIP3    H126500   4.673   0.393   8.037 -0.5482 -0.3823 -0.5041
 1647TIP3    H226501   4.657   0.483   7.916  2.7477  0.7499 -0.1917
 1648TIP3   OH226502   3.850   4.041   0.114 -0.0878 -0.0370  0.3142
 1648TIP3    H126503   3.801   4.026   0.194 -1.2033 -0.3257 -0.4057
 1648TIP3    H226504   3.935   4.074   0.143  0.7282 -3.0496  1.7985
 1649TIP3   OH226505   5.972   0.123   0.998  0.7289  0.3067  0.9101
 1649TIP3    H126506   6.036   0.090   0.934 -2.2694 -0.3281 -2.0909
 1649TIP3    H226507   5.961   0.051   1.060  0.0938 -1.3230 -0.9454
 1650TIP3   OH226508   4.579   2.780   1.076 -0.1329  0.1180  0.1747
 1650TIP3    H126509   4.496   2.786   1.027  0.6458 -0.5993 -1.3105
 1650TIP3    H226510   4.555   2.736   1.157 -1.4212  1.0447  0.3389
 1651TIP3   OH226511   4.035   3.633   8.012 -0.0517 -0.0468 -1.2077
 1651TIP3    H126512   4.056   3.623   8.105 -0.1776  1.6718 -0.9628
 1651TIP3    H226513   4.011   3.545   7.984  1.0273 -0.8172  0.1126
 1652TIP3   OH226514   4.676   5.571   6.759 -0.1190  0.0231 -0.0822
 1652TIP3    H126515   4.589   5.544   6.729  0.0717 -0.2424 -0.4074
 1652TIP3    H226516   4.725   5.489   6.765 -0.1572  0.0635  0.9940
 1653TIP3   OH226517   4.663   0.752   0.661  0.0323 -0.8235 -0.0316
 1653TIP3    H126518   4.731   0.813   0.634 -0.0161 -0.1516  1.2842
 1653TIP3    H226519   4.581   0.799   0.646 -0.0973 -1.1899 -0.5148
 1654TIP3   OH226520   4.233   2.018   8.438  0.1737 -0.0589 -0.0561
 1654TIP3    H126521   4.220   2.031   8.344 -0.5192  0.7500  0.1450
 1654TIP3    H226522   4.185   2.089   8.480  0.8062 -0.1714  0.9067
 1655TIP3   OH226523   2.780   4.997   8.521  0.2298  0.3344 -0.0197
 1655TIP3    H126524   2.842   4.977   8.591  0.2117 -2.0127 -0.5969
 1655TIP3    H226525   2.711   4.931   8.530 -0.3787  0.7153 -1.5118
 1656TIP3   OH226526   5.744   1.888   8.586  0.8482 -0.6469  0.1116
 1656TIP3    H126527   5.658   1.850   8.569  1.0074 -0.4882 -1.1321
 1656TIP3    H226528   5.804   1.837   8.533  1.6621 -1.2618  1.5631
 1657TIP3   OH226529   3.745   4.926   0.542  0.2306 -0.0720 -0.5146
 1657TIP3    H126530   3.836   4.918   0.515  0.3049 -0.1242 -0.2488
 1657TIP3    H226531   3.708   4.838   0.532  1.0642 -0.8724  2.4755
 1658TIP3   OH226532   6.109   3.064   2.613  0.0784  0.3009 -0.0112
 1658TIP3    H126533   6.014   3.071   2.602 -0.0624 -0.3305  0.6525
 1658TIP3    H226534   6.130   2.975   2.582  0.0467 -0.5243  2.1673
 1659TIP3   OH226535   2.972   2.817   6.855  0.2684 -0.6322 -0.2833
 1659TIP3    H126536   2.966   2.801   6.949 -4.2147 -2.1347 -0.6127
 1659TIP3    H226537   2.984   2.731   6.816 -1.7625 -0.5750 -1.1657
 1660TIP3   OH226538   6.648   6.563   7.630 -0.0209  0.0315  0.6769
 1660TIP3    H126539   6.712   6.567   7.701 -0.4445  0.7783  1.0333
 1660TIP3    H226540   6.569   6.605   7.666  0.2249  1.8001 -0.7072
 1661TIP3   OH226541   2.592   5.512   1.397  0.3661  0.2599  0.6734
 1661TIP3    H126542   2.499   5.522   1.378  0.6195  0.0988 -0.7439
 1661TIP3    H226543   2.631   5.483   1.314  1.6815  0.3384  1.2352
 1662TIP3   OH226544   3.920   4.380   0.508 -0.1636 -0.3064  0.3161
 1662TIP3    H126545   3.825   4.365   0.512 -0.5036  0.4816 -2.4798
 1662TIP3    H226546   3.958   4.295   0.532 -1.5651 -0.6964  1.3164
 1663TIP3   OH226547   2.155   5.956   1.221 -0.8113  0.0523  0.7036
 1663TIP3    H126548   2.121   5.991   1.138 -1.9431 -0.8544  0.7603
 1663TIP3    H226549   2.109   6.007   1.288 -0.6240  0.1260  0.7754
 1664TIP3   OH226550   6.458   2.355   1.349  0.7894 -0.2419 -0.0898
 1664TIP3    H126551   6.482   2.265   1.326  0.9413 -0.7366  1.8657
 1664TIP3    H226552   6.390   2.345   1.415 -0.8919  1.1361 -1.5127
 1665TIP3   OH226553   4.757   0.603   8.492 -0.0320 -0.3004 -0.1290
 1665TIP3    H126554   4.772   0.510   8.473 -1.0201 -0.3977 -0.4502
 1665TIP3    H226555   4.663   0.609   8.510  0.0089  0.6611 -0.2178
 1666TIP3   OH226556   0.880   1.568   6.827  0.7290 -0.3220 -0.5332
 1666TIP3    H126557   0.822   1.506   6.870 -0.0844  0.9878  0.3218
 1666TIP3    H226558   0.850   1.569   6.736 -0.2188 -0.0979 -0.2266
 1667TIP3   OH226559   0.552   2.196   8.270  0.2224 -0.7208  0.1854
 1667TIP3    H126560   0.515   2.260   8.332 -2.2047 -0.7780 -1.0974
 1667TIP3    H226561   0.525   2.111   8.305 -0.7306 -0.7766 -0.6667
 1668TIP3   OH226562   0.677   5.820   0.580 -0.4562  0.8482 -0.0763
 1668TIP3    H126563   0.715   5.908   0.588  0.4488  0.4743 -0.0743
 1668TIP3    H226564   0.741   5.771   0.528 -2.0438  0.7998 -2.1210
 1669TIP3   OH226565   4.645   0.556   0.219  0.3390  0.0909  0.5370
 1669TIP3    H126566   4.571   0.563   0.279 -1.3258 -1.6644 -1.2035
 1669TIP3    H226567   4.637   0.632   0.161 -1.5575 -1.3032 -1.1256
 1670TIP3   OH226568   1.596   1.632   1.409 -0.5534  0.4720 -0.1768
 1670TIP3    H126569   1.628   1.672   1.328  1.0607 -1.4799 -0.5731
 1670TIP3    H226570   1.671   1.637   1.469 -0.8527 -0.4857  0.2957
 1671TIP3   OH226571   0.501   0.782   1.087 -0.1195  0.6268 -0.5293
 1671TIP3    H126572   0.542   0.732   1.017  1.2561  0.0189  0.6622
 1671TIP3    H226573   0.568   0.787   1.156 -2.0160 -0.3774  1.5037
 1672TIP3   OH226574   5.776   3.515   7.466 -0.0304 -0.4971  0.4523
 1672TIP3    H126575   5.848   3.540   7.407  0.4657 -1.0916  0.8065
 1672TIP3    H226576   5.698   3.547   7.421  0.4232 -0.1098 -0.0850
 1673TIP3   OH226577   2.159   1.811   1.263  0.1605  0.2843  0.1081
 1673TIP3    H126578   2.118   1.838   1.181 -0.7908 -3.0770 -0.7087
 1673TIP3    H226579   2.101   1.743   1.297  1.8341 -0.1672  2.2896
 1674TIP3   OH226580   6.686   1.475   1.356 -0.0578  0.0325  0.0686
 1674TIP3    H126581   6.640   1.559   1.364 -0.5308 -0.3326  1.2994
 1674TIP3    H226582   6.776   1.500   1.333 -0.4342  0.8200 -0.6262
 1675TIP3   OH226583   1.701   4.692   0.044 -0.4102 -0.4392  0.2082
 1675TIP3    H126584   1.684   4.600   0.028 -0.6420 -0.4445  0.4950
 1675TIP3    H226585   1.663   4.710   0.129  2.0177 -0.7435  1.4447
 1676TIP3   OH226586   0.239   3.548   7.113 -0.2682  0.3842  0.1685
 1676TIP3    H126587   0.248   3.643   7.125 -0.2882  0.3970  0.0821
 1676TIP3    H226588   0.145   3.535   7.102 -0.2715  0.3472  0.2389
 1677TIP3   OH226589   1.135   0.592   8.136 -1.1754 -0.6981 -0.2089
 1677TIP3    H126590   1.208   0.534   8.114 -0.4500  0.4962 -1.0945
 1677TIP3    H226591   1.064   0.564   8.078 -0.8791 -0.8088 -0.5261
 1678TIP3   OH226592   5.812   2.552   7.375 -0.5791  0.3198 -0.0402
 1678TIP3    H126593   5.774   2.521   7.293 -0.8444  0.2042  0.1223
 1678TIP3    H226594   5.745   2.533   7.441  0.2563 -1.0475  0.4608
 1679TIP3   OH226595   3.851   4.351   8.109 -0.2676  0.1902  0.0610
 1679TIP3    H126596   3.862   4.395   8.025 -0.0324 -1.5431 -0.8433
 1679TIP3    H226597   3.762   4.317   8.108 -0.3243  0.3020  0.5948
 1680TIP3   OH226598   2.693   6.271   8.519 -0.3126 -0.2201  0.5714
 1680TIP3    H126599   2.607   6.310   8.538  0.0759  0.7873  0.3172
 1680TIP3    H226600   2.754   6.318   8.575  0.1139 -0.8102  0.6168
 1681TIP3   OH226601   1.387   4.133   1.665  0.1206  0.1963 -0.5657
 1681TIP3    H126602   1.355   4.198   1.728 -1.2079 -1.4021  0.4874
 1681TIP3    H226603   1.466   4.098   1.707  0.3876  0.5673 -0.7572
 1682TIP3   OH226604   5.770   3.082   1.208  0.4263 -0.1232 -0.5316
 1682TIP3    H126605   5.746   3.090   1.301 -0.5281  2.3084 -0.9130
 1682TIP3    H226606   5.754   2.990   1.187 -1.0559 -0.3483  1.2746
 1683TIP3   OH226607   4.108   3.991   7.700 -0.1899  0.1767 -0.1211
 1683TIP3    H126608   4.092   4.086   7.704  1.3632  0.4002  2.8182
 1683TIP3    H226609   4.195   3.983   7.661 -0.3376 -0.0614 -0.4059
 1684TIP3   OH226610   5.381   0.512   0.803  0.4627 -0.3553 -0.2659
 1684TIP3    H126611   5.328   0.589   0.782  0.7991 -0.4121 -1.3934
 1684TIP3    H226612   5.393   0.517   0.898 -2.6398 -1.0340  0.2842
 1685TIP3   OH226613   6.439   3.421   1.324  0.0152 -0.1122 -0.2103
 1685TIP3    H126614   6.344   3.428   1.328 -0.0397 -0.3067 -1.0121
 1685TIP3    H226615   6.469   3.444   1.412 -0.8793 -1.8751  0.6030
 1686TIP3   OH226616   3.989   4.596   7.664  0.1392  0.5449  0.3881
 1686TIP3    H126617   4.054   4.642   7.611  1.2435 -0.5804  0.7179
 1686TIP3    H226618   3.935   4.549   7.599 -1.7230  3.0561 -0.0429
 1687TIP3   OH226619   3.649   6.488   7.914 -0.0768 -0.3572  0.2952
 1687TIP3    H126620   3.740   6.475   7.888 -0.4058  0.1114 -1.2608
 1687TIP3    H226621   3.611   6.400   7.915 -0.5190 -0.3380 -2.9582
 1688TIP3   OH226622   1.297   6.810   0.314 -0.8110  0.3587  0.8722
 1688TIP3    H126623   1.269   6.721   0.335 -0.5940  0.0380 -0.1616
 1688TIP3    H226624   1.307   6.852   0.399  2.5847 -1.6332  1.6361
 1689TIP3   OH226625   5.180   0.031   1.535  0.2548 -0.4488  0.1596
 1689TIP3    H126626   5.257   0.062   1.582 -0.7029  0.6625  1.0614
 1689TIP3    H226627   5.125   0.109   1.524 -1.3059 -1.4166  0.6691
 1690TIP3   OH226628   2.285   5.362   0.257 -0.5668 -0.2068  0.5675
 1690TIP3    H126629   2.241   5.401   0.182 -0.2580 -0.1039  0.4354
 1690TIP3    H226630   2.239   5.280   0.272  0.6512 -1.2634 -1.0653
 1691TIP3   OH226631   3.287   3.571   8.386 -0.2225  0.0127 -0.5411
 1691TIP3    H126632   3.314   3.489   8.343  0.8433 -0.2430  0.5307
 1691TIP3    H226633   3.360   3.631   8.371  0.2717 -0.1491  1.0186
 1692TIP3   OH226634   0.860   1.350   1.277 -0.2299 -0.4923 -0.2764
 1692TIP3    H126635   0.845   1.422   1.337 -1.9163 -1.4806  0.5490
 1692TIP3    H226636   0.774   1.327   1.243  0.2877 -1.9400 -0.7178
 1693TIP3   OH226637   4.235   2.629   7.680  0.0569  0.0998  0.2763
 1693TIP3    H126638   4.220   2.559   7.743 -1.3348  1.8787  2.0492
 1693TIP3    H226639   4.153   2.635   7.631 -0.6873  1.8047  1.6092
 1694TIP3   OH226640   3.968   5.330   2.142  0.0270  0.5209  0.3250
 1694TIP3    H126641   3.877   5.329   2.171 -0.1592  1.2091 -0.2065
 1694TIP3    H226642   4.011   5.263   2.195 -0.8836 -0.1379  0.2519
 1695TIP3   OH226643   1.273   0.167   8.158  0.3668  0.2572 -0.1052
 1695TIP3    H126644   1.265   0.182   8.252 -0.7109 -2.9728  0.4378
 1695TIP3    H226645   1.367   0.170   8.142  0.5027  2.3310  0.7071
 1696TIP3   OH226646   2.247   1.351   6.689 -0.4553 -0.7404  0.3342
 1696TIP3    H126647   2.220   1.275   6.639 -1.7349 -0.9025  1.2215
 1696TIP3    H226648   2.214   1.426   6.639 -0.4794 -0.8386  0.2033
 1697TIP3   OH226649   4.119   5.246   1.401 -0.4165  0.0938 -0.0860
 1697TIP3    H126650   4.129   5.211   1.489  0.7377 -1.7181 -0.8643
 1697TIP3    H226651   4.061   5.183   1.357 -1.1232  1.0690 -0.5880
 1698TIP3   OH226652   2.100   5.969   7.770 -0.1900 -0.2396  0.6052
 1698TIP3    H126653   2.049   5.901   7.727 -0.7146 -0.2634  1.2540
 1698TIP3    H226654   2.089   6.046   7.715  0.8392 -0.8028 -0.4262
 1699TIP3   OH226655   4.678   6.334   1.015 -0.0880  0.0056 -0.4819
 1699TIP3    H126656   4.643   6.300   1.097  0.1260 -0.5570 -0.6166
 1699TIP3    H226657   4.742   6.400   1.041  0.2552 -0.4377 -0.1838
 1700TIP3   OH226658   0.588   1.566   0.199 -0.1333 -0.2235 -0.3681
 1700TIP3    H126659   0.557   1.571   0.290 -0.4984  3.2442 -0.5478
 1700TIP3    H226660   0.508   1.551   0.148  0.0976 -2.3916 -0.2088
 1701TIP3   OH226661   0.604   4.157   0.138 -0.2975 -0.2617  0.4488
 1701TIP3    H126662   0.625   4.248   0.156 -1.1927 -0.0604  0.5246
 1701TIP3    H226663   0.508   4.153   0.143 -0.3164 -1.0375 -0.3142
 1702TIP3   OH226664   5.512   3.055   8.354  0.1891 -0.3018 -0.4472
 1702TIP3    H126665   5.511   2.959   8.357 -0.6971 -0.3073 -0.5081
 1702TIP3    H226666   5.581   3.077   8.291  1.2641 -0.8572  0.4946
 1703TIP3   OH226667   5.786   2.525   2.302  0.1230  0.0298  0.3715
 1703TIP3    H126668   5.705   2.477   2.319 -0.3562  0.2305 -1.2035
 1703TIP3    H226669   5.807   2.566   2.386 -2.2728  1.2918  0.4489
 1704TIP3   OH226670   4.039   6.852   7.010 -0.8232  0.2591  0.2182
 1704TIP3    H126671   4.084   6.862   7.094 -0.0373  1.4750 -0.3282
 1704TIP3    H226672   4.078   6.918   6.953 -0.1546 -1.6326 -1.6372
 1705TIP3   OH226673   5.496   6.538   2.266  0.6699  0.4464 -0.1328
 1705TIP3    H126674   5.519   6.630   2.280 -1.4933  0.8649  1.0255
 1705TIP3    H226675   5.417   6.540   2.213  1.8799 -0.8869 -2.1444
 1706TIP3   OH226676   4.725   3.076   7.501  0.0276  0.2142  0.4929
 1706TIP3    H126677   4.769   3.100   7.582 -0.3872 -0.2408  0.8529
 1706TIP3    H226678   4.640   3.041   7.528 -0.6724  1.2915 -0.1956
 1707TIP3   OH226679   1.176   6.379   2.536 -0.0109  0.2548  0.1786
 1707TIP3    H126680   1.147   6.465   2.505  1.6120  0.8965  0.3747
 1707TIP3    H226681   1.095   6.328   2.541 -0.7871  1.1965 -1.6672
 1708TIP3   OH226682   1.064   3.631   8.493  0.0789  0.6439  0.3203
 1708TIP3    H126683   1.104   3.716   8.475  1.0799  0.0228 -0.4634
 1708TIP3    H226684   1.007   3.647   8.569  1.7558  1.5758  1.4487
 1709TIP3   OH226685   4.919   5.549   7.450  0.0655 -0.1087 -0.7445
 1709TIP3    H126686   4.870   5.617   7.496 -1.6723 -1.2746 -0.7652
 1709TIP3    H226687   4.921   5.580   7.359 -0.1946  0.2093 -0.6470
 1710TIP3   OH226688   3.486   1.262   0.976 -0.3119 -0.4234 -0.3005
 1710TIP3    H126689   3.561   1.226   1.023  0.2864  1.6497  0.3947
 1710TIP3    H226690   3.502   1.239   0.884  1.1349 -0.0809 -0.1476
 1711TIP3   OH226691   3.819   6.510   1.883 -0.2183  0.4011  0.1621
 1711TIP3    H126692   3.759   6.452   1.837 -3.2102  3.1743  0.3004
 1711TIP3    H226693   3.784   6.516   1.972  2.0737 -0.2125  1.2030
 1712TIP3   OH226694   3.080   1.926   7.938 -0.6093 -0.7387  0.4750
 1712TIP3    H126695   3.163   1.915   7.985  0.6723  0.5034 -1.3522
 1712TIP3    H226696   3.014   1.892   7.998  1.1371 -1.1294  2.2939
 1713TIP3   OH226697   1.584   4.542   6.438  0.2155  0.1481 -0.1105
 1713TIP3    H126698   1.573   4.542   6.343 -0.1850  1.2122 -0.0808
 1713TIP3    H226699   1.633   4.462   6.457  1.7149  0.7191 -1.3888
 1714TIP3   OH226700   3.577   5.011   6.182 -0.0490  0.0586 -0.3474
 1714TIP3    H126701   3.604   5.101   6.202 -0.7546 -0.2473  2.4421
 1714TIP3    H226702   3.508   5.021   6.117 -0.7450  1.6558  0.5654
 1715TIP3   OH226703   3.727   6.479   6.574  0.0986 -0.8523 -0.1010
 1715TIP3    H126704   3.645   6.463   6.528 -1.0888 -0.9128  1.8829
 1715TIP3    H226705   3.759   6.562   6.539 -0.1638 -1.4015 -1.7344
 1716TIP3   OH226706   4.605   0.129   7.736  0.6330  0.5257 -0.0311
 1716TIP3    H126707   4.682   0.184   7.751  0.4394  0.3340  1.9145
 1716TIP3    H226708   4.632   0.042   7.766  0.1535  0.0965 -0.8148
 1717TIP3   OH226709   3.931   4.696   8.067 -0.3328 -0.1972 -0.0887
 1717TIP3    H126710   3.886   4.637   8.006 -0.6091  0.2887 -0.3557
 1717TIP3    H226711   3.909   4.784   8.036 -0.2179  0.0510  0.5264
 1718TIP3   OH226712   1.494   3.094   0.978 -0.2874 -0.1386  0.4974
 1718TIP3    H126713   1.415   3.144   0.955 -0.0978  0.7554  1.6869
 1718TIP3    H226714   1.515   3.045   0.899 -2.6709 -1.2606  0.4850
 1719TIP3   OH226715   6.752   6.205   0.752 -0.2794 -0.3380  0.5301
 1719TIP3    H126716   6.700   6.247   0.684 -0.5709  0.2387  1.1038
 1719TIP3    H226717   6.727   6.249   0.833  0.4809 -0.6272  0.9358
 1720TIP3   OH226718   1.306   1.751   7.170  0.0112 -0.2600 -0.4615
 1720TIP3    H126719   1.364   1.827   7.164  0.8530 -0.8356  0.0805
 1720TIP3    H226720   1.245   1.761   7.097 -0.1286  1.1188 -0.1976
 1721TIP3   OH226721   3.225   0.307   0.594  0.9115 -0.0283 -0.1827
 1721TIP3    H126722   3.245   0.369   0.664  2.2710 -0.2500 -0.3589
 1721TIP3    H226723   3.301   0.249   0.590 -0.0874 -1.3648 -0.4039
 1722TIP3   OH226724   3.263   6.644   7.172  0.0186 -0.7766  0.0051
 1722TIP3    H126725   3.216   6.702   7.112  0.5190 -0.6824 -0.3026
 1722TIP3    H226726   3.195   6.601   7.223 -0.3486  0.3744  0.5061
 1723TIP3   OH226727   3.402   0.254   8.549  0.5423  0.0375  0.1535
 1723TIP3    H126728   3.316   0.289   8.530  0.7894  0.1520 -0.8157
 1723TIP3    H226729   3.431   0.301   8.627 -0.2788 -0.0339  0.5127
 1724TIP3   OH226730   6.488   2.736   6.972  0.6768  0.5254  0.2496
 1724TIP3    H126731   6.550   2.701   6.909 -0.2797  0.3880 -0.6339
 1724TIP3    H226732   6.449   2.812   6.928 -2.8648 -1.7860 -1.0353
 1725TIP3   OH226733   5.430   4.536   7.563  0.1872  0.1659  0.2311
 1725TIP3    H126734   5.406   4.456   7.516 -0.9792  1.1215 -0.8789
 1725TIP3    H226735   5.369   4.539   7.637  0.8659 -0.4357  0.8352
 1726TIP3   OH226736   4.707   0.992   8.259 -0.5198 -0.4770 -0.5714
 1726TIP3    H126737   4.796   0.960   8.253  0.2690  1.2700  0.7804
 1726TIP3    H226738   4.711   1.081   8.224 -0.9331  0.8528  2.4594
 1727TIP3   OH226739   5.884   5.743   2.602 -0.3706  0.1340  0.4472
 1727TIP3    H126740   5.794   5.745   2.634 -1.5916 -0.9781 -2.5496
 1727TIP3    H226741   5.896   5.827   2.557 -0.5468 -0.3802 -0.5966
 1728TIP3   OH226742   3.517   4.176   1.381 -0.0480  0.0652  0.6806
 1728TIP3    H126743   3.451   4.205   1.318 -0.8422 -1.4614  0.7440
 1728TIP3    H226744   3.530   4.083   1.360  1.9420  0.2692  0.8125
 1729TIP3   OH226745   4.282   1.779   0.522  0.3490  0.6763 -0.0290
 1729TIP3    H126746   4.352   1.783   0.587  0.9209  0.7635 -0.6356
 1729TIP3    H226747   4.323   1.739   0.445 -0.8154 -1.2746  0.2819
 1730TIP3   OH226748   5.888   0.372   7.824  0.1927  0.1182  0.0273
 1730TIP3    H126749   5.886   0.277   7.816 -0.4085 -0.0015  1.2654
 1730TIP3    H226750   5.848   0.404   7.743  0.0789 -0.6944 -0.2507
 1731TIP3   OH226751   3.045   0.233   8.071  0.2768 -0.3101 -0.1658
 1731TIP3    H126752   2.953   0.223   8.047 -0.0740 -1.0654  1.3452
 1731TIP3    H226753   3.079   0.144   8.071  0.8918 -0.0785 -0.2577
 1732TIP3   OH226754   1.622   4.756   0.292 -0.4956 -0.4302  1.0287
 1732TIP3    H126755   1.677   4.834   0.282 -1.4745  0.0986 -0.6267
 1732TIP3    H226756   1.545   4.786   0.339 -0.1792 -0.7656  1.7699
 1733TIP3   OH226757   5.485   3.763   1.490  0.0631  0.7210 -0.3154
 1733TIP3    H126758   5.422   3.715   1.543  0.1975  0.3666 -0.4723
 1733TIP3    H226759   5.503   3.843   1.540 -1.4312  1.4216 -0.8521
 1734TIP3   OH226760   3.105   1.430   1.433  0.4984 -0.4985 -0.2282
 1734TIP3    H126761   3.148   1.359   1.386  0.9867 -0.2842 -0.1137
 1734TIP3    H226762   3.165   1.504   1.424 -0.0338 -0.0819 -0.3968
 1735TIP3   OH226763   2.625   2.271   1.728 -0.2208 -0.2452  0.3383
 1735TIP3    H126764   2.596   2.193   1.680 -0.7329  1.4705 -2.3604
 1735TIP3    H226765   2.719   2.274   1.713 -0.2402 -0.2008  0.2267
 1736TIP3   OH226766   4.857   1.900   8.450 -0.7005 -0.4332  0.3575
 1736TIP3    H126767   4.786   1.924   8.390  0.5116  0.1364 -0.9017
 1736TIP3    H226768   4.831   1.938   8.534 -1.7090  0.0765 -0.1666
 1737TIP3   OH226769   0.934   4.598   6.943  0.2402 -0.2392 -0.3949
 1737TIP3    H126770   1.009   4.652   6.967  0.4587 -1.0029  0.7078
 1737TIP3    H226771   0.964   4.547   6.868  0.3659  0.4104 -0.7959
 1738TIP3   OH226772   5.567   3.842   0.768 -0.1757  0.1532 -0.8711
 1738TIP3    H126773   5.489   3.786   0.764 -0.5602  0.7382 -1.9144
 1738TIP3    H226774   5.624   3.809   0.699 -0.5762  1.2802 -1.7591
 1739TIP3   OH226775   6.551   1.589   2.118 -0.6942  0.5847  0.5106
 1739TIP3    H126776   6.478   1.532   2.144 -0.1897 -1.0125 -1.2667
 1739TIP3    H226777   6.625   1.557   2.170 -1.0668  1.7254  1.7839
 1740TIP3   OH226778   4.933   3.703   6.799  0.2963  0.1478  0.3453
 1740TIP3    H126779   5.022   3.677   6.773  0.0400 -1.7663  1.2205
 1740TIP3    H226780   4.877   3.672   6.728  0.2229  0.5151  0.2402
 1741TIP3   OH226781   1.620   4.376   1.570  0.0729 -0.0503 -0.2218
 1741TIP3    H126782   1.661   4.460   1.593 -1.4967  0.0685  2.5989
 1741TIP3    H226783   1.641   4.319   1.644 -2.8592 -0.6472  0.2581
 1742TIP3   OH226784   2.339   5.515   1.286 -0.2779  0.2401  0.3648
 1742TIP3    H126785   2.273   5.573   1.248  0.1990  0.1689 -0.6049
 1742TIP3    H226786   2.396   5.492   1.213  1.4670  1.1448  1.3647
 1743TIP3   OH226787   0.232   3.706   7.960 -0.1800  0.4534  0.5929
 1743TIP3    H126788   0.235   3.625   8.011 -2.1331  0.4946  0.8675
 1743TIP3    H226789   0.145   3.743   7.979  0.3879  2.2604 -0.0741
 1744TIP3   OH226790   4.293   0.093   7.848 -0.2963  0.3086 -0.1985
 1744TIP3    H126791   4.235   0.043   7.906  1.6292 -1.7281  0.1187
 1744TIP3    H226792   4.349   0.142   7.907  0.2682 -0.0976 -0.3893
 1745TIP3   OH226793   0.535   0.404   0.980  0.1565 -0.7013  0.3487
 1745TIP3    H126794   0.625   0.373   0.989 -0.0296 -1.2996  0.1722
 1745TIP3    H226795   0.544   0.493   0.945  0.7796  0.4146  3.0641
 1746TIP3   OH226796   2.447   0.876   6.096 -0.1215 -0.4055 -0.3571
 1746TIP3    H126797   2.532   0.878   6.051 -0.4660 -0.2887 -1.0156
 1746TIP3    H226798   2.458   0.936   6.170  0.0622  0.3881 -1.0082
 1747TIP3   OH226799   6.353   2.218   1.594 -0.1444  0.4341 -0.4071
 1747TIP3    H126800   6.278   2.226   1.535  0.9980  0.9967 -1.8542
 1747TIP3    H226801   6.380   2.127   1.588 -1.0372  0.0866  0.5718
 1748TIP3   OH226802   3.166   2.253   1.013  0.2085  0.1320 -0.0320
 1748TIP3    H126803   3.116   2.172   1.003  0.8591 -0.1894 -0.7704
 1748TIP3    H226804   3.168   2.291   0.926  1.4770 -0.0112 -0.0882
 1749TIP3   OH226805   3.725   3.670   8.031  0.6433  0.6648 -0.7006
 1749TIP3    H126806   3.654   3.711   8.080 -0.4843 -0.6360 -1.2003
 1749TIP3    H226807   3.778   3.625   8.096  0.7693  1.2590 -0.3826
 1750TIP3   OH226808   1.014   2.395   6.718 -0.5456  0.0642  0.2673
 1750TIP3    H126809   1.084   2.365   6.775  0.2534  0.9735 -0.2036
 1750TIP3    H226810   1.044   2.374   6.630 -1.5439 -0.8732  0.1376
 1751TIP3   OH226811   0.014   3.320   0.267 -0.4208  0.3592  0.3539
 1751TIP3    H126812  -0.082   3.325   0.268 -0.3624  2.0901  0.3279
 1751TIP3    H226813   0.042   3.391   0.209  0.9239  1.4399  2.2090
 1752TIP3   OH226814   6.588   1.731   1.347 -0.3248 -0.0274 -0.0118
 1752TIP3    H126815   6.534   1.707   1.272 -1.7660  1.0765  0.6209
 1752TIP3    H226816   6.665   1.774   1.308 -2.1168  2.6535 -0.8971
 1753TIP3   OH226817   4.271   5.561   8.466 -0.7241  0.1536  0.2497
 1753TIP3    H126818   4.181   5.586   8.487 -1.2025 -0.1095 -1.3175
 1753TIP3    H226819   4.265   5.523   8.378  0.6786 -1.3534  0.7528
 1754TIP3   OH226820   2.681   4.094   0.851  0.0279 -0.2983 -0.6120
 1754TIP3    H126821   2.649   4.178   0.817 -0.1361 -0.2725 -0.3914
 1754TIP3    H226822   2.699   4.111   0.943 -0.1099 -0.5391 -0.5417
 1755TIP3   OH226823   3.052   3.417   7.101  0.4775  0.0462 -0.0977
 1755TIP3    H126824   3.047   3.326   7.071  1.4209  0.0781 -0.3607
 1755TIP3    H226825   3.022   3.469   7.027  1.5049  0.0405 -0.5318
 1756TIP3   OH226826   4.543   3.189   1.286  0.9746  0.0687 -0.3893
 1756TIP3    H126827   4.607   3.256   1.260  0.5029  0.2946 -0.9928
 1756TIP3    H226828   4.595   3.123   1.332  1.7714 -0.1487 -1.5659
 1757TIP3   OH226829   2.631   6.049   1.684 -0.3988  0.4773  0.1541
 1757TIP3    H126830   2.571   5.978   1.708 -0.2249 -0.7034 -2.4874
 1757TIP3    H226831   2.578   6.109   1.633  0.5560 -0.7120 -2.4384
 1758TIP3   OH226832   1.625   2.017   0.175  0.0238  0.3001  0.3756
 1758TIP3    H126833   1.706   2.026   0.125 -0.5460 -2.2120 -1.1749
 1758TIP3    H226834   1.558   2.055   0.119 -0.5043 -1.8764 -0.5972
 1759TIP3   OH226835   3.600   5.643   6.817 -1.0385  0.2656 -0.1308
 1759TIP3    H126836   3.576   5.636   6.725 -0.4244  1.2491 -0.3767
 1759TIP3    H226837   3.554   5.570   6.859 -1.9782  0.2859 -1.0731
 1760TIP3   OH226838   0.232   1.275   7.274  0.0203 -0.2662 -0.4326
 1760TIP3    H126839   0.184   1.193   7.275  0.1589 -0.3467 -0.3763
 1760TIP3    H226840   0.318   1.252   7.238  0.1527 -0.1975 -0.1604
 1761TIP3   OH226841   2.519   0.142   7.119 -0.7905  0.1243 -0.3496
 1761TIP3    H126842   2.547   0.051   7.110  0.0802  0.1375  1.7519
 1761TIP3    H226843   2.599   0.193   7.109 -0.8069  0.4654  1.0577
 1762TIP3   OH226844   1.354   3.249   7.945  0.6140 -0.3791  0.5474
 1762TIP3    H126845   1.271   3.206   7.961  0.4136  0.4624  1.9065
 1762TIP3    H226846   1.416   3.177   7.932  0.0597 -1.0612  1.5580
 1763TIP3   OH226847   3.105   6.075   8.390 -0.0924 -0.0140 -0.2999
 1763TIP3    H126848   3.098   6.117   8.304  1.4922  1.4208  0.2010
 1763TIP3    H226849   3.039   6.006   8.389 -1.3260  1.1189 -1.9922
 1764TIP3   OH226850   6.663   5.575   7.336  0.9016  0.3423  0.8009
 1764TIP3    H126851   6.580   5.569   7.383  0.1999 -3.2918 -0.5500
 1764TIP3    H226852   6.648   5.642   7.269 -0.6419  0.3902  1.1605
 1765TIP3   OH226853   1.474   0.589   0.149  0.5325  0.6877  0.1589
 1765TIP3    H126854   1.414   0.532   0.100  2.5249 -2.1166  0.7134
 1765TIP3    H226855   1.560   0.568   0.112  1.7380  0.6913  2.7981
 1766TIP3   OH226856   6.061   1.420   8.572  0.8286  0.4915  0.0249
 1766TIP3    H126857   5.968   1.416   8.593  1.2704 -0.1412  2.1091
 1766TIP3    H226858   6.066   1.402   8.478 -1.1537  0.7709 -0.1597
 1767TIP3   OH226859   4.120   6.282   7.751 -0.2167  0.4140  0.0134
 1767TIP3    H126860   4.116   6.197   7.708 -1.3959 -0.6585  2.0905
 1767TIP3    H226861   4.213   6.303   7.755  0.1189 -0.9548 -0.2094
 1768TIP3   OH226862   5.229   5.398   8.214 -0.1739 -0.1664  0.6357
 1768TIP3    H126863   5.196   5.422   8.301  1.6591  2.1831  0.8122
 1768TIP3    H226864   5.323   5.384   8.228 -0.0508 -0.8938 -0.7844
 1769TIP3   OH226865   0.151   0.841   8.424 -0.2814  0.2627 -0.1040
 1769TIP3    H126866   0.175   0.926   8.388 -0.6708 -0.3927 -2.0876
 1769TIP3    H226867   0.186   0.778   8.360  0.4118 -1.1036  1.5544
 1770TIP3   OH226868   6.319   1.947   0.717 -0.4277  0.4944 -0.2408
 1770TIP3    H126869   6.270   2.020   0.754 -0.0962  0.2002  0.8070
 1770TIP3    H226870   6.254   1.878   0.705 -0.6475  0.7880 -0.7720
 1771TIP3   OH226871   5.421   5.812   8.541  0.0152  0.4822 -0.5571
 1771TIP3    H126872   5.331   5.843   8.532  0.1276  1.0406  0.1435
 1771TIP3    H226873   5.426   5.777   8.630  0.2544 -0.3751 -0.8955
 1772TIP3   OH226874   3.337   5.987   0.883  0.1214 -0.1231 -0.1362
 1772TIP3    H126875   3.381   6.003   0.800 -0.1777  3.0068  0.2142
 1772TIP3    H226876   3.403   6.009   0.950 -0.8499  1.2488  0.4040
 1773TIP3   OH226877   4.445   2.603   1.273  0.3637 -0.3559 -0.3061
 1773TIP3    H126878   4.408   2.665   1.336  3.1939  0.9312  0.2233
 1773TIP3    H226879   4.467   2.526   1.325  0.3464 -0.3014 -0.2177
 1774TIP3   OH226880   3.612   4.351   8.360  0.3350  0.3291 -0.2080
 1774TIP3    H126881   3.681   4.301   8.405  0.2391  1.0161  0.7331
 1774TIP3    H226882   3.617   4.323   8.269  0.6719 -0.9672  0.1891
 1775TIP3   OH226883   4.430   0.217   6.970  0.0476  0.0213 -0.0713
 1775TIP3    H126884   4.439   0.152   7.040 -1.3887  0.4771  0.5790
 1775TIP3    H226885   4.504   0.277   6.984 -0.7303  0.6669  1.7212
 1776TIP3   OH226886   0.508   4.533   1.172  0.2479  0.2454  1.1163
 1776TIP3    H126887   0.527   4.627   1.174  1.1297  0.0757  0.9062
 1776TIP3    H226888   0.486   4.512   1.263 -0.5565  0.7611  1.0610
 1777TIP3   OH226889   1.729   1.708   1.175 -0.2542 -0.3314 -0.2920
 1777TIP3    H126890   1.762   1.636   1.123 -0.0220 -1.3468  1.1886
 1777TIP3    H226891   1.752   1.787   1.125  0.2079 -1.2368 -1.5411
 1778TIP3   OH226892   3.900   6.114   1.143  0.4758 -0.2063  0.5270
 1778TIP3    H126893   3.817   6.131   1.098  1.3758 -0.1794 -1.2436
 1778TIP3    H226894   3.940   6.200   1.154  0.6941 -0.2986  0.4734
 1779TIP3   OH226895   6.004   5.327   7.353  0.0810  0.8038 -0.1454
 1779TIP3    H126896   5.941   5.301   7.285  0.0259 -0.0370  0.2232
 1779TIP3    H226897   5.955   5.387   7.409 -1.1774 -1.5891  1.4816
 1780TIP3   OH226898   0.780   4.209   0.614  0.2249 -0.6678  0.2118
 1780TIP3    H126899   0.795   4.302   0.594  1.6466 -0.9075  0.0770
 1780TIP3    H226900   0.685   4.198   0.605 -0.1783  1.0960  1.6520
 1781TIP3   OH226901   4.776   3.512   8.129 -0.3912 -0.4636 -0.0037
 1781TIP3    H126902   4.842   3.523   8.060  0.1184  1.4140  0.7116
 1781TIP3    H226903   4.700   3.560   8.097  0.1178  1.1201  1.0061
 1782TIP3   OH226904   6.848   2.199   0.013 -0.2031  0.1426 -0.0166
 1782TIP3    H126905   6.811   2.166  -0.070 -0.0681  0.6982 -0.3024
 1782TIP3    H226906   6.826   2.292   0.013 -0.5328  0.0694  0.7603
 1783TIP3   OH226907   3.657   1.209   7.616  0.3264  0.8218 -0.2844
 1783TIP3    H126908   3.601   1.160   7.676  0.3831 -1.0075 -1.6247
 1783TIP3    H226909   3.724   1.248   7.671 -0.3682  0.2851  0.9689
 1784TIP3   OH226910   0.016   3.762   0.662  0.0982 -0.0608  0.8696
 1784TIP3    H126911   0.054   3.710   0.732  3.3643 -0.8681 -1.2616
 1784TIP3    H226912   0.003   3.700   0.590 -2.4971  0.8519  0.4204
 1785TIP3   OH226913   0.167   4.693   8.173 -0.5082  0.6024 -0.5014
 1785TIP3    H126914   0.126   4.656   8.251 -1.6328  0.0357 -1.3364
 1785TIP3    H226915   0.160   4.624   8.107  0.4909  1.0413 -1.0951
 1786TIP3   OH226916   0.606   5.335   0.249 -0.1799 -0.0832 -0.1856
 1786TIP3    H126917   0.526   5.344   0.196 -1.0112 -1.6907  0.7307
 1786TIP3    H226918   0.578   5.351   0.339  0.5353 -0.6626  0.1528
 1787TIP3   OH226919   2.078   6.683   1.832  0.5236 -0.3887  0.0837
 1787TIP3    H126920   2.054   6.647   1.746  0.3134  0.1896 -0.1002
 1787TIP3    H226921   2.093   6.605   1.886 -2.7983 -0.8970  0.5203
 1788TIP3   OH226922   1.887   6.069   0.300 -0.0590 -0.3769  0.0699
 1788TIP3    H126923   1.849   6.136   0.243  0.1770 -0.5010 -0.2363
 1788TIP3    H226924   1.852   5.986   0.265 -1.1085 -0.3619  1.0248
 1789TIP3   OH226925   4.077   6.510   0.044  0.4866 -0.0800  0.4484
 1789TIP3    H126926   4.048   6.419   0.042  0.1047  0.0174 -2.4159
 1789TIP3    H226927   3.997   6.561   0.056  0.4341 -0.0586  0.0135
 1790TIP3   OH226928   2.367   2.535   7.519  0.3695 -0.2682 -0.4876
 1790TIP3    H126929   2.362   2.618   7.567 -0.0659 -0.1181 -0.7772
 1790TIP3    H226930   2.368   2.468   7.586 -0.0164 -0.0533 -0.2588
 1791TIP3   OH226931   0.838   2.083   8.301  0.3414 -0.1136  0.2829
 1791TIP3    H126932   0.786   2.003   8.302 -1.3539  0.8368 -2.7193
 1791TIP3    H226933   0.775   2.154   8.306  1.3643  1.0697 -2.0984
 1792TIP3   OH226934   3.973   1.496   8.643 -0.0596  0.0016 -0.6895
 1792TIP3    H126935   3.960   1.405   8.615  1.7314  0.3679 -2.9707
 1792TIP3    H226936   3.894   1.541   8.615 -0.1424 -0.4903 -1.2754
 1793TIP3   OH226937   4.616   5.960   1.319  0.2967  0.1507 -0.1034
 1793TIP3    H126938   4.544   5.909   1.282  0.8322 -0.0152 -0.9378
 1793TIP3    H226939   4.666   5.897   1.370 -0.7719  0.4943  1.4628
 1794TIP3   OH226940   1.078   4.481   0.566  0.7014  0.5629 -0.3331
 1794TIP3    H126941   1.096   4.461   0.657 -0.9175  0.7688  0.0690
 1794TIP3    H226942   1.154   4.533   0.537  1.1897  0.5726  0.9119
 1795TIP3   OH226943   4.585   3.402   1.956 -0.0461 -0.1030 -0.1843
 1795TIP3    H126944   4.526   3.327   1.957 -2.2980  1.5757  0.7935
 1795TIP3    H226945   4.562   3.452   2.035  3.2903  0.2483  0.7178
 1796TIP3   OH226946   4.778   6.716   8.526 -0.2176 -0.1698  0.3746
 1796TIP3    H126947   4.772   6.669   8.442  1.1683 -0.0025  0.1637
 1796TIP3    H226948   4.861   6.763   8.521 -0.6822  0.7914  1.3762
 1797TIP3   OH226949   1.227   5.936   8.563 -0.3778 -0.3042 -0.3325
 1797TIP3    H126950   1.192   5.848   8.578  2.0701 -1.3832 -0.4747
 1797TIP3    H226951   1.300   5.922   8.502  0.5667  1.7171  0.2722
 1798TIP3   OH226952   1.280   2.097   1.027  0.1062 -0.1494 -0.8671
 1798TIP3    H126953   1.230   2.136   0.955 -1.1415 -0.3407 -0.1480
 1798TIP3    H226954   1.261   2.153   1.102 -0.1428 -1.0146 -0.2634
 1799TIP3   OH226955   1.592   6.040   7.473 -0.1243 -0.0865  0.5757
 1799TIP3    H126956   1.644   6.031   7.393 -2.2435 -0.3947 -0.8313
 1799TIP3    H226957   1.616   5.964   7.526 -0.1144 -0.9302 -0.6196
 1800TIP3   OH226958   6.384   0.423   7.498  0.3389  0.4193  0.1123
 1800TIP3    H126959   6.366   0.332   7.519  1.5172  0.2443  0.4295
 1800TIP3    H226960   6.380   0.427   7.402 -1.3300  0.4115  0.1490
 1801TIP3   OH226961   1.747   1.048   7.607 -0.1844  0.3970 -0.5453
 1801TIP3    H126962   1.795   0.997   7.542  1.1512  1.3130 -0.3377
 1801TIP3    H226963   1.809   1.060   7.679 -1.7180 -0.8139  1.0533
 1802TIP3   OH226964   5.246   2.619   6.726 -0.3278 -0.5419  0.2660
 1802TIP3    H126965   5.193   2.616   6.647  1.0570 -2.4185 -0.6397
 1802TIP3    H226966   5.283   2.531   6.735  3.0842  0.7604  0.5064
 1803TIP3   OH226967   0.277   2.816   0.048  0.5625  0.2469 -0.0635
 1803TIP3    H126968   0.256   2.773   0.130  0.9361 -2.9825 -1.4953
 1803TIP3    H226969   0.195   2.855   0.018 -0.3052 -1.1900  0.3960
 1804TIP3   OH226970   0.173   5.661   6.860  0.0759 -0.2581 -0.1020
 1804TIP3    H126971   0.126   5.681   6.779 -0.2041  0.1285  0.1511
 1804TIP3    H226972   0.110   5.681   6.930  0.5406  0.0499  0.2317
 1805TIP3   OH226973   6.506   3.128   1.468 -0.0487 -0.0407  0.2408
 1805TIP3    H126974   6.486   3.216   1.502  0.8229  0.6673 -1.0087
 1805TIP3    H226975   6.433   3.109   1.409 -0.7618 -0.6108  1.2773
 1806TIP3   OH226976   0.721   0.889   8.377  0.6560  0.0078 -0.1484
 1806TIP3    H126977   0.773   0.809   8.372  0.7488  0.1307 -1.1957
 1806TIP3    H226978   0.746   0.939   8.300  1.0150  1.3152  0.7759
 1807TIP3   OH226979   3.186   6.548   2.285  0.4006 -0.2122 -0.5975
 1807TIP3    H126980   3.142   6.617   2.335 -0.3984 -1.9114  1.1511
 1807TIP3    H226981   3.277   6.553   2.313  0.6314  0.9127 -1.4497
 1808TIP3   OH226982   6.391   3.482   6.399  0.0501 -0.9913 -0.0450
 1808TIP3    H126983   6.428   3.569   6.382 -0.1518 -0.7491  0.6991
 1808TIP3    H226984   6.465   3.428   6.426 -0.0610 -0.5933  1.1280
 1809TIP3   OH226985   0.294   3.035   8.463  0.1053 -0.2207  0.6705
 1809TIP3    H126986   0.262   2.945   8.469  0.0309 -0.2561 -0.2158
 1809TIP3    H226987   0.385   3.029   8.493 -0.0669 -0.4874  1.1544
 1810TIP3   OH226988   3.507   0.391   1.234 -0.2896 -0.2145  0.0742
 1810TIP3    H126989   3.563   0.469   1.239 -0.0834 -0.4143  0.9165
 1810TIP3    H226990   3.558   0.329   1.181 -0.0053 -0.1538  0.2728
 1811TIP3   OH226991   1.356   6.764   7.996  0.6838  0.1628 -0.2413
 1811TIP3    H126992   1.329   6.803   8.080  1.3281  1.0612 -0.4395
 1811TIP3    H226993   1.285   6.786   7.936  0.1870 -0.5395  0.0628
 1812TIP3   OH226994   0.224   6.070   7.232  0.3476  0.3722 -0.0090
 1812TIP3    H126995   0.193   6.111   7.312 -0.2593 -0.3239  0.1161
 1812TIP3    H226996   0.311   6.109   7.218  0.8045 -0.0760  1.4068
 1813TIP3   OH226997   2.040   0.315   1.170 -0.0606 -0.2319 -0.1463
 1813TIP3    H126998   2.039   0.309   1.075  0.9733 -1.3323 -0.1199
 1813TIP3    H226999   2.044   0.224   1.199  0.2407  0.1117  0.9274
 1814TIP3   OH227000   5.093   2.876   1.774 -0.1334 -0.3092 -0.0234
 1814TIP3    H127001   5.039   2.904   1.848 -1.9046  2.5605 -2.2090
 1814TIP3    H227002   5.034   2.826   1.718  1.2355 -2.6035  0.4179
 1815TIP3   OH227003   4.468   4.918   8.040  0.1478 -0.1692 -0.0509
 1815TIP3    H127004   4.440   4.878   7.958  0.3321  0.0725 -0.2328
 1815TIP3    H227005   4.561   4.896   8.047  0.6196  1.3758 -0.8501
 1816TIP3   OH227006   0.466   2.350   8.460 -0.2751  0.4414 -0.6147
 1816TIP3    H127007   0.460   2.286   8.531  0.6377 -0.9255 -1.7137
 1816TIP3    H227008   0.419   2.427   8.493 -1.4454 -0.7913  0.7443
 1817TIP3   OH227009   0.313   6.452   6.490  0.0404 -0.0352  0.0167
 1817TIP3    H127010   0.343   6.367   6.522  2.2264  1.1524  1.3657
 1817TIP3    H227011   0.263   6.431   6.411  1.5110 -2.4851 -0.3859
 1818TIP3   OH227012   4.261   2.765   6.963 -0.1934 -0.7777  0.8134
 1818TIP3    H127013   4.185   2.719   6.927  0.4821 -1.8388  0.7018
 1818TIP3    H227014   4.331   2.700   6.962  1.0362  0.5018 -0.1441
 1819TIP3   OH227015   5.022   3.192   1.816  0.0374 -0.5518 -0.5788
 1819TIP3    H127016   5.087   3.191   1.885  0.1407 -1.9719 -0.6778
 1819TIP3    H227017   4.940   3.216   1.860  0.6666  1.7473 -0.5402
 1820TIP3   OH227018   0.939   5.779   8.520 -0.0000 -0.3159  0.6763
 1820TIP3    H127019   0.867   5.791   8.457  1.6559 -0.3045 -1.3198
 1820TIP3    H227020   0.947   5.864   8.563 -1.2355 -0.3519  1.0279
 1821TIP3   OH227021   5.759   2.306   0.562 -0.3367 -0.6485  0.4687
 1821TIP3    H127022   5.747   2.385   0.615  0.5161 -0.5344  0.5009
 1821TIP3    H227023   5.671   2.269   0.555 -1.3259  1.7689 -1.8447
 1822TIP3   OH227024   2.318   4.711   0.306  0.3811 -0.2465 -0.2899
 1822TIP3    H127025   2.267   4.753   0.375 -1.3810 -0.2969 -1.4871
 1822TIP3    H227026   2.329   4.620   0.335  0.9579  0.0854  0.5745
 1823TIP3   OH227027   4.035   4.841   1.270 -0.3414  0.2938  0.0488
 1823TIP3    H127028   4.091   4.890   1.210  0.0029  1.7585  1.4756
 1823TIP3    H227029   4.007   4.906   1.334 -3.6343 -0.3498 -0.5133
 1824TIP3   OH227030   5.341   4.581   8.385  0.0533  0.1573 -0.5316
 1824TIP3    H127031   5.352   4.631   8.466 -0.2429 -1.3363  0.4770
 1824TIP3    H227032   5.290   4.504   8.411  1.0818 -1.0375 -1.8413
 1825TIP3   OH227033   1.025   1.954   1.192  0.1253 -0.3244 -0.3168
 1825TIP3    H127034   1.111   1.969   1.152  0.3740  1.3808  0.7414
 1825TIP3    H227035   1.036   1.872   1.241  1.2300 -0.0094 -0.0123
 1826TIP3   OH227036   2.952   1.904   7.225  0.3906  0.1281 -0.2026
 1826TIP3    H127037   3.018   1.964   7.191  0.8785  0.5650  1.4265
 1826TIP3    H227038   2.900   1.879   7.149  4.6869 -3.2810 -2.4906
 1827TIP3   OH227039   6.780   6.605   2.289  0.3309 -0.5954  0.0434
 1827TIP3    H127040   6.867   6.611   2.328  0.6139  2.6185 -0.7920
 1827TIP3    H227041   6.728   6.670   2.335 -1.1164 -1.1321 -0.7637
 1828TIP3   OH227042   6.592   3.806   2.445 -0.2051 -0.0147 -0.3118
 1828TIP3    H127043   6.653   3.865   2.489  0.7171 -0.4378 -0.9906
 1828TIP3    H227044   6.572   3.850   2.363 -2.8669  1.3568  0.9459
 1829TIP3   OH227045   4.315   2.783   1.446  0.3955  0.6934  0.6487
 1829TIP3    H127046   4.350   2.855   1.499 -0.9758  0.5818  1.7653
 1829TIP3    H227047   4.221   2.785   1.462  0.1463 -0.3831 -0.5322
 1830TIP3   OH227048   2.005   2.987   7.433  0.2149  0.0784 -0.1350
 1830TIP3    H127049   2.026   3.031   7.351 -0.3546  0.4034 -0.1136
 1830TIP3    H227050   2.056   3.033   7.499 -0.1506  0.5168 -0.1562
 1831TIP3   OH227051   6.195   1.056   7.732 -0.1059  0.2255 -0.3616
 1831TIP3    H127052   6.209   1.144   7.767 -2.0691 -0.0571  1.2969
 1831TIP3    H227053   6.103   1.037   7.749  0.6057 -2.7732  0.8526
 1832TIP3   OH227054   6.165   0.491   0.358 -0.1889  0.0456  0.1602
 1832TIP3    H127055   6.200   0.579   0.344 -0.5758 -0.1803 -2.9532
 1832TIP3    H227056   6.241   0.433   0.349 -0.3799 -0.0840 -0.7146
 1833TIP3   OH227057   3.278   5.439   6.694 -0.1266 -0.0486 -0.1664
 1833TIP3    H127058   3.278   5.472   6.604 -0.5646  1.0214  0.2183
 1833TIP3    H227059   3.211   5.490   6.739  1.2977  0.6824  1.2313
 1834TIP3   OH227060   1.881   2.625   7.516  0.1099 -0.3203  0.1272
 1834TIP3    H127061   1.898   2.601   7.607 -0.9706  0.0903  0.4557
 1834TIP3    H227062   1.907   2.548   7.466  1.5728 -0.2204  0.6910
 1835TIP3   OH227063   6.461   4.861   6.517  0.2556 -0.3319  0.3086
 1835TIP3    H127064   6.484   4.768   6.514  3.1091  0.3286 -0.8393
 1835TIP3    H227065   6.459   4.882   6.611  0.8613 -1.2727  0.5418
 1836TIP3   OH227066   4.198   2.229   7.817  0.1998  0.7647 -0.6711
 1836TIP3    H127067   4.197   2.317   7.855  0.0893  0.2789  0.4791
 1836TIP3    H227068   4.106   2.206   7.805  0.1735  0.1994  0.5017
 1837TIP3   OH227069   0.938   1.426   8.246  0.9295 -0.4169 -0.2361
 1837TIP3    H127070   1.024   1.454   8.277  0.7514  0.6272 -0.6447
 1837TIP3    H227071   0.882   1.503   8.257 -0.2334 -1.4097  1.0564
 1838TIP3   OH227072   4.287   6.725   0.595 -0.4091  0.4628 -0.4559
 1838TIP3    H127073   4.365   6.695   0.547 -0.6724 -0.1083 -0.5425
 1838TIP3    H227074   4.299   6.691   0.684  0.3967  2.0786  0.0972
 1839TIP3   OH227075   3.729   0.090   0.470  0.2685 -0.2525 -1.2193
 1839TIP3    H127076   3.753   0.178   0.498  1.0246 -0.8833  0.1921
 1839TIP3    H227077   3.799   0.064   0.410  2.5360 -1.5040  1.7189
 1840TIP3   OH227078   3.113   4.846   0.412  0.3066  0.3506 -0.5749
 1840TIP3    H127079   3.106   4.759   0.373 -0.3301 -0.2131  0.7491
 1840TIP3    H227080   3.197   4.880   0.379  0.8595 -0.9985 -0.6398
 1841TIP3   OH227081   3.141   6.851   7.348  0.3634  0.7089 -0.3178
 1841TIP3    H127082   3.212   6.849   7.284  0.6142  0.4036 -0.0371
 1841TIP3    H227083   3.067   6.890   7.302  0.6090  0.6979 -0.7209
 1842TIP3   OH227084   5.821   4.032   7.111 -0.4319  0.3137  0.5865
 1842TIP3    H127085   5.756   4.080   7.059  0.1337  1.4243  0.8589
 1842TIP3    H227086   5.888   4.006   7.047 -0.6120  0.1185  0.4767
 1843TIP3   OH227087   1.386   4.479   1.464 -0.2743  0.4820 -0.0811
 1843TIP3    H127088   1.467   4.438   1.494  0.1834 -1.0253 -2.9522
 1843TIP3    H227089   1.414   4.564   1.428  0.2912 -0.4093 -1.8888
 1844TIP3   OH227090   5.126   3.754   6.606  0.0131  0.3762 -0.5112
 1844TIP3    H127091   5.207   3.709   6.584 -0.2049 -0.2713  0.0151
 1844TIP3    H227092   5.069   3.739   6.530 -0.4305 -1.1309  0.0959
 1845TIP3   OH227093   3.653   4.417   2.086 -0.2956 -0.3420 -0.1497
 1845TIP3    H127094   3.590   4.352   2.117 -0.2817  0.5901  1.9622
 1845TIP3    H227095   3.677   4.387   1.998 -1.2874 -2.4382  0.2419
 1846TIP3   OH227096   3.561   5.333   1.505 -0.3750  0.0684 -0.4765
 1846TIP3    H127097   3.629   5.319   1.440  0.1178  2.7017 -0.6255
 1846TIP3    H227098   3.491   5.273   1.480  1.5082 -2.2042 -0.7421
 1847TIP3   OH227099   6.380   1.382   1.298  0.5451 -0.9211  0.5544
 1847TIP3    H127100   6.448   1.317   1.317  1.7979  0.4828  0.9892
 1847TIP3    H227101   6.426   1.452   1.251 -1.3410 -1.6629 -2.7460
 1848TIP3   OH227102   0.026   3.505   7.636  0.5936 -0.1494 -0.1000
 1848TIP3    H127103  -0.012   3.576   7.687  1.6843  1.3795 -1.3233
 1848TIP3    H227104   0.104   3.479   7.685  0.4898 -0.1340  0.0745
 1849TIP3   OH227105   0.473   0.647   7.889 -0.2554 -0.0345 -0.1083
 1849TIP3    H127106   0.490   0.740   7.905 -0.6138  0.3654 -1.8633
 1849TIP3    H227107   0.401   0.646   7.826  0.4472 -1.4787 -0.9464
 1850TIP3   OH227108   6.550   1.973   0.883  0.4079 -0.2454  0.1780
 1850TIP3    H127109   6.495   1.946   0.809 -0.4803 -1.3941  1.2168
 1850TIP3    H227110   6.625   1.914   0.879  0.3182 -0.3645  0.2426
 1851TIP3   OH227111   5.244   2.189   0.671  0.2079 -0.1578 -0.1797
 1851TIP3    H127112   5.185   2.152   0.737  1.0191  0.0888  0.7055
 1851TIP3    H227113   5.329   2.194   0.715  0.2028  2.5104 -0.3178
 1852TIP3   OH227114   6.036   0.862   1.473 -0.9306  0.3769 -0.7867
 1852TIP3    H127115   6.065   0.823   1.555  0.7365 -0.8313 -1.8916
 1852TIP3    H227116   5.989   0.941   1.499 -2.1496 -0.9759  1.4149
 1853TIP3   OH227117   1.827   4.136   7.399  0.1337  0.1871  0.1356
 1853TIP3    H127118   1.756   4.183   7.442  0.7685  0.2462  1.1488
 1853TIP3    H227119   1.858   4.197   7.331 -1.4850 -0.2834 -1.0885
 1854TIP3   OH227120   4.374   6.346   0.645 -0.2307  0.3195 -0.5998
 1854TIP3    H127121   4.351   6.347   0.738  0.9973  1.8189 -0.2944
 1854TIP3    H227122   4.405   6.257   0.630 -0.2845  0.1046  0.4562
 1855TIP3   OH227123   2.455   0.599   0.800  0.0702  0.2717  0.2140
 1855TIP3    H127124   2.511   0.650   0.858  0.4961  0.4897 -0.3889
 1855TIP3    H227125   2.407   0.540   0.859  0.1744  0.7931  0.8294
 1856TIP3   OH227126   4.287   2.954   0.801 -0.2637  0.0929 -0.1100
 1856TIP3    H127127   4.237   3.034   0.818  0.3240  0.7435 -1.3279
 1856TIP3    H227128   4.300   2.953   0.706  0.5501 -0.9635 -0.0099
 1857TIP3   OH227129   4.509   4.054   8.470  0.2596 -0.4123 -0.1961
 1857TIP3    H127130   4.504   4.063   8.375 -0.5797  0.9692 -0.0404
 1857TIP3    H227131   4.446   4.117   8.504  2.4246  1.0514  1.3417
 1858TIP3   OH227132   4.785   1.729   1.433 -0.3996  0.5097  0.2446
 1858TIP3    H127133   4.845   1.657   1.454 -1.0077  0.4637  1.9740
 1858TIP3    H227134   4.830   1.808   1.464 -0.1019  0.7969 -0.8814
 1859TIP3   OH227135   2.292   6.676   8.165 -0.0808  0.7034 -0.0034
 1859TIP3    H127136   2.208   6.710   8.194  0.0030  1.3977 -0.5413
 1859TIP3    H227137   2.351   6.752   8.168  0.7334  0.0674  1.1125
 1860TIP3   OH227138   1.713   4.251   0.947  0.1590  0.4377  0.4829
 1860TIP3    H127139   1.698   4.174   0.891  0.0401 -1.5412  3.0638
 1860TIP3    H227140   1.643   4.311   0.924  0.1328 -0.2558 -1.4892
 1861TIP3   OH227141   6.319   0.454   1.316  0.0801  0.7684  0.3220
 1861TIP3    H127142   6.240   0.486   1.273  0.3803  0.5872 -0.3777
 1861TIP3    H227143   6.290   0.430   1.404 -0.3210  2.2110  0.6254
 1862TIP3   OH227144   3.017   2.584   2.672 -0.4877 -0.7046  0.1309
 1862TIP3    H127145   3.091   2.567   2.614  1.5055 -0.9196  2.5344
 1862TIP3    H227146   2.966   2.651   2.627  0.6953 -1.1332 -1.9966
 1863TIP3   OH227147   2.046   3.147   0.921  0.2290 -0.4185 -0.0144
 1863TIP3    H127148   2.138   3.123   0.908  0.3632  0.6904 -1.2823
 1863TIP3    H227149   1.997   3.092   0.861 -0.1076 -1.8696  1.5002
 1864TIP3   OH227150   4.540   6.730   1.022  0.2312 -0.0374 -0.5465
 1864TIP3    H127151   4.459   6.682   1.005 -0.8417  1.3358  0.5092
 1864TIP3    H227152   4.523   6.819   0.991  1.4068  0.2286 -0.4938
 1865TIP3   OH227153   6.341   5.899   1.623 -0.3933  0.5010 -0.1253
 1865TIP3    H127154   6.375   5.983   1.652  2.2438 -0.1950 -0.8863
 1865TIP3    H227155   6.399   5.834   1.663 -1.0108 -0.8147 -1.2660
 1866TIP3   OH227156   5.025   4.010   6.758 -0.2652  0.1559  0.1726
 1866TIP3    H127157   5.006   4.077   6.692  1.5110  0.3857 -0.1589
 1866TIP3    H227158   4.997   3.928   6.717 -2.0685  0.6214  0.4154
 1867TIP3   OH227159   0.085   3.568   0.193 -0.3972 -0.1622 -0.0848
 1867TIP3    H127160   0.023   3.625   0.149  0.7268  0.8721 -0.3987
 1867TIP3    H227161   0.171   3.607   0.176  0.3662 -1.5826  0.2490
 1868TIP3   OH227162   5.639   0.188   1.094 -0.2356 -0.7016 -0.1601
 1868TIP3    H127163   5.697   0.256   1.129 -0.4821 -0.2371 -0.6546
 1868TIP3    H227164   5.583   0.164   1.168  0.0051 -0.5412  0.0788
 1869TIP3   OH227165   1.787   4.794   8.305  0.1160  0.4075 -0.0009
 1869TIP3    H127166   1.784   4.708   8.347 -0.6528 -0.1216 -1.0953
 1869TIP3    H227167   1.879   4.807   8.283 -0.0463 -1.2183 -1.9313
 1870TIP3   OH227168   1.018   3.217   2.420 -0.7938 -0.1994  0.5946
 1870TIP3    H127169   0.945   3.218   2.481 -0.7151 -2.6369  0.8434
 1870TIP3    H227170   1.091   3.255   2.469 -1.5466  1.0335  0.7912
 1871TIP3   OH227171   4.697   3.641   6.282 -0.2619  0.0746  0.0136
 1871TIP3    H127172   4.651   3.602   6.356 -0.4429  0.1709 -0.0473
 1871TIP3    H227173   4.647   3.612   6.205  0.1198 -0.3029 -0.0972
 1872TIP3   OH227174   3.015   0.561   0.259 -0.0800 -0.0360 -0.0976
 1872TIP3    H127175   3.028   0.539   0.351 -0.8784  0.0194  0.0385
 1872TIP3    H227176   3.099   0.542   0.217  0.5839  0.7991  0.8003
 1873TIP3   OH227177   6.369   5.490   7.410 -0.7250  0.2543 -0.0024
 1873TIP3    H127178   6.301   5.537   7.362 -0.2093  0.0145 -1.0036
 1873TIP3    H227179   6.359   5.519   7.501 -1.5576  0.9212 -0.2907
 1874TIP3   OH227180   3.090   0.451   6.538 -0.1112 -0.1125 -0.4842
 1874TIP3    H127181   3.086   0.359   6.513  1.2995 -0.1851 -0.5205
 1874TIP3    H227182   3.155   0.489   6.479  0.0577  0.6780  0.1864
 1875TIP3   OH227183   3.232   0.184   7.069  0.5772 -0.2682  0.4628
 1875TIP3    H127184   3.234   0.262   7.013  1.3946 -0.8543 -0.3604
 1875TIP3    H227185   3.180   0.120   7.018  2.2792 -1.1885 -0.1869
 1876TIP3   OH227186   1.343   0.725   6.715 -0.0769 -0.0110  0.2562
 1876TIP3    H127187   1.427   0.719   6.761 -0.0496 -1.8873  0.0224
 1876TIP3    H227188   1.315   0.815   6.730  1.9264  0.6418  0.4125
 1877TIP3   OH227189   4.134   1.256   0.827  0.2504 -0.4787  0.2593
 1877TIP3    H127190   4.195   1.330   0.831 -0.3991  0.1898 -1.3312
 1877TIP3    H227191   4.157   1.210   0.746 -0.4964 -0.9993  0.3245
 1878TIP3   OH227192   6.618   6.398   1.676 -0.7356 -0.7818 -0.1350
 1878TIP3    H127193   6.530   6.422   1.706  0.5837  1.1475  2.6573
 1878TIP3    H227194   6.616   6.413   1.581 -2.8113  1.4768  0.1581
 1879TIP3   OH227195   2.502   2.190   7.562 -0.1221 -0.5581  0.4643
 1879TIP3    H127196   2.436   2.233   7.616 -0.3495  1.3956 -1.2354
 1879TIP3    H227197   2.454   2.163   7.483  0.6004 -1.4558  0.3193
 1880TIP3   OH227198   3.367   1.059   1.126  0.4667  0.2499  0.0364
 1880TIP3    H127199   3.411   1.118   1.065 -0.2150  2.3521  1.4821
 1880TIP3    H227200   3.294   1.023   1.076  2.3355 -1.4920 -1.6571
 1881TIP3   OH227201   3.338   0.498   7.862 -0.0952 -0.2588 -0.4311
 1881TIP3    H127202   3.386   0.416   7.849 -0.8035 -0.7879  0.1997
 1881TIP3    H227203   3.246   0.473   7.856 -0.3510  0.2118  1.1752
 1882TIP3   OH227204   4.733   4.225   1.527 -0.1059 -0.0597 -0.0812
 1882TIP3    H127205   4.686   4.240   1.445  1.0658  0.2701 -0.7121
 1882TIP3    H227206   4.665   4.229   1.594 -1.0607 -0.1444 -1.0044
 1883TIP3   OH227207   4.036   0.458   0.961  0.8308  0.3091  0.2731
 1883TIP3    H127208   3.966   0.459   0.897  2.1181 -1.0777 -1.2498
 1883TIP3    H227209   4.077   0.544   0.953 -1.1731  1.5090  1.8581
 1884TIP3   OH227210   1.459   0.871   2.127 -0.0473  0.1852 -0.5289
 1884TIP3    H127211   1.394   0.817   2.081  1.5570 -0.8240 -1.7142
 1884TIP3    H227212   1.454   0.956   2.084 -1.7190  0.6717  0.5214
 1885TIP3   OH227213   2.157   3.181   1.186 -0.1711  0.0440 -0.0523
 1885TIP3    H127214   2.163   3.256   1.126 -1.1944 -0.0319 -0.2626
 1885TIP3    H227215   2.101   3.118   1.140  0.2499 -0.6474  0.3512
 1886TIP3   OH227216   0.383   0.077   0.045 -0.1660 -0.0488 -0.0886
 1886TIP3    H127217   0.450   0.145   0.045  0.3473 -0.5524  0.1766
 1886TIP3    H227218   0.394   0.032   0.128 -0.3473 -0.6164 -0.3667
 1887TIP3   OH227219   4.027   1.655   8.212 -0.1870 -0.3609  0.0888
 1887TIP3    H127220   3.970   1.617   8.145 -0.8616 -0.1532  0.5330
 1887TIP3    H227221   3.983   1.635   8.295  1.0136 -1.2875  0.5422
 1888TIP3   OH227222   1.581   0.943   6.688  0.0237  0.1176 -0.8481
 1888TIP3    H127223   1.653   0.972   6.633 -0.5815  3.9702  0.1202
 1888TIP3    H227224   1.504   0.949   6.631 -0.0709  0.0596 -0.7265
 1889TIP3   OH227225   3.742   1.030   8.244  0.0318 -0.3336  0.1411
 1889TIP3    H127226   3.795   1.001   8.318  0.1592 -1.5093 -0.3778
 1889TIP3    H227227   3.807   1.060   8.179  0.0178 -0.8428 -0.1135
 1890TIP3   OH227228   4.170   6.152   7.188  0.1514 -0.1975 -0.0105
 1890TIP3    H127229   4.265   6.146   7.176 -0.0143 -0.6802 -1.3606
 1890TIP3    H227230   4.143   6.223   7.129 -0.2418  0.5122  1.0003
 1891TIP3   OH227231   2.438   5.726   7.858 -0.2975  0.2139  0.2477
 1891TIP3    H127232   2.376   5.661   7.892 -0.9301  0.7144  0.0787
 1891TIP3    H227233   2.523   5.682   7.860 -0.6665 -0.5038  0.4365
 1892TIP3   OH227234   2.587   5.768   6.591 -0.0457 -0.5037  0.2386
 1892TIP3    H127235   2.507   5.816   6.611 -0.5689 -0.7272 -1.1823
 1892TIP3    H227236   2.641   5.830   6.542  1.3421  0.1422  2.4355
 1893TIP3   OH227237   5.382   5.809   1.822  0.0980 -0.1010  0.4955
 1893TIP3    H127238   5.437   5.833   1.747  0.6282  1.8551  1.4352
 1893TIP3    H227239   5.426   5.734   1.862 -0.4797 -1.5323 -1.3842
 1894TIP3   OH227240   1.169   3.144   2.170 -0.1795 -0.1306 -0.7850
 1894TIP3    H127241   1.079   3.128   2.198  0.2165  0.0302  0.6487
 1894TIP3    H227242   1.166   3.230   2.128 -0.5890  0.1204 -0.2465
 1895TIP3   OH227243   4.234   5.386   6.822 -0.9213 -0.1969 -0.0568
 1895TIP3    H127244   4.174   5.389   6.748 -0.7095  0.2968 -0.2142
 1895TIP3    H227245   4.178   5.389   6.899 -1.2173 -1.9400 -0.1624
 1896TIP3   OH227246   3.117   5.092   2.518 -0.4614 -0.5840  1.2568
 1896TIP3    H127247   3.199   5.138   2.502  0.3841 -1.9102  1.6471
 1896TIP3    H227248   3.052   5.140   2.467  0.9584 -0.8243 -0.8719
 1897TIP3   OH227249   0.133   6.598   7.402 -0.5255 -0.0415 -0.4215
 1897TIP3    H127250   0.159   6.506   7.401 -1.5841 -0.3617 -0.1379
 1897TIP3    H227251   0.039   6.597   7.379 -0.8847  0.8365  0.8947
 1898TIP3   OH227252   5.368   3.647   2.265 -0.2186  0.2953 -0.4383
 1898TIP3    H127253   5.437   3.586   2.292  0.3082 -0.2704 -2.8271
 1898TIP3    H227254   5.369   3.716   2.332  1.0660 -0.8982  0.8262
 1899TIP3   OH227255   5.417   1.020   1.911 -0.0671  0.4212  0.4961
 1899TIP3    H127256   5.456   0.966   1.980  0.7122 -0.3362 -0.5049
 1899TIP3    H227257   5.420   0.965   1.833 -0.1663  1.5600 -0.3405
 1900TIP3   OH227258   1.818   5.599   8.590 -0.2679  0.0913  0.3145
 1900TIP3    H127259   1.735   5.563   8.560 -1.1631  0.0019  2.6702
 1900TIP3    H227260   1.877   5.523   8.594 -0.7177 -0.2427  0.6610
 1901TIP3   OH227261   4.113   1.487   1.078  0.3976 -0.1663  0.2348
 1901TIP3    H127262   4.060   1.511   1.002 -1.9011  0.2780  1.8639
 1901TIP3    H227263   4.174   1.560   1.088 -0.6123  0.7398 -0.0308
 1902TIP3   OH227264   6.151   2.263   7.691  0.3920 -0.8675 -0.1030
 1902TIP3    H127265   6.100   2.242   7.613  1.5263 -0.2479 -1.0244
 1902TIP3    H227266   6.233   2.298   7.658  0.7967 -0.3604  1.3710
 1903TIP3   OH227267   0.931   4.948   7.989 -0.2682 -0.7314 -0.0582
 1903TIP3    H127268   0.991   5.002   7.938  0.8028 -2.1464 -0.3647
 1903TIP3    H227269   0.853   4.941   7.935  0.0107 -0.3908 -0.5120
 1904TIP3   OH227270   5.464   0.858   1.693  0.2124 -0.0974  0.2172
 1904TIP3    H127271   5.500   0.779   1.734  1.3323  0.2484 -0.0504
 1904TIP3    H227272   5.499   0.857   1.604  0.3041  0.7278  0.2314
 1905TIP3   OH227273   0.074   2.591   1.048  0.1229 -0.1225 -0.6599
 1905TIP3    H127274   0.030   2.622   1.127 -0.5224  0.9959 -1.4186
 1905TIP3    H227275   0.093   2.499   1.065 -1.4402 -0.3303  0.1701
 1906TIP3   OH227276   5.505   0.237   0.536 -0.5762 -0.1603 -0.2509
 1906TIP3    H127277   5.484   0.192   0.455 -2.9416 -2.9537  1.7033
 1906TIP3    H227278   5.599   0.254   0.531  0.8702 -6.2006 -0.9798
 1907TIP3   OH227279   4.102   5.077   8.173  0.3110 -0.8870  0.0724
 1907TIP3    H127280   4.019   5.079   8.219 -0.6651 -3.8425 -1.3417
 1907TIP3    H227281   4.081   5.105   8.083  0.8371 -1.5879 -0.2787
 1908TIP3   OH227282   1.507   0.865   7.446 -0.1844  0.0971 -0.2325
 1908TIP3    H127283   1.572   0.805   7.408  0.6625 -0.3729  1.8047
 1908TIP3    H227284   1.469   0.909   7.371  0.6447 -1.5044 -1.6775
 1909TIP3   OH227285   5.768   0.724   2.756 -0.0525 -0.6476  0.6694
 1909TIP3    H127286   5.678   0.721   2.789  0.2850 -2.2368  1.5390
 1909TIP3    H227287   5.758   0.745   2.663 -1.1695  1.4213  1.1773
 1910TIP3   OH227288   3.765   1.245   0.180 -0.1562  0.1849  0.0480
 1910TIP3    H127289   3.775   1.197   0.262 -0.4053 -0.5916 -0.3617
 1910TIP3    H227290   3.823   1.199   0.119 -0.3773  0.4236 -0.3477
 1911TIP3   OH227291   0.608   4.195   7.720 -0.0291  0.1547 -0.4980
 1911TIP3    H127292   0.592   4.126   7.656 -3.2770  0.4436 -0.1878
 1911TIP3    H227293   0.526   4.200   7.771  1.0654  2.4237  1.2366
 1912TIP3   OH227294   1.954   3.762   8.360 -0.6438  0.1826 -0.0255
 1912TIP3    H127295   1.976   3.683   8.311  0.0305  0.2268  0.1884
 1912TIP3    H227296   1.925   3.730   8.446 -0.2484  0.1654  0.1055
 1913TIP3   OH227297   6.627   6.618   8.360  0.0115 -0.3265  0.1162
 1913TIP3    H127298   6.714   6.604   8.398 -0.4100 -0.5280  1.0526
 1913TIP3    H227299   6.581   6.535   8.375 -0.4338 -0.1245 -0.1157
 1914TIP3   OH227300   2.406   4.062   7.266 -0.3099  0.1407  0.1375
 1914TIP3    H127301   2.387   3.976   7.227 -2.9262  0.2286  1.0138
 1914TIP3    H227302   2.374   4.055   7.356  0.1629  1.7860  0.4652
 1915TIP3   OH227303   1.082   1.714   8.530  0.9097  0.1884 -0.0293
 1915TIP3    H127304   1.119   1.664   8.603 -0.3520  2.9821  2.7824
 1915TIP3    H227305   1.013   1.658   8.495  0.3155 -0.5829  2.2041
 1916TIP3   OH227306   6.624   4.077   0.501  0.1934 -0.2486  0.0854
 1916TIP3    H127307   6.530   4.061   0.495  0.4046 -1.6091  0.0923
 1916TIP3    H227308   6.649   4.105   0.413 -0.6985  3.2400  0.7982
 1917TIP3   OH227309   3.604   0.725   7.392 -0.3761  0.1831 -0.0698
 1917TIP3    H127310   3.585   0.755   7.481  1.9897  2.5334 -0.2463
 1917TIP3    H227311   3.529   0.755   7.341 -1.3407 -0.3986  0.9610
 1918TIP3   OH227312   0.769   6.494   8.443  0.5495 -0.1164 -0.3594
 1918TIP3    H127313   0.695   6.536   8.399 -1.8504 -1.9549  1.6037
 1918TIP3    H227314   0.783   6.547   8.521  0.2817 -0.6186  0.0327
 1919TIP3   OH227315   2.029   1.344   1.547  0.0540 -0.1355 -0.2234
 1919TIP3    H127316   2.051   1.311   1.460 -0.0483 -0.1624 -0.2396
 1919TIP3    H227317   2.019   1.265   1.600  3.8907 -0.1224  0.7827
 1920TIP3   OH227318   5.155   6.681   7.191  0.1950  0.0847 -0.1636
 1920TIP3    H127319   5.081   6.732   7.224  0.3767  1.0607 -1.2005
 1920TIP3    H227320   5.227   6.702   7.251 -0.3305 -0.8726  0.8524
 1921TIP3   OH227321   0.380   3.023   2.003  0.6201  0.2401 -0.0340
 1921TIP3    H127322   0.435   3.035   1.925 -1.1469 -1.3278 -1.6187
 1921TIP3    H227323   0.318   3.095   1.998  0.8951  0.5035  0.2990
 1922TIP3   OH227324   5.712   0.056   7.669 -0.3827 -0.5804 -0.4217
 1922TIP3    H127325   5.744   0.109   7.596 -1.3397  1.4077  0.5436
 1922TIP3    H227326   5.617   0.071   7.670 -0.3850 -0.5412  1.2426
 1923TIP3   OH227327   0.567   1.002   8.107  0.3385  0.0290  0.0311
 1923TIP3    H127328   0.560   1.081   8.160  0.6749  0.1533 -0.1076
 1923TIP3    H227329   0.652   0.965   8.130 -0.6906 -1.4364  1.6623
 1924TIP3   OH227330   3.475   0.807   7.632 -0.0395  0.0191 -0.2513
 1924TIP3    H127331   3.389   0.773   7.609 -0.6598  0.9239  0.6415
 1924TIP3    H227332   3.472   0.819   7.727  0.2657  2.1674 -0.4649
 1925TIP3   OH227333   3.939   1.559   2.597 -0.1453  0.4100 -0.4913
 1925TIP3    H127334   3.879   1.601   2.659 -0.0021 -2.3369  1.7256
 1925TIP3    H227335   3.882   1.527   2.527 -1.1653 -0.8926  0.8530
 1926TIP3   OH227336   2.899   1.411   7.555 -0.1175 -0.2516  0.2025
 1926TIP3    H127337   2.879   1.328   7.597 -1.2471 -0.1732 -0.1568
 1926TIP3    H227338   2.970   1.391   7.494 -0.5332 -1.0093 -0.0418
 1927TIP3   OH227339   3.636   4.071   1.003  0.1363  0.1110 -0.5184
 1927TIP3    H127340   3.685   3.989   1.016  2.4136  1.3567 -0.6186
 1927TIP3    H227341   3.681   4.134   1.059 -1.4505  1.3434 -0.5814
 1928TIP3   OH227342   1.034   5.156   0.402  0.0906  0.8821  0.0743
 1928TIP3    H127343   0.942   5.184   0.404  0.2255  1.3787 -0.4219
 1928TIP3    H227344   1.052   5.125   0.491 -0.5415  0.8341  0.1884
 1929TIP3   OH227345   6.097   1.685   7.268  0.1838  0.0435 -0.0392
 1929TIP3    H127346   6.190   1.706   7.270  0.5716 -1.6033  0.0659
 1929TIP3    H227347   6.075   1.685   7.174  0.3520  0.1715 -0.0801
 1930TIP3   OH227348   2.116   0.581   0.488 -0.5540 -0.4049  0.6583
 1930TIP3    H127349   2.115   0.653   0.551 -1.9657 -0.6529  0.9724
 1930TIP3    H227350   2.200   0.588   0.444 -0.5102  1.2216  0.9328
 1931TIP3   OH227351   0.190   1.287   0.686 -0.4082  0.0717  0.0475
 1931TIP3    H127352   0.255   1.229   0.647  0.7822  0.6227  1.1324
 1931TIP3    H227353   0.194   1.366   0.633 -1.7526 -0.6333 -1.1898
 1932TIP3   OH227354   3.941   5.467   1.610 -0.7042  0.4133  0.2370
 1932TIP3    H127355   3.982   5.550   1.636 -2.2043  0.5456  2.5055
 1932TIP3    H227356   4.005   5.400   1.635  0.1019  0.8090 -0.6955
 1933TIP3   OH227357   6.661   1.060   1.638 -0.0534 -0.3657  0.4152
 1933TIP3    H127358   6.712   0.981   1.620 -0.3067 -0.5879  0.6594
 1933TIP3    H227359   6.718   1.114   1.693  0.9891  0.6216 -1.5474
 1934TIP3   OH227360   0.577   5.729   7.905  0.0499  0.6656 -0.3021
 1934TIP3    H127361   0.641   5.797   7.887 -0.0954  0.6220 -1.0264
 1934TIP3    H227362   0.618   5.648   7.875 -0.3035  0.6265 -0.6940
 1935TIP3   OH227363   1.823   0.385   8.566  0.5287  0.7078 -0.1082
 1935TIP3    H127364   1.777   0.446   8.507 -2.1642 -0.8428  0.2214
 1935TIP3    H227365   1.794   0.411   8.654  0.0975 -0.4324  0.1001
 1936TIP3   OH227366   3.507   3.834   6.417  0.1524  0.0025 -1.0691
 1936TIP3    H127367   3.563   3.897   6.462 -0.2090  1.0438 -2.0397
 1936TIP3    H227368   3.450   3.800   6.486  1.3127 -0.3711 -0.2509
 1937TIP3   OH227369   3.523   1.296   2.223 -0.0963  0.0284 -0.0860
 1937TIP3    H127370   3.475   1.246   2.290  0.1420  2.1349  1.7845
 1937TIP3    H227371   3.458   1.357   2.189 -0.5681 -1.8045 -2.8296
 1938TIP3   OH227372   0.460   5.119   8.609 -0.1896 -0.7844  0.6019
 1938TIP3    H127373   0.394   5.168   8.560  1.8465  2.7607  1.0744
 1938TIP3    H227374   0.425   5.115   8.698 -0.6381 -0.7019  0.4342
 1939TIP3   OH227375   5.884   3.467   7.720 -0.3282 -0.3667  0.4618
 1939TIP3    H127376   5.867   3.487   7.628 -3.3103  0.3538  1.0641
 1939TIP3    H227377   5.799   3.439   7.754  0.8635 -1.3268  2.8439
 1940TIP3   OH227378   2.738   6.757   0.416  0.1971  0.1300 -0.3344
 1940TIP3    H127379   2.751   6.669   0.380  0.8020 -0.0035  0.1884
 1940TIP3    H227380   2.797   6.760   0.492  0.0073  0.9058 -0.2165
 1941TIP3   OH227381   5.019   4.840   7.510  0.1206  0.1591  0.0735
 1941TIP3    H127382   4.994   4.819   7.600  0.8700  0.0580  0.2611
 1941TIP3    H227383   5.058   4.759   7.476 -0.4470  0.0980 -0.4476
 1942TIP3   OH227384   5.789   0.918   0.494 -0.2237 -0.6090  0.3151
 1942TIP3    H127385   5.766   0.847   0.434 -2.6242  0.1465  0.2211
 1942TIP3    H227386   5.780   0.998   0.441  1.1860 -0.1397  0.7488
 1943TIP3   OH227387   4.696   1.619   8.472  0.2555 -0.3603 -0.2882
 1943TIP3    H127388   4.748   1.571   8.408 -0.5135 -2.4227  0.5386
 1943TIP3    H227389   4.651   1.686   8.421  0.5887 -1.1701 -1.6935
 1944TIP3   OH227390   0.131   6.631   2.470 -0.2622  0.1019  0.3705
 1944TIP3    H127391   0.186   6.704   2.496 -1.5695  0.2772  2.9261
 1944TIP3    H227392   0.172   6.554   2.510  1.8044 -0.9560 -3.2804
 1945TIP3   OH227393   2.909   0.253   0.235  0.7232 -0.1769 -0.5492
 1945TIP3    H127394   2.821   0.229   0.262  0.7489  1.2958  1.0354
 1945TIP3    H227395   2.948   0.292   0.313  2.0402  1.1481 -1.8073
 1946TIP3   OH227396   0.935   2.967   0.046  0.3403 -0.3834 -0.6370
 1946TIP3    H127397   0.899   2.892  -0.001 -1.4156  0.9592 -1.5524
 1946TIP3    H227398   0.869   3.036   0.035 -0.6418 -0.1314  4.4594
 1947TIP3   OH227399   0.580   6.610   7.603  0.0733  0.7645  0.2303
 1947TIP3    H127400   0.597   6.701   7.577  1.1193  0.1963 -1.1772
 1947TIP3    H227401   0.568   6.615   7.698  0.2224  2.3512  0.2053
 1948TIP3   OH227402   0.861   0.008   0.827  0.0381 -0.3928  0.1846
 1948TIP3    H127403   0.841  -0.006   0.919  0.2567  0.5708  0.3881
 1948TIP3    H227404   0.813  -0.061   0.781  0.6230 -1.4310  1.0709
 1949TIP3   OH227405   2.905   4.457   0.095  0.5342  0.2898  0.1071
 1949TIP3    H127406   2.990   4.414   0.088  0.5123  0.3298 -0.4088
 1949TIP3    H227407   2.841   4.390   0.072  0.3632  0.0276  1.2816
 1950TIP3   OH227408   5.010   5.379   8.073 -0.2679  0.4721 -0.2909
 1950TIP3    H127409   5.027   5.449   8.010 -0.3375 -0.8075 -1.8214
 1950TIP3    H227410   5.096   5.361   8.112 -0.0124  0.6121 -0.7757
 1951TIP3   OH227411   1.983   5.880   7.007 -0.1856 -0.3948  0.0486
 1951TIP3    H127412   1.954   5.936   7.079  3.3264  0.8110  0.7255
 1951TIP3    H227413   2.012   5.941   6.940 -0.0429 -1.4969 -0.9069
 1952TIP3   OH227414   1.853   0.581   0.360  0.2073 -0.7540 -0.3358
 1952TIP3    H127415   1.860   0.515   0.429  0.3921 -0.0358  0.3397
 1952TIP3    H227416   1.941   0.584   0.322  0.8459  0.7102  1.1478
 1953TIP3   OH227417   6.795   1.493   8.258  0.0669 -0.1847  0.2957
 1953TIP3    H127418   6.707   1.494   8.220  0.4700  0.6798 -0.6658
 1953TIP3    H227419   6.797   1.569   8.316 -0.3632 -1.1867  1.6766
 1954TIP3   OH227420   3.268   1.733   6.785 -0.3269  0.1201  1.0743
 1954TIP3    H127421   3.353   1.735   6.740 -0.5938 -0.3481  0.5291
 1954TIP3    H227422   3.227   1.653   6.753 -1.3675  0.8370  0.5823
 1955TIP3   OH227423   4.560   4.171   2.180 -0.2102 -0.3814 -0.8551
 1955TIP3    H127424   4.494   4.239   2.182 -1.3895 -1.4876 -0.5869
 1955TIP3    H227425   4.580   4.154   2.272 -0.1662 -0.6319 -0.9095
 1956TIP3   OH227426   3.312   4.220   1.193  0.8220 -0.5811  0.2135
 1956TIP3    H127427   3.318   4.140   1.141  0.6795 -0.5282  0.1149
 1956TIP3    H227428   3.328   4.291   1.130  0.8854 -0.5278  0.2881
 1957TIP3   OH227429   6.423   2.420   8.133 -0.3322 -0.2822 -0.3726
 1957TIP3    H127430   6.518   2.433   8.140  0.2567 -2.3607 -2.8915
 1957TIP3    H227431   6.405   2.342   8.185 -0.3556 -0.7832 -1.1109
 1958TIP3   OH227432   3.320   2.893   6.776 -0.0814 -0.0639  0.6952
 1958TIP3    H127433   3.339   2.982   6.806  2.5887 -0.6134  0.8947
 1958TIP3    H227434   3.235   2.872   6.815 -1.0970  2.5855  0.1142
 1959TIP3   OH227435   3.590   5.375   7.681 -0.0437 -0.2384 -0.2849
 1959TIP3    H127436   3.534   5.305   7.715  0.4906 -1.3614 -1.5966
 1959TIP3    H227437   3.673   5.364   7.726  0.7946 -1.9774 -2.0987
 1960TIP3   OH227438   0.647   3.882   7.858 -0.4851 -0.0786 -0.1621
 1960TIP3    H127439   0.645   3.786   7.865 -0.0442 -0.4759 -3.4837
 1960TIP3    H227440   0.584   3.902   7.789 -1.7019  2.2632  1.4969
 1961TIP3   OH227441   3.676   6.750   6.658  0.1743 -0.1418 -0.1285
 1961TIP3    H127442   3.760   6.754   6.611 -0.0500  1.3094 -0.4498
 1961TIP3    H227443   3.614   6.719   6.592 -0.3715  2.9923 -1.2496
 1962TIP3   OH227444   3.548   4.089   7.844 -0.4258  0.3574 -0.0584
 1962TIP3    H127445   3.517   4.004   7.874  0.9190  0.2949  1.3129
 1962TIP3    H227446   3.528   4.091   7.751  0.9794 -2.1856 -0.5051
 1963TIP3   OH227447   4.820   0.132   2.316  0.0904  0.5127 -0.2336
 1963TIP3    H127448   4.838   0.194   2.246  1.5717  1.2314  0.7498
 1963TIP3    H227449   4.764   0.179   2.377 -0.2945  0.2513 -0.3777
 1964TIP3   OH227450   0.279   3.954   2.265  0.5198 -0.9839  0.0000
 1964TIP3    H127451   0.368   3.936   2.294  0.6173 -0.2960  0.1360
 1964TIP3    H227452   0.231   3.872   2.282  1.2149 -1.4908 -0.4584
 1965TIP3   OH227453   6.838   0.852   1.646  0.4750 -0.5838  0.1475
 1965TIP3    H127454   6.881   0.858   1.560  1.7738  0.2547  0.8141
 1965TIP3    H227455   6.896   0.797   1.698  1.0579  0.9383  1.2030
 1966TIP3   OH227456   0.770   0.759   6.646 -0.2990 -0.0330 -0.3338
 1966TIP3    H127457   0.799   0.785   6.559  0.6690  0.4381  0.1108
 1966TIP3    H227458   0.762   0.664   6.642  1.0845 -0.1569 -0.5638
 1967TIP3   OH227459   2.324   4.181   0.870 -0.1581  0.2589 -0.5096
 1967TIP3    H127460   2.347   4.211   0.957  1.4111 -0.3846 -0.6777
 1967TIP3    H227461   2.247   4.125   0.884 -1.3819  1.9993  0.1305
 1968TIP3   OH227462   1.789   3.679   6.510  0.7411 -0.1358 -0.2067
 1968TIP3    H127463   1.732   3.611   6.546 -0.0152  0.9499  0.7568
 1968TIP3    H227464   1.878   3.644   6.519  0.3604 -1.0217  0.1789
 1969TIP3   OH227465   4.397   5.414   0.069  0.2005 -0.4950 -0.2777
 1969TIP3    H127466   4.386   5.481   0.001 -1.5023 -0.4225  0.0308
 1969TIP3    H227467   4.438   5.461   0.142  1.3828 -0.4114 -0.9620
 1970TIP3   OH227468   4.801   5.107   0.157 -0.2345  0.2370 -0.4957
 1970TIP3    H127469   4.852   5.036   0.195  1.0360  0.4152 -1.7624
 1970TIP3    H227470   4.776   5.162   0.231 -1.4865 -1.6488  0.5455
 1971TIP3   OH227471   3.553   2.134   8.155  0.7085  0.5623 -0.2013
 1971TIP3    H127472   3.572   2.040   8.163 -0.4230  0.3703  0.5353
 1971TIP3    H227473   3.554   2.166   8.245 -0.5978  0.8915 -0.2812
 1972TIP3   OH227474   5.979   3.137   1.949 -0.2907 -0.4363  0.2903
 1972TIP3    H127475   5.998   3.191   2.026 -2.5505 -0.0409  0.6302
 1972TIP3    H227476   5.985   3.047   1.980 -2.2515 -0.2735  1.2680
 1973TIP3   OH227477   4.218   1.124   0.081 -0.4391 -0.0578  0.9331
 1973TIP3    H127478   4.306   1.116   0.117 -0.8292  0.5812  2.0709
 1973TIP3    H227479   4.226   1.194   0.016 -0.3947  1.0077  2.0497
 1974TIP3   OH227480   0.906   0.802   1.379 -0.7135 -0.5655  0.6294
 1974TIP3    H127481   0.814   0.819   1.401 -0.8403 -1.2704  0.6623
 1974TIP3    H227482   0.935   0.882   1.335 -1.9571 -1.1011 -1.2664
 1975TIP3   OH227483   6.638   5.885   1.024 -0.2667 -0.1362  0.3902
 1975TIP3    H127484   6.618   5.826   0.951 -0.6075 -0.7427  0.9611
 1975TIP3    H227485   6.569   5.867   1.088  0.3045  0.0476  1.0636
 1976TIP3   OH227486   5.933   2.086   7.061 -0.0314 -0.1000  0.0879
 1976TIP3    H127487   5.896   2.160   7.012  1.2506 -0.3225 -1.3201
 1976TIP3    H227488   6.007   2.057   7.007  1.8560 -0.0262  2.4590
 1977TIP3   OH227489   6.312   6.411   1.662  0.0806 -0.2671  0.1266
 1977TIP3    H127490   6.220   6.420   1.688  0.3107  0.3475  0.7830
 1977TIP3    H227491   6.356   6.485   1.705  0.4249  1.1703 -2.4495
 1978TIP3   OH227492   2.620   5.503   0.776  0.2302  0.1725 -0.9482
 1978TIP3    H127493   2.685   5.550   0.829 -0.8608  1.1962 -0.4548
 1978TIP3    H227494   2.622   5.546   0.691  1.4940 -1.0255 -1.5663
 1979TIP3   OH227495   2.209   5.938   1.904  0.2534  0.1495  0.0764
 1979TIP3    H127496   2.133   5.988   1.875 -0.1456 -0.4062  0.1539
 1979TIP3    H227497   2.177   5.848   1.914  0.7834  0.0125  0.6342
 1980TIP3   OH227498   3.399   5.302   6.051  0.5954 -0.0418 -0.4903
 1980TIP3    H127499   3.350   5.365   5.999  2.6127 -0.1187 -2.6419
 1980TIP3    H227500   3.417   5.347   6.134 -0.2329  1.1869 -0.9597
 1981TIP3   OH227501   5.511   0.404   7.754 -0.4365  0.2064  0.4542
 1981TIP3    H127502   5.512   0.477   7.815 -0.7829 -0.2591  1.0250
 1981TIP3    H227503   5.505   0.326   7.809  0.1897 -0.2704 -0.1381
 1982TIP3   OH227504   3.647   0.382   6.848 -0.7929  0.7884  0.1203
 1982TIP3    H127505   3.683   0.303   6.888 -1.9064 -0.9948 -2.2104
 1982TIP3    H227506   3.671   0.452   6.909  1.0482 -1.1674  1.8145
 1983TIP3   OH227507   1.996   0.473   7.166 -0.1621  0.0395  0.0630
 1983TIP3    H127508   2.083   0.478   7.125  1.4543 -1.5759  2.9791
 1983TIP3    H227509   1.935   0.467   7.092  2.4848 -2.5739 -2.1520
 1984TIP3   OH227510   4.169   4.689   0.573 -0.4823  0.1810 -0.8134
 1984TIP3    H127511   4.173   4.650   0.660  3.2862  1.0317 -0.4554
 1984TIP3    H227512   4.196   4.619   0.514  0.2063  0.4948 -0.8817
 1985TIP3   OH227513   4.586   1.132   0.544  0.5520  0.2253  0.0131
 1985TIP3    H127514   4.671   1.127   0.589  1.1535 -1.2194 -1.2126
 1985TIP3    H227515   4.553   1.043   0.544 -0.6187  0.6380 -0.2241
 1986TIP3   OH227516   1.833   2.464   1.616 -0.0014  0.7070  0.3088
 1986TIP3    H127517   1.901   2.398   1.599  0.0019  0.6796  0.4252
 1986TIP3    H227518   1.881   2.539   1.652  0.1420  1.2124 -0.9009
 1987TIP3   OH227519   1.028   0.014   0.406 -0.1216 -0.1488  0.4273
 1987TIP3    H127520   1.032  -0.026   0.319 -1.5487 -0.0880  0.2992
 1987TIP3    H227521   1.071   0.098   0.396  0.3319 -0.4340 -0.0489
 1988TIP3   OH227522   3.921   6.609   1.630  0.4179 -0.0435  0.1094
 1988TIP3    H127523   3.981   6.563   1.572  0.2421 -0.0866 -0.0388
 1988TIP3    H227524   3.909   6.550   1.704 -0.5380 -0.6564 -0.5100
 1989TIP3   OH227525   1.509   2.178   6.902 -0.2612 -0.0744 -0.0172
 1989TIP3    H127526   1.595   2.152   6.869 -0.4502 -2.3906  1.1214
 1989TIP3    H227527   1.529   2.234   6.977  0.3282 -1.5210  0.9493
 1990TIP3   OH227528   1.712   0.400   8.268 -0.4678 -0.0342  0.2901
 1990TIP3    H127529   1.786   0.438   8.314 -0.2889  1.1431 -0.9155
 1990TIP3    H227530   1.667   0.348   8.334  1.3779 -0.7363  1.0714
 1991TIP3   OH227531   6.191   4.350   1.278 -0.0422 -0.2966 -0.1335
 1991TIP3    H127532   6.179   4.273   1.334  2.8466 -0.8155 -0.0671
 1991TIP3    H227533   6.250   4.407   1.327  0.1807  0.6132 -1.4088
 1992TIP3   OH227534   0.891   3.133   8.180 -0.4197  0.2164  0.5403
 1992TIP3    H127535   0.856   3.044   8.174  1.1598 -0.4719  1.1489
 1992TIP3    H227536   0.813   3.189   8.174 -1.3641 -1.1542 -0.6379
 1993TIP3   OH227537   1.287   3.994   8.620  0.8173 -0.3374 -0.4493
 1993TIP3    H127538   1.312   3.952   8.538 -2.4995  0.0067 -1.7849
 1993TIP3    H227539   1.258   4.082   8.595  2.1656  0.7462  1.4990
 1994TIP3   OH227540   4.944   0.901   8.119  0.2128  0.0379  0.1771
 1994TIP3    H127541   4.996   0.870   8.193  1.4621 -0.1022 -0.7279
 1994TIP3    H227542   4.976   0.990   8.102 -0.4719  0.2938  0.1506
 1995TIP3   OH227543   6.187   4.719   6.901 -0.2113 -0.0657  0.4858
 1995TIP3    H127544   6.170   4.667   6.822  1.2397  1.4550 -0.8927
 1995TIP3    H227545   6.248   4.665   6.952  0.3120 -0.2696 -0.3326
 1996TIP3   OH227546   5.691   3.382   8.384  0.0423  0.5285 -0.0387
 1996TIP3    H127547   5.612   3.385   8.439 -1.0096 -1.4727 -1.3091
 1996TIP3    H227548   5.658   3.375   8.295  1.6486 -0.4258 -0.6010
 1997TIP3   OH227549   4.499   0.251   0.141 -1.3568  0.4862  0.1151
 1997TIP3    H127550   4.576   0.289   0.184 -1.2228  1.3555 -0.8377
 1997TIP3    H227551   4.457   0.198   0.209  0.5118 -0.6778  0.4541
 1998TIP3   OH227552   4.276   0.447   7.199 -0.7560 -0.1496  0.3000
 1998TIP3    H127553   4.360   0.415   7.165 -1.1783  0.5702 -1.5637
 1998TIP3    H227554   4.264   0.400   7.281  1.7431  0.1530  0.9300
 1999TIP3   OH227555   2.157   0.111   0.952 -0.3011  0.0520  0.2151
 1999TIP3    H127556   2.223   0.081   1.015  0.5299  0.2892 -0.5139
 1999TIP3    H227557   2.208   0.152   0.881 -1.2274  0.1205 -0.4372
 2000TIP3   OH227558   1.970   3.958   1.960 -0.0077 -0.2311 -0.3930
 2000TIP3    H127559   2.006   4.046   1.977 -0.3186  0.3883 -2.5983
 2000TIP3    H227560   1.890   3.954   2.014  0.0798  0.7957 -0.1658
 2001TIP3   OH227561   0.055   1.846   0.794  0.1562 -0.1314  0.0560
 2001TIP3    H127562  -0.004   1.864   0.721  0.0148  0.5142  0.3204
 2001TIP3    H227563  -0.002   1.826   0.868  0.0973  2.9012  0.9755
 2002TIP3   OH227564   4.991   5.760   6.472  0.7704 -0.0976  0.4301
 2002TIP3    H127565   5.028   5.792   6.389  0.1190  0.2663  0.2691
 2002TIP3    H227566   5.029   5.673   6.484  1.0664 -0.0489 -0.1236
 2003TIP3   OH227567   4.613   6.148   0.011  0.3432 -0.4667  0.1028
 2003TIP3    H127568   4.526   6.140  -0.027 -0.4065  1.4488  1.2615
 2003TIP3    H227569   4.673   6.122  -0.059 -1.0356  1.1443 -1.7903
 2004TIP3   OH227570   1.461   1.114   0.157  0.5311  0.7447  0.2704
 2004TIP3    H127571   1.493   1.126   0.068 -1.2549  0.5589 -0.4243
 2004TIP3    H227572   1.441   1.021   0.164 -0.1500  0.9109  0.5851
 2005TIP3   OH227573   0.130   0.006   8.010  0.2212 -0.1111 -0.3889
 2005TIP3    H127574   0.056  -0.054   8.014  0.1852 -0.0264  0.4618
 2005TIP3    H227575   0.136   0.031   7.918 -1.6657  0.9359 -0.2796
 2006TIP3   OH227576   2.828   2.603   6.979  0.2758  0.7444  0.2846
 2006TIP3    H127577   2.818   2.554   6.897  1.0755 -0.0948  0.6634
 2006TIP3    H227578   2.873   2.542   7.038 -0.2347  1.3463  1.3384
 2007TIP3   OH227579   4.816   5.083   8.526  0.2054  0.4377  0.4827
 2007TIP3    H127580   4.839   5.059   8.615  1.2225 -0.2025  0.0644
 2007TIP3    H227581   4.813   5.179   8.527 -2.9711  0.4359  1.9446
 2008TIP3   OH227582   4.616   0.543   1.681  0.2981  0.0064  0.0345
 2008TIP3    H127583   4.625   0.630   1.644 -0.2812 -0.1246 -0.4294
 2008TIP3    H227584   4.676   0.489   1.629  0.6646  0.1289  0.3286
 2009TIP3   OH227585   4.713   1.214   8.102 -0.2521  0.2834  0.4212
 2009TIP3    H127586   4.765   1.293   8.118 -1.3446  1.5823 -1.8849
 2009TIP3    H227587   4.740   1.185   8.014 -0.5211 -1.4218  0.8617
 2010TIP3   OH227588   0.005   5.672   6.638 -0.2515  0.3129  0.1092
 2010TIP3    H127589   0.018   5.759   6.600 -2.0130  0.9754  0.9092
 2010TIP3    H227590  -0.084   5.675   6.673 -1.3135 -2.6053 -1.9476
 2011TIP3   OH227591   6.014   1.873   0.744  0.6091  0.3601 -0.4646
 2011TIP3    H127592   6.053   1.914   0.821 -1.5677 -1.6554  1.8744
 2011TIP3    H227593   5.935   1.924   0.728  1.9435  1.9311 -2.6829
 2012TIP3   OH227594   2.263   2.454   0.206 -0.1122  0.4227 -0.2193
 2012TIP3    H127595   2.223   2.372   0.177  0.1137  0.5125 -0.8050
 2012TIP3    H227596   2.262   2.509   0.128  0.6377  0.6245 -0.0892
 2013TIP3   OH227597   3.651   0.696   0.225  0.3769 -0.2889  0.0468
 2013TIP3    H127598   3.622   0.609   0.251  1.1951 -0.4511  0.4338
 2013TIP3    H227599   3.570   0.741   0.199  0.0028 -1.3234 -0.6686
 2014TIP3   OH227600   5.004   6.438   7.095 -0.3326 -0.5666 -0.0829
 2014TIP3    H127601   5.082   6.437   7.039 -1.3432  1.3937 -1.6711
 2014TIP3    H227602   5.023   6.505   7.161 -0.2506 -0.8791  0.2132
 2015TIP3   OH227603   0.108   1.533   0.514 -0.1996  0.1477  0.3355
 2015TIP3    H127604   0.016   1.556   0.520 -0.4501 -0.7864  0.2084
 2015TIP3    H227605   0.147   1.570   0.593 -0.6027  0.8937  0.1915
 2016TIP3   OH227606   5.277   6.309   1.026 -0.4555 -0.2347  0.1714
 2016TIP3    H127607   5.337   6.276   1.093  0.9202  3.1349  0.7561
 2016TIP3    H227608   5.320   6.288   0.943  0.6409  0.5053  0.5347
 2017TIP3   OH227609   1.620   3.229   8.187 -0.0736 -0.4131 -0.3914
 2017TIP3    H127610   1.542   3.283   8.173  0.0609  0.0048  0.4042
 2017TIP3    H227611   1.649   3.205   8.099 -1.1868 -0.7046 -0.6982
 2018TIP3   OH227612   2.971   4.413   1.754 -0.8118 -0.4227 -0.1855
 2018TIP3    H127613   2.916   4.491   1.765  0.6597  0.6071  0.1692
 2018TIP3    H227614   2.915   4.340   1.782 -2.1954  0.5021 -0.4462
 2019TIP3   OH227615   5.470   5.737   7.082  0.2556 -0.0720 -0.3215
 2019TIP3    H127616   5.418   5.766   7.008 -0.8648 -3.2170 -0.9049
 2019TIP3    H227617   5.559   5.768   7.064 -0.7559  2.7125 -0.8572
 2020TIP3   OH227618   0.622   4.435   0.201 -0.5729  0.1931  0.7669
 2020TIP3    H127619   0.599   4.404   0.289 -1.2457  0.4890  0.7069
 2020TIP3    H227620   0.663   4.520   0.216  0.9481 -0.5326  0.9063
 2021TIP3   OH227621   0.498   4.280   7.034 -0.2453 -0.1901  0.0191
 2021TIP3    H127622   0.586   4.317   7.026  0.0264 -1.0520 -1.1654
 2021TIP3    H227623   0.449   4.345   7.084 -0.0669  2.3305 -2.7915
 2022TIP3   OH227624   5.356   0.037   8.200 -0.5376 -0.5010 -0.3435
 2022TIP3    H127625   5.439  -0.005   8.177 -1.0037 -0.9465 -1.2429
 2022TIP3    H227626   5.376   0.086   8.280  0.7608 -0.0339 -0.9284
 2023TIP3   OH227627   6.860   2.471   0.226 -0.1259  0.3691  0.2160
 2023TIP3    H127628   6.793   2.410   0.256  1.7612 -0.9083  2.0252
 2023TIP3    H227629   6.869   2.534   0.298 -1.1257  2.1166 -1.0931
 2024TIP3   OH227630   1.236   0.224   8.419 -0.5112 -0.3653 -0.7317
 2024TIP3    H127631   1.231   0.318   8.400  0.5337 -0.3165 -0.8227
 2024TIP3    H227632   1.190   0.214   8.502 -2.1086 -0.0443 -1.5397
 2025TIP3   OH227633   2.217   6.438   7.221 -0.3967 -0.0601  0.4933
 2025TIP3    H127634   2.139   6.404   7.178 -0.1999 -1.0502  0.8884
 2025TIP3    H227635   2.264   6.360   7.251  0.2147  0.5534  1.1892
 2026TIP3   OH227636   4.072   6.384   1.893  1.1009  0.2144  1.2461
 2026TIP3    H127637   3.989   6.427   1.912  0.5682 -1.1823  2.2212
 2026TIP3    H227638   4.139   6.451   1.910  0.1693  1.9454 -1.2598
 2027TIP3   OH227639   1.277   5.810   6.473  0.2309  0.1429 -0.0334
 2027TIP3    H127640   1.326   5.736   6.510  0.8174  0.8595  0.6458
 2027TIP3    H227641   1.187   5.795   6.503 -0.5121 -2.3063 -2.9834
 2028TIP3   OH227642   3.547   6.058   0.708  0.5747 -0.0964 -0.3898
 2028TIP3    H127643   3.508   6.139   0.676 -0.3788  0.0273  0.9623
 2028TIP3    H227644   3.622   6.042   0.651 -0.0151  1.0153 -1.5070
 2029TIP3   OH227645   3.095   0.773   1.732  0.0835 -0.0154  0.4294
 2029TIP3    H127646   3.040   0.763   1.809 -1.6181  0.0403 -0.7136
 2029TIP3    H227647   3.074   0.860   1.699  1.3274  0.2539  0.2745
 2030TIP3   OH227648   2.889   3.588   1.229  0.3325 -0.3046 -0.2640
 2030TIP3    H127649   2.926   3.603   1.141 -0.6674  2.0618 -0.3606
 2030TIP3    H227650   2.951   3.529   1.271  1.2448 -0.9008 -2.3037
 2031TIP3   OH227651   0.694   1.581   8.254 -0.3550 -0.0035  0.3375
 2031TIP3    H127652   0.675   1.613   8.165  1.2149 -1.4761 -0.5844
 2031TIP3    H227653   0.623   1.521   8.274  0.1223 -0.9255 -0.6330
 2032TIP3   OH227654   4.756   0.547   6.406  0.1594 -0.3109  0.4169
 2032TIP3    H127655   4.794   0.629   6.374 -0.2461  0.0514  0.8619
 2032TIP3    H227656   4.766   0.487   6.332 -1.0221  0.5927 -0.5352
 2033TIP3   OH227657   1.561   2.925   1.757 -0.0342 -0.0441  0.0251
 2033TIP3    H127658   1.535   2.840   1.792  0.6493 -0.3831 -0.2647
 2033TIP3    H227659   1.651   2.912   1.728  0.1981  0.8771  0.2955
 2034TIP3   OH227660   4.285   3.268   7.611 -0.6128 -0.1524 -0.2179
 2034TIP3    H127661   4.293   3.186   7.661 -0.7643 -0.2256 -0.3134
 2034TIP3    H227662   4.243   3.243   7.529 -0.1464 -0.0682 -0.4854
 2035TIP3   OH227663   4.866   2.951   6.561  0.0103  0.1420 -1.0293
 2035TIP3    H127664   4.798   2.889   6.537  0.2349 -0.9802  0.9729
 2035TIP3    H227665   4.828   3.037   6.544 -1.1471 -0.4927 -1.7551
 2036TIP3   OH227666   2.945   3.479   7.375  0.3191 -0.4365  0.0662
 2036TIP3    H127667   3.000   3.449   7.303 -0.0983  2.1857 -1.4460
 2036TIP3    H227668   2.960   3.573   7.381 -0.4736 -0.3747  2.7493
 2037TIP3   OH227669   4.235   1.755   1.816  0.1951 -0.3697  0.2380
 2037TIP3    H127670   4.164   1.728   1.758  2.3591 -4.7756 -0.8539
 2037TIP3    H227671   4.197   1.753   1.904 -1.2711 -1.6470 -0.3793
 2038TIP3   OH227672   4.215   0.675   6.941 -0.5331 -0.0144  0.0642
 2038TIP3    H127673   4.160   0.735   6.891 -0.5734  0.3399  0.5280
 2038TIP3    H227674   4.163   0.654   7.019  0.0535  0.4764  0.6051
 2039TIP3   OH227675   4.716   1.298   0.374  0.2500 -0.1543  0.0611
 2039TIP3    H127676   4.773   1.338   0.440 -1.5555 -0.1858  1.7191
 2039TIP3    H227677   4.654   1.245   0.425 -1.4717  0.1520 -1.6229
 2040TIP3   OH227678   6.131   4.925   7.624 -0.4981 -0.4020  0.3074
 2040TIP3    H127679   6.131   5.005   7.571 -0.5647 -0.7162 -0.1744
 2040TIP3    H227680   6.219   4.921   7.661 -0.5147 -0.0695  0.3859
 2041TIP3   OH227681   3.697   6.525   7.561  0.3188  0.3780  0.1116
 2041TIP3    H127682   3.617   6.562   7.522 -0.2172  0.3096  1.1206
 2041TIP3    H227683   3.673   6.435   7.582  1.1771 -0.1304 -1.0415
 2042TIP3   OH227684   3.319   1.394   6.329 -0.7516  0.1702  0.0053
 2042TIP3    H127685   3.305   1.315   6.381 -1.7714  2.2044  3.0550
 2042TIP3    H227686   3.414   1.396   6.315 -0.5795 -1.0179  0.8064
 2043TIP3   OH227687   3.069   6.806   6.705  0.3052  0.1352 -0.1136
 2043TIP3    H127688   3.024   6.884   6.672  0.0460  1.1774  2.4012
 2043TIP3    H227689   3.162   6.831   6.706  0.3773 -0.1067 -0.5563
 2044TIP3   OH227690   6.453   0.444   6.852 -0.4016  0.2479  0.1806
 2044TIP3    H127691   6.452   0.350   6.833 -1.8399 -0.0319  1.4381
 2044TIP3    H227692   6.535   0.457   6.901  0.1911 -0.1809 -0.6647
 2045TIP3   OH227693   2.674   5.978   0.784  0.5155 -0.3712 -0.1465
 2045TIP3    H127694   2.632   5.979   0.698  0.4037  0.6412 -0.0864
 2045TIP3    H227695   2.757   5.933   0.769  0.0773 -1.0627 -0.5768
 2046TIP3   OH227696   5.192   1.855   2.186  0.0393 -0.0617  0.1004
 2046TIP3    H127697   5.213   1.947   2.196 -1.2000  0.3395 -0.8300
 2046TIP3    H227698   5.096   1.851   2.186  0.0587 -1.2235 -0.8873
 2047TIP3   OH227699   4.883   2.092   1.286 -0.0835 -0.3483  0.6035
 2047TIP3    H127700   4.909   2.094   1.193 -2.6280  1.2406 -0.1538
 2047TIP3    H227701   4.913   2.176   1.320 -0.8744 -0.1120  0.7113
 2048TIP3   OH227702   0.477   3.609   8.269  0.8858  0.9402  0.6662
 2048TIP3    H127703   0.402   3.553   8.289  1.3534  0.0969  0.1145
 2048TIP3    H227704   0.446   3.668   8.201  1.0821 -0.2885 -0.5314
 2049TIP3   OH227705   6.449   1.536   2.597  0.3168  0.3654  0.1246
 2049TIP3    H127706   6.453   1.442   2.579 -0.8484  0.2168  0.5721
 2049TIP3    H227707   6.372   1.546   2.653  1.6905  1.2870  1.9399
 2050TIP3   OH227708   3.473   1.053   8.240  0.7420 -0.2120  0.2233
 2050TIP3    H127709   3.560   1.021   8.261 -0.1576 -1.3976  2.5239
 2050TIP3    H227710   3.448   1.109   8.314 -0.2237  0.5879 -0.6715
 2051TIP3   OH227711   1.410   6.237   7.095 -0.2501  0.0311  0.3163
 2051TIP3    H127712   1.417   6.272   7.184 -0.0458 -0.9406  0.6955
 2051TIP3    H227713   1.487   6.271   7.050 -0.4331  0.6510  0.4593
 2052TIP3   OH227714   0.097   5.901   1.337 -0.0158  0.2411 -0.5096
 2052TIP3    H127715   0.181   5.859   1.358 -0.2567  0.2068  0.4361
 2052TIP3    H227716   0.087   5.967   1.405 -2.0180 -1.5355  1.0610
 2053TIP3   OH227717   5.228   5.381   7.272 -0.1904 -0.1226  0.1995
 2053TIP3    H127718   5.284   5.304   7.287 -0.1608 -0.3203 -0.8327
 2053TIP3    H227719   5.140   5.344   7.261  0.0473 -0.1797 -1.7862
 2054TIP3   OH227720   3.382   3.961   1.049  0.3633 -0.1073 -0.1654
 2054TIP3    H127721   3.461   4.005   1.018  1.4288 -0.7857  1.4828
 2054TIP3    H227722   3.409   3.871   1.064 -0.8320 -0.4404  0.0991
 2055TIP3   OH227723   1.645   0.685   7.011  0.2278 -0.4142  0.2792
 2055TIP3    H127724   1.633   0.708   6.919 -0.1703  0.1995  0.4782
 2055TIP3    H227725   1.608   0.596   7.018 -1.1635  0.1296  0.1566
 2056TIP3   OH227726   0.586   0.312   8.394 -0.3159  0.1001 -0.0291
 2056TIP3    H127727   0.509   0.294   8.339  0.6819 -1.8082 -0.9105
 2056TIP3    H227728   0.554   0.374   8.459 -2.0348  1.0511 -1.6553
 2057TIP3   OH227729   2.725   2.029   6.812 -0.1731 -0.2928  0.1746
 2057TIP3    H127730   2.745   1.944   6.851 -0.1229 -0.3984 -0.0802
 2057TIP3    H227731   2.683   2.008   6.729  1.9719 -0.1026 -1.0295
 2058TIP3   OH227732   6.099   1.469   1.233 -0.2719 -0.4958  0.1138
 2058TIP3    H127733   6.128   1.510   1.314 -0.8180  1.4727 -0.6081
 2058TIP3    H227734   6.180   1.449   1.186  0.0215 -0.5920  0.6538
 2059TIP3   OH227735   2.818   2.203   7.812 -0.0741 -1.0948 -0.3265
 2059TIP3    H127736   2.807   2.216   7.718 -1.6464 -1.7151 -0.2759
 2059TIP3    H227737   2.745   2.252   7.851 -0.8831 -2.7691  0.3798
 2060TIP3   OH227738   3.231   5.006   6.876 -0.3920  0.1970 -0.4272
 2060TIP3    H127739   3.210   4.927   6.826  0.8058 -1.4945  1.6128
 2060TIP3    H227740   3.319   5.030   6.847 -0.1946 -0.0481 -0.0303
 2061TIP3   OH227741   2.552   4.828   0.262  0.2985  0.4125 -0.0289
 2061TIP3    H127742   2.457   4.822   0.257  0.4387 -1.9777 -1.3931
 2061TIP3    H227743   2.574   4.798   0.350 -0.2038  1.5973  0.5211
 2062TIP3   OH227744   0.722   3.673   0.134  0.0577  0.4198  0.3682
 2062TIP3    H127745   0.650   3.702   0.078  1.8086  2.9662 -0.7380
 2062TIP3    H227746   0.679   3.625   0.205 -2.3920 -1.4700 -2.1647
 2063TIP3   OH227747   1.430   4.405   8.093  0.1068  0.3581  0.3072
 2063TIP3    H127748   1.436   4.464   8.168  0.6312 -0.6482  1.0833
 2063TIP3    H227749   1.521   4.385   8.071 -0.0360  0.8073 -0.7480
 2064TIP3   OH227750   6.449   5.477   2.375  0.0532  0.0986  0.2230
 2064TIP3    H127751   6.521   5.446   2.319  0.7116  0.5531  0.8034
 2064TIP3    H227752   6.465   5.435   2.459 -0.2270  0.3945  0.4224
 2065TIP3   OH227753   0.092   0.915   7.083  0.8864  0.4011 -0.1390
 2065TIP3    H127754  -0.000   0.892   7.075  0.8127  0.3065  0.8900
 2065TIP3    H227755   0.139   0.833   7.067  0.8080  0.5041 -0.9176
 2066TIP3   OH227756   2.483   5.392   2.530  0.5965 -0.1893 -0.0424
 2066TIP3    H127757   2.547   5.323   2.510  0.7378 -0.3643  0.9922
 2066TIP3    H227758   2.536   5.472   2.538  0.4879 -0.0357 -0.7589
 2067TIP3   OH227759   2.739   2.864   7.395 -0.3695 -0.4454 -0.4494
 2067TIP3    H127760   2.740   2.826   7.307  2.2674  1.6686 -1.4695
 2067TIP3    H227761   2.807   2.816   7.442 -1.2422 -1.0399  0.2452
 2068TIP3   OH227762   1.902   2.864   1.056  0.1339  0.1355  0.0746
 2068TIP3    H127763   1.841   2.861   1.130  0.1286 -1.6018  0.0475
 2068TIP3    H227764   1.846   2.861   0.978  0.1609  1.4555 -0.0129
 2069TIP3   OH227765   5.487   6.746   6.678  0.1195  0.0221  0.6442
 2069TIP3    H127766   5.450   6.669   6.636 -0.8344  0.5710  0.4679
 2069TIP3    H227767   5.574   6.756   6.638  0.2817 -0.9843  0.7157
 2070TIP3   OH227768   1.970   4.371   0.913 -1.0354  0.4782 -0.1993
 2070TIP3    H127769   1.880   4.340   0.921 -0.6641 -0.8916 -0.8589
 2070TIP3    H227770   2.006   4.321   0.840  0.6392  0.0024  0.8804
 2071TIP3   OH227771   3.763   0.534   7.066 -0.4385 -0.0097 -0.0193
 2071TIP3    H127772   3.857   0.549   7.057 -0.4845 -0.4213 -1.3633
 2071TIP3    H227773   3.749   0.525   7.161  0.9398 -0.3738  0.1708
 2072TIP3   OH227774   1.573   2.449   8.244  0.0941  0.2067  0.4892
 2072TIP3    H127775   1.559   2.365   8.199 -2.3063  0.9193 -0.2519
 2072TIP3    H227776   1.547   2.431   8.335 -1.6358  0.4041  0.0659
 2073TIP3   OH227777   0.406   5.643   7.313  0.3487  0.1780 -0.5310
 2073TIP3    H127778   0.417   5.556   7.274 -0.1281 -0.5090  0.8054
 2073TIP3    H227779   0.381   5.699   7.240 -0.3902 -1.0372 -1.2385
 2074TIP3   OH227780   1.181   6.726   2.042 -0.0971 -0.1500  0.1961
 2074TIP3    H127781   1.164   6.813   2.079 -2.1658 -0.1016 -0.7337
 2074TIP3    H227782   1.197   6.743   1.949  0.6033 -0.6665  0.2181
 2075TIP3   OH227783   4.270   3.739   7.864 -0.2060  0.4699  0.2406
 2075TIP3    H127784   4.190   3.687   7.875  0.3818 -0.7235 -0.7991
 2075TIP3    H227785   4.239   3.829   7.854 -1.2618  0.3484  2.0056
 2076TIP3   OH227786   1.090   0.822   8.265  0.0796  0.4974  1.0209
 2076TIP3    H127787   1.117   0.735   8.238 -0.2199  0.3592  1.1705
 2076TIP3    H227788   1.132   0.881   8.201  0.5776  0.2732  1.1340
 2077TIP3   OH227789   3.432   5.699   0.745 -0.2763 -0.8058 -0.0196
 2077TIP3    H127790   3.452   5.735   0.659  1.9934  1.0065  1.1701
 2077TIP3    H227791   3.347   5.736   0.768 -0.9767 -1.4335 -1.4882
 2078TIP3   OH227792   0.583   1.350   1.660 -0.1790 -0.9627 -0.4383
 2078TIP3    H127793   0.676   1.329   1.672 -0.1370 -1.0186 -0.8404
 2078TIP3    H227794   0.542   1.265   1.644 -0.2158 -0.8808 -0.7816
 2079TIP3   OH227795   6.600   0.830   6.276 -0.3884 -0.7850 -0.3983
 2079TIP3    H127796   6.657   0.887   6.327  0.1506 -0.4521 -1.3476
 2079TIP3    H227797   6.572   0.762   6.337 -0.7591  0.2885  0.6555
 2080TIP3   OH227798   2.559   3.307   7.349 -0.4231 -0.7812  0.7204
 2080TIP3    H127799   2.622   3.295   7.278 -0.0538  2.3689  0.3625
 2080TIP3    H227800   2.613   3.323   7.426 -0.8458 -2.3526  1.3862
 2081TIP3   OH227801   4.474   1.962   0.306 -0.1318  0.2702  0.2132
 2081TIP3    H127802   4.463   1.867   0.308  2.4797 -0.1457 -0.8413
 2081TIP3    H227803   4.385   1.996   0.305 -1.1577 -2.1709  0.2267
 2082TIP3   OH227804   1.506   0.885   7.966  0.0667  0.2848  0.8083
 2082TIP3    H127805   1.584   0.891   8.021 -0.4229 -0.2252  1.5894
 2082TIP3    H227806   1.444   0.946   8.007 -0.5306 -0.5884  1.2323
 2083TIP3   OH227807   1.267   0.538   1.279 -0.0852 -0.1941 -0.1536
 2083TIP3    H127808   1.172   0.532   1.273 -0.0824 -1.6335  0.7865
 2083TIP3    H227809   1.295   0.551   1.188 -1.1107 -0.9126 -0.5977
 2084TIP3   OH227810   5.097   5.414   0.321 -0.2111  0.1549 -0.0727
 2084TIP3    H127811   5.069   5.370   0.401 -1.0721  1.0754  0.1570
 2084TIP3    H227812   5.034   5.485   0.309  1.0707  1.2761 -0.4737
 2085TIP3   OH227813   5.577   3.764   0.249  0.0923  0.3776  0.1252
 2085TIP3    H127814   5.530   3.847   0.247  0.3564  0.5421  0.6936
 2085TIP3    H227815   5.522   3.706   0.302  1.1620  0.9783  1.9848
 2086TIP3   OH227816   4.468   5.013   1.361  0.3500  0.1348 -0.6799
 2086TIP3    H127817   4.419   5.040   1.439  1.2425  0.5491 -0.2569
 2086TIP3    H227818   4.454   4.918   1.357  1.9522 -0.2496  1.1909
 2087TIP3   OH227819   1.259   2.076   6.370  0.1106 -0.8604  0.1382
 2087TIP3    H127820   1.354   2.069   6.383  0.6259  0.3921 -2.4211
 2087TIP3    H227821   1.237   2.000   6.316 -0.1858 -0.6950  0.0236
 2088TIP3   OH227822   6.101   2.124   7.917  0.2210  0.0828 -0.0749
 2088TIP3    H127823   6.118   2.183   7.843 -0.2272  0.2696 -0.0280
 2088TIP3    H227824   6.089   2.182   7.992  0.5476 -0.1017  0.1217
 2089TIP3   OH227825   4.876   2.050   8.091  0.0424 -0.0363  0.5372
 2089TIP3    H127826   4.952   1.993   8.083 -1.7817 -2.3467 -3.9354
 2089TIP3    H227827   4.807   1.994   8.127 -0.3890  1.1215  1.6000
 2090TIP3   OH227828   1.469   0.297   7.831 -0.4791 -0.3666  0.7704
 2090TIP3    H127829   1.542   0.279   7.773  0.3977  2.9779  0.6079
 2090TIP3    H227830   1.391   0.282   7.777  0.2927  1.5784 -0.9990
 2091TIP3   OH227831   3.175   6.066   6.628 -0.4715 -0.3238 -0.2754
 2091TIP3    H127832   3.247   6.117   6.590 -0.1780  0.3482  1.1310
 2091TIP3    H227833   3.213   5.979   6.644 -0.5698 -0.5864 -1.3722
 2092TIP3   OH227834   3.662   6.159   0.998  0.4197  0.1985  0.6490
 2092TIP3    H127835   3.624   6.088   1.050  1.2491 -0.3043  0.5912
 2092TIP3    H227836   3.628   6.145   0.909 -0.3301  0.5641  0.8685
 2093TIP3   OH227837   5.337   1.150   6.356  0.0595 -0.1739  0.3714
 2093TIP3    H127838   5.349   1.065   6.398 -0.0883 -0.6116 -0.4649
 2093TIP3    H227839   5.293   1.131   6.274 -2.4385  0.9776  1.3477
 2094TIP3   OH227840   2.706   2.502   0.747  0.2648  0.5846  0.9208
 2094TIP3    H127841   2.632   2.561   0.728  0.2994  0.0585 -1.1281
 2094TIP3    H227842   2.755   2.546   0.816 -0.3185  2.4314  0.2225
 2095TIP3   OH227843   1.133   0.629   0.087 -0.5148  0.0400 -0.0444
 2095TIP3    H127844   1.134   0.586   0.001 -2.0363 -1.0281  0.4343
 2095TIP3    H227845   1.048   0.606   0.125  1.1314 -1.7995  2.8987
 2096TIP3   OH227846   2.864   2.273   0.780 -0.5737 -0.2179 -0.0621
 2096TIP3    H127847   2.894   2.242   0.695 -1.1296  0.6210 -0.5839
 2096TIP3    H227848   2.808   2.348   0.760 -0.7224 -0.0092  1.0442
 2097TIP3   OH227849   3.758   2.211   1.676  0.3664 -0.6661 -0.5016
 2097TIP3    H127850   3.670   2.189   1.706 -0.3790  1.2956 -1.0968
 2097TIP3    H227851   3.809   2.131   1.691 -0.8420 -1.0274  2.4091
 2098TIP3   OH227852   4.794   1.936   7.712  0.2865  0.3647 -0.3784
 2098TIP3    H127853   4.764   1.882   7.785  0.5043  0.3829 -0.2731
 2098TIP3    H227854   4.718   1.944   7.654 -0.1971  1.2525  0.3721
 2099TIP3   OH227855   1.130   0.313   7.342 -0.2627  0.1841  0.4294
 2099TIP3    H127856   1.218   0.281   7.362  0.5881  0.8749 -1.8313
 2099TIP3    H227857   1.140   0.361   7.260 -2.8388 -0.1105 -0.1657
 2100TIP3   OH227858   5.515   6.253   6.910 -0.1697  0.1458 -0.4548
 2100TIP3    H127859   5.562   6.252   6.827  4.2909 -0.4274  1.7563
 2100TIP3    H227860   5.521   6.343   6.940  2.2081 -0.4162  1.0410
 2101TIP3   OH227861   6.180   1.452   2.365  0.2227 -0.5529  0.3101
 2101TIP3    H127862   6.196   1.480   2.455 -2.0307  0.0416  0.5884
 2101TIP3    H227863   6.263   1.415   2.336  1.0563 -0.5940  2.5687
 2102TIP3   OH227864   6.849   0.334   7.002  0.0192 -0.1060  0.2796
 2102TIP3    H127865   6.819   0.391   6.932  2.4158  1.6387  0.5748
 2102TIP3    H227866   6.886   0.258   6.957  1.4572  0.9602 -0.4048
 2103TIP3   OH227867   4.247   4.830   1.683 -0.6014  0.7910 -0.3206
 2103TIP3    H127868   4.216   4.921   1.680  1.3185  1.5725  1.4561
 2103TIP3    H227869   4.321   4.831   1.744 -0.9186 -2.1003  0.2788
 2104TIP3   OH227870   1.267   3.600   6.795  0.4312 -0.2289  0.5143
 2104TIP3    H127871   1.343   3.596   6.737  0.4288  2.8491  0.1530
 2104TIP3    H227872   1.220   3.518   6.779  1.9257 -0.7355 -1.6991
 2105TIP3   OH227873   0.274   6.466   1.753 -0.4624  0.6149  0.0097
 2105TIP3    H127874   0.275   6.547   1.702  0.2787  0.1772 -0.7220
 2105TIP3    H227875   0.350   6.473   1.810  0.2950 -0.0281 -0.8734
 2106TIP3   OH227876   1.762   1.466   1.637  0.3473  0.3910  0.8287
 2106TIP3    H127877   1.857   1.464   1.620  0.0951 -0.8357 -0.6574
 2106TIP3    H227878   1.739   1.559   1.631  1.4481  0.7071  1.1940
 2107TIP3   OH227879   1.198   3.365   7.368 -0.1160 -0.2077 -0.2295
 2107TIP3    H127880   1.190   3.456   7.339 -0.6635 -0.5187 -1.1056
 2107TIP3    H227881   1.111   3.328   7.355 -0.3840 -0.4086  1.7872
 2108TIP3   OH227882   6.712   4.282   1.275 -0.0701 -0.2787 -0.1725
 2108TIP3    H127883   6.796   4.280   1.229  0.5276  1.1554  0.7588
 2108TIP3    H227884   6.735   4.299   1.367 -1.2957 -1.7499  0.4545
 2109TIP3   OH227885   3.582   6.693   8.108 -0.1410  0.0302  0.2741
 2109TIP3    H127886   3.579   6.778   8.065 -1.3628 -0.4969 -0.7594
 2109TIP3    H227887   3.616   6.634   8.041  0.8138 -0.2762  1.0216
 2110TIP3   OH227888   3.373   4.979   7.112 -0.3654 -0.0279  0.0353
 2110TIP3    H127889   3.454   4.934   7.087 -0.1997  0.3200 -0.0598
 2110TIP3    H227890   3.310   4.954   7.044 -0.5689 -0.9348  0.5375
 2111TIP3   OH227891   4.656   2.614   8.446  0.2613  0.1329  0.4695
 2111TIP3    H127892   4.639   2.530   8.489  0.1745 -0.2555 -0.3176
 2111TIP3    H227893   4.662   2.676   8.519 -1.1647 -0.2918  0.9975
 2112TIP3   OH227894   4.845   3.820   8.240 -0.3150  0.1366 -0.2147
 2112TIP3    H127895   4.784   3.751   8.265 -0.4268  0.5506  0.7046
 2112TIP3    H227896   4.819   3.845   8.152 -0.9766 -0.2359 -0.1283
 2113TIP3   OH227897   1.804   1.870   1.413 -0.0873  0.5557 -0.3009
 2113TIP3    H127898   1.870   1.801   1.404 -0.9646 -0.1581 -1.5236
 2113TIP3    H227899   1.851   1.951   1.396  0.5058  0.0588 -1.1023
 2114TIP3   OH227900   0.709   0.925   0.247  0.6863 -0.6641  0.3526
 2114TIP3    H127901   0.648   0.997   0.262 -0.1045 -1.5554  1.6750
 2114TIP3    H227902   0.738   0.936   0.157 -0.9016  0.2078 -0.0913
 2115TIP3   OH227903   0.270   2.302   2.082  0.6891 -0.1291  0.0257
 2115TIP3    H127904   0.231   2.335   2.163 -0.5323 -0.0933 -0.5519
 2115TIP3    H227905   0.263   2.375   2.020 -0.1623 -0.7612 -0.6607
 2116TIP3   OH227906   4.970   0.458   1.947 -0.0006  0.6251  0.1434
 2116TIP3    H127907   5.018   0.429   1.869 -0.2731 -0.8865  0.5072
 2116TIP3    H227908   5.038   0.483   2.009  0.3112 -0.3640  0.2236
 2117TIP3   OH227909   4.975   5.481   8.353 -0.5294  0.0298 -0.4406
 2117TIP3    H127910   4.997   5.570   8.325  0.6836 -0.3144 -0.6582
 2117TIP3    H227911   4.939   5.439   8.274  0.4115 -0.1443 -0.7898
 2118TIP3   OH227912   5.201   3.217   0.736 -0.0407  0.3076  0.1293
 2118TIP3    H127913   5.283   3.228   0.783  0.3495  2.0849 -0.8620
 2118TIP3    H227914   5.167   3.306   0.724 -0.6558 -0.1303 -1.9337
 2119TIP3   OH227915   2.059   1.854   7.783 -0.0541 -0.4252 -0.5216
 2119TIP3    H127916   2.064   1.810   7.868 -0.0041 -0.4921 -0.5583
 2119TIP3    H227917   2.122   1.806   7.728 -0.1106 -0.4036 -0.6055
 2120TIP3   OH227918   2.009   6.749   7.012 -0.0359 -0.3022  0.0212
 2120TIP3    H127919   2.008   6.729   6.918 -1.0847 -0.0458 -0.0325
 2120TIP3    H227920   2.057   6.831   7.018  0.4892 -0.5798 -0.2253
 2121TIP3   OH227921   6.637   0.419   1.860  0.2508  0.4045 -0.6982
 2121TIP3    H127922   6.597   0.396   1.943 -0.2824 -0.9372 -1.3107
 2121TIP3    H227923   6.708   0.479   1.884  0.4365 -0.3515  0.7663
 2122TIP3   OH227924   4.235   4.573   7.020  0.1358  0.0069  0.2450
 2122TIP3    H127925   4.168   4.560   6.953  2.0257  0.7943 -1.8991
 2122TIP3    H227926   4.317   4.582   6.972  1.3808  2.3532  2.5313
 2123TIP3   OH227927   3.082   2.595   7.836  0.0437 -0.0883  0.4117
 2123TIP3    H127928   2.994   2.591   7.798 -0.5370  0.3126  1.6773
 2123TIP3    H227929   3.080   2.532   7.908  0.4450  0.7121  1.1326
 2124TIP3   OH227930   4.773   5.301   7.978  0.3022  0.1518  0.2572
 2124TIP3    H127931   4.760   5.219   7.929 -0.3800  0.6646 -0.4337
 2124TIP3    H227932   4.868   5.306   7.990  0.4258 -0.3346 -0.4261
 2125TIP3   OH227933   0.188   0.713   1.120  0.0286  0.1289  0.5114
 2125TIP3    H127934   0.113   0.773   1.119 -0.8328 -0.9164  0.4081
 2125TIP3    H227935   0.149   0.627   1.108  1.2970 -0.4036  0.1102
 2126TIP3   OH227936   1.469   0.475   6.389 -0.3597 -0.4059 -0.0837
 2126TIP3    H127937   1.393   0.518   6.428 -0.2940  1.0008 -1.4030
 2126TIP3    H227938   1.488   0.526   6.310  1.0531 -1.6153 -0.5850
 2127TIP3   OH227939   1.819   4.454   0.624  0.1893 -0.7304  0.0796
 2127TIP3    H127940   1.747   4.466   0.685 -0.4965 -1.4830 -0.5597
 2127TIP3    H227941   1.881   4.525   0.645 -1.1093  0.4505  0.0927
 2128TIP3   OH227942   3.124   2.378   2.083 -0.3354 -0.3199 -0.2047
 2128TIP3    H127943   3.218   2.374   2.099 -0.2300  1.6822 -0.0468
 2128TIP3    H227944   3.085   2.366   2.170 -0.0840  1.3165  0.1858
 2129TIP3   OH227945   2.827   0.615   8.377  0.1635  0.1450 -0.2833
 2129TIP3    H127946   2.824   0.676   8.303 -1.5539  0.2425 -0.1665
 2129TIP3    H227947   2.832   0.528   8.336  2.4913  0.2936 -0.4516
 2130TIP3   OH227948   1.865   6.229   0.841  0.4137 -0.3455 -0.3376
 2130TIP3    H127949   1.948   6.277   0.832 -0.0031  0.8071  1.4472
 2130TIP3    H227950   1.816   6.278   0.907 -0.8797 -2.1336  0.1107
 2131TIP3   OH227951   1.696   1.961   1.035  0.3755 -0.1865  0.5724
 2131TIP3    H127952   1.767   2.014   1.072  0.1397 -0.2315  1.1011
 2131TIP3    H227953   1.638   2.025   0.993  0.4645 -0.0989  0.5812
 2132TIP3   OH227954   1.124   3.880   1.370  0.0608  0.1197 -0.5814
 2132TIP3    H127955   1.136   3.908   1.461  0.5189  0.6468 -0.7969
 2132TIP3    H227956   1.117   3.785   1.375  0.1706  0.1371 -0.0033
 2133TIP3   OH227957   5.431   0.657   0.002 -0.3019 -0.2820  0.4253
 2133TIP3    H127958   5.408   0.732  -0.053  0.8308 -0.9810 -1.0730
 2133TIP3    H227959   5.346   0.616   0.023 -0.7256 -1.0492 -2.3922
 2134TIP3   OH227960   6.086   3.431   1.972 -0.3470  0.1157  0.0761
 2134TIP3    H127961   6.030   3.497   1.930 -0.2399 -1.1555 -2.2362
 2134TIP3    H227962   6.043   3.412   2.055 -1.3353  1.7929 -0.0157
 2135TIP3   OH227963   1.524   5.936   1.726  0.0012 -0.6101  0.1404
 2135TIP3    H127964   1.458   6.002   1.747 -0.7921 -0.3571 -2.7302
 2135TIP3    H227965   1.477   5.853   1.732 -0.4169 -0.4880 -1.1146
 2136TIP3   OH227966   1.045   4.875   7.062  0.0270 -0.2554  0.7134
 2136TIP3    H127967   1.088   4.870   6.976  0.2582  2.2314  0.6215
 2136TIP3    H227968   0.965   4.924   7.046  0.9075  1.8046  2.1485
 2137TIP3   OH227969   2.597   1.440   7.390  0.0005  0.2512 -0.1561
 2137TIP3    H127970   2.604   1.410   7.300 -1.0606  0.8676 -0.4644
 2137TIP3    H227971   2.614   1.534   7.385  0.5725  0.1846  0.3857
 2138TIP3   OH227972   2.371   0.841   2.292 -0.2246 -0.7805  0.3500
 2138TIP3    H127973   2.283   0.823   2.324 -0.6185 -2.2353 -1.4301
 2138TIP3    H227974   2.428   0.793   2.352 -0.7210 -0.7815  0.8276
 2139TIP3   OH227975   5.164   6.648   8.554  0.1249  0.5477  0.4856
 2139TIP3    H127976   5.097   6.705   8.516 -0.3765 -0.6851 -0.6085
 2139TIP3    H227977   5.217   6.705   8.609 -0.9155  1.8595  0.1796
 2140TIP3   OH227978   6.253   3.605   1.618 -0.0830 -0.6018 -0.6087
 2140TIP3    H127979   6.260   3.528   1.675  1.7803 -0.5626 -0.7494
 2140TIP3    H227980   6.211   3.671   1.673  1.8021 -0.5181  0.8288
 2141TIP3   OH227981   1.358   6.187   7.430  0.4685  0.5303 -0.1070
 2141TIP3    H127982   1.314   6.102   7.424 -1.4443  1.4581  0.0462
 2141TIP3    H227983   1.448   6.166   7.452  0.4504 -1.5394 -1.7341
 2142TIP3   OH227984   2.775   4.084   8.524  0.0484 -0.7886  0.5630
 2142TIP3    H127985   2.709   4.079   8.455 -0.8793 -0.8186  1.4263
 2142TIP3    H227986   2.749   4.160   8.576  0.7348 -0.7659  0.8829
 2143TIP3   OH227987   6.641   2.118   7.291  0.0115  0.0587 -0.4216
 2143TIP3    H127988   6.642   2.052   7.360 -2.7624 -0.8016 -1.0890
 2143TIP3    H227989   6.563   2.170   7.309  0.2809  1.0197 -1.8754
 2144TIP3   OH227990   1.459   3.998   7.472  0.1045  0.2180 -0.1485
 2144TIP3    H127991   1.437   3.947   7.549  1.3277 -1.3973 -0.8056
 2144TIP3    H227992   1.444   3.939   7.398  3.0488  0.1566 -0.8346
 2145TIP3   OH227993   0.596   1.113   6.928  0.0634  0.3140  0.3140
 2145TIP3    H127994   0.595   1.063   6.847  0.0463 -0.2984  0.6883
 2145TIP3    H227995   0.513   1.093   6.970 -0.0653  0.8762  0.3428
 2146TIP3   OH227996   4.723   2.243   0.101  0.1105 -0.7379  0.2099
 2146TIP3    H127997   4.655   2.281   0.045  0.0428 -0.3644  0.5398
 2146TIP3    H227998   4.795   2.224   0.041  0.6685  1.1364  0.2150
 2147TIP3   OH227999   2.535   1.522   0.345  0.2835  1.0840 -0.3773
 2147TIP3    H128000   2.525   1.477   0.261 -0.2571 -1.2558  0.8439
 2147TIP3    H228001   2.628   1.546   0.350  1.0294 -1.5052 -0.4180
 2148TIP3   OH228002   5.345   4.435   0.727  0.1075 -0.0425 -0.2856
 2148TIP3    H128003   5.301   4.415   0.644 -1.4699 -2.8787  1.1050
 2148TIP3    H228004   5.304   4.516   0.757 -2.4522 -1.2199 -0.3093
 2149TIP3   OH228005   4.057   4.828   8.499  0.0734  0.1833  0.1516
 2149TIP3    H128006   4.015   4.770   8.435 -2.6550  2.4449 -0.2979
 2149TIP3    H228007   4.046   4.782   8.583  0.1679 -1.0352 -0.4823
 2150TIP3   OH228008   5.474   3.397   1.779  0.3583 -0.3233 -0.2569
 2150TIP3    H128009   5.481   3.487   1.811  1.5470 -0.2537 -0.6445
 2150TIP3    H228010   5.438   3.348   1.853  2.1195  0.0169  0.8883
 2151TIP3   OH228011   6.182   5.805   8.089  0.0649 -0.4338 -0.3154
 2151TIP3    H128012   6.196   5.731   8.030  0.6253 -0.1477 -0.5483
 2151TIP3    H228013   6.258   5.805   8.146  0.3120  0.2498 -0.6341
 2152TIP3   OH228014   4.154   6.303   6.950 -0.3831  0.6391  0.4209
 2152TIP3    H128015   4.182   6.260   6.869 -1.3007 -0.7224  0.7900
 2152TIP3    H228016   4.189   6.391   6.944 -0.7410  0.6821 -1.6392
 2153TIP3   OH228017   5.469   0.185   0.866  0.3173 -0.2696 -0.2375
 2153TIP3    H128018   5.509   0.104   0.833 -1.3572 -1.8470  1.3375
 2153TIP3    H228019   5.521   0.208   0.943  1.2559  0.6338 -1.1130
 2154TIP3   OH228020   5.580   2.396   2.407 -0.1859  0.3258 -0.3267
 2154TIP3    H128021   5.631   2.329   2.454 -0.7867 -0.3647 -0.6396
 2154TIP3    H228022   5.520   2.346   2.353 -0.6780  1.1336 -0.5363
 2155TIP3   OH228023   6.814   1.661   7.489 -0.4220  0.0631 -0.2812
 2155TIP3    H128024   6.747   1.628   7.430 -0.4384 -0.1830 -0.1280
 2155TIP3    H228025   6.837   1.586   7.544  0.5892 -0.0917 -0.8894
 2156TIP3   OH228026   3.543   1.362   0.281 -0.6756 -0.1397 -0.1119
 2156TIP3    H128027   3.577   1.373   0.370 -0.6547 -0.0798 -0.1269
 2156TIP3    H228028   3.621   1.341   0.229 -0.6983 -0.2451 -0.1039
 2157TIP3   OH228029   1.777   4.131   7.086  0.0380 -0.1488 -0.3238
 2157TIP3    H128030   1.731   4.212   7.109 -1.0283 -0.3330 -1.6617
 2157TIP3    H228031   1.858   4.134   7.136  0.0744  1.8099 -0.4268
 2158TIP3   OH228032   1.874   0.471   6.932  0.3760 -0.1316 -0.2624
 2158TIP3    H128033   1.882   0.542   6.868  0.8155  0.3335  0.2933
 2158TIP3    H228034   1.780   0.465   6.949  0.3396  0.4066 -0.2302
 2159TIP3   OH228035   2.754   5.749   7.190  0.6786 -0.2630  1.1565
 2159TIP3    H128036   2.757   5.799   7.108  0.2171  1.2083  1.9950
 2159TIP3    H228037   2.731   5.814   7.257 -3.2090 -2.0732  1.8898
 2160TIP3   OH228038   3.202   5.352   7.461 -0.5311 -0.2582  0.2313
 2160TIP3    H128039   3.232   5.401   7.537 -0.6390 -0.9504  0.7294
 2160TIP3    H228040   3.224   5.261   7.481 -0.5159 -0.4426 -0.5886
 2161TIP3   OH228041   2.571   6.288   7.616 -0.2325  0.3798 -0.3442
 2161TIP3    H128042   2.496   6.260   7.668  0.6572 -0.6941  0.4165
 2161TIP3    H228043   2.546   6.374   7.582 -2.2516 -0.4152 -1.0423
 2162TIP3   OH228044   6.523   6.523   0.789 -0.4542 -0.4419 -0.2389
 2162TIP3    H128045   6.536   6.437   0.751  1.3575  0.2740 -1.3983
 2162TIP3    H228046   6.584   6.580   0.741 -0.5991  1.2062  1.4035
 2163TIP3   OH228047   4.433   1.673   2.509  0.2979 -0.3639  0.6970
 2163TIP3    H128048   4.339   1.657   2.515  0.3896 -0.4764  2.1769
 2163TIP3    H228049   4.470   1.624   2.582  1.6390 -1.1896 -0.4832
 2164TIP3   OH228050   1.963   4.280   8.471  0.2541 -0.2620  0.5468
 2164TIP3    H128051   2.014   4.206   8.437  1.5126  0.3970  0.9392
 2164TIP3    H228052   1.917   4.244   8.547  2.5423 -0.1802  2.0743
 2165TIP3   OH228053   6.425   0.036   0.486  0.1155 -0.7588  0.2904
 2165TIP3    H128054   6.486   0.048   0.413 -0.6117  0.4418 -0.1555
 2165TIP3    H228055   6.467   0.079   0.560 -0.3170  0.3709 -0.1010
 2166TIP3   OH228056   4.326   0.485   0.152  0.1930 -1.2457 -0.2707
 2166TIP3    H128057   4.289   0.513   0.236 -1.4562 -2.3400 -0.5794
 2166TIP3    H228058   4.326   0.389   0.157 -1.5541 -1.4097 -2.1207
 2167TIP3   OH228059   2.332   2.426   8.461  0.0479 -0.3490 -0.3424
 2167TIP3    H128060   2.247   2.458   8.491  1.2236  1.1187  1.6240
 2167TIP3    H228061   2.351   2.351   8.518  0.1787 -0.5488 -0.6421
 2168TIP3   OH228062   6.418   4.679   7.556 -0.2055  0.3638 -0.2661
 2168TIP3    H128063   6.394   4.594   7.592  2.1530  0.8483  2.8534
 2168TIP3    H228064   6.490   4.660   7.495  1.5502  0.1492  1.7602
 2169TIP3   OH228065   1.453   4.302   7.031 -0.4846  0.4336 -0.5448
 2169TIP3    H128066   1.451   4.212   7.064  0.5964 -0.4281 -2.6132
 2169TIP3    H228067   1.365   4.318   6.999 -0.4560 -0.2264 -0.9642
 2170TIP3   OH228068   6.622   2.177   2.518 -0.6357 -0.1309 -0.0958
 2170TIP3    H128069   6.672   2.194   2.598  0.7111  1.1871 -1.1644
 2170TIP3    H228070   6.531   2.171   2.548 -0.0533 -0.9197  1.6724
 2171TIP3   OH228071   3.134   6.204   7.422  0.1592  0.0195  0.1240
 2171TIP3    H128072   3.092   6.120   7.440  0.8830 -0.6920 -1.3325
 2171TIP3    H228073   3.222   6.196   7.459  0.9284 -0.6674 -1.7324
 2172TIP3   OH228074   1.785   1.424   6.126  0.1318 -0.1754  0.4305
 2172TIP3    H128075   1.694   1.437   6.152 -0.1432 -1.0909 -0.0119
 2172TIP3    H228076   1.792   1.466   6.040 -0.5257 -2.0582 -0.6071
 2173TIP3   OH228077   4.383   5.746   7.796  0.4995 -0.8536  0.1560
 2173TIP3    H128078   4.362   5.746   7.889  2.3698 -3.5030  0.7025
 2173TIP3    H228079   4.440   5.823   7.784 -1.4777  0.7586  0.6519
 2174TIP3   OH228080   3.635   6.249   0.357  0.2317  0.4849 -0.2175
 2174TIP3    H128081   3.716   6.289   0.324 -1.0268  1.0830 -2.8186
 2174TIP3    H228082   3.635   6.161   0.321 -0.8349  0.9051 -1.3124
 2175TIP3   OH228083   6.623   5.055   7.549 -0.7423 -0.3171  0.0793
 2175TIP3    H128084   6.572   5.106   7.486  0.4730 -0.5711 -1.1447
 2175TIP3    H228085   6.657   5.119   7.611 -1.6415 -0.0184  0.2779
 2176TIP3   OH228086   0.905   0.023   7.682 -0.3122  0.1629  0.2976
 2176TIP3    H128087   0.918   0.108   7.723  0.8023 -0.5319  1.4486
 2176TIP3    H228088   0.968   0.020   7.611 -0.9809  0.6367 -0.3338
 2177TIP3   OH228089   0.281   6.684   8.149 -0.3902  0.0031  0.0267
 2177TIP3    H128090   0.235   6.759   8.112 -0.6306 -0.4419 -0.5905
 2177TIP3    H228091   0.228   6.658   8.225  1.5422  2.6155  2.4639
 2178TIP3   OH228092   6.542   3.404   1.588  0.1362  0.0970  0.4190
 2178TIP3    H128093   6.572   3.392   1.678 -0.7166  0.1224  0.7236
 2178TIP3    H228094   6.526   3.498   1.580  2.1127  0.4105 -0.4102
 2179TIP3   OH228095   5.830   2.653   7.812 -0.7835 -0.3536  0.0327
 2179TIP3    H128096   5.896   2.589   7.785 -0.6194 -0.3240  0.3537
 2179TIP3    H228097   5.864   2.688   7.894 -0.3859  0.8619 -0.6329
 2180TIP3   OH228098   3.021   1.055   6.858 -0.5069  0.2945 -0.1158
 2180TIP3    H128099   2.983   1.005   6.787  0.7202  1.4656 -1.6709
 2180TIP3    H228100   2.994   1.146   6.841 -1.0727  0.4669  1.5326
 2181TIP3   OH228101   5.394   1.658   2.242 -0.2019 -0.1983  0.2105
 2181TIP3    H128102   5.322   1.720   2.228  0.2942  0.7642  1.7060
 2181TIP3    H228103   5.469   1.699   2.199  0.4265  0.9164  2.2584
 2182TIP3   OH228104   6.119   1.536   7.493 -0.4625  0.2668 -0.2031
 2182TIP3    H128105   6.184   1.567   7.556 -1.0319 -1.2005  1.1589
 2182TIP3    H228106   6.132   1.592   7.416  1.2244  1.1430  0.6671
 2183TIP3   OH228107   4.295   1.480   0.746 -0.1853  0.1649  0.0871
 2183TIP3    H128108   4.248   1.561   0.725 -1.5847 -0.6176  0.0982
 2183TIP3    H228109   4.344   1.459   0.667  1.1580  1.6226  0.4623
 2184TIP3   OH228110   4.503   1.794   7.288 -0.2629 -0.2361  0.1577
 2184TIP3    H128111   4.574   1.744   7.328 -0.9806 -0.2809  1.4445
 2184TIP3    H228112   4.440   1.807   7.359 -1.8049 -0.6583 -1.0681
 2185TIP3   OH228113   3.358   6.600   1.132  0.1325  0.7410 -0.1290
 2185TIP3    H128114   3.378   6.560   1.217  0.1088  1.2003  0.0921
 2185TIP3    H228115   3.310   6.532   1.085  2.1466 -0.4082 -0.6577
 2186TIP3   OH228116   5.877   2.188   0.821  0.5019 -0.0545 -0.3819
 2186TIP3    H128117   5.794   2.229   0.797  0.1263  0.6031  1.7648
 2186TIP3    H228118   5.861   2.152   0.908  2.2258 -0.6621 -0.2834
 2187TIP3   OH228119   5.985   2.633   8.405 -0.4776  0.8075 -0.6137
 2187TIP3    H128120   6.051   2.608   8.469 -2.1211  0.5001  1.0362
 2187TIP3    H228121   5.992   2.728   8.399  1.9242  0.6260 -2.5955
 2188TIP3   OH228122   2.865   6.769   0.938  0.1104 -0.1024  0.5716
 2188TIP3    H128123   2.820   6.786   1.021  0.7997 -0.0640  0.9452
 2188TIP3    H228124   2.914   6.850   0.922 -1.2472  0.5216 -0.6938
 2189TIP3   OH228125   2.013   4.371   1.523 -0.4441 -0.1643 -0.0334
 2189TIP3    H128126   2.039   4.348   1.434 -0.1195 -0.9295  0.2499
 2189TIP3    H228127   1.952   4.303   1.549  1.4887 -1.4854  1.2692
 2190TIP3   OH228128   6.865   3.392   1.830  0.1242 -0.0732  0.4580
 2190TIP3    H128129   6.829   3.361   1.747  1.9253 -0.2433 -0.3112
 2190TIP3    H228130   6.794   3.443   1.869 -0.4315  0.9056 -1.6680
 2191TIP3   OH228131   6.031   2.209   7.301 -0.1055 -0.0026  0.5945
 2191TIP3    H128132   6.065   2.296   7.282  1.2073 -0.8852 -1.3653
 2191TIP3    H228133   5.993   2.179   7.219  2.5959 -2.6022  0.1360
 2192TIP3   OH228134   2.002   5.701   0.942  0.7445  0.9993 -0.1302
 2192TIP3    H128135   1.930   5.701   0.878 -0.1240  1.1144  0.8113
 2192TIP3    H228136   2.081   5.692   0.889  0.1302  2.0639 -1.2985
 2193TIP3   OH228137   1.649   5.084   1.820  0.0727  0.0726 -0.1746
 2193TIP3    H128138   1.647   5.061   1.727  3.4006  1.3193 -0.7067
 2193TIP3    H228139   1.566   5.128   1.836 -0.6576 -0.3305 -2.5244
 2194TIP3   OH228140   3.929   4.192   7.515 -1.5418 -0.3831 -0.1213
 2194TIP3    H128141   3.929   4.125   7.447 -1.7116 -1.3181  0.7763
 2194TIP3    H228142   3.899   4.146   7.593  0.0186  0.3044  0.9221
 2195TIP3   OH228143   4.425   2.419   0.848  0.4815 -0.4526  0.4667
 2195TIP3    H128144   4.420   2.406   0.942 -0.7465 -0.0778  0.4707
 2195TIP3    H228145   4.426   2.514   0.836  1.5854 -0.4893  0.1245
 2196TIP3   OH228146   0.106   4.530   7.310  0.0905 -0.0194 -0.3915
 2196TIP3    H128147   0.064   4.471   7.248 -1.3704  0.9263 -0.3516
 2196TIP3    H228148   0.120   4.611   7.261  1.4120 -0.1432 -0.2435
 2197TIP3   OH228149   2.922   2.106   1.139 -0.7944  0.1848 -0.3618
 2197TIP3    H128150   2.916   2.015   1.168 -1.4783  0.3189 -0.0387
 2197TIP3    H228151   2.937   2.156   1.219 -2.1968  0.5123 -0.2641
 2198TIP3   OH228152   2.212   4.679   2.193  0.4150 -0.4983  0.2595
 2198TIP3    H128153   2.153   4.651   2.263  0.5862  1.3091  1.1759
 2198TIP3    H228154   2.216   4.774   2.202  2.4013 -0.4620 -0.6407
 2199TIP3   OH228155   4.746   4.802   1.099  0.1392  0.0638  0.2304
 2199TIP3    H128156   4.657   4.774   1.121  0.2896 -1.6671 -1.1461
 2199TIP3    H228157   4.736   4.893   1.071 -1.1702 -0.0758  0.1796
 2200TIP3   OH228158   4.587   4.009   0.570  0.7981  0.1520 -0.6094
 2200TIP3    H128159   4.681   4.023   0.582  1.0442 -0.0704 -2.0781
 2200TIP3    H228160   4.577   3.991   0.476 -0.8289  1.0814 -0.6492
 2201TIP3   OH228161   1.514   4.813   8.479 -0.7191 -0.1977 -0.0014
 2201TIP3    H128162   1.436   4.832   8.531 -1.2208  0.1225 -0.8529
 2201TIP3    H228163   1.585   4.811   8.543 -1.1153  1.4416  0.5558
 2202TIP3   OH228164   6.692   1.674   2.549  0.2168  0.1090  0.0213
 2202TIP3    H128165   6.613   1.641   2.592  0.9345 -1.0412  0.4935
 2202TIP3    H228166   6.694   1.629   2.465  0.3652  0.1332  0.0125
 2203TIP3   OH228167   3.133   0.840   0.689  0.1567  0.2103 -0.4132
 2203TIP3    H128168   3.095   0.822   0.603 -0.8549  3.7133 -0.8455
 2203TIP3    H228169   3.209   0.895   0.671 -0.5154  1.6514  0.9445
 2204TIP3   OH228170   5.844   5.469   0.936 -0.0255  0.1724  0.3040
 2204TIP3    H128171   5.865   5.484   0.844  1.2838 -0.8062  0.4150
 2204TIP3    H228172   5.811   5.380   0.939 -0.1042  0.2146  0.7744
 2205TIP3   OH228173   6.351   3.415   1.040 -0.3607 -0.5580 -0.3560
 2205TIP3    H128174   6.383   3.342   0.987 -1.2755 -1.5064  0.3620
 2205TIP3    H228175   6.372   3.389   1.130  1.7364  1.3045 -0.2269
 2206TIP3   OH228176   3.316   3.761   6.897  0.0184  0.3097  0.1203
 2206TIP3    H128177   3.348   3.840   6.939 -0.9759 -0.3166  2.1894
 2206TIP3    H228178   3.235   3.740   6.944 -0.2308 -1.4018 -0.9990
 2207TIP3   OH228179   0.088   2.843   8.448 -0.1617  0.2981 -0.2732
 2207TIP3    H128180   0.035   2.828   8.527  1.5525  0.5436  0.9909
 2207TIP3    H228181   0.056   2.926   8.413 -2.0377 -0.6016 -0.8025
 2208TIP3   OH228182   4.436   0.698   1.066  0.2235  0.2085  0.4663
 2208TIP3    H128183   4.390   0.762   1.121  0.9846  1.6937 -0.5537
 2208TIP3    H228184   4.527   0.727   1.065  0.3115 -0.0152 -1.2129
 2209TIP3   OH228185   4.483   2.628   7.562  0.6921 -0.1002 -0.5681
 2209TIP3    H128186   4.468   2.541   7.526  0.5797 -0.6827  0.8075
 2209TIP3    H228187   4.398   2.656   7.595  0.6930  0.6098 -1.1344
 2210TIP3   OH228188   4.780   2.418   1.284  0.3499  0.7165 -0.5750
 2210TIP3    H128189   4.778   2.487   1.350  1.8638 -0.5297  0.8710
 2210TIP3    H228190   4.872   2.389   1.281  0.4380  0.9317 -3.5048
 2211TIP3   OH228191   3.464   0.284   6.439 -0.5608  0.1743  0.1892
 2211TIP3    H128192   3.386   0.315   6.392 -0.3631 -0.5013 -0.6242
 2211TIP3    H228193   3.455   0.188   6.438 -0.2825  0.1284  1.0860
 2212TIP3   OH228194   2.038   4.882   1.591 -0.3504  0.0084 -0.5804
 2212TIP3    H128195   1.967   4.829   1.554 -0.7194  0.3536 -0.3603
 2212TIP3    H228196   2.003   4.916   1.673 -0.4129  1.2577 -1.0961
 2213TIP3   OH228197   4.002   0.402   7.117  0.0973 -0.0237 -0.3869
 2213TIP3    H128198   4.094   0.406   7.093 -0.1740  0.4533 -1.4481
 2213TIP3    H228199   4.001   0.401   7.212  1.2261 -1.1549 -0.3654
 2214TIP3   OH228200   0.973   6.638   8.573 -0.6033 -0.2128 -0.5698
 2214TIP3    H128201   0.978   6.601   8.485 -1.7712 -1.7657 -0.0377
 2214TIP3    H228202   1.046   6.598   8.620 -0.1758  0.3673 -0.7222
 2215TIP3   OH228203   6.769   1.471   6.577 -0.2625 -0.0922 -0.1515
 2215TIP3    H128204   6.773   1.461   6.482  0.2232  1.8653 -0.3933
 2215TIP3    H228205   6.762   1.566   6.590  0.2554 -0.2823  1.7898
 2216TIP3   OH228206   0.957   4.106   7.633 -0.4236 -0.3328 -0.2878
 2216TIP3    H128207   0.917   4.036   7.580 -1.1714 -0.3183  0.2498
 2216TIP3    H228208   1.025   4.062   7.683 -0.7683 -0.6421 -0.0899
 2217TIP3   OH228209   6.660   1.957   2.847  0.2138 -0.2091 -0.6007
 2217TIP3    H128210   6.720   2.031   2.856  0.2405  0.1013 -2.7840
 2217TIP3    H228211   6.629   1.940   2.936  2.0603  0.8472  0.3039
 2218TIP3   OH228212   6.223   3.789   7.446  0.2955  0.0456  0.3276
 2218TIP3    H128213   6.149   3.800   7.386  0.6702  1.7159  0.1002
 2218TIP3    H228214   6.300   3.804   7.390  0.6692  1.1466  1.1114
 2219TIP3   OH228215   1.490   0.349   6.712 -0.5514  0.6641  0.5592
 2219TIP3    H128216   1.404   0.375   6.679 -0.7425 -0.7727 -0.1459
 2219TIP3    H228217   1.532   0.305   6.638  0.7763  1.3078  0.9134
 2220TIP3   OH228218   0.735   6.506   1.787  0.4517  0.0257 -0.1061
 2220TIP3    H128219   0.769   6.558   1.860 -1.0637  0.9307 -0.0094
 2220TIP3    H228220   0.643   6.490   1.810  0.2545 -0.6566 -1.2891
 2221TIP3   OH228221   3.865   2.040   7.352 -0.1725  0.4750 -0.9749
 2221TIP3    H128222   3.945   2.091   7.340  1.0410 -0.7846  1.0402
 2221TIP3    H228223   3.876   1.964   7.296  0.9677 -0.5964  0.6024
 2222TIP3   OH228224   5.694   3.143   2.057  0.3287 -0.7446 -0.0320
 2222TIP3    H128225   5.785   3.115   2.050  0.1923 -1.4213  0.7330
 2222TIP3    H228226   5.693   3.210   2.125  0.3174 -0.4591 -0.3141
 2223TIP3   OH228227   2.709   0.072   1.192  0.7650  0.3163 -0.1790
 2223TIP3    H128228   2.741  -0.001   1.246  0.1958  0.1808 -0.0208
 2223TIP3    H228229   2.676   0.031   1.113  1.6573  0.5224 -0.6663
 2224TIP3   OH228230   3.758   4.661   7.135  0.4010 -0.0684 -0.2020
 2224TIP3    H128231   3.755   4.603   7.059 -1.6889 -0.7680  0.3431
 2224TIP3    H228232   3.833   4.718   7.119  1.6133 -1.9094 -1.4934
 2225TIP3   OH228233   0.402   6.068   7.641  0.5445  0.1293  0.3776
 2225TIP3    H128234   0.334   6.094   7.579 -0.0627  0.3340  1.1030
 2225TIP3    H228235   0.372   6.104   7.725  0.3141 -1.8478  1.1970
 2226TIP3   OH228236   3.843   1.299   6.397  0.2680  0.0739 -0.2851
 2226TIP3    H128237   3.851   1.340   6.484  0.2167  0.1570 -0.3190
 2226TIP3    H228238   3.933   1.283   6.369  0.3618  1.4664 -0.8874
 2227TIP3   OH228239   2.924   6.430   1.511  0.9414  0.2577  0.1462
 2227TIP3    H128240   2.851   6.484   1.539  0.2977 -0.4255 -0.1715
 2227TIP3    H228241   2.923   6.355   1.570 -0.4942 -1.2534 -1.6503
 2228TIP3   OH228242   6.144   0.921   0.918 -0.1103  0.4040  0.0937
 2228TIP3    H128243   6.111   0.865   0.848 -0.8201  0.0803  0.6600
 2228TIP3    H228244   6.201   0.864   0.970  0.1631  0.5548 -0.0398
 2229TIP3   OH228245   2.911   4.352   7.237 -0.6751  0.2383  0.4222
 2229TIP3    H128246   2.871   4.270   7.266 -0.3758 -0.1549 -0.2331
 2229TIP3    H228247   2.922   4.340   7.142  1.2470  0.1973  0.6061
 2230TIP3   OH228248   6.123   5.275   0.392 -0.2038 -0.3505 -0.0291
 2230TIP3    H128249   6.141   5.346   0.453  0.9104  0.9744 -1.8326
 2230TIP3    H228250   6.065   5.313   0.326  0.3862 -1.1145 -1.0145
 2231TIP3   OH228251   6.406   5.017   1.472 -0.5773 -0.6560 -0.6883
 2231TIP3    H128252   6.386   5.110   1.471  0.3280 -0.4338 -0.0874
 2231TIP3    H228253   6.476   5.006   1.408  0.5977 -0.5774  0.5315
 2232TIP3   OH228254   5.210   6.389   8.543  0.0331  0.1758  0.6580
 2232TIP3    H128255   5.196   6.484   8.543  1.5739  0.4337  0.9527
 2232TIP3    H228256   5.151   6.356   8.475 -2.6060  0.9626  2.4068
 2233TIP3   OH228257   6.704   1.764   0.940 -0.7410 -0.1067  0.3152
 2233TIP3    H128258   6.687   1.687   0.886 -0.6410 -0.0851  0.2528
 2233TIP3    H228259   6.778   1.740   0.995  1.3438  0.9821 -1.8546
 2234TIP3   OH228260   2.050   3.556   7.295 -0.1946  0.2139  0.4403
 2234TIP3    H128261   2.099   3.483   7.255 -0.1038 -0.7068  2.1604
 2234TIP3    H228262   2.085   3.634   7.252 -0.6366 -0.7452 -1.8260
 2235TIP3   OH228263   6.582   5.105   8.290 -0.1947 -0.2866  0.2085
 2235TIP3    H128264   6.591   5.151   8.374 -0.4742 -0.6428  0.4413
 2235TIP3    H228265   6.568   5.174   8.226 -0.3999 -0.0285  0.5220
 2236TIP3   OH228266   0.132   1.551   6.363 -0.3949 -0.2434 -0.2866
 2236TIP3    H128267   0.225   1.555   6.338 -0.0944 -1.8396  0.4718
 2236TIP3    H228268   0.120   1.627   6.419  0.9916 -1.0488  1.1886
 2237TIP3   OH228269   6.284   3.243   6.450  0.0313  0.1938 -0.5621
 2237TIP3    H128270   6.190   3.241   6.432 -0.6881 -0.5656  2.6277
 2237TIP3    H228271   6.314   3.324   6.410 -2.2366  1.0569 -0.6683
 2238TIP3   OH228272   3.501   1.772   8.388 -1.0890 -0.0922  0.0204
 2238TIP3    H128273   3.422   1.741   8.431 -0.0628 -1.2692  1.1453
 2238TIP3    H228274   3.571   1.715   8.421  0.2746  1.0478 -0.7544
 2239TIP3   OH228275   5.836   5.425   2.298  0.3108  0.6150 -0.1400
 2239TIP3    H128276   5.787   5.346   2.276  1.7644  0.1435 -1.9932
 2239TIP3    H228277   5.786   5.496   2.258  1.3087  0.0802 -2.5174
 2240TIP3   OH228278   1.462   6.257   1.535  0.0480 -0.0449 -0.0258
 2240TIP3    H128279   1.417   6.341   1.543 -1.4063 -0.7080 -0.8974
 2240TIP3    H228280   1.430   6.205   1.609  0.7625  0.0610  0.3726
 2241TIP3   OH228281   6.103   2.681   7.730  0.1626  0.5410  0.0039
 2241TIP3    H128282   6.106   2.619   7.656  0.4740 -0.4262  0.8086
 2241TIP3    H228283   6.187   2.667   7.775  0.3451  1.7355  0.0638
 2242TIP3   OH228284   4.245   5.018   8.415  0.3450  0.4272  0.0769
 2242TIP3    H128285   4.173   4.962   8.443  0.6963 -0.0539  0.0368
 2242TIP3    H228286   4.245   5.091   8.477  1.1270 -0.6276  1.3759
 2243TIP3   OH228287   4.506   0.812   2.230 -0.3739  0.0283 -0.0306
 2243TIP3    H128288   4.530   0.818   2.138  0.4225  1.0268  0.2287
 2243TIP3    H228289   4.417   0.847   2.234 -0.0795  0.8162 -0.2905
 2244TIP3   OH228290   0.947   2.235   0.189  0.3405  0.7480 -0.5664
 2244TIP3    H128291   0.925   2.142   0.194  0.9733  0.5925 -0.6420
 2244TIP3    H228292   0.881   2.278   0.244  0.5635  0.1649  0.1736
 2245TIP3   OH228293   3.018   3.987   8.570  0.3733 -0.2089  0.0455
 2245TIP3    H128294   2.941   4.039   8.545  0.4629 -0.1249 -0.0598
 2245TIP3    H228295   3.031   4.006   8.662 -0.8525 -1.6575  0.5658
 2246TIP3   OH228296   6.677   5.911   6.839  0.0790 -0.0026 -0.3434
 2246TIP3    H128297   6.640   5.826   6.818 -0.6990 -0.1805  1.5424
 2246TIP3    H228298   6.683   5.956   6.755 -1.8527 -0.9936 -1.0698
 2247TIP3   OH228299   3.536   1.756   7.003  0.0727 -0.0367  0.3317
 2247TIP3    H128300   3.455   1.733   7.049  0.3666 -1.7461  0.0417
 2247TIP3    H228301   3.506   1.784   6.917 -0.2219 -0.7584  0.1899
 2248TIP3   OH228302   3.571   4.677   0.264 -0.4577 -0.1596 -0.6225
 2248TIP3    H128303   3.507   4.630   0.212 -0.3916 -1.7144  0.6277
 2248TIP3    H228304   3.551   4.770   0.250 -1.1170 -0.5480 -2.4905
 2249TIP3   OH228305   1.550   3.918   1.833  0.0168 -0.3678 -0.2950
 2249TIP3    H128306   1.605   3.981   1.879 -2.8308  0.9074  1.6143
 2249TIP3    H228307   1.564   3.835   1.879  1.3674 -0.4528 -0.7960
 2250TIP3   OH228308   6.539   5.104   1.241  0.1716  0.4453 -0.1409
 2250TIP3    H128309   6.598   5.033   1.216 -0.4569 -0.4097  0.7227
 2250TIP3    H228310   6.557   5.174   1.178  0.4552 -0.6619 -1.3310
 2251TIP3   OH228311   2.583   5.496   8.029  0.0607 -0.0432  0.3361
 2251TIP3    H128312   2.645   5.460   8.093 -1.2041 -0.5840  1.2885
 2251TIP3    H228313   2.577   5.589   8.052  0.7053  0.0764  0.0611
 2252TIP3   OH228314   6.223   2.116   2.229  0.2308 -0.4612 -0.5204
 2252TIP3    H128315   6.146   2.101   2.175 -0.0356  0.4231 -0.3993
 2252TIP3    H228316   6.210   2.061   2.307 -0.6705  0.2788 -0.1287
 2253TIP3   OH228317   0.241   6.744   6.451 -0.2957 -0.2202  0.3368
 2253TIP3    H128318   0.238   6.673   6.516 -1.5600 -0.4156  0.1075
 2253TIP3    H228319   0.160   6.733   6.401  0.3920  0.2634 -0.9311
 2254TIP3   OH228320   0.218   2.929   7.090 -0.2480  0.1103 -0.0991
 2254TIP3    H128321   0.181   2.908   7.005 -2.9525  0.4675  0.8854
 2254TIP3    H228322   0.243   2.845   7.128 -1.0468 -0.2746 -0.4128
 2255TIP3   OH228323   6.561   3.842   0.325 -0.2186 -0.3604 -0.0919
 2255TIP3    H128324   6.564   3.914   0.387  1.0158 -0.6511  0.2304
 2255TIP3    H228325   6.542   3.883   0.240  0.2322  0.3125  0.1286
 2256TIP3   OH228326   4.897   4.886   1.314 -0.0130 -0.1222 -0.0071
 2256TIP3    H128327   4.884   4.844   1.230 -1.1863 -0.9153  0.5364
 2256TIP3    H228328   4.837   4.961   1.313  0.0418 -0.0765  0.0820
 2257TIP3   OH228329   0.220   5.760   0.986 -0.2588  0.1949  0.1401
 2257TIP3    H128330   0.255   5.846   0.962 -3.4142  0.9768 -2.4109
 2257TIP3    H228331   0.274   5.698   0.938  0.0496  1.0268 -0.6163
 2258TIP3   OH228332   4.038   3.735   2.429  0.1915  0.5697  0.1489
 2258TIP3    H128333   4.010   3.826   2.417  0.0569  0.7547  1.7308
 2258TIP3    H228334   4.118   3.728   2.377  0.1112  1.5390 -0.1251
 2259TIP3   OH228335   3.248   4.565   1.552 -0.1569  0.1214 -0.1041
 2259TIP3    H128336   3.326   4.556   1.497 -1.9720  0.7343 -2.9248
 2259TIP3    H228337   3.199   4.484   1.538 -0.4028  0.0333  1.1246
 2260TIP3   OH228338   6.455   3.746   1.288  0.8521 -0.0511  0.4846
 2260TIP3    H128339   6.462   3.701   1.203 -0.6436  1.1276 -0.3101
 2260TIP3    H228340   6.539   3.791   1.298  1.2708 -0.6884 -0.0831
 2261TIP3   OH228341   5.827   5.032   6.426  0.0842 -0.0888 -0.0071
 2261TIP3    H128342   5.783   5.116   6.443 -0.5112  0.3143 -3.0657
 2261TIP3    H228343   5.919   5.049   6.444 -0.3584  0.3571  2.1262
 2262TIP3   OH228344   0.156   4.717   2.019 -0.1138 -0.5093  0.6318
 2262TIP3    H128345   0.157   4.627   2.052 -1.2768 -0.3891  1.0630
 2262TIP3    H228346   0.064   4.743   2.024  0.2610  0.8588  0.9350
 2263TIP3   OH228347   1.081   6.805   7.920 -0.0664 -0.6062  0.1019
 2263TIP3    H128348   1.014   6.773   7.980 -0.6202 -0.0761 -0.2347
 2263TIP3    H228349   1.064   6.760   7.838  0.7656 -1.4221  0.3546
 2264TIP3   OH228350   6.310   4.548   7.091 -0.2196 -0.8225 -0.6127
 2264TIP3    H128351   6.263   4.608   7.150  1.2995 -1.6248  1.5398
 2264TIP3    H228352   6.304   4.463   7.134  2.6621 -1.0717 -0.4893
 2265TIP3   OH228353   3.473   2.606   7.712 -0.2139 -1.0524 -0.0420
 2265TIP3    H128354   3.511   2.689   7.683  0.9678 -1.4908  0.1948
 2265TIP3    H228355   3.453   2.620   7.804  1.9850 -1.6557  0.6031
 2266TIP3   OH228356   3.688   0.988   7.914 -0.2662  0.4398  0.2649
 2266TIP3    H128357   3.745   0.951   7.982  0.8559 -2.0774 -1.8778
 2266TIP3    H228358   3.614   0.928   7.908 -0.9892  1.3153  0.0583
 2267TIP3   OH228359   2.691   0.855   8.143  0.0787 -0.2752 -0.4544
 2267TIP3    H128360   2.759   0.907   8.099  0.5175 -0.0231  0.4906
 2267TIP3    H228361   2.676   0.781   8.084 -0.6458  0.9591 -1.8875
 2268TIP3   OH228362   4.044   5.884   7.913 -0.3895 -0.2371 -0.5302
 2268TIP3    H128363   4.106   5.882   7.840  0.1466  0.0251 -0.0835
 2268TIP3    H228364   4.091   5.845   7.986 -1.2584 -1.3893 -0.5646
 2269TIP3   OH228365   0.080   0.526   0.569 -0.0304 -0.1235 -0.3515
 2269TIP3    H128366   0.024   0.507   0.644  0.0123  0.0114 -0.2868
 2269TIP3    H228367   0.159   0.564   0.606 -0.5199  1.1175 -0.5451
 2270TIP3   OH228368   3.217   3.777   8.642 -0.3482 -0.5342  0.3776
 2270TIP3    H128369   3.199   3.854   8.587  0.5596 -0.0382  0.7574
 2270TIP3    H228370   3.202   3.702   8.584 -0.1938 -0.0400 -0.3178
 2271TIP3   OH228371   0.928   0.218   7.044 -0.2445 -0.1080 -0.2674
 2271TIP3    H128372   0.940   0.256   7.131 -1.3904  2.1812 -1.0228
 2271TIP3    H228373   0.833   0.208   7.035 -0.1338 -0.4572 -1.2037
 2272TIP3   OH228374   0.739   3.707   2.774  0.2253  0.0290  0.1661
 2272TIP3    H128375   0.719   3.704   2.868 -0.3319 -0.9405  0.0320
 2272TIP3    H228376   0.682   3.641   2.735  0.4750  0.3937 -0.8591
 2273TIP3   OH228377   2.331   1.210   1.486  0.1200 -0.1565 -0.2015
 2273TIP3    H128378   2.401   1.210   1.420 -0.9322  1.3741 -1.3789
 2273TIP3    H228379   2.325   1.301   1.514 -0.3357 -0.5663  1.0943
 2274TIP3   OH228380   4.319   5.394   1.241  0.0296 -0.2553  0.1033
 2274TIP3    H128381   4.292   5.308   1.274  3.2367 -0.7483  1.7863
 2274TIP3    H228382   4.270   5.456   1.295 -2.1338 -0.9299 -0.9572
 2275TIP3   OH228383   6.184   6.736   1.648 -0.6400  0.2225  0.4578
 2275TIP3    H128384   6.166   6.819   1.693 -1.3229 -0.3308  1.2291
 2275TIP3    H228385   6.250   6.693   1.702  0.1559  0.5013 -0.2600
 2276TIP3   OH228386   4.156   2.639   1.130  0.6011 -0.0348 -0.4847
 2276TIP3    H128387   4.127   2.730   1.121  2.3678  0.3685 -3.0919
 2276TIP3    H228388   4.243   2.645   1.170  0.7613 -0.5800 -0.7425
 2277TIP3   OH228389   5.676   0.546   1.099  0.2551 -0.4173 -0.1513
 2277TIP3    H128390   5.687   0.568   1.192  0.3615 -2.5817  0.3906
 2277TIP3    H228391   5.582   0.529   1.089 -0.5224  3.4861 -1.4018
 2278TIP3   OH228392   5.244   6.083   8.370  0.0512  0.0288 -0.4504
 2278TIP3    H128393   5.176   6.150   8.357  0.7210  0.6793 -0.6760
 2278TIP3    H228394   5.200   6.013   8.417 -0.8188  0.3770 -0.7275
 2279TIP3   OH228395   3.330   1.441   7.047  0.0856 -0.4590  0.5204
 2279TIP3    H128396   3.263   1.502   7.018  0.7468  0.5355  1.0151
 2279TIP3    H228397   3.390   1.494   7.099  0.7617 -1.5063  0.8510
 2280TIP3   OH228398   4.333   5.956   1.252 -0.3761  0.4323 -0.3898
 2280TIP3    H128399   4.270   5.979   1.184  0.3843  0.9859 -0.9289
 2280TIP3    H228400   4.325   5.861   1.262 -0.5241  0.3502 -1.2253
 2281TIP3   OH228401   5.267   3.828   0.484  0.1838 -0.1106 -0.3105
 2281TIP3    H128402   5.196   3.872   0.437 -1.2778 -0.4289  1.4622
 2281TIP3    H228403   5.338   3.892   0.488 -1.0870  1.3122  0.3332
 2282TIP3   OH228404   4.276   0.100   1.669  0.5001 -0.2884 -0.3376
 2282TIP3    H128405   4.300   0.026   1.725  0.1943 -0.5438 -0.5446
 2282TIP3    H228406   4.182   0.112   1.683  0.5781  0.1773 -0.1702
 2283TIP3   OH228407   2.598   3.788   6.278 -0.0478 -0.3066  0.3405
 2283TIP3    H128408   2.617   3.740   6.358 -1.0694 -0.5868  0.4333
 2283TIP3    H228409   2.508   3.764   6.257 -0.5110  1.3873  0.2564
 2284TIP3   OH228410   2.371   3.749   7.991  0.2888 -0.2971 -0.7890
 2284TIP3    H128411   2.311   3.823   7.981 -1.2377 -1.4538 -0.7306
 2284TIP3    H228412   2.449   3.786   8.031 -0.3849  1.2931 -0.8673
 2285TIP3   OH228413   4.292   1.427   1.648  0.0105 -0.1698 -0.5868
 2285TIP3    H128414   4.330   1.365   1.586  0.1164 -1.8063  0.9935
 2285TIP3    H228415   4.236   1.372   1.704  0.8733  0.9688  1.4970
 2286TIP3   OH228416   5.285   1.518   6.728 -0.1561  0.2573  0.0451
 2286TIP3    H128417   5.203   1.523   6.679 -0.4766  0.7361  0.6125
 2286TIP3    H228418   5.317   1.608   6.729 -1.3621  0.7598  2.7019
 2287TIP3   OH228419   4.117   0.828   0.808  0.0415 -0.1840 -0.3955
 2287TIP3    H128420   4.172   0.753   0.830 -1.4957 -1.0498  0.6482
 2287TIP3    H228421   4.092   0.813   0.716  2.3013  0.7691 -1.2496
 2288TIP3   OH228422   5.266   2.797   7.552 -0.0773 -0.3749 -0.1176
 2288TIP3    H128423   5.330   2.771   7.486 -0.1556 -0.9921  0.0478
 2288TIP3    H228424   5.181   2.779   7.510 -0.2843  2.9177 -1.4161
 2289TIP3   OH228425   0.688   3.923   8.487 -0.0605  0.4766 -0.3305
 2289TIP3    H128426   0.730   3.942   8.403  1.7815  1.3477  0.7568
 2289TIP3    H228427   0.732   3.979   8.550 -1.3733 -0.2019  1.2622
 2290TIP3   OH228428   3.459   1.855   2.118  0.4015  0.4649  0.4735
 2290TIP3    H128429   3.465   1.950   2.104 -1.4210  0.7369  1.2272
 2290TIP3    H228430   3.373   1.831   2.083  0.9384 -0.9662  0.0798
 2291TIP3   OH228431   5.047   1.612   6.625  0.4263 -0.1860 -0.3091
 2291TIP3    H128432   4.981   1.593   6.690 -1.2047  1.9504 -1.2067
 2291TIP3    H228433   5.062   1.707   6.633  1.7372 -0.2468 -1.5949
 2292TIP3   OH228434   0.294   6.638   7.771  0.0046 -0.1475  0.1716
 2292TIP3    H128435   0.352   6.603   7.838  0.6346  0.4549 -0.0406
 2292TIP3    H228436   0.335   6.721   7.745 -1.1192  0.4452  0.2394
 2293TIP3   OH228437   3.236   5.287   1.649  0.6660 -0.0104 -0.1918
 2293TIP3    H128438   3.193   5.274   1.565  0.4845  0.7378 -0.2200
 2293TIP3    H228439   3.217   5.378   1.672 -0.0936 -0.4733  1.1111
 2294TIP3   OH228440   5.003   3.600   1.824  0.0376  0.3042  0.1070
 2294TIP3    H128441   5.074   3.542   1.852 -0.0726 -0.4950 -1.1609
 2294TIP3    H228442   5.023   3.684   1.865  0.0277 -0.6788  2.2859
 2295TIP3   OH228443   1.076   2.090   1.496  0.2070 -0.4909 -0.3029
 2295TIP3    H128444   1.167   2.096   1.467 -0.1821  0.4061 -1.4189
 2295TIP3    H228445   1.027   2.145   1.435 -0.9135  0.1060  1.0575
 2296TIP3   OH228446   5.132   0.886   8.629 -0.1948  0.1131 -0.1022
 2296TIP3    H128447   5.226   0.904   8.622 -0.2137  1.0108  1.3902
 2296TIP3    H228448   5.099   0.892   8.540  0.6177  3.2310 -0.3007
 2297TIP3   OH228449   2.948   1.382   2.646 -0.2447  0.0961 -0.1422
 2297TIP3    H128450   2.874   1.388   2.585  0.4636  0.0524 -1.0360
 2297TIP3    H228451   2.981   1.293   2.636  0.2632  0.2788 -0.1804
 2298TIP3   OH228452   6.414   1.521   0.547  0.2600 -0.4382 -0.4837
 2298TIP3    H128453   6.504   1.554   0.548 -0.0121  0.3511  0.7839
 2298TIP3    H228454   6.361   1.598   0.526 -0.0553 -1.2256 -2.8866
 2299TIP3   OH228455   5.948   5.978   1.549  0.5490  0.1683 -0.1756
 2299TIP3    H128456   5.882   5.931   1.497  1.7714  0.2692 -1.8809
 2299TIP3    H228457   5.952   5.929   1.631 -1.6959  0.2130  0.0246
 2300TIP3   OH228458   3.920   3.122   6.482 -0.2273  0.0587  0.5824
 2300TIP3    H128459   3.918   3.194   6.418  1.8366 -1.7435 -1.7377
 2300TIP3    H228460   3.831   3.087   6.481 -1.0685  2.0209  1.1876
 2301TIP3   OH228461   1.116   0.072   7.511 -0.4337 -0.0723 -0.3941
 2301TIP3    H128462   1.085   0.144   7.455  1.8885  1.0296 -0.3811
 2301TIP3    H228463   1.116  -0.004   7.453  1.6515  0.9835 -1.9142
 2302TIP3   OH228464   2.649   5.988   7.336 -0.6695 -0.2023 -0.2231
 2302TIP3    H128465   2.622   6.030   7.255 -2.0154 -1.6163 -0.5505
 2302TIP3    H228466   2.573   5.997   7.394  0.2237  0.6684  0.8724
 2303TIP3   OH228467   4.782   4.397   1.806  0.3401  0.6489 -0.0355
 2303TIP3    H128468   4.784   4.332   1.876  0.1551  2.1712  1.4792
 2303TIP3    H228469   4.701   4.378   1.758 -0.0867  0.1955  0.8324
 2304TIP3   OH228470   6.773   1.746   2.012  0.4018 -0.1555  0.2781
 2304TIP3    H128471   6.725   1.825   1.985  2.1229  0.9257  0.2306
 2304TIP3    H228472   6.705   1.680   2.025 -1.0785  1.2632  0.0812
 2305TIP3   OH228473   5.796   2.622   8.220 -0.1380  0.5448 -0.4117
 2305TIP3    H128474   5.846   2.608   8.300  0.8596  0.7146 -0.9748
 2305TIP3    H228475   5.766   2.534   8.195 -0.6160  0.5182  0.2403
 2306TIP3   OH228476   2.415   2.721   1.505 -0.2210  0.5495 -0.2204
 2306TIP3    H128477   2.324   2.743   1.489  0.0592  1.4859 -0.6089
 2306TIP3    H228478   2.416   2.626   1.517 -0.6624 -0.2527 -4.7660
 2307TIP3   OH228479   0.861   5.320   1.068 -0.2177 -0.5295  0.2158
 2307TIP3    H128480   0.820   5.233   1.070 -0.4571 -0.4675 -1.0923
 2307TIP3    H228481   0.939   5.311   1.122 -0.5807 -1.3814  0.6130
 2308TIP3   OH228482   4.803   2.823   8.244  0.5287 -0.0466 -0.2634
 2308TIP3    H128483   4.754   2.740   8.243  0.2620  0.0975  0.3256
 2308TIP3    H228484   4.835   2.830   8.334  0.8008  0.3469 -0.3918
 2309TIP3   OH228485   2.690   6.031   6.488  0.2565  0.7422 -0.0910
 2309TIP3    H128486   2.690   6.124   6.513 -1.3058  1.6538 -3.0245
 2309TIP3    H228487   2.782   6.011   6.470  0.7062  1.4752  1.2407
 2310TIP3   OH228488   2.178   2.556   7.853 -0.4970 -0.2310  0.1140
 2310TIP3    H128489   2.089   2.588   7.841 -0.3850 -0.4720 -1.6302
 2310TIP3    H228490   2.234   2.631   7.833 -0.2890 -0.6734 -1.0425
 2311TIP3   OH228491   5.127   2.162   6.517  0.1792  0.5090 -0.3994
 2311TIP3    H128492   5.039   2.154   6.554  0.5228 -0.5582  0.2409
 2311TIP3    H228493   5.184   2.123   6.583  1.0957  0.8840 -0.9569
 2312TIP3   OH228494   3.177   5.850   1.246  0.3706 -0.2680 -0.0762
 2312TIP3    H128495   3.159   5.763   1.281  0.9144 -0.1204  0.5897
 2312TIP3    H228496   3.242   5.887   1.306 -1.4825  1.4548  0.9933
 2313TIP3   OH228497   6.111   0.803   8.273 -0.1537 -0.3938  0.0449
 2313TIP3    H128498   6.172   0.731   8.256  1.1711  0.2294  1.8999
 2313TIP3    H228499   6.163   0.882   8.264 -1.4410  0.3471 -1.3002
 2314TIP3   OH228500   3.345   0.531   8.542 -0.5803 -0.3827 -0.5315
 2314TIP3    H128501   3.371   0.467   8.475 -1.6973  1.3094 -2.7289
 2314TIP3    H228502   3.415   0.595   8.543 -0.9788  0.0672 -0.7680
 2315TIP3   OH228503   4.787   4.622   2.028 -0.1901  0.1380 -0.2325
 2315TIP3    H128504   4.826   4.633   1.942 -0.0278  1.0530 -0.0542
 2315TIP3    H228505   4.758   4.709   2.053 -1.6420 -0.3744 -0.0048
 2316TIP3   OH228506   3.756   6.754   1.078  0.3078 -0.7497  0.0915
 2316TIP3    H128507   3.776   6.839   1.039  0.1976 -1.8587 -2.6031
 2316TIP3    H228508   3.675   6.727   1.036 -0.2805 -1.7147  1.7717
 2317TIP3   OH228509   6.676   5.747   1.493  0.6566  0.0850  0.8424
 2317TIP3    H128510   6.689   5.837   1.463  1.3418  0.4274  2.1089
 2317TIP3    H228511   6.746   5.733   1.557  0.3540 -1.2402  0.9074
 2318TIP3   OH228512   0.343   4.212   1.360 -0.0492 -0.8553  0.1088
 2318TIP3    H128513   0.414   4.276   1.371 -1.2976  0.7987 -0.9784
 2318TIP3    H228514   0.303   4.207   1.447 -0.8825  1.0900 -0.0962
 2319TIP3   OH228515   2.778   6.086   1.153  0.2825 -0.7501  0.2962
 2319TIP3    H128516   2.698   6.109   1.200 -0.5213 -0.5097 -1.1552
 2319TIP3    H228517   2.842   6.151   1.182 -1.2038  1.7559 -1.6483
 2320TIP3   OH228518   1.529   3.005   8.313 -0.0640 -0.1293 -0.0759
 2320TIP3    H128519   1.504   2.919   8.281  0.9138 -1.2106  1.8620
 2320TIP3    H228520   1.557   3.053   8.235  0.6448 -2.0174 -1.0391
 2321TIP3   OH228521   3.773   1.683   1.204  0.4046 -0.0267 -0.4429
 2321TIP3    H128522   3.735   1.743   1.268  3.8425  0.0252  1.8125
 2321TIP3    H228523   3.721   1.602   1.214 -1.0016  0.9091  0.1897
 2322TIP3   OH228524   1.088   1.756   2.377 -0.3093 -0.1744  0.5838
 2322TIP3    H128525   1.026   1.823   2.408 -0.7644 -0.5450  0.4889
 2322TIP3    H228526   1.173   1.787   2.408 -0.5221  0.4085  0.6147
 2323TIP3   OH228527   6.691   5.164   0.326 -0.2607  0.2375  0.2520
 2323TIP3    H128528   6.598   5.153   0.307 -0.8074  0.7253  2.4321
 2323TIP3    H228529   6.697   5.249   0.369  0.9002 -0.6145  1.8678
 2324TIP3   OH228530   4.894   3.540   7.007  0.1052  0.6989  0.9372
 2324TIP3    H128531   4.931   3.595   6.938  0.6099  0.7272  1.2238
 2324TIP3    H228532   4.875   3.457   6.964 -0.4295  1.0112  0.5582
 2325TIP3   OH228533   2.688   5.465   0.030 -0.2426  0.2870 -0.8456
 2325TIP3    H128534   2.648   5.433   0.111  2.4087  0.8503  0.8392
 2325TIP3    H228535   2.765   5.408   0.018  1.5220  2.5179 -0.7942
 2326TIP3   OH228536   4.906   4.168   0.676  0.7668 -0.5868  0.1504
 2326TIP3    H128537   4.945   4.255   0.680 -0.8897  0.1688  0.7343
 2326TIP3    H228538   4.905   4.146   0.583 -0.0890  0.6621 -0.1672
 2327TIP3   OH228539   6.781   5.703   6.987 -0.6061 -0.2807  0.1633
 2327TIP3    H128540   6.791   5.791   6.950 -4.6676  1.0358  1.6061
 2327TIP3    H228541   6.729   5.655   6.923 -1.9627 -0.1646  1.1238
 2328TIP3   OH228542   0.114   2.809   7.750  0.1855  0.4651 -0.3798
 2328TIP3    H128543   0.144   2.899   7.733 -1.0736  1.0396  0.3297
 2328TIP3    H228544   0.190   2.766   7.790 -0.2945  2.3755  2.9660
 2329TIP3   OH228545   4.396   5.919   2.339 -0.3270 -0.3659  0.3453
 2329TIP3    H128546   4.406   5.975   2.416  0.2187 -1.5341  1.1545
 2329TIP3    H228547   4.481   5.923   2.295 -0.7355  0.5516 -0.4014
 2330TIP3   OH228548   4.197   4.375   8.151  0.4811 -0.3346  0.2225
 2330TIP3    H128549   4.156   4.356   8.236 -0.3902 -0.2059 -0.1543
 2330TIP3    H228550   4.137   4.437   8.109  0.1423 -1.5037 -1.0855
 2331TIP3   OH228551   4.226   6.226   1.391  0.3587  0.1548 -0.2469
 2331TIP3    H128552   4.252   6.214   1.300  1.9565 -1.2583  0.3409
 2331TIP3    H228553   4.179   6.146   1.414  0.2656  0.3512  0.2620
 2332TIP3   OH228554   3.226   1.303   0.999  0.0102  0.6069 -0.0224
 2332TIP3    H128555   3.200   1.366   0.932 -0.4946  0.2210 -0.1942
 2332TIP3    H228556   3.322   1.305   0.998  0.0110  0.4219 -0.9272
 2333TIP3   OH228557   4.642   6.272   7.837 -0.0530 -0.3060  0.1496
 2333TIP3    H128558   4.643   6.364   7.864  0.5750 -0.3925  0.4431
 2333TIP3    H228559   4.610   6.273   7.747 -0.1159  0.1903  0.1756
 2334TIP3   OH228560   2.416   0.130   1.862 -0.0115  0.7567  0.1080
 2334TIP3    H128561   2.473   0.205   1.878  0.4447  0.4328  0.0310
 2334TIP3    H228562   2.391   0.138   1.770 -2.8009  2.7328  0.9019
 2335TIP3   OH228563   4.184   3.243   6.505  0.1525 -0.7340  0.3229
 2335TIP3    H128564   4.114   3.187   6.537 -1.7761  0.1797 -1.9755
 2335TIP3    H228565   4.156   3.332   6.528  0.6693 -0.3722 -0.3958
 2336TIP3   OH228566   6.323   1.271   0.621 -0.6443 -0.3356  0.1288
 2336TIP3    H128567   6.235   1.264   0.658 -0.6564  1.3916  0.4803
 2336TIP3    H228568   6.334   1.364   0.602  0.3598 -0.7848 -1.7851
 2337TIP3   OH228569   3.304   2.558   0.797 -0.6649  0.0336 -0.0697
 2337TIP3    H128570   3.218   2.528   0.826 -0.3538  0.6686  1.6647
 2337TIP3    H228571   3.359   2.551   0.875  0.8853 -0.4195 -1.1598
 2338TIP3   OH228572   1.392   5.119   1.039  0.5515 -0.5389 -0.5752
 2338TIP3    H128573   1.393   5.063   1.117 -0.7589 -2.0142 -1.5410
 2338TIP3    H228574   1.474   5.167   1.043 -0.2362  0.8478  2.6568
 2339TIP3   OH228575   0.656   3.565   7.065 -0.2738  0.6999 -1.2419
 2339TIP3    H128576   0.715   3.539   6.994  0.3127  0.0961 -0.5425
 2339TIP3    H228577   0.604   3.487   7.083 -1.9591  1.4695 -2.4578
 2340TIP3   OH228578   3.782   1.119   6.977 -0.1625  0.8598 -0.0314
 2340TIP3    H128579   3.776   1.047   6.914  2.2931  0.7266 -0.2213
 2340TIP3    H228580   3.874   1.145   6.975 -0.7654  3.3147  0.8436
 2341TIP3   OH228581   6.869   0.308   8.350  0.4085 -0.0099 -0.2041
 2341TIP3    H128582   6.817   0.387   8.345  0.1905  0.1977  3.1331
 2341TIP3    H228583   6.911   0.301   8.264 -2.5566  1.5305 -1.9225
 2342TIP3   OH228584   6.358   4.079   7.322  0.0183  0.3491  0.3066
 2342TIP3    H128585   6.367   4.015   7.252 -0.3053  0.7259 -0.0836
 2342TIP3    H228586   6.438   4.070   7.373 -1.0211 -2.0358  1.6801
 2343TIP3   OH228587   5.109   5.752   1.534 -0.8534  0.4560  0.0150
 2343TIP3    H128588   5.130   5.675   1.587 -0.6827  0.4808 -0.0165
 2343TIP3    H228589   5.029   5.787   1.574 -1.0756  0.1176 -0.1310
 2344TIP3   OH228590   1.155   3.523   8.263  0.4488  0.9652  0.0873
 2344TIP3    H128591   1.123   3.571   8.339 -0.3982 -1.2046  1.2028
 2344TIP3    H228592   1.076   3.487   8.222  0.8601  2.2816 -2.0407
 2345TIP3   OH228593   2.978   0.132   0.864  0.0401 -0.1894 -0.1929
 2345TIP3    H128594   3.073   0.131   0.872  0.1718  1.3915 -1.1608
 2345TIP3    H228595   2.962   0.141   0.770 -1.0517  0.0523  0.0064
 2346TIP3   OH228596   5.112   5.029   8.121  0.1511  0.3222 -0.0579
 2346TIP3    H128597   5.104   5.120   8.093 -1.5958  0.3486  0.4084
 2346TIP3    H228598   5.200   5.003   8.094 -0.0775  1.4881 -2.1215
 2347TIP3   OH228599   3.499   4.183   2.180  0.3354 -0.0273  0.4647
 2347TIP3    H128600   3.414   4.141   2.166  0.6734 -0.5574  0.0016
 2347TIP3    H228601   3.562   4.125   2.139  1.0747 -0.2639  1.8917
 2348TIP3   OH228602   5.757   0.645   0.838 -0.7422 -0.0513 -0.1865
 2348TIP3    H128603   5.772   0.656   0.932 -0.5220  0.4581 -0.2745
 2348TIP3    H228604   5.756   0.551   0.824 -0.1645 -0.1282  0.2391
 2349TIP3   OH228605   3.494   1.526   0.951  0.1339 -0.2857  0.2846
 2349TIP3    H128606   3.432   1.517   0.878 -0.1120 -1.7485  0.6433
 2349TIP3    H228607   3.517   1.436   0.974  1.3882  0.2049  1.0282
 2350TIP3   OH228608   6.342   5.958   0.480  0.0544 -0.3272  0.5443
 2350TIP3    H128609   6.305   5.890   0.536  0.0952 -0.5155  0.3419
 2350TIP3    H228610   6.365   6.029   0.540 -0.3363 -0.3380  0.7101
 2351TIP3   OH228611   3.337   0.506   7.019  1.5693  0.0731 -0.5768
 2351TIP3    H128612   3.381   0.591   7.024 -0.5779  1.1858  1.8843
 2351TIP3    H228613   3.340   0.472   7.108 -1.6822 -0.1298 -0.4171
 2352TIP3   OH228614   2.676   4.335   8.647 -0.2862  0.7121 -0.5037
 2352TIP3    H128615   2.636   4.422   8.642 -0.1517  0.8640  0.6788
 2352TIP3    H228616   2.603   4.276   8.669  0.1959  1.1530  2.8272
 2353TIP3   OH228617   1.154   6.142   0.499 -0.0855  0.3956 -0.0536
 2353TIP3    H128618   1.241   6.120   0.532 -0.6776  0.0573  1.3658
 2353TIP3    H228619   1.159   6.127   0.405  2.2207  3.1065 -0.5112
 2354TIP3   OH228620   3.339   5.911   6.821 -0.0663  0.1807 -0.2457
 2354TIP3    H128621   3.332   5.819   6.797 -0.0412 -0.3771  1.6935
 2354TIP3    H228622   3.414   5.915   6.881 -1.0619  1.1472  0.9913
 2355TIP3   OH228623   6.662   0.894   0.496  0.3723  0.2119  0.1359
 2355TIP3    H128624   6.671   0.943   0.578  0.5927 -1.5014  1.1796
 2355TIP3    H228625   6.612   0.816   0.520 -0.3700  0.1158 -1.5721
 2356TIP3   OH228626   3.030   3.685   0.994  0.5286 -0.3902 -0.0104
 2356TIP3    H128627   2.989   3.648   0.915 -0.0649 -1.6633  0.8536
 2356TIP3    H228628   3.013   3.779   0.988 -0.6352 -0.6241 -0.7641
 2357TIP3   OH228629   3.298   3.753   0.274 -0.2631  0.0033  0.1472
 2357TIP3    H128630   3.363   3.820   0.298  1.2313 -1.2137 -0.3484
 2357TIP3    H228631   3.285   3.766   0.180 -0.0357 -0.3352  0.0680
 2358TIP3   OH228632   2.515   3.192   1.153 -0.0177 -0.0483  0.1056
 2358TIP3    H128633   2.446   3.258   1.146 -0.5177 -0.4088  1.3057
 2358TIP3    H228634   2.511   3.144   1.071 -2.7280 -1.4803  0.9617
 2359TIP3   OH228635   2.118   1.582   7.915 -0.4955 -0.3733 -0.1485
 2359TIP3    H128636   2.180   1.511   7.933 -0.5903 -0.1938  0.9077
 2359TIP3    H228637   2.034   1.537   7.899 -0.6182 -0.5006  0.7911
 2360TIP3   OH228638   4.925   0.583   6.820 -0.2313  0.1996 -0.2933
 2360TIP3    H128639   4.857   0.646   6.798 -1.4489 -0.6180  0.9808
 2360TIP3    H228640   4.991   0.594   6.752 -1.6133  1.0326 -1.5471
 2361TIP3   OH228641   2.254   1.599   1.835  0.0603  0.0669 -0.3583
 2361TIP3    H128642   2.250   1.616   1.929 -0.6648  2.3836 -0.7462
 2361TIP3    H228643   2.174   1.639   1.800 -0.5733 -2.2801 -1.7908
 2362TIP3   OH228644   4.390   5.063   1.625  0.4424  0.3145 -0.1448
 2362TIP3    H128645   4.436   5.131   1.674  0.3349  0.7925 -0.7104
 2362TIP3    H228646   4.298   5.073   1.648  0.7327 -2.0125  2.7229
 2363TIP3   OH228647   1.379   4.634   0.595 -0.5133 -0.1529 -0.5249
 2363TIP3    H128648   1.441   4.666   0.661 -0.2381  0.8290 -1.2388
 2363TIP3    H228649   1.430   4.571   0.544  0.0651  0.9340 -1.3556
 2364TIP3   OH228650   5.311   1.461   0.976 -0.5400 -0.2735  0.1584
 2364TIP3    H128651   5.287   1.381   1.024 -0.2470  0.5402  1.7422
 2364TIP3    H228652   5.271   1.532   1.026  2.7838  0.9220  1.4403
 2365TIP3   OH228653   2.016   0.453   6.488  0.1515 -0.6303  0.4309
 2365TIP3    H128654   2.040   0.529   6.435 -1.0767  1.0682  2.1842
 2365TIP3    H228655   2.097   0.428   6.532  0.1763  0.8942  1.2954
 2366TIP3   OH228656   5.355   0.510   1.075 -0.8784 -0.0125 -0.1524
 2366TIP3    H128657   5.310   0.429   1.101  0.1633  0.4637  3.7045
 2366TIP3    H228658   5.290   0.579   1.088 -0.9049  0.0532 -0.6376
 2367TIP3   OH228659   2.408   6.589   2.180 -0.1140 -0.0368  0.0537
 2367TIP3    H128660   2.374   6.663   2.230  0.7806 -0.0256  0.6679
 2367TIP3    H228661   2.358   6.514   2.211  1.0127 -0.1758  1.6269
 2368TIP3   OH228662   3.282   2.181   8.184  0.6782  0.0989 -0.4956
 2368TIP3    H128663   3.355   2.135   8.142  1.9686  1.2258  0.4044
 2368TIP3    H228664   3.315   2.269   8.200  0.1946 -0.1467  2.5429
 2369TIP3   OH228665   5.845   0.054   8.030 -0.3310  0.1465 -0.2115
 2369TIP3    H128666   5.875  -0.037   8.034  0.1936  0.3018 -0.4233
 2369TIP3    H228667   5.751   0.050   8.044 -0.5591 -0.5802 -1.7419
 2370TIP3   OH228668   6.861   3.525   7.926  0.1345 -0.0902 -0.1222
 2370TIP3    H128669   6.805   3.515   8.003 -0.1417  0.4450 -0.2467
 2370TIP3    H228670   6.924   3.452   7.932  0.6580  0.4308  1.0649
 2371TIP3   OH228671   5.823   1.477   1.169 -0.4738  0.1024  0.4852
 2371TIP3    H128672   5.792   1.499   1.257  0.6662  2.1466  0.4400
 2371TIP3    H228673   5.914   1.452   1.182 -0.8425 -1.5156  0.0893
 2372TIP3   OH228674   5.511   0.436   2.030 -0.1972  0.0278 -0.5585
 2372TIP3    H128675   5.474   0.350   2.050 -0.8032 -0.0615 -1.9994
 2372TIP3    H228676   5.506   0.484   2.113 -1.4614 -0.7337 -0.1750
 2373TIP3   OH228677   1.258   2.920   1.323 -0.2061 -0.1393 -0.0423
 2373TIP3    H128678   1.308   2.965   1.391 -1.0414 -0.9572  1.1705
 2373TIP3    H228679   1.321   2.904   1.253  0.9854 -0.2660  1.0251
 2374TIP3   OH228680   3.103   4.368   6.939  0.3815 -0.2319  0.0196
 2374TIP3    H128681   3.157   4.446   6.945 -0.7353  0.4546  3.2477
 2374TIP3    H228682   3.022   4.398   6.898  0.1416  0.2142  0.8082
 2375TIP3   OH228683   3.023   0.076   1.479  0.3065  0.2005  0.2734
 2375TIP3    H128684   3.051   0.063   1.388  0.6967 -0.2832  0.4552
 2375TIP3    H228685   3.046  -0.006   1.523  0.6879  0.6638  0.9509
 2376TIP3   OH228686   1.901   3.557   0.809 -1.2631  0.2129 -0.0376
 2376TIP3    H128687   1.922   3.586   0.721 -0.6197  0.0325  0.0531
 2376TIP3    H228688   1.836   3.487   0.797 -0.7519 -0.1995 -0.3946
 2377TIP3   OH228689   6.833   1.753   2.795 -0.0625  0.0400  0.1873
 2377TIP3    H128690   6.780   1.713   2.726 -0.8257  1.5335 -0.1402
 2377TIP3    H228691   6.783   1.829   2.823  0.2637 -0.4663  2.3752
 2378TIP3   OH228692   6.388   4.817   2.866 -0.1338 -0.3500 -0.0335
 2378TIP3    H128693   6.359   4.908   2.861  0.3413 -0.2774 -2.7110
 2378TIP3    H228694   6.435   4.802   2.784  1.3624 -2.5043  1.1096
 2379TIP3   OH228695   1.822   3.973   6.317 -0.0383  0.3122 -0.5428
 2379TIP3    H128696   1.840   4.055   6.273  1.5250  0.4907  0.3607
 2379TIP3    H228697   1.905   3.949   6.359 -0.9789 -0.7300  0.8205
 2380TIP3   OH228698   5.915   6.001   2.483  0.2052 -0.4259 -0.0905
 2380TIP3    H128699   5.997   6.020   2.437  0.0179 -0.9059 -0.6343
 2380TIP3    H228700   5.897   6.080   2.533  1.1939 -0.4459  0.3289
 2381TIP3   OH228701   5.978   3.290   0.404 -0.2697 -0.2364 -0.3599
 2381TIP3    H128702   6.061   3.245   0.387 -0.4567  0.1293 -2.4980
 2381TIP3    H228703   5.995   3.342   0.483  1.0545 -1.2894  0.0912
 2382TIP3   OH228704   4.231   1.689   7.709 -0.3306 -0.0028  0.6271
 2382TIP3    H128705   4.281   1.692   7.791  0.4352  1.0165  0.1339
 2382TIP3    H228706   4.296   1.670   7.642 -0.5949  1.3096 -0.0212
 2383TIP3   OH228707   5.889   5.046   7.422  0.0494 -0.3608 -0.6453
 2383TIP3    H128708   5.878   5.137   7.450  0.7300  0.0044 -1.5165
 2383TIP3    H228709   5.983   5.038   7.404 -0.0401 -1.1752 -0.7732
 2384TIP3   OH228710   1.249   2.936   7.097  0.2485  0.1622 -0.0100
 2384TIP3    H128711   1.217   2.845   7.096  2.2459 -0.5950 -1.3639
 2384TIP3    H228712   1.203   2.976   7.171 -0.5483 -2.0140  0.7780
 2385TIP3   OH228713   4.749   1.965   0.048 -0.0162 -0.1970 -0.3113
 2385TIP3    H128714   4.737   2.038   0.109 -0.1783  0.0929 -0.6851
 2385TIP3    H228715   4.661   1.928   0.037  0.1838 -0.9465  0.4784
 2386TIP3   OH228716   5.779   6.655   8.013 -0.4367  0.0373 -0.9021
 2386TIP3    H128717   5.709   6.705   7.972 -0.4743  0.7817  0.0219
 2386TIP3    H228718   5.752   6.647   8.105  2.0261  3.0802  0.2994
 2387TIP3   OH228719   3.328   0.586   1.252 -0.4167 -0.1527  0.0737
 2387TIP3    H128720   3.397   0.555   1.311  0.6381  0.2612 -0.8857
 2387TIP3    H228721   3.325   0.520   1.183 -0.4457  0.2153 -0.2809
 2388TIP3   OH228722   0.146   1.176   1.344 -0.5087  0.6773  0.2172
 2388TIP3    H128723   0.114   1.118   1.275 -0.5559 -0.2862  1.0253
 2388TIP3    H228724   0.221   1.129   1.381 -1.4756  0.3950  1.9052
 2389TIP3   OH228725   2.404   5.973   6.354  0.3282 -0.1729  0.2176
 2389TIP3    H128726   2.403   5.919   6.275 -0.3643  0.6375 -0.3383
 2389TIP3    H228727   2.493   5.963   6.388  0.6670 -0.4569 -0.7179
 2390TIP3   OH228728   5.598   1.572   8.454  0.7849  0.0654 -0.0073
 2390TIP3    H128729   5.542   1.567   8.532 -0.2268  0.5764 -0.6753
 2390TIP3    H228730   5.563   1.646   8.404  0.6456 -0.9548 -1.5104
 2391TIP3   OH228731   0.170   4.656   0.636 -0.4713 -0.2837 -0.4674
 2391TIP3    H128732   0.162   4.715   0.710  1.1776  2.0705 -2.0210
 2391TIP3    H228733   0.262   4.627   0.639  0.1256  1.1986 -2.4370
 2392TIP3   OH228734   5.619   1.969   0.653  0.0556  0.0641  0.6229
 2392TIP3    H128735   5.577   2.048   0.688 -0.9404  0.0391 -0.4665
 2392TIP3    H228736   5.631   1.913   0.730  0.1365  0.9724  1.3012
 2393TIP3   OH228737   2.028   3.600   0.031  0.5368 -0.5827  0.0773
 2393TIP3    H128738   1.942   3.571  -0.001 -0.4688  1.3175  0.9261
 2393TIP3    H228739   2.083   3.603  -0.048 -0.7468  0.0663 -0.8278
 2394TIP3   OH228740   0.488   0.881   0.522  0.5021 -0.1842  0.0740
 2394TIP3    H128741   0.447   0.797   0.542  0.7323  0.0281  1.5442
 2394TIP3    H228742   0.573   0.857   0.484 -0.2933 -0.6056 -1.5318
 2395TIP3   OH228743   4.771   0.232   8.174  0.7717  0.1630  0.4051
 2395TIP3    H128744   4.839   0.221   8.108  1.5415 -1.4392  1.4038
 2395TIP3    H228745   4.815   0.214   8.257 -0.7246 -0.3122  1.1289
 2396TIP3   OH228746   0.112   5.814   2.222  0.1956 -0.1586  0.0072
 2396TIP3    H128747   0.059   5.734   2.220 -1.3010  0.7929 -0.4853
 2396TIP3    H228748   0.125   5.831   2.315  0.2651 -0.8142  0.1205
 2397TIP3   OH228749   0.641   6.519   0.284  0.4351 -0.0407  0.3638
 2397TIP3    H128750   0.666   6.570   0.206 -2.9480 -1.3308 -1.7858
 2397TIP3    H228751   0.687   6.436   0.275  0.9660  0.2470  0.3986
 2398TIP3   OH228752   4.792   4.017   0.921  0.0058 -0.8402  0.7699
 2398TIP3    H128753   4.872   3.964   0.923  0.5628 -0.0498  0.0147
 2398TIP3    H228754   4.787   4.050   0.831  0.1371  1.0675  1.4215
 2399TIP3   OH228755   0.863   3.050   2.249 -0.6512 -0.0702  0.3727
 2399TIP3    H128756   0.915   3.093   2.317 -0.4620  1.7318 -0.8429
 2399TIP3    H228757   0.777   3.092   2.255 -0.0199  1.7499 -1.8485
 2400TIP3   OH228758   1.152   1.433   8.429  0.7549  0.5124 -0.7896
 2400TIP3    H128759   1.234   1.456   8.385  0.9227 -1.5563 -1.6693
 2400TIP3    H228760   1.178   1.370   8.496  0.3746  2.9297  1.8403
 2401TIP3   OH228761   3.122   3.609   2.537 -0.0179  0.4928 -0.1213
 2401TIP3    H128762   3.164   3.691   2.563 -0.7446  1.5761 -2.1242
 2401TIP3    H228763   3.056   3.593   2.604 -0.1740  1.8072  0.0623
 2402TIP3   OH228764   2.524   3.473   1.425  0.1665  0.0719 -0.4645
 2402TIP3    H128765   2.569   3.393   1.451 -0.4841 -0.2675 -0.3671
 2402TIP3    H228766   2.583   3.544   1.452 -0.1344 -0.2894  1.2455
 2403TIP3   OH228767   3.726   3.555   1.984  0.0692  0.7176 -0.4155
 2403TIP3    H128768   3.759   3.595   2.064 -1.4570  0.0491  0.5832
 2403TIP3    H228769   3.707   3.628   1.926 -0.3668  1.3054  0.4592
 2404TIP3   OH228770   0.446   1.138   7.473 -0.2699  0.3760 -0.5707
 2404TIP3    H128771   0.427   1.074   7.404 -0.0756  0.3441 -0.5965
 2404TIP3    H228772   0.484   1.213   7.427 -0.8216  0.6540 -0.5794
 2405TIP3   OH228773   4.810   0.391   1.181 -0.1666  0.4981  0.1420
 2405TIP3    H128774   4.874   0.388   1.111 -1.2879  0.5545 -0.9194
 2405TIP3    H228775   4.807   0.483   1.208  1.7885  0.1572  1.7758
 2406TIP3   OH228776   3.332   2.767   0.332  0.1281 -0.2441 -0.4920
 2406TIP3    H128777   3.236   2.764   0.332  0.1037  0.3872 -0.5135
 2406TIP3    H228778   3.355   2.788   0.422  0.3186 -2.0042 -0.1016
 2407TIP3   OH228779   6.556   6.085   1.342  0.0283  0.0493 -0.5366
 2407TIP3    H128780   6.597   6.042   1.267 -0.9744  0.1543 -1.1506
 2407TIP3    H228781   6.482   6.029   1.365  0.2866  0.0494  0.3524
 2408TIP3   OH228782   0.583   4.660   0.810 -0.2314 -0.0741  0.1755
 2408TIP3    H128783   0.523   4.710   0.755 -0.1390 -2.0868 -1.8627
 2408TIP3    H228784   0.625   4.727   0.865 -1.7313  1.7905 -0.8024
 2409TIP3   OH228785   2.693   2.966   0.195 -0.4300  0.3492  0.2376
 2409TIP3    H128786   2.599   2.974   0.177 -0.7210 -2.7583 -0.2730
 2409TIP3    H228787   2.735   3.005   0.119 -1.4211 -0.8809 -1.0023
 2410TIP3   OH228788   2.869   0.305   1.184 -0.8711  0.2819  0.6654
 2410TIP3    H128789   2.857   0.213   1.209  2.5077 -0.6436 -0.5236
 2410TIP3    H228790   2.828   0.311   1.097 -1.1105 -0.1129  0.7452
 2411TIP3   OH228791   2.166   0.646   6.728  0.1471 -0.1484 -0.3114
 2411TIP3    H128792   2.074   0.628   6.745  0.1454  0.4923  0.4450
 2411TIP3    H228793   2.202   0.563   6.697 -0.6713 -0.4124 -0.5640
 2412TIP3   OH228794   5.291   2.683   1.502  0.1914  0.0805  0.3560
 2412TIP3    H128795   5.215   2.629   1.482 -0.6578  0.9875  1.0983
 2412TIP3    H228796   5.363   2.640   1.455 -0.5290 -1.4561  0.5975
 2413TIP3   OH228797   2.164   4.543   1.667 -0.3147 -0.1536 -0.1834
 2413TIP3    H128798   2.158   4.500   1.752  0.5770 -1.1284 -0.5894
 2413TIP3    H228799   2.090   4.510   1.618 -0.0020 -0.7400 -0.2705
 2414TIP3   OH228800   4.468   6.450   8.467  0.0085 -0.2982 -0.2576
 2414TIP3    H128801   4.398   6.515   8.474 -0.4151 -0.7649 -0.1058
 2414TIP3    H228802   4.436   6.374   8.517 -0.7376 -1.6992 -2.6983
 2415TIP3   OH228803   6.147   6.228   1.903 -0.5293  0.5103  0.4652
 2415TIP3    H128804   6.081   6.282   1.860 -0.7305  0.1573  0.3292
 2415TIP3    H228805   6.135   6.246   1.997 -0.7922  0.4796  0.4393
 2416TIP3   OH228806   2.694   4.458   1.273 -0.3196 -0.4302 -0.1577
 2416TIP3    H128807   2.632   4.386   1.264 -1.9177  0.9392 -0.6662
 2416TIP3    H228808   2.753   4.431   1.343 -0.8996 -2.1962 -0.3099
 2417TIP3   OH228809   5.213   3.076   7.590 -0.0048  0.3844  0.0803
 2417TIP3    H128810   5.267   2.997   7.587 -0.6315 -0.2753  3.0999
 2417TIP3    H228811   5.133   3.051   7.544 -0.1585 -0.7774  0.9094
 2418TIP3   OH228812   4.417   0.253   0.585  0.2309  0.0108  0.6384
 2418TIP3    H128813   4.475   0.202   0.642  1.9753 -0.3530 -1.3545
 2418TIP3    H228814   4.409   0.200   0.506 -2.2112  0.4622  0.5122
 2419TIP3   OH228815   1.317   3.728   0.127 -0.4081  0.0249 -0.3676
 2419TIP3    H128816   1.353   3.815   0.110  0.9571 -0.4205  0.0882
 2419TIP3    H228817   1.222   3.741   0.130 -0.1705  1.8646  1.5875
 2420TIP3   OH228818   5.023   2.574   7.648  0.5994 -0.4732 -0.0771
 2420TIP3    H128819   5.095   2.600   7.706 -0.2827 -0.0098  0.8421
 2420TIP3    H228820   5.038   2.624   7.568  0.6933  0.4728  0.5093
 2421TIP3   OH228821   1.576   4.455   8.596  0.2539  0.2882  0.1123
 2421TIP3    H128822   1.610   4.474   8.508  0.7014  0.5398  0.3364
 2421TIP3    H228823   1.535   4.369   8.588  0.6263  0.1410 -0.2518
 2422TIP3   OH228824   6.712   2.186   8.428 -0.4245 -0.2199  0.2151
 2422TIP3    H128825   6.684   2.135   8.352 -1.0057 -1.2058  1.0557
 2422TIP3    H228826   6.736   2.272   8.393  2.0012 -1.4658 -1.4644
 2423TIP3   OH228827   5.104   4.086   1.615  1.1708  0.0777  0.5367
 2423TIP3    H128828   5.020   4.048   1.643  0.5104 -0.8838 -2.3905
 2423TIP3    H228829   5.105   4.173   1.654 -1.1350  0.0563  0.7864
 2424TIP3   OH228830   2.981   0.627   1.138 -0.4823 -0.0121  0.5705
 2424TIP3    H128831   2.993   0.675   1.057  0.3935 -0.9871  0.0982
 2424TIP3    H228832   2.889   0.600   1.136  0.1394 -2.4007 -1.5207
 2425TIP3   OH228833   0.353   3.125   7.245  0.0077 -0.1751  0.2962
 2425TIP3    H128834   0.295   3.052   7.225 -0.8036  0.1429  1.4139
 2425TIP3    H228835   0.431   3.083   7.283 -0.0104 -0.5103 -0.0243
 2426TIP3   OH228836   3.852   6.094   7.970  0.1755  0.3116 -0.4103
 2426TIP3    H128837   3.912   6.021   7.984  0.8381  0.8647 -0.2873
 2426TIP3    H228838   3.839   6.097   7.875 -0.4535 -0.4207 -0.3594
 2427TIP3   OH228839   2.641   4.719   7.023  0.3889  0.4399  0.5324
 2427TIP3    H128840   2.647   4.813   7.009  1.0703  0.2198 -0.8260
 2427TIP3    H228841   2.551   4.697   6.997  0.4272  0.6225  0.2427
 2428TIP3   OH228842   6.765   1.573   1.791  0.2904 -0.5317 -0.6339
 2428TIP3    H128843   6.711   1.644   1.758 -0.6508 -0.6834  0.5034
 2428TIP3    H228844   6.745   1.499   1.734 -0.4092 -0.4705 -0.4761
 2429TIP3   OH228845   2.472   6.831   0.504  0.1108 -0.1605  0.2337
 2429TIP3    H128846   2.548   6.869   0.460  0.4566  0.2609  1.1562
 2429TIP3    H228847   2.475   6.868   0.593 -2.1612  1.2548 -0.1894
 2430TIP3   OH228848   5.497   6.021   1.366 -0.2891 -0.2973  0.1603
 2430TIP3    H128849   5.418   6.076   1.365  0.9503  1.6164  1.3761
 2430TIP3    H228850   5.499   5.984   1.454  0.6293  0.4042  0.4450
 2431TIP3   OH228851   0.928   0.399   7.505 -0.0797 -0.1285  0.3823
 2431TIP3    H128852   0.958   0.483   7.540  0.5802  0.2832 -1.0935
 2431TIP3    H228853   0.999   0.369   7.449 -1.1465 -0.6621 -0.7483
 2432TIP3   OH228854   0.434   5.403   7.226  0.2782  0.1576 -0.3338
 2432TIP3    H128855   0.458   5.412   7.133  0.1487  3.2298 -0.1787
 2432TIP3    H228856   0.386   5.321   7.231  1.2588 -0.6572 -2.7619
 2433TIP3   OH228857   2.399   2.210   0.984 -0.4185 -0.2981  0.0697
 2433TIP3    H128858   2.457   2.223   1.059 -0.5953 -0.1405  0.1789
 2433TIP3    H228859   2.366   2.297   0.964 -2.2155 -0.6328  1.2917
 2434TIP3   OH228860   2.249   4.605   8.173  0.0378 -0.2188 -0.4914
 2434TIP3    H128861   2.181   4.558   8.125  1.2888 -1.5309 -1.0559
 2434TIP3    H228862   2.314   4.626   8.107  0.4913  0.4327  0.1553
 2435TIP3   OH228863   6.151   0.062   8.350 -0.0532  0.6177 -0.0210
 2435TIP3    H128864   6.223   0.030   8.296 -0.8108 -1.1770 -0.0365
 2435TIP3    H228865   6.191   0.088   8.432  0.7965  1.0396 -0.5645
 2436TIP3   OH228866   4.714   6.851   1.206  0.6903  0.1649  0.2926
 2436TIP3    H128867   4.798   6.825   1.166  1.3476  1.3555  0.8432
 2436TIP3    H228868   4.649   6.799   1.159  1.6329 -0.0062 -0.8955
 2437TIP3   OH228869   6.721   5.410   7.622  0.3459  0.6333  0.2987
 2437TIP3    H128870   6.781   5.402   7.548 -0.4036  0.7650 -0.3432
 2437TIP3    H228871   6.695   5.502   7.621 -1.3035  0.2037 -0.6239
 2438TIP3   OH228872   2.942   3.145   7.047 -0.2109 -0.0468  0.8570
 2438TIP3    H128873   2.966   3.072   6.990  1.3712 -1.0815  2.7170
 2438TIP3    H228874   2.899   3.104   7.121 -2.0043  1.2513  0.5951
 2439TIP3   OH228875   2.727   6.284   7.960 -0.0739 -0.3744 -0.5734
 2439TIP3    H128876   2.722   6.308   8.052 -0.3291 -1.3155 -0.3280
 2439TIP3    H228877   2.805   6.229   7.953 -0.0033 -0.2349 -0.9364
 2440TIP3   OH228878   6.044   3.976   8.204 -0.0023  0.3625 -0.2242
 2440TIP3    H128879   6.091   3.950   8.124 -1.0502 -0.5469 -0.5738
 2440TIP3    H228880   6.010   3.894   8.239  2.4783  0.3717  2.5755
 2441TIP3   OH228881   5.082   3.672   1.491  0.0711  0.3181 -0.1534
 2441TIP3    H128882   5.067   3.752   1.439 -0.3134 -0.8202 -1.8844
 2441TIP3    H228883   5.164   3.688   1.536 -0.0264  1.7211 -0.4077
 2442TIP3   OH228884   6.318   3.542   8.125  0.1839  0.1279  0.4849
 2442TIP3    H128885   6.321   3.458   8.078  1.4682  0.6232 -0.3642
 2442TIP3    H228886   6.279   3.520   8.210 -0.5152 -1.1193 -0.1251
 2443TIP3   OH228887   3.709   1.640   0.838  0.5992 -0.2513 -0.1739
 2443TIP3    H128888   3.652   1.572   0.875 -0.0819 -0.3115 -1.2700
 2443TIP3    H228889   3.735   1.694   0.913  0.5270 -1.2625  0.5987
 2444TIP3   OH228890   2.870   1.922   0.900  0.1422  0.6102  0.7419
 2444TIP3    H128891   2.868   1.909   0.805  0.5268  1.4330  0.6063
 2444TIP3    H228892   2.877   1.834   0.936 -0.4868  0.2475  0.0304
 2445TIP3   OH228893   0.326   4.427   0.374 -0.4284 -0.4320 -0.7719
 2445TIP3    H128894   0.390   4.449   0.441  1.3853 -2.1779 -1.8150
 2445TIP3    H228895   0.242   4.428   0.420  0.5067  0.4971  0.9975
 2446TIP3   OH228896   6.261   2.241   8.348 -0.1218 -0.1730  0.5570
 2446TIP3    H128897   6.185   2.200   8.308  0.8306 -0.7902 -0.7051
 2446TIP3    H228898   6.226   2.290   8.423 -1.5669 -1.5199  0.8162
 2447TIP3   OH228899   1.040   1.726   1.602  0.1582  0.0602 -0.1985
 2447TIP3    H128900   1.099   1.662   1.562 -0.1488 -0.2021 -0.2394
 2447TIP3    H228901   1.096   1.799   1.626  0.3590  0.2126 -1.0943
 2448TIP3   OH228902   3.716   5.256   2.250  0.6913  0.0924 -0.0729
 2448TIP3    H128903   3.686   5.190   2.187 -0.9420  0.6889  0.0407
 2448TIP3    H228904   3.764   5.205   2.316 -0.0230 -0.9138 -0.3029
 2449TIP3   OH228905   3.458   4.916   1.273 -0.1073 -0.2375 -0.3973
 2449TIP3    H128906   3.498   4.887   1.191  0.7492  0.9331 -0.4264
 2449TIP3    H228907   3.501   4.864   1.340  0.2741 -0.1638 -0.5796
 2450TIP3   OH228908   2.879   2.183   2.515  0.2865  0.6550 -0.5188
 2450TIP3    H128909   2.933   2.142   2.583  0.6520  1.2939 -0.4163
 2450TIP3    H228910   2.815   2.236   2.563 -0.0614  0.3585 -0.6536
 2451TIP3   OH228911   2.561   4.600   8.578  0.0211  0.6824 -0.0980
 2451TIP3    H128912   2.567   4.695   8.586  0.1732  0.6479  0.2366
 2451TIP3    H228913   2.628   4.577   8.512  0.1515  0.7836 -0.0008
 2452TIP3   OH228914   2.978   2.958   0.715  0.3342 -0.1931  0.1780
 2452TIP3    H128915   2.926   2.965   0.795  0.4194 -0.3460  0.2486
 2452TIP3    H228916   3.068   2.946   0.746  0.5332  0.8967  0.0581
 2453TIP3   OH228917   1.830   6.582   7.446  1.0364  0.4263  0.4851
 2453TIP3    H128918   1.919   6.616   7.449  0.5393  1.8313  0.0285
 2453TIP3    H228919   1.804   6.591   7.355  0.8189 -1.0856  0.3741
 2454TIP3   OH228920   5.245   1.662   8.553  0.3810  0.2805  0.5346
 2454TIP3    H128921   5.240   1.646   8.459  0.9832  1.2031  0.3380
 2454TIP3    H228922   5.189   1.594   8.592 -0.4123  0.3146 -0.5210
 2455TIP3   OH228923   6.866   6.322   7.618 -0.1832  0.0412 -0.8141
 2455TIP3    H128924   6.897   6.406   7.651 -2.3743  0.4262  0.4623
 2455TIP3    H228925   6.774   6.337   7.596 -1.0115 -2.3273  0.7139
 2456TIP3   OH228926   3.841   0.941   7.675 -0.3235  0.3137  0.1182
 2456TIP3    H128927   3.778   0.952   7.746 -1.1879  1.4337 -0.7892
 2456TIP3    H228928   3.788   0.922   7.598  0.5086  0.3885 -0.4899
 2457TIP3   OH228929   1.265   0.481   6.631 -0.4183 -0.2808 -0.4220
 2457TIP3    H128930   1.182   0.505   6.589 -0.4193  0.3509 -0.0533
 2457TIP3    H228931   1.298   0.562   6.668  1.6401  0.0379 -2.7446
 2458TIP3   OH228932   3.008   2.716   0.289 -0.2104  0.4288 -0.3507
 2458TIP3    H128933   2.927   2.680   0.251 -0.6100  0.9372  0.0101
 2458TIP3    H228934   2.979   2.790   0.341  0.7355  2.3399 -2.3693
 2459TIP3   OH228935   3.209   6.508   6.157 -0.7100 -0.4643 -0.5569
 2459TIP3    H128936   3.251   6.423   6.168 -0.8057 -0.2649  1.9427
 2459TIP3    H228937   3.117   6.487   6.140 -0.5281 -0.8538 -1.0827
 2460TIP3   OH228938   1.894   2.989   7.796 -0.0174 -0.0745  0.3398
 2460TIP3    H128939   1.980   2.950   7.807  0.8649  1.2920 -1.2753
 2460TIP3    H228940   1.910   3.083   7.796 -1.4903  0.2021 -0.1709
 2461TIP3   OH228941   3.991   3.066   1.322 -0.3238 -0.3145  0.0994
 2461TIP3    H128942   4.084   3.081   1.303 -0.7024  0.6691 -1.1288
 2461TIP3    H228943   3.986   3.071   1.417  0.9796 -1.0583  0.2408
 2462TIP3   OH228944   6.317   6.610   7.697 -0.0899 -0.2549  0.0705
 2462TIP3    H128945   6.255   6.653   7.756  0.5720  0.4231  0.2867
 2462TIP3    H228946   6.294   6.517   7.702  0.1520 -0.2733  1.6748
 2463TIP3   OH228947   4.124   4.734   7.847 -0.3124 -0.2558 -0.3529
 2463TIP3    H128948   4.197   4.672   7.844 -1.3412 -1.4852 -0.9913
 2463TIP3    H228949   4.054   4.691   7.797 -1.5648  0.7610  0.4656
 2464TIP3   OH228950   3.699   0.240   7.193  0.3795  0.2811  0.4208
 2464TIP3    H128951   3.701   0.334   7.212  0.9571  0.3404  0.1090
 2464TIP3    H228952   3.753   0.201   7.261  1.8813  0.4185 -0.6406
 2465TIP3   OH228953   3.491   0.057   7.999 -0.5641  0.3732  0.5312
 2465TIP3    H128954   3.554   0.119   8.036 -0.2311 -0.2430  1.0134
 2465TIP3    H228955   3.470   0.093   7.912  0.5567  0.5038  0.3010
 2466TIP3   OH228956   5.853   5.705   6.433 -0.2390  0.3982 -0.2663
 2466TIP3    H128957   5.763   5.737   6.435 -0.1605  0.5991  0.0218
 2466TIP3    H228958   5.845   5.612   6.453 -0.2419  0.7163  1.3277
 2467TIP3   OH228959   2.329   0.064   8.240 -0.2632 -0.1135  0.1066
 2467TIP3    H128960   2.271   0.120   8.292  1.6379  1.7753  0.2823
 2467TIP3    H228961   2.416   0.076   8.278  1.0455  0.5724 -2.8285
 2468TIP3   OH228962   0.422   2.557   6.538  0.1651 -0.4977  0.2572
 2468TIP3    H128963   0.435   2.464   6.523 -0.8643 -0.8178  1.2178
 2468TIP3    H228964   0.380   2.589   6.458  0.9489 -0.7353 -0.2675
 2469TIP3   OH228965   1.121   1.418   1.245 -0.0482  0.0314  0.0195
 2469TIP3    H128966   1.038   1.372   1.234  0.0055 -0.1325  0.2909
 2469TIP3    H228967   1.118   1.489   1.181 -1.7820  2.0104  2.1314
 2470TIP3   OH228968   6.419   2.250   0.196  0.2467 -0.0540 -0.0768
 2470TIP3    H128969   6.387   2.160   0.205 -1.8551  0.7435  1.0041
 2470TIP3    H228970   6.430   2.263   0.102  0.2745 -1.3334 -0.2650
 2471TIP3   OH228971   2.411   3.650   1.018 -0.2090 -0.2298  0.2651
 2471TIP3    H128972   2.471   3.719   0.989 -0.0208 -0.5539 -0.1248
 2471TIP3    H228973   2.342   3.648   0.951 -0.9466  0.5077  0.9948
 2472TIP3   OH228974   0.564   3.476   1.591  0.1940  0.1635 -0.5881
 2472TIP3    H128975   0.503   3.463   1.664 -0.1415 -1.1688 -1.0829
 2472TIP3    H228976   0.651   3.467   1.631  0.0059 -1.8225 -0.5233
 2473TIP3   OH228977   2.664   1.212   7.763  0.3479  0.1953 -0.4761
 2473TIP3    H128978   2.737   1.192   7.704  0.4983 -1.1160  0.1224
 2473TIP3    H228979   2.586   1.200   7.708  0.5234  0.0987 -0.7066
 2474TIP3   OH228980   2.393   2.805   1.060  0.0341  0.6241 -0.2127
 2474TIP3    H128981   2.468   2.746   1.066 -1.8361 -1.9007  0.0631
 2474TIP3    H228982   2.383   2.822   0.966  0.3462  0.1472 -0.3355
 2475TIP3   OH228983   4.931   6.467   7.833 -0.7034 -0.5313 -0.1808
 2475TIP3    H128984   4.880   6.524   7.777 -0.8914 -1.1471 -0.6471
 2475TIP3    H228985   4.959   6.395   7.776 -1.0164 -1.2348  0.5298
 2476TIP3   OH228986   4.265   1.136   0.609  0.2256  0.4374 -0.0360
 2476TIP3    H128987   4.234   1.167   0.524  0.1810 -2.4468 -1.1959
 2476TIP3    H228988   4.360   1.135   0.602  0.3397  2.3746  0.8411
 2477TIP3   OH228989   3.337   3.609   7.235 -0.1690  0.5192  1.0091
 2477TIP3    H128990   3.421   3.636   7.272  1.2795  0.3722 -1.8477
 2477TIP3    H228991   3.317   3.676   7.170 -1.8851  0.1496  1.1233
 2478TIP3   OH228992   3.243   1.678   1.402  0.6662 -0.7732  0.0471
 2478TIP3    H128993   3.168   1.715   1.449 -0.2182  2.3363 -3.3191
 2478TIP3    H228994   3.315   1.740   1.419  0.3190  0.4382 -2.4011
 2479TIP3   OH228995   0.427   2.893   7.767 -0.2582 -0.2731 -0.1015
 2479TIP3    H128996   0.418   2.931   7.679  1.0728  1.5964  0.5085
 2479TIP3    H228997   0.504   2.836   7.761 -1.1777 -1.5069 -0.5496
 2480TIP3   OH228998   6.739   2.542   7.211  0.2047 -0.3972 -0.0630
 2480TIP3    H128999   6.668   2.568   7.152 -0.4580 -0.6075  0.6181
 2480TIP3    H229000   6.704   2.468   7.260  0.7271 -0.2060  0.6165
 2481TIP3   OH229001   3.591   1.862   8.130 -0.4894 -0.5998  0.7929
 2481TIP3    H129002   3.596   1.813   8.212 -0.1930 -0.6603  0.7396
 2481TIP3    H229003   3.647   1.813   8.069 -1.2073 -0.9057  0.3728
 2482TIP3   OH229004   4.779   2.610   7.421 -0.0802  0.0480 -0.2273
 2482TIP3    H129005   4.685   2.595   7.411 -0.1625 -0.2800  0.8961
 2482TIP3    H229006   4.814   2.527   7.451  0.8177 -0.2473 -1.9687
 2483TIP3   OH229007   0.035   1.427   7.622 -0.1105  0.4094  0.4811
 2483TIP3    H129008   0.006   1.440   7.712 -2.9305 -2.7977  0.2251
 2483TIP3    H229009   0.100   1.357   7.629  0.5285  0.9541  0.0906
 2484TIP3   OH229010   4.505   5.058   1.920  0.4744  0.0757 -0.0402
 2484TIP3    H129011   4.511   5.153   1.933  1.4945 -0.2612  2.5284
 2484TIP3    H229012   4.433   5.030   1.976  1.2925 -0.8533  0.5827
 2485TIP3   OH229013   4.006   0.488   7.403 -0.3745 -0.0263 -0.3623
 2485TIP3    H129014   3.912   0.480   7.385 -0.6400  1.6207  0.2023
 2485TIP3    H229015   4.012   0.491   7.498  0.4560 -2.0816 -0.3031
 2486TIP3   OH229016   1.018   6.224   7.161  0.0872 -0.5072 -0.1869
 2486TIP3    H129017   1.006   6.207   7.067  0.0611 -2.5226  0.1393
 2486TIP3    H229018   0.962   6.159   7.204 -0.6364  1.0059  1.2312
 2487TIP3   OH229019   3.575   2.252   6.501 -0.0301  0.2418  0.2368
 2487TIP3    H129020   3.546   2.172   6.544 -0.4671  0.3900  0.2243
 2487TIP3    H229021   3.496   2.305   6.492 -0.0411  0.0388 -1.1364
 2488TIP3   OH229022   2.707   1.106   8.002  0.0587  0.1304 -0.6866
 2488TIP3    H129023   2.767   1.140   8.069  0.8296 -0.6552 -0.9483
 2488TIP3    H229024   2.692   1.180   7.943 -0.2726  0.7033  0.0977
 2489TIP3   OH229025   1.465   3.704   1.352  0.2545 -0.1480  0.1351
 2489TIP3    H129026   1.483   3.680   1.443 -0.2540  1.2787  0.6527
 2489TIP3    H229027   1.475   3.799   1.351 -2.4025  0.1943 -0.6364
 2490TIP3   OH229028   0.082   5.614   7.170 -0.0214 -0.1281 -0.4826
 2490TIP3    H129029   0.105   5.523   7.189 -1.5851 -0.1788  1.4653
 2490TIP3    H229030  -0.001   5.609   7.123 -1.7480  0.2680  2.2915
 2491TIP3   OH229031   1.566   6.595   0.392  0.2580 -0.4268  0.3991
 2491TIP3    H129032   1.588   6.524   0.453 -0.5767 -1.5248 -0.5425
 2491TIP3    H229033   1.476   6.618   0.413 -0.4623 -1.6472 -1.1612
 2492TIP3   OH229034   0.179   4.277   8.579 -0.1904 -0.1800 -0.6050
 2492TIP3    H129035   0.244   4.340   8.549 -0.3029 -0.7212 -2.0673
 2492TIP3    H229036   0.224   4.228   8.648  0.5144  0.3008 -0.7056
 2493TIP3   OH229037   5.222   3.825   7.906 -0.2215 -0.0586 -0.6115
 2493TIP3    H129038   5.248   3.825   7.814  0.4739 -1.1248 -0.4211
 2493TIP3    H229039   5.225   3.918   7.931  0.8454  0.1158 -1.3135
 2494TIP3   OH229040   6.799   0.646   1.964 -0.1503 -0.3492  0.1785
 2494TIP3    H129041   6.840   0.672   2.047  0.1422 -1.7519  0.5058
 2494TIP3    H229042   6.744   0.720   1.940 -1.2976 -0.4135  2.3419
 2495TIP3   OH229043   0.767   6.726   0.096  0.0165 -0.3739 -0.2977
 2495TIP3    H129044   0.837   6.710   0.033  0.7679  2.3854 -0.3066
 2495TIP3    H229045   0.694   6.758   0.044 -0.1717 -0.3149  0.0005
 2496TIP3   OH229046   1.848   0.782   7.861  0.1634 -0.3128 -0.4618
 2496TIP3    H129047   1.833   0.775   7.955  0.4014  3.9471  0.1181
 2496TIP3    H229048   1.764   0.762   7.821 -0.2474 -1.0382  0.7058
 2497TIP3   OH229049   6.581   5.700   0.598  0.6170  0.1655 -0.0826
 2497TIP3    H129050   6.491   5.718   0.624  0.6069  0.8238 -0.5419
 2497TIP3    H229051   6.629   5.780   0.622  0.9669  0.0377 -0.3470
 2498TIP3   OH229052   0.312   2.308   0.804  0.2698  0.2575 -0.2381
 2498TIP3    H129053   0.222   2.339   0.815  0.5364  0.1882  3.2156
 2498TIP3    H229054   0.310   2.216   0.831  1.1902 -0.0803 -1.2334
 2499TIP3   OH229055   0.175   1.847   7.413 -0.0845  0.0067 -0.2625
 2499TIP3    H129056   0.087   1.821   7.439  0.0222 -0.0028  0.1043
 2499TIP3    H229057   0.167   1.938   7.385 -0.1030  0.1947  0.3477
 2500TIP3   OH229058   3.957   3.933   0.939  0.0545 -0.2280 -0.0351
 2500TIP3    H129059   4.024   3.875   0.902  0.6264  0.4081 -0.0144
 2500TIP3    H229060   3.875   3.885   0.926  0.3812 -0.5596 -1.0320
 2501TIP3   OH229061   3.139   1.492   6.762 -0.0713 -0.3104  0.3352
 2501TIP3    H129062   3.101   1.443   6.835  2.5743 -0.4888  1.7322
 2501TIP3    H229063   3.167   1.425   6.700  2.7454 -0.7036  1.8439
 2502TIP3   OH229064   4.627   0.990   6.975  0.8692 -0.5928 -0.4134
 2502TIP3    H129065   4.712   0.953   6.953  2.1182  0.4073  2.1816
 2502TIP3    H229066   4.595   0.936   7.047 -1.2515 -1.5787 -1.9969
 2503TIP3   OH229067   1.332   1.678   0.508 -0.2290 -0.0848  0.1733
 2503TIP3    H129068   1.403   1.691   0.571 -0.3973 -0.7382  0.5041
 2503TIP3    H229069   1.329   1.759   0.458 -0.0925  0.4492  1.0131
 2504TIP3   OH229070   1.968   5.500   1.752  0.4086 -0.3866 -0.3071
 2504TIP3    H129071   1.982   5.472   1.661 -0.2922  0.7067 -0.7664
 2504TIP3    H229072   1.927   5.424   1.793  0.2584 -0.7127 -1.0279
 2505TIP3   OH229073   4.904   3.627   7.908  0.2034  0.4180 -0.1599
 2505TIP3    H129074   4.847   3.649   7.834 -1.1116 -0.5929  0.4894
 2505TIP3    H229075   4.992   3.643   7.876 -0.0494 -2.6946 -3.0179
 2506TIP3   OH229076   5.547   5.781   6.436 -0.4961  0.4651 -0.5006
 2506TIP3    H129077   5.528   5.858   6.490 -1.8942 -0.3355  0.1925
 2506TIP3    H229078   5.469   5.726   6.443 -0.1075 -0.3676 -2.1507
 2507TIP3   OH229079   5.727   1.234   7.965  0.3170 -0.5291 -0.1196
 2507TIP3    H129080   5.716   1.197   8.053  0.4886 -2.1062 -0.7223
 2507TIP3    H229081   5.777   1.167   7.918 -0.9650 -0.3408 -1.8158
 2508TIP3   OH229082   1.003   6.464   1.262  0.2273 -0.1611  0.1892
 2508TIP3    H129083   0.938   6.432   1.324 -0.6170  1.3424  0.1055
 2508TIP3    H229084   1.084   6.418   1.286 -0.7376 -1.7081  0.5787
 2509TIP3   OH229085   4.929   2.008   0.276 -0.1490 -0.3974 -0.2470
 2509TIP3    H129086   4.922   1.962   0.192  1.2332 -0.8231 -0.1577
 2509TIP3    H229087   4.957   2.096   0.253  0.4570 -0.5824 -0.2206
 2510TIP3   OH229088   0.247   0.636   7.104  0.3738 -0.6458 -0.3220
 2510TIP3    H129089   0.322   0.670   7.153  0.9315 -1.1778 -0.7946
 2510TIP3    H229090   0.219   0.559   7.153 -0.0404 -0.2993 -0.0008
 2511TIP3   OH229091   5.128   4.662   1.963 -0.0317  0.1925 -0.2034
 2511TIP3    H129092   5.052   4.638   1.909 -1.4200  1.7643  0.9285
 2511TIP3    H229093   5.116   4.613   2.044  0.1982  0.3920 -0.0468
 2512TIP3   OH229094   0.110   6.107   1.598  0.0875  0.4594  0.0800
 2512TIP3    H129095   0.202   6.134   1.602  0.4805 -0.8457  0.4687
 2512TIP3    H229096   0.065   6.164   1.660  0.8810  0.2449  0.8690
 2513TIP3   OH229097   1.504   0.453   1.495  0.3345  0.2922 -0.6045
 2513TIP3    H129098   1.434   0.513   1.520  1.2446  0.4784  1.7988
 2513TIP3    H229099   1.464   0.395   1.431 -1.3368  1.7901 -1.0045
 2514TIP3   OH229100   6.488   2.223   8.595 -0.1837  0.1548 -0.5326
 2514TIP3    H129101   6.566   2.202   8.544 -0.2045  0.1972 -0.5816
 2514TIP3    H229102   6.421   2.162   8.564  0.1449 -0.6394  0.2990
 2515TIP3   OH229103   2.944   1.693   6.743  0.4750  0.1149 -0.2099
 2515TIP3    H129104   3.005   1.621   6.757  0.3828 -0.0865 -0.8030
 2515TIP3    H229105   2.958   1.718   6.651 -2.0531 -1.5530 -1.1561
 2516TIP3   OH229106   3.449   4.438   0.569  0.7752 -0.2834 -0.1892
 2516TIP3    H129107   3.362   4.477   0.580  1.1830  0.4748  0.5101
 2516TIP3    H229108   3.508   4.514   0.564  1.4176 -0.7928 -0.4427
 2517TIP3   OH229109   1.202   6.286   1.394  0.8266 -0.4502  0.2204
 2517TIP3    H129110   1.265   6.358   1.382  0.3223  0.1477  1.0442
 2517TIP3    H229111   1.211   6.233   1.315  1.2836  0.4639 -0.3655
 2518TIP3   OH229112   6.758   3.258   7.205 -0.1517  0.1130  0.0250
 2518TIP3    H129113   6.774   3.351   7.220  3.0827 -0.2126 -0.5966
 2518TIP3    H229114   6.839   3.226   7.167 -0.4492 -3.3605  1.8920
 2519TIP3   OH229115   5.296   3.845   7.617  0.2559 -0.1067 -0.0717
 2519TIP3    H129116   5.341   3.763   7.638 -0.3407  0.1310  2.4890
 2519TIP3    H229117   5.366   3.907   7.598  0.8218 -0.6324  0.2691
 2520TIP3   OH229118   3.118   0.052   6.376 -0.6114 -0.2485  0.0799
 2520TIP3    H129119   3.068  -0.029   6.365 -1.5855  0.2021  1.0261
 2520TIP3    H229120   3.208   0.027   6.355 -0.3936 -2.2509  2.7722
 2521TIP3   OH229121   3.312   5.766   0.233 -0.3395 -0.4920 -0.0627
 2521TIP3    H129122   3.251   5.822   0.281 -0.5918  0.1904 -1.1401
 2521TIP3    H229123   3.309   5.799   0.143  0.7811 -1.1661 -0.3689
 2522TIP3   OH229124   2.613   5.340   7.825 -0.3031 -0.5233 -0.2739
 2522TIP3    H129125   2.536   5.283   7.823 -1.1189  0.5356 -0.1305
 2522TIP3    H229126   2.606   5.387   7.908  0.1005  0.0961 -0.5775
 2523TIP3   OH229127   3.160   2.125   2.309  0.2318 -0.3068  0.0770
 2523TIP3    H129128   3.120   2.132   2.396 -1.4675  1.1201 -0.7593
 2523TIP3    H229129   3.113   2.054   2.266 -1.5214  1.3110 -0.8730
 2524TIP3   OH229130   1.788   4.786   7.970  0.3738 -0.3356  0.1733
 2524TIP3    H129131   1.836   4.837   8.036 -2.2197  1.5036  0.7951
 2524TIP3    H229132   1.744   4.717   8.020 -0.4303  0.1753  0.1927
 2525TIP3   OH229133   6.778   6.386   0.366 -0.0416 -0.6798  0.3958
 2525TIP3    H129134   6.767   6.438   0.446 -0.9252  1.6430 -1.1422
 2525TIP3    H229135   6.870   6.361   0.367  0.4347  0.9525  1.2106
 2526TIP3   OH229136   1.138   1.510   0.130  0.8348  0.0641  0.1642
 2526TIP3    H129137   1.045   1.487   0.137  1.1197 -0.8665  1.0651
 2526TIP3    H229138   1.183   1.427   0.118  1.5144  0.5655 -0.9279
 2527TIP3   OH229139   3.333   2.388   6.432 -0.0975 -0.0989  0.1800
 2527TIP3    H129140   3.279   2.420   6.360  0.7608  2.0817  0.4377
 2527TIP3    H229141   3.335   2.460   6.494  0.2899 -1.4431  1.7876
 2528TIP3   OH229142   5.877   1.643   8.156  0.0319  0.1523 -0.3853
 2528TIP3    H129143   5.792   1.626   8.115 -0.7969  1.7920  0.5452
 2528TIP3    H229144   5.901   1.730   8.125  0.9310  0.0840  0.1087
 2529TIP3   OH229145   5.202   0.092   7.302 -0.1166 -0.2035 -0.7913
 2529TIP3    H129146   5.214   0.167   7.360 -0.3744 -0.2222 -0.7132
 2529TIP3    H229147   5.261   0.025   7.337  0.4756  0.1264 -1.1523
 2530TIP3   OH229148   3.692   1.586   8.273 -0.3051  0.4108 -0.3743
 2530TIP3    H129149   3.704   1.503   8.319 -0.8448  0.8303  0.5495
 2530TIP3    H229150   3.719   1.567   8.183  0.5553 -0.4870  0.0463
 2531TIP3   OH229151   5.177   3.027   6.503 -0.7134 -1.0493 -0.3711
 2531TIP3    H129152   5.139   3.073   6.578  0.5816 -1.8048  0.8104
 2531TIP3    H229153   5.105   2.977   6.466 -1.2421 -1.1988  0.8081
 2532TIP3   OH229154   1.881   3.216   0.072  0.3656  0.8295 -0.0406
 2532TIP3    H129155   1.840   3.175  -0.004  0.8814 -0.0313  0.1344
 2532TIP3    H229156   1.834   3.181   0.147  0.8610  0.4892  0.1154
 2533TIP3   OH229157   0.553   6.224   0.665 -0.3646 -0.0775  0.7247
 2533TIP3    H129158   0.515   6.160   0.606  0.5115 -0.7671  0.8852
 2533TIP3    H229159   0.479   6.276   0.696 -0.6726  1.9505 -2.8421
 2534TIP3   OH229160   5.655   5.659   7.695  0.0666 -1.0331 -0.0425
 2534TIP3    H129161   5.733   5.665   7.750  0.2568  1.0471 -0.4428
 2534TIP3    H229162   5.680   5.704   7.614 -0.7463 -2.5594 -1.1924
 2535TIP3   OH229163   5.718   3.881   1.903 -0.0411 -0.0182 -0.0970
 2535TIP3    H129164   5.807   3.888   1.937  0.7199  1.6761 -2.1939
 2535TIP3    H229165   5.723   3.816   1.834 -0.6130 -0.4470  0.2550
 2536TIP3   OH229166   2.994   5.761   6.665  0.2100 -0.2883 -0.0592
 2536TIP3    H129167   3.085   5.752   6.635  0.4354 -0.7127  0.7260
 2536TIP3    H229168   2.943   5.711   6.601  0.5286 -0.0553 -0.4998
 2537TIP3   OH229169   0.366   5.974   0.936  0.1938  0.2378 -0.1825
 2537TIP3    H129170   0.446   5.927   0.911  1.0347  0.5707  1.6870
 2537TIP3    H229171   0.397   6.058   0.972 -0.9578  0.2423  0.8907
 2538TIP3   OH229172   6.123   3.054   0.353  0.0495 -0.4938  0.0506
 2538TIP3    H129173   6.129   2.964   0.386 -0.2574 -1.4839 -2.3909
 2538TIP3    H229174   6.066   3.047   0.276 -2.4636  2.3189  1.4570
 2539TIP3   OH229175   0.083   5.498   6.433  0.0154 -0.3597 -0.5841
 2539TIP3    H129176   0.173   5.532   6.436  0.5325 -1.6241 -1.0194
 2539TIP3    H229177   0.038   5.546   6.502  1.2667 -0.3413  0.2680
 2540TIP3   OH229178   1.156   2.192   0.399 -0.0619  0.0750 -0.4846
 2540TIP3    H129179   1.188   2.279   0.425  0.5837 -0.5289  0.8277
 2540TIP3    H229180   1.091   2.170   0.465  0.5198 -0.8564 -0.2025
 2541TIP3   OH229181   6.127   6.412   7.709  0.3209  0.1400  0.0458
 2541TIP3    H129182   6.126   6.339   7.647  1.2321  1.5621 -1.7630
 2541TIP3    H229183   6.039   6.413   7.746  0.7068 -2.7765  1.3287
 2542TIP3   OH229184   1.982   6.210   8.143  0.1698  0.0572 -0.1080
 2542TIP3    H129185   2.076   6.210   8.122  0.1740 -1.1028 -0.1780
 2542TIP3    H229186   1.946   6.138   8.091 -1.3515  2.3506 -2.4280
 2543TIP3   OH229187   4.972   0.669   7.589 -0.1001 -0.4398  0.2594
 2543TIP3    H129188   5.035   0.710   7.529 -0.8492 -0.8408 -0.8456
 2543TIP3    H229189   4.902   0.734   7.597 -0.2808 -0.6297  0.2259
 2544TIP3   OH229190   3.573   2.417   7.038 -0.4409  0.2139  0.0257
 2544TIP3    H129191   3.547   2.445   6.951 -1.1012 -0.1064  0.1113
 2544TIP3    H229192   3.490   2.405   7.085 -0.0896  0.5622  0.7499
 2545TIP3   OH229193   2.231   6.571   0.680 -0.1817  0.8854 -0.1495
 2545TIP3    H129194   2.151   6.567   0.629 -0.8381  1.6875  0.7810
 2545TIP3    H229195   2.301   6.555   0.617 -1.0152  1.0351 -1.1285
 2546TIP3   OH229196   5.940   1.738   7.843 -0.6567  0.4315  0.2285
 2546TIP3    H129197   5.916   1.767   7.755  0.0401 -1.2302 -0.5535
 2546TIP3    H229198   5.916   1.811   7.900 -0.7417  1.7181 -1.3818
 2547TIP3   OH229199   2.715   0.640   2.017  1.0959  0.5774 -0.0910
 2547TIP3    H129200   2.703   0.686   2.099  1.1923  1.7994 -0.7393
 2547TIP3    H229201   2.703   0.547   2.039  2.9254  0.6812  1.6482
 2548TIP3   OH229202   1.778   5.602   1.523 -0.1214  0.7192 -0.2981
 2548TIP3    H129203   1.778   5.507   1.536 -0.2840  0.3060 -2.8487
 2548TIP3    H229204   1.867   5.622   1.492 -0.4826  1.1692 -1.0707
 2549TIP3   OH229205   4.500   5.843   1.602 -0.2323 -0.0151 -0.3338
 2549TIP3    H129206   4.494   5.779   1.530  0.2383  0.4738 -0.8156
 2549TIP3    H229207   4.582   5.890   1.586  0.3219 -0.4607  1.0003
 2550TIP3   OH229208   4.325   4.864   0.342  0.2723 -0.3067 -0.1501
 2550TIP3    H129209   4.373   4.940   0.308 -0.4631  1.0725  1.7140
 2550TIP3    H229210   4.288   4.894   0.425 -3.6092 -1.3253 -1.2989
 2551TIP3   OH229211   1.239   4.062   0.254  0.4441 -0.1026 -0.7448
 2551TIP3    H129212   1.256   4.011   0.175  4.1102 -0.8587  0.3548
 2551TIP3    H229213   1.227   4.152   0.222  0.2885 -0.6212 -2.2267
 2552TIP3   OH229214   5.139   5.053   1.287  0.3604  0.1900 -0.0552
 2552TIP3    H129215   5.054   5.016   1.310 -0.3188  1.4426 -0.4243
 2552TIP3    H229216   5.135   5.143   1.320  1.3062  0.4538 -0.6236
 2553TIP3   OH229217   1.564   1.296   0.833 -0.0445 -0.4074  0.4551
 2553TIP3    H129218   1.561   1.367   0.769  0.2082 -0.1665  0.7087
 2553TIP3    H229219   1.657   1.275   0.841 -0.0519 -0.2442  0.9578
 2554TIP3   OH229220   5.498   3.282   1.548 -0.2235  0.3074  0.1962
 2554TIP3    H129221   5.487   3.335   1.627 -1.8702 -2.0764  1.7128
 2554TIP3    H229222   5.477   3.342   1.476 -1.3755  1.8834  1.7505
 2555TIP3   OH229223   1.684   3.650   8.116  0.2421 -0.2785 -0.5455
 2555TIP3    H129224   1.590   3.660   8.100 -0.4155 -2.2944  1.4156
 2555TIP3    H229225   1.691   3.564   8.157  2.8875  0.1116 -0.0465
 2556TIP3   OH229226   6.682   4.618   7.904 -0.1279 -0.2980  0.2574
 2556TIP3    H129227   6.589   4.606   7.883  0.3783 -0.4762 -2.1795
 2556TIP3    H229228   6.699   4.710   7.887  0.1509 -0.2462  0.7732
 2557TIP3   OH229229   3.791   5.400   7.876  0.0380  0.0884  0.4094
 2557TIP3    H129230   3.843   5.322   7.895  0.4056  0.4030  0.7262
 2557TIP3    H229231   3.856   5.464   7.845 -0.4545 -0.2125 -1.3760
 2558TIP3   OH229232   4.375   1.608   7.499  0.5650 -0.2663  0.1750
 2558TIP3    H129233   4.318   1.572   7.431 -0.3599  0.4481  0.5521
 2558TIP3    H229234   4.461   1.612   7.458  0.6793 -2.5957  0.0026
 2559TIP3   OH229235   5.692   5.703   0.754 -0.3285  0.3408 -0.0177
 2559TIP3    H129236   5.602   5.735   0.758 -1.0216 -1.3419 -1.0673
 2559TIP3    H229237   5.738   5.754   0.820 -2.0304  1.2859  0.5102
 2560TIP3   OH229238   4.912   3.223   1.480  0.0574  0.2273  0.1438
 2560TIP3    H129239   4.923   3.309   1.439  0.6788 -0.5852 -1.4458
 2560TIP3    H229240   4.848   3.178   1.425  0.1847 -0.5614  0.6253
 2561TIP3   OH229241   1.113   2.369   7.507  0.1629 -0.4323  0.3141
 2561TIP3    H129242   1.208   2.367   7.516  0.1739  0.9161  0.5787
 2561TIP3    H229243   1.096   2.308   7.434  1.3339  0.2278 -0.5556
 2562TIP3   OH229244   6.851   0.944   0.725 -0.1652 -0.0539 -0.2913
 2562TIP3    H129245   6.909   0.869   0.735  0.2015 -0.0337 -1.9925
 2562TIP3    H229246   6.890   0.996   0.655 -1.2135  0.9604 -0.1673
 2563TIP3   OH229247   5.567   0.297   1.801 -0.0660 -0.1094  0.4995
 2563TIP3    H129248   5.527   0.379   1.830 -0.4647 -0.0885 -0.1095
 2563TIP3    H229249   5.563   0.240   1.878 -2.3871 -0.5404  0.1166
 2564TIP3   OH229250   0.402   3.333   1.410 -1.0881  0.4025  0.2965
 2564TIP3    H129251   0.361   3.394   1.348  0.9910  1.2899 -0.2776
 2564TIP3    H229252   0.454   3.388   1.467  2.6492 -0.8249 -1.6100
 2565TIP3   OH229253   4.497   4.639   0.568  0.2130 -0.6821 -0.2629
 2565TIP3    H129254   4.529   4.729   0.580 -0.3373 -0.7120  1.7794
 2565TIP3    H229255   4.569   4.594   0.524  0.3163  0.8457 -1.7597
 2566TIP3   OH229256   3.856   0.634   8.096 -0.0158 -0.3948 -0.3292
 2566TIP3    H129257   3.870   0.685   8.176  0.4354 -0.0266 -0.6397
 2566TIP3    H229258   3.775   0.585   8.113  1.5415 -2.5560  1.5032
 2567TIP3   OH229259   2.304   6.252   1.135  0.1022 -0.4838  0.1080
 2567TIP3    H129260   2.340   6.328   1.180  0.8089 -1.0574  0.5233
 2567TIP3    H229261   2.306   6.182   1.200 -0.1064 -0.9804 -0.4117
 2568TIP3   OH229262   3.759   4.009   8.128  0.4619  0.8538 -0.1453
 2568TIP3    H129263   3.813   4.019   8.049  0.0855  1.6435 -0.3176
 2568TIP3    H229264   3.688   4.072   8.116 -0.1851  0.2320  0.3440
 2569TIP3   OH229265   1.198   5.672   0.593 -0.3279  0.0640 -0.3026
 2569TIP3    H129266   1.159   5.735   0.532  0.7641  1.9921  0.8598
 2569TIP3    H229267   1.223   5.725   0.669 -0.1688 -1.9672  1.1486
 2570TIP3   OH229268   2.590   4.981   6.911 -0.6506 -0.1554 -0.1764
 2570TIP3    H129269   2.560   4.982   6.820  0.3901  0.9879 -0.5353
 2570TIP3    H229270   2.512   5.000   6.962 -1.0831  0.0584 -0.8997
 2571TIP3   OH229271   2.375   3.536   7.042 -0.6554 -0.1389  0.1161
 2571TIP3    H129272   2.433   3.547   6.966  0.5463  0.3672  1.0844
 2571TIP3    H229273   2.432   3.545   7.118 -2.0087  0.3824  1.1085
 2572TIP3   OH229274   5.244   4.300   8.339  0.1733 -0.7200 -0.1643
 2572TIP3    H129275   5.200   4.325   8.420  0.3459 -0.4801 -0.1421
 2572TIP3    H229276   5.177   4.306   8.272  0.4718  1.0135 -0.3734
 2573TIP3   OH229277   4.300   5.488   2.379  0.3455 -0.6283  0.4927
 2573TIP3    H129278   4.261   5.525   2.458 -2.4711  0.6759 -1.3393
 2573TIP3    H229279   4.245   5.520   2.308  1.1917 -3.8044 -1.8204
 2574TIP3   OH229280   5.845   6.452   7.537 -0.5357  0.1729  0.3342
 2574TIP3    H129281   5.817   6.429   7.449 -0.8020  1.0748  0.1696
 2574TIP3    H229282   5.767   6.489   7.579 -0.3272  0.0625  0.8306
 2575TIP3   OH229283   2.660   2.483   8.224 -0.4805  0.0372  0.1301
 2575TIP3    H129284   2.586   2.437   8.263  0.3487 -1.2615  0.2366
 2575TIP3    H229285   2.623   2.566   8.193 -1.5062  0.4049  2.1672
 2576TIP3   OH229286   6.871   1.468   6.911 -0.1832 -0.0604 -0.0085
 2576TIP3    H129287   6.800   1.407   6.929  0.8156 -1.2311  0.0886
 2576TIP3    H229288   6.836   1.554   6.935 -1.5781 -0.6014 -0.0375
 2577TIP3   OH229289   5.471   2.352   2.071  0.2878 -0.0019  0.3351
 2577TIP3    H129290   5.439   2.316   2.153 -1.3245 -1.0236 -0.6787
 2577TIP3    H229291   5.460   2.446   2.079 -0.0672 -0.1124  1.1936
 2578TIP3   OH229292   6.564   3.563   0.299 -0.0378  0.3224 -0.4322
 2578TIP3    H129293   6.590   3.654   0.313  0.9647 -0.2333  1.8694
 2578TIP3    H229294   6.471   3.560   0.323  0.0801  0.6333  0.0682
 2579TIP3   OH229295   5.212   4.539   7.729  0.2939 -0.0357 -0.1772
 2579TIP3    H129296   5.152   4.486   7.677  0.6703 -0.9861  0.3364
 2579TIP3    H229297   5.221   4.492   7.812 -1.1708  2.0153  1.2397
 2580TIP3   OH229298   1.733   6.364   7.222  0.1728  0.0151  0.3656
 2580TIP3    H129299   1.740   6.276   7.259  1.9004  0.7697  1.9706
 2580TIP3    H229300   1.823   6.387   7.199 -0.0120  1.9182  1.3900
 2581TIP3   OH229301   5.343   5.145   7.318 -0.2850  0.0696  0.5545
 2581TIP3    H129302   5.260   5.097   7.321 -1.2799  1.7438  1.0576
 2581TIP3    H229303   5.374   5.145   7.408 -0.5178  0.7274  0.6394
 2582TIP3   OH229304   1.198   3.923   8.221 -0.0023  0.1279  0.2724
 2582TIP3    H129305   1.105   3.898   8.215  0.2579 -0.9953  0.6913
 2582TIP3    H229306   1.206   3.966   8.306 -0.3708  1.3566 -0.2836
 2583TIP3   OH229307   5.059   4.802   0.950  0.4437 -0.1764  0.1453
 2583TIP3    H129308   5.068   4.757   1.035 -1.4139 -0.3103  0.3072
 2583TIP3    H229309   5.097   4.888   0.965  0.8925 -0.4850  0.8647
 2584TIP3   OH229310   4.459   5.851   7.435  0.0633  0.2110 -0.1988
 2584TIP3    H129311   4.520   5.778   7.450  0.2963  0.7233  1.5443
 2584TIP3    H229312   4.378   5.809   7.406  0.0348 -0.8199  1.2402
 2585TIP3   OH229313   3.024   4.527   7.415  0.0950  0.4020  0.2214
 2585TIP3    H129314   3.006   4.618   7.391  1.4839  0.6457  0.0413
 2585TIP3    H229315   2.974   4.475   7.352 -1.4315  1.0209  0.8834
 2586TIP3   OH229316   6.427   4.299   1.446 -0.0993 -0.5680 -0.0317
 2586TIP3    H129317   6.522   4.308   1.439  0.0002 -0.9142  0.7538
 2586TIP3    H229318   6.394   4.389   1.444  0.3474 -0.3687  0.8948
 2587TIP3   OH229319   6.042   0.767   0.491  0.3143  0.4988 -0.5124
 2587TIP3    H129320   5.983   0.793   0.420  1.7742  0.8412 -1.6568
 2587TIP3    H229321   6.128   0.759   0.449  1.3740  1.4378  1.3526
 2588TIP3   OH229322   2.378   5.244   8.227 -0.2934  0.0118 -0.4759
 2588TIP3    H129323   2.284   5.234   8.233 -0.2930  0.8040  2.1761
 2588TIP3    H229324   2.398   5.234   8.134 -2.6605 -2.4840 -0.8235
 2589TIP3   OH229325   2.936   4.186   1.068 -0.0049  0.0516 -0.0040
 2589TIP3    H129326   2.925   4.236   1.148  0.1078  1.7506 -0.9926
 2589TIP3    H229327   2.911   4.246   0.998  1.6249 -0.7395 -1.3729
 2590TIP3   OH229328   3.950   1.532   0.263 -0.1946 -0.0116 -0.2398
 2590TIP3    H129329   3.864   1.537   0.306 -0.4657  2.5881 -0.9293
 2590TIP3    H229330   3.931   1.538   0.170  0.7424  0.6711 -0.3963
 2591TIP3   OH229331   2.677   2.362   1.045 -0.2264  0.6217  0.1837
 2591TIP3    H129332   2.755   2.417   1.059 -0.0441 -0.0319  1.8764
 2591TIP3    H229333   2.610   2.401   1.101 -0.1415 -0.7529  1.2764
 2592TIP3   OH229334   0.838   1.053   2.339  0.1860 -0.1555  0.3683
 2592TIP3    H129335   0.822   1.135   2.385 -0.7563 -0.4500  0.5751
 2592TIP3    H229336   0.884   1.079   2.259 -0.1005  0.5688  0.4316
 2593TIP3   OH229337   3.731   3.673   7.749 -0.2830 -0.3351  0.6084
 2593TIP3    H129338   3.709   3.674   7.842  1.5979  1.3490  1.1152
 2593TIP3    H229339   3.669   3.734   7.709  0.6042  1.0706  1.2763
 2594TIP3   OH229340   0.928   4.746   1.059 -0.2903 -0.3136 -0.4536
 2594TIP3    H129341   0.950   4.715   1.146  0.2597 -0.5456 -0.6714
 2594TIP3    H229342   0.938   4.669   1.002 -1.4583 -0.3791 -0.6007
 2595TIP3   OH229343   4.867   4.201   8.468  0.2329 -0.3519 -0.4185
 2595TIP3    H129344   4.941   4.260   8.476 -0.6097  0.8251 -0.9968
 2595TIP3    H229345   4.841   4.207   8.376  0.2798 -1.8319 -0.5510
 2596TIP3   OH229346   2.976   6.663   7.521  0.6452 -0.3891  0.0198
 2596TIP3    H129347   3.038   6.711   7.468  1.2070 -0.7445  0.3458
 2596TIP3    H229348   3.028   6.626   7.593 -0.3055  1.2056  1.6248
 2597TIP3   OH229349   6.627   4.013   7.411  0.3960 -0.3405  0.0502
 2597TIP3    H129350   6.632   4.105   7.438  1.9006 -0.7593  1.3420
 2597TIP3    H229351   6.680   3.966   7.475 -0.3698 -2.1355 -0.5640
 2598TIP3   OH229352   0.350   0.952   1.406  0.0277  0.3739  0.0528
 2598TIP3    H129353   0.348   0.862   1.438  1.4758  1.1915  2.7704
 2598TIP3    H229354   0.399   0.948   1.324  1.5443 -1.1152  0.9773
 2599TIP3   OH229355   3.172   2.456   1.437  0.2379 -0.4502  0.1783
 2599TIP3    H129356   3.216   2.427   1.517  2.0376  1.3283 -0.0830
 2599TIP3    H229357   3.121   2.532   1.464  1.1214  0.3702 -0.3754
 2600TIP3   OH229358   5.526   5.220   7.978 -0.2539  0.0025  0.5014
 2600TIP3    H129359   5.600   5.252   7.927 -1.2030  1.7871  0.1601
 2600TIP3    H229360   5.565   5.189   8.060  0.7926  2.2286  0.9442
 2601TIP3   OH229361   2.861   6.355   7.054 -0.5407  0.3874  0.8218
 2601TIP3    H129362   2.878   6.286   6.991 -0.5853  0.8322  0.3169
 2601TIP3    H229363   2.769   6.379   7.041 -0.4669  0.6929  0.8433
 2602TIP3   OH229364   1.191   0.239   0.463  0.0551 -0.5382  0.0398
 2602TIP3    H129365   1.253   0.256   0.534 -0.6733  0.7985  0.3892
 2602TIP3    H229366   1.228   0.285   0.388 -1.0906  1.3710  0.5691
 2603TIP3   OH229367   2.176   5.334   2.210 -0.4801  0.2332  0.4287
 2603TIP3    H129368   2.244   5.400   2.224 -0.9998  0.6937  0.8529
 2603TIP3    H229369   2.097   5.386   2.194 -1.1437 -0.2637  1.9382
 2604TIP3   OH229370   5.429   4.533   1.793 -0.2065  0.0861  0.5659
 2604TIP3    H129371   5.503   4.594   1.785  0.1861 -0.5045 -0.6622
 2604TIP3    H229372   5.444   4.487   1.875  0.0768  0.8979  0.9766
 2605TIP3   OH229373   1.939   3.065   1.606  0.0336  0.1061 -0.5552
 2605TIP3    H129374   1.880   2.990   1.599  0.4872 -0.1649 -1.8841
 2605TIP3    H229375   1.884   3.141   1.591 -0.1419 -0.0887 -0.9175
 2606TIP3   OH229376   0.001   4.402   1.901  0.0058 -0.6691 -0.0824
 2606TIP3    H129377  -0.028   4.481   1.856 -1.1051 -0.2486  1.3008
 2606TIP3    H229378   0.078   4.430   1.952  1.1450 -1.1010 -1.5031
 2607TIP3   OH229379   4.473   3.325   6.987  0.8455  0.2317 -0.4176
 2607TIP3    H129380   4.454   3.415   7.010  0.4590 -0.0453  0.3843
 2607TIP3    H229381   4.439   3.273   7.060 -0.9378 -0.7292 -1.8131
 2608TIP3   OH229382   3.790   5.123   7.526 -0.4995  0.1716  0.3125
 2608TIP3    H129383   3.840   5.042   7.539  0.9462  0.9003 -0.4467
 2608TIP3    H229384   3.699   5.094   7.524 -0.0373 -1.4130  0.3077
 2609TIP3   OH229385   4.915   0.841   0.861  0.0460  0.4508 -0.1004
 2609TIP3    H129386   4.884   0.902   0.794 -0.1420  1.0542  0.5175
 2609TIP3    H229387   4.996   0.881   0.894 -1.1352  1.4645  1.7323
 2610TIP3   OH229388   4.767   3.468   7.704  0.1993 -0.1288 -0.0615
 2610TIP3    H129389   4.688   3.521   7.697  1.4181  2.3952  3.1428
 2610TIP3    H229390   4.752   3.412   7.780  2.0290  1.5435  1.5979
 2611TIP3   OH229391   6.135   4.686   8.622 -0.8438 -0.6137  0.0209
 2611TIP3    H129392   6.092   4.667   8.538  3.4018 -0.7683 -2.4035
 2611TIP3    H229393   6.188   4.763   8.605 -0.6862  0.0660  3.0181
 2612TIP3   OH229394   3.685   1.109   1.086 -0.3890 -0.6085 -0.2997
 2612TIP3    H129395   3.730   1.030   1.115  1.1017  0.8693  1.7942
 2612TIP3    H229396   3.753   1.161   1.042 -1.4248 -0.5973 -1.9635
 2613TIP3   OH229397   2.009   6.548   8.627 -0.3725 -0.0003 -0.8203
 2613TIP3    H129398   2.053   6.465   8.608  0.8441  0.2644  0.6525
 2613TIP3    H229399   1.917   6.531   8.608 -0.4915 -2.3454  1.3301
 2614TIP3   OH229400   1.515   2.026   7.846 -0.4035 -0.0639 -0.2140
 2614TIP3    H129401   1.573   1.950   7.844  1.1009  0.9631  1.2129
 2614TIP3    H229402   1.499   2.047   7.754  1.5569 -0.3641 -0.6635
 2615TIP3   OH229403   6.150   0.762   7.580  0.1808 -0.9749 -0.2037
 2615TIP3    H129404   6.061   0.733   7.560  0.0750 -1.7457  1.2402
 2615TIP3    H229405   6.199   0.682   7.599  0.4239 -0.4300  1.7923
 2616TIP3   OH229406   0.626   5.075   7.675  0.2779  0.1800  0.2492
 2616TIP3    H129407   0.671   5.121   7.745 -0.3446 -0.4229  1.0639
 2616TIP3    H229408   0.654   4.984   7.683 -0.8058 -0.1381  0.5569
 2617TIP3   OH229409   6.033   2.721   0.303 -0.5451 -0.1344  0.2108
 2617TIP3    H129410   6.068   2.635   0.327 -0.2045 -0.5834 -1.6931
 2617TIP3    H229411   5.980   2.748   0.378 -0.8727 -2.1163  0.7373
 2618TIP3   OH229412   4.530   2.349   1.826  0.3334 -0.0408 -0.3410
 2618TIP3    H129413   4.467   2.378   1.892  1.6702 -0.1448  1.0362
 2618TIP3    H229414   4.603   2.410   1.834  0.6957 -0.2976 -1.4740
 2619TIP3   OH229415   1.896   3.604   7.724 -0.0917 -0.0185  0.1750
 2619TIP3    H129416   1.915   3.661   7.650  2.3362 -2.7962 -1.5518
 2619TIP3    H229417   1.973   3.611   7.781 -0.2928 -0.6710  0.5441
 2620TIP3   OH229418   6.796   2.079   7.674 -0.5554 -0.2707 -0.1187
 2620TIP3    H129419   6.865   2.119   7.621  0.6184 -0.2636  1.3609
 2620TIP3    H229420   6.829   2.083   7.764 -2.6450  0.0614  0.6897
 2621TIP3   OH229421   6.515   1.877   8.447  0.0680  0.5721 -0.6021
 2621TIP3    H129422   6.592   1.895   8.500  0.3929 -0.7660 -0.6098
 2621TIP3    H229423   6.443   1.919   8.494  0.7212  1.4934 -0.3949
 2622TIP3   OH229424   2.654   3.557   8.448 -0.1436  0.4973 -0.3148
 2622TIP3    H129425   2.742   3.547   8.484  0.1699 -0.9693 -1.4019
 2622TIP3    H229426   2.599   3.579   8.523  0.9951  0.4687  0.5389
 2623TIP3   OH229427   4.124   3.441   7.002 -0.5277 -0.4192 -0.2551
 2623TIP3    H129428   4.135   3.364   6.946 -1.2117 -1.4614  0.9783
 2623TIP3    H229429   4.209   3.485   7.000 -0.1488 -1.1635 -1.0686
 2624TIP3   OH229430   3.824   5.351   0.864  0.9264 -0.3220  0.0605
 2624TIP3    H129431   3.762   5.364   0.935  1.3443 -1.5325  0.6633
 2624TIP3    H229432   3.825   5.435   0.817  0.2038  0.2902  1.1161
 2625TIP3   OH229433   1.779   0.021   8.622  0.3022  0.3318 -0.4207
 2625TIP3    H129434   1.737   0.069   8.551  0.6071  0.8480 -0.2592
 2625TIP3    H229435   1.738  -0.066   8.620 -0.1637  0.5541 -0.8000
 2626TIP3   OH229436   3.910   2.766   0.512  0.2266 -0.0355  0.2531
 2626TIP3    H129437   3.947   2.764   0.600 -1.0201 -0.9722  0.7912
 2626TIP3    H229438   3.853   2.689   0.508 -0.0927  0.2456 -1.2144
 2627TIP3   OH229439   3.456   0.851   2.698  0.2440  0.2221  0.5949
 2627TIP3    H129440   3.447   0.776   2.640 -2.9984 -0.9295  2.3367
 2627TIP3    H229441   3.493   0.920   2.642 -1.8663 -1.0191 -2.6354
 2628TIP3   OH229442   1.071   6.641   7.666  0.3223 -0.7329  0.1037
 2628TIP3    H129443   1.144   6.625   7.605 -0.4342  2.7075 -2.0269
 2628TIP3    H229444   0.993   6.640   7.610 -0.8683 -0.9877  1.7187
 2629TIP3   OH229445   0.504   6.495   0.957  0.2334 -0.2677 -0.1847
 2629TIP3    H129446   0.532   6.403   0.956 -2.2214 -1.1549 -2.9519
 2629TIP3    H229447   0.583   6.545   0.937  1.0980 -2.0281 -1.3769
 2630TIP3   OH229448   6.238   2.425   7.259  0.3230  0.2118  0.1987
 2630TIP3    H129449   6.321   2.471   7.254 -0.1975  1.0766 -2.0693
 2630TIP3    H229450   6.229   2.382   7.173 -1.0179 -0.8646  0.8294
 2631TIP3   OH229451   0.788   2.803   1.787 -0.4816 -0.0961 -0.4779
 2631TIP3    H129452   0.827   2.793   1.874  2.3258  0.4580 -1.5659
 2631TIP3    H229453   0.733   2.880   1.793 -0.3877 -0.1236  0.8374
 2632TIP3   OH229454   6.809   0.624   8.256 -0.1881 -0.0127  0.2173
 2632TIP3    H129455   6.770   0.707   8.284  0.0416  0.7471 -1.5279
 2632TIP3    H229456   6.734   0.567   8.240 -0.4018  0.1766  0.5457
 2633TIP3   OH229457   2.083   2.457   1.840 -0.4413  0.1943  0.0889
 2633TIP3    H129458   1.999   2.497   1.822 -0.0992 -0.0195 -2.2168
 2633TIP3    H229459   2.075   2.367   1.809  1.1695  0.6858 -2.0212
 2634TIP3   OH229460   2.737   1.146   1.124  0.2955 -0.1970  0.2276
 2634TIP3    H129461   2.757   1.097   1.203  0.7231  0.1842  0.3609
 2634TIP3    H229462   2.705   1.231   1.156  0.0201 -0.2113 -0.0038
 2635TIP3   OH229463   0.545   0.538   0.376  0.2188  0.6445 -0.4163
 2635TIP3    H129464   0.513   0.601   0.311 -0.6772  2.3857  1.5669
 2635TIP3    H229465   0.494   0.557   0.454  1.0441 -1.5533  0.7487
 2636TIP3   OH229466   5.933   3.624   7.260 -0.1554 -0.0260  0.2876
 2636TIP3    H129467   6.003   3.564   7.233  0.9857  0.7320  1.4328
 2636TIP3    H229468   5.871   3.624   7.187  0.8336 -1.0394 -0.5836
 2637TIP3   OH229469   2.658   0.643   1.514  0.4009 -0.7150 -0.1440
 2637TIP3    H129470   2.614   0.576   1.461 -0.9902  0.4338 -0.5017
 2637TIP3    H229471   2.590   0.707   1.534  1.4314  0.0348  1.1491
 2638TIP3   OH229472   5.586   5.671   8.058  0.9257  0.3313 -0.1873
 2638TIP3    H129473   5.582   5.765   8.042  1.7537  0.3287 -0.4794
 2638TIP3    H229474   5.641   5.637   7.988 -0.4277 -0.5728 -0.8583
 2639TIP3   OH229475   5.343   4.946   0.565 -0.3158 -0.3360  0.3377
 2639TIP3    H129476   5.285   5.021   0.576 -0.7603 -0.6914  0.4577
 2639TIP3    H229477   5.385   4.935   0.650  0.7177  0.5537 -0.0358
 2640TIP3   OH229478   4.738   2.935   0.668 -0.0480 -0.0877 -0.6429
 2640TIP3    H129479   4.698   3.015   0.701  0.1785 -0.1169 -0.2915
 2640TIP3    H229480   4.747   2.878   0.745  3.0257  0.9012 -0.1242
 2641TIP3   OH229481   2.640   6.469   1.590 -1.0646  0.4923 -0.2235
 2641TIP3    H129482   2.638   6.413   1.512 -1.2972  0.0718  0.0843
 2641TIP3    H229483   2.588   6.545   1.565 -1.2510  0.2987 -0.4325
 2642TIP3   OH229484   5.463   4.736   8.565  0.2156  0.4488 -0.6317
 2642TIP3    H129485   5.543   4.785   8.544  0.2333  0.4693 -0.5206
 2642TIP3    H229486   5.445   4.758   8.657  0.4276 -0.0379 -0.4688
 2643TIP3   OH229487   1.890   3.273   7.771  0.6087  0.7554  0.8648
 2643TIP3    H129488   1.950   3.313   7.708 -0.3839  0.0740 -0.5710
 2643TIP3    H229489   1.837   3.346   7.804  0.3417  0.9642 -0.0070
 2644TIP3   OH229490   1.768   1.360   0.338  0.2275 -0.0352 -0.3687
 2644TIP3    H129491   1.743   1.387   0.250  1.4745  0.0273 -0.7206
 2644TIP3    H229492   1.692   1.311   0.371 -1.2687  2.0272 -0.5164
 2645TIP3   OH229493   3.237   5.717   7.347  0.2197 -0.3184 -0.0154
 2645TIP3    H129494   3.301   5.780   7.314 -2.3198  1.4575 -1.9187
 2645TIP3    H229495   3.217   5.749   7.436  0.2179  0.5560 -0.3193
 2646TIP3   OH229496   5.728   5.505   1.785 -0.5580 -0.0104 -0.6201
 2646TIP3    H129497   5.757   5.520   1.875 -0.8512 -2.1081 -0.1096
 2646TIP3    H229498   5.802   5.531   1.731 -0.0682  0.5139  0.2861
 2647TIP3   OH229499   5.065   4.950   7.094 -0.7708 -0.1586  0.1846
 2647TIP3    H129500   5.059   4.971   7.000  0.5377  2.2290  0.5472
 2647TIP3    H229501   5.070   4.855   7.097  1.6548 -0.2428 -2.3798
 2648TIP3   OH229502   2.658   3.862   7.071  0.0381 -0.7526  0.1961
 2648TIP3    H129503   2.623   3.848   6.984  0.5942 -1.0367  0.0154
 2648TIP3    H229504   2.701   3.780   7.094  0.2491 -0.5447  0.5679
 2649TIP3   OH229505   4.120   5.466   0.533  0.0100  0.1562 -0.6136
 2649TIP3    H129506   4.123   5.475   0.628 -2.0773  1.1753 -0.5796
 2649TIP3    H229507   4.039   5.510   0.508  0.6056  0.0760 -2.8954
 2650TIP3   OH229508   3.043   6.164   1.410 -0.3946  0.0699  0.1301
 2650TIP3    H129509   3.012   6.244   1.452 -1.0586 -0.2152  0.1940
 2650TIP3    H229510   2.984   6.096   1.441 -0.1724 -0.3484 -0.3492
 2651TIP3   OH229511   4.200   2.296   8.626  0.4765 -0.0424  0.5021
 2651TIP3    H129512   4.216   2.390   8.624  1.5416 -0.2173 -0.4703
 2651TIP3    H229513   4.109   2.286   8.598 -0.1123  0.7607  2.0156
 2652TIP3   OH229514   3.303   1.412   0.465 -0.2138 -1.0960 -0.3672
 2652TIP3    H129515   3.257   1.458   0.395  0.1148 -0.9088 -0.4579
 2652TIP3    H229516   3.383   1.379   0.425  0.7970  0.4223  0.3012
 2653TIP3   OH229517   3.254   5.757   6.605 -0.5345  0.1011  0.8975
 2653TIP3    H129518   3.257   5.679   6.549 -2.4362  1.0995 -0.7161
 2653TIP3    H229519   3.312   5.820   6.561 -1.1281  0.4985  0.6753
 2654TIP3   OH229520   5.066   1.460   7.672 -0.3078 -0.7816 -0.3317
 2654TIP3    H129521   5.006   1.407   7.620  0.4940 -0.8224 -1.2702
 2654TIP3    H229522   5.113   1.513   7.607  2.5346 -2.6450  0.0218
 2655TIP3   OH229523   2.698   1.679   8.143  0.2630  0.3479 -0.2129
 2655TIP3    H129524   2.669   1.697   8.054  0.5278  0.3582 -0.2993
 2655TIP3    H229525   2.793   1.695   8.141  0.1261  1.2745  0.3114
 2656TIP3   OH229526   2.906   3.581   6.907  0.1128  0.2598 -0.5213
 2656TIP3    H129527   2.828   3.620   6.867  1.4258  1.4082 -2.0670
 2656TIP3    H229528   2.915   3.496   6.863  0.0632  0.3676 -0.7382
 2657TIP3   OH229529   4.956   4.175   6.552 -0.1067  0.3023  0.5348
 2657TIP3    H129530   4.892   4.110   6.525 -1.1754  2.0248 -1.2894
 2657TIP3    H229531   4.904   4.246   6.589  0.5158  2.2665 -2.0709
 2658TIP3   OH229532   4.940   2.759   8.497 -0.3185  0.3722  0.2366
 2658TIP3    H129533   5.022   2.759   8.545 -0.8635 -2.2815  1.3451
 2658TIP3    H229534   4.948   2.687   8.435 -1.5429  0.5151 -0.1228
 2659TIP3   OH229535   3.341   1.434   0.759  0.2702  0.5584  0.0158
 2659TIP3    H129536   3.277   1.409   0.693  0.3365  1.4180 -0.3891
 2659TIP3    H229537   3.402   1.490   0.713  1.0573  0.1260  0.5126
 2660TIP3   OH229538   1.476   5.689   0.212 -0.1912 -0.1152  0.5528
 2660TIP3    H129539   1.471   5.760   0.276 -3.2909  0.3902 -0.0670
 2660TIP3    H229540   1.553   5.709   0.158 -0.8934  2.7496  0.4795
 2661TIP3   OH229541   5.932   5.694   7.229 -0.4623  0.0374 -0.3366
 2661TIP3    H129542   5.953   5.758   7.161 -0.3298  0.7343  0.3463
 2661TIP3    H229543   5.868   5.636   7.189 -1.5357  1.3399 -0.5741
 2662TIP3   OH229544   1.473   1.931   0.387  0.2878  0.0057 -0.6034
 2662TIP3    H129545   1.500   1.997   0.450 -0.2564  1.2919 -1.6671
 2662TIP3    H229546   1.514   1.959   0.305  1.1191 -1.7170 -0.8178
 2663TIP3   OH229547   2.191   0.503   8.459 -0.5162  0.3977  0.0867
 2663TIP3    H129548   2.281   0.511   8.491 -0.5041 -0.2405  0.2113
 2663TIP3    H229549   2.141   0.563   8.514 -0.1364  0.9103 -0.1176
 2664TIP3   OH229550   2.300   2.831   6.769 -0.1955  0.0728  0.4319
 2664TIP3    H129551   2.357   2.905   6.792 -0.3298  0.3050  0.0217
 2664TIP3    H229552   2.213   2.858   6.799 -0.3539  0.3352 -0.2370
 2665TIP3   OH229553   5.167   6.049   7.188 -0.5212  0.0465 -0.2483
 2665TIP3    H129554   5.140   5.972   7.138  1.3026 -0.3356 -0.6913
 2665TIP3    H229555   5.256   6.068   7.158 -0.2925  1.2808  1.1075
 2666TIP3   OH229556   1.255   6.000   7.059  0.0158 -0.5384  0.2997
 2666TIP3    H129557   1.288   6.085   7.089 -0.5553  0.7249 -2.3527
 2666TIP3    H229558   1.272   6.000   6.965  1.5323 -4.1236  0.4384
 2667TIP3   OH229559   5.789   0.196   0.700  0.0703 -0.1229  0.1443
 2667TIP3    H129560   5.807   0.276   0.749 -2.6315  0.3296  0.5222
 2667TIP3    H229561   5.725   0.149   0.753  1.5511 -2.5718 -0.0859
 2668TIP3   OH229562   6.260   3.818   0.255  0.6855  0.3199  0.3800
 2668TIP3    H129563   6.274   3.851   0.166 -0.6066 -0.7899 -0.2830
 2668TIP3    H229564   6.340   3.841   0.303  1.2741  1.2137 -0.9789
 2669TIP3   OH229565   2.760   3.631   0.449 -0.0001 -0.7055 -0.3237
 2669TIP3    H129566   2.687   3.631   0.510  0.7532 -0.3487  0.6127
 2669TIP3    H229567   2.745   3.707   0.393 -0.0176 -0.2421  0.2899
 2670TIP3   OH229568   0.367   2.251   8.064 -0.3156  0.2211  0.0051
 2670TIP3    H129569   0.426   2.227   8.135 -0.0623  0.9724  0.0569
 2670TIP3    H229570   0.335   2.338   8.088 -1.4345 -0.1571 -0.0263
 2671TIP3   OH229571   4.136   5.506   1.903  0.3561  0.2631  0.0524
 2671TIP3    H129572   4.118   5.417   1.873 -0.8780 -0.1035  1.7225
 2671TIP3    H229573   4.102   5.562   1.834  0.8242 -0.5453 -0.8608
 2672TIP3   OH229574   6.751   3.552   8.175  0.2353  0.2211  0.0688
 2672TIP3    H129575   6.830   3.580   8.222  1.1152 -0.5719 -0.8834
 2672TIP3    H229576   6.690   3.626   8.184  1.4302  1.2524  0.0394
 2673TIP3   OH229577   4.031   5.594   7.648  0.0107 -0.0015  0.0867
 2673TIP3    H129578   3.990   5.515   7.612  1.3962 -0.9844  0.5950
 2673TIP3    H229579   4.124   5.585   7.628  0.1758  1.6176 -0.0090
 2674TIP3   OH229580   1.042   0.764   0.935  0.0323 -0.7095 -0.1729
 2674TIP3    H129581   1.135   0.786   0.928 -0.0236 -0.9660 -3.3846
 2674TIP3    H229582   1.001   0.847   0.959  0.9645 -0.2185 -0.1939
 2675TIP3   OH229583   1.032   5.258   1.335  0.2385 -0.1565  0.2434
 2675TIP3    H129584   1.115   5.213   1.320 -0.0458 -0.1561 -1.5365
 2675TIP3    H229585   1.050   5.350   1.313  0.0434  0.0658  0.9590
 2676TIP3   OH229586   4.046   2.935   8.580  0.1893  0.6386  0.3511
 2676TIP3    H129587   4.140   2.930   8.567  0.0977 -0.6033  0.0709
 2676TIP3    H229588   4.021   2.849   8.613 -0.8819  0.8846  0.2275
 2677TIP3   OH229589   0.381   3.608   2.454  0.1414  0.8559 -0.1610
 2677TIP3    H129590   0.308   3.660   2.488  1.6909  1.0360  3.3910
 2677TIP3    H229591   0.421   3.662   2.386 -1.2426  2.0564 -0.0555
 2678TIP3   OH229592   6.869   5.031   1.059 -0.2159  0.0954  0.5189
 2678TIP3    H129593   6.929   5.024   0.984 -0.5127 -0.8123  0.3648
 2678TIP3    H229594   6.877   5.123   1.086  1.8552 -0.1806  0.9977
 2679TIP3   OH229595   6.861   0.130   1.195  0.0453  0.2735 -0.3304
 2679TIP3    H129596   6.793   0.102   1.134 -0.2841  1.8515 -0.7388
 2679TIP3    H229597   6.814   0.152   1.276  0.0569  1.1736 -0.5484
 2680TIP3   OH229598   1.277   2.817   2.338 -0.3998 -0.1926  0.2498
 2680TIP3    H129599   1.258   2.907   2.367 -0.5508  0.5406 -1.9209
 2680TIP3    H229600   1.191   2.780   2.320 -0.2263  0.2725 -1.6712
 2681TIP3   OH229601   6.089   4.798   1.533  0.4427 -0.2023 -0.0989
 2681TIP3    H129602   6.094   4.889   1.562 -0.6385  0.1312 -0.8967
 2681TIP3    H229603   6.126   4.798   1.446 -2.2785  0.1268 -1.3775
 2682TIP3   OH229604   5.192   0.177   7.665  0.2972  0.8993  0.5055
 2682TIP3    H129605   5.110   0.169   7.616  0.2124  0.9615  0.6355
 2682TIP3    H229606   5.177   0.253   7.723  0.4509  0.9185  0.5196
 2683TIP3   OH229607   3.605   5.855   0.059 -0.1528  0.4623 -0.0094
 2683TIP3    H129608   3.640   5.883  -0.026 -1.0932 -1.0139 -0.9306
 2683TIP3    H229609   3.574   5.766   0.044 -1.0682  0.4505  1.6929
 2684TIP3   OH229610   0.178   3.716   1.731  0.2136  0.0320  0.4444
 2684TIP3    H129611   0.093   3.684   1.702  0.3867 -1.1728  1.1991
 2684TIP3    H229612   0.158   3.780   1.799 -0.0993  0.2446  0.1560
 2685TIP3   OH229613   1.172   0.757   7.040 -0.0182  0.3053 -0.1127
 2685TIP3    H129614   1.264   0.784   7.037  0.1740  0.1123  2.1905
 2685TIP3    H229615   1.153   0.748   7.133 -2.5281  0.8020 -0.5159
 2686TIP3   OH229616   4.127   3.457   0.850 -0.0924 -0.1795  0.1244
 2686TIP3    H129617   4.189   3.524   0.820  1.5303 -1.9590 -0.6874
 2686TIP3    H229618   4.047   3.506   0.870  0.6242  1.8560 -1.5722
 2687TIP3   OH229619   1.890   0.091   0.857 -0.7725 -0.3046  0.1511
 2687TIP3    H129620   1.975   0.110   0.896 -1.0703 -0.0594  0.6820
 2687TIP3    H229621   1.911   0.039   0.779  0.0365  1.6109 -1.0061
 2688TIP3   OH229622   1.410   1.073   8.163 -0.6595 -0.3604  0.0143
 2688TIP3    H129623   1.426   1.155   8.209 -0.0409  0.8531 -2.2384
 2688TIP3    H229624   1.424   1.005   8.230  3.7204  1.0669  0.9023
 2689TIP3   OH229625   5.962   3.232   7.833 -0.0902 -0.3480  0.5822
 2689TIP3    H129626   6.007   3.175   7.771  0.5928 -0.2440  0.9732
 2689TIP3    H229627   5.934   3.307   7.780  1.0141  0.0246  0.4947
 2690TIP3   OH229628   3.101   0.062   8.322  0.2723 -0.0956  0.5158
 2690TIP3    H129629   3.176   0.004   8.306  0.0597  0.0799 -1.2148
 2690TIP3    H229630   3.027   0.018   8.280 -0.1639  0.7734  0.3584
 2691TIP3   OH229631   6.197   3.172   1.405 -0.5076  0.4450 -0.0799
 2691TIP3    H129632   6.184   3.265   1.424  0.4907  0.8414 -1.2504
 2691TIP3    H229633   6.193   3.129   1.491  1.0739  1.8186  0.7257
 2692TIP3   OH229634   4.262   0.801   7.777  0.0232  0.3849 -0.2322
 2692TIP3    H129635   4.218   0.777   7.858  2.0792 -0.1564  0.8128
 2692TIP3    H229636   4.297   0.719   7.743  3.4620  1.1009  1.1080
 2693TIP3   OH229637   0.844   0.294   7.761 -0.9617 -0.2107 -0.4068
 2693TIP3    H129638   0.879   0.343   7.686 -1.8851  0.2165 -0.5738
 2693TIP3    H229639   0.906   0.311   7.831 -2.1516  2.8223  0.1051
 2694TIP3   OH229640   1.380   5.852   8.353  0.3109  0.3263 -0.6531
 2694TIP3    H129641   1.427   5.818   8.277 -0.5553 -2.7334  0.0442
 2694TIP3    H229642   1.287   5.842   8.329  0.0315  0.9011  0.1621
 2695TIP3   OH229643   1.176   1.443   0.524  0.2801  0.1676 -0.1462
 2695TIP3    H129644   1.213   1.374   0.469  3.0001  0.0841  1.5666
 2695TIP3    H229645   1.224   1.522   0.499 -2.1659  1.3496 -1.4614
 2696TIP3   OH229646   3.585   5.278   8.456  0.0340 -0.1547  0.4671
 2696TIP3    H129647   3.672   5.261   8.494 -0.8730 -0.3626  2.6147
 2696TIP3    H229648   3.581   5.373   8.447  0.3941 -0.1210  0.6431
 2697TIP3   OH229649   5.019   3.032   7.425 -0.6190  0.2244 -0.0749
 2697TIP3    H129650   4.939   3.049   7.474 -2.7283 -0.7487 -2.9309
 2697TIP3    H229651   5.023   3.102   7.360  2.7347  2.1798  1.9489
 2698TIP3   OH229652   3.552   4.807   6.991 -0.0094  0.5243  0.3422
 2698TIP3    H129653   3.525   4.759   6.913 -2.8920 -0.9356  2.0506
 2698TIP3    H229654   3.625   4.756   7.026 -0.6012 -0.5016  0.1236
 2699TIP3   OH229655   0.709   1.403   7.124 -0.0098 -0.4187  0.0648
 2699TIP3    H129656   0.676   1.487   7.155  1.4949 -0.0797  0.8087
 2699TIP3    H229657   0.682   1.399   7.032 -0.3952  0.7172  0.1188
 2700TIP3   OH229658   6.455   1.099   1.808  0.0407  0.0915  0.6369
 2700TIP3    H129659   6.518   1.103   1.736 -0.2545  2.1563  0.4171
 2700TIP3    H229660   6.482   1.169   1.867 -0.3171 -0.9302  2.0430
 2701TIP3   OH229661   2.744   2.016   2.301  0.1477 -0.8166  0.0816
 2701TIP3    H129662   2.826   1.984   2.262 -0.6702 -1.6651 -1.0342
 2701TIP3    H229663   2.770   2.090   2.355  2.1149 -3.0065  2.4302
 2702TIP3   OH229664   5.594   2.436   7.910 -0.6612 -0.0109  0.2701
 2702TIP3    H129665   5.601   2.382   7.832  0.0261 -1.2596  1.1688
 2702TIP3    H229666   5.550   2.516   7.880  0.3305 -0.1060 -1.5527
 2703TIP3   OH229667   0.137   1.948   8.356 -0.2016 -0.2009  0.1007
 2703TIP3    H129668   0.212   1.997   8.387 -0.6514 -0.2605  1.3177
 2703TIP3    H229669   0.081   2.014   8.314 -0.1832  0.1055  0.5529
 2704TIP3   OH229670   4.403   5.470   7.182  0.1114 -0.1093 -0.2409
 2704TIP3    H129671   4.359   5.534   7.238  1.2380  0.3687  0.1268
 2704TIP3    H229672   4.397   5.507   7.094  0.3528  0.2878 -0.0942
 2705TIP3   OH229673   1.477   2.855   2.143 -0.0467 -0.5845  0.1723
 2705TIP3    H129674   1.486   2.765   2.112 -1.1832 -0.8903  0.6955
 2705TIP3    H229675   1.430   2.848   2.225 -1.3053  0.5748 -0.4071
 2706TIP3   OH229676   0.583   2.686   8.422 -0.8018 -0.6737 -0.1664
 2706TIP3    H129677   0.562   2.688   8.328  1.2708 -0.3795 -0.6678
 2706TIP3    H229678   0.513   2.633   8.461 -1.3032 -1.4164 -1.9814
 2707TIP3   OH229679   2.145   1.888   8.474  0.3245 -0.1815 -0.6251
 2707TIP3    H129680   2.063   1.839   8.466  0.1716  0.2362 -1.7942
 2707TIP3    H229681   2.203   1.848   8.409  1.1445 -0.6213  0.3431
 2708TIP3   OH229682   0.695   4.054   6.895 -0.7149 -0.2759 -0.1871
 2708TIP3    H129683   0.666   3.974   6.940  0.5008 -0.2752  0.6358
 2708TIP3    H229684   0.653   4.125   6.943  1.5836 -0.1891  1.8724
 2709TIP3   OH229685   5.173   5.629   0.692  0.0731 -0.4168 -0.1354
 2709TIP3    H129686   5.093   5.609   0.641 -1.1257 -0.3234  1.6187
 2709TIP3    H229687   5.232   5.556   0.673 -1.1606 -1.4681 -0.0649
 2710TIP3   OH229688   4.464   3.676   1.528  0.4175 -0.6177  0.0560
 2710TIP3    H129689   4.401   3.632   1.586 -0.7401  0.5016 -0.2972
 2710TIP3    H229690   4.469   3.619   1.451 -2.8123  0.8140 -1.4098
 2711TIP3   OH229691   2.009   3.748   0.262  0.1053  0.3912  0.1872
 2711TIP3    H129692   1.929   3.797   0.243 -0.0491 -0.1940 -0.7457
 2711TIP3    H229693   2.021   3.691   0.186  2.2173  1.5054 -0.3844
 2712TIP3   OH229694   1.576   1.120   8.566  0.6133 -0.3044  0.0197
 2712TIP3    H129695   1.643   1.184   8.539  0.4803  0.8101  2.1153
 2712TIP3    H229696   1.619   1.036   8.559  0.6043 -0.1693 -3.4466
 2713TIP3   OH229697   3.953   4.904   7.637 -0.1872  0.4748  0.0556
 2713TIP3    H129698   3.906   4.851   7.702  1.6724 -3.3936 -1.4957
 2713TIP3    H229699   4.014   4.957   7.689 -0.4859 -0.6362  1.5967
 2714TIP3   OH229700   1.705   2.728   8.504 -0.0892  0.0082 -0.7548
 2714TIP3    H129701   1.626   2.744   8.453  0.9547  2.1167 -1.8273
 2714TIP3    H229702   1.760   2.804   8.488  2.0737 -1.2657  0.1644
 2715TIP3   OH229703   2.884   0.531   6.804 -0.4121  0.0071  0.4294
 2715TIP3    H129704   2.849   0.548   6.716  0.2547  0.4522  0.2390
 2715TIP3    H229705   2.827   0.581   6.862 -1.5322 -1.1631  0.3737
 2716TIP3   OH229706   6.724   1.076   0.324  0.4266 -0.0102  0.3175
 2716TIP3    H129707   6.681   1.146   0.372 -0.3626 -0.2481 -0.0351
 2716TIP3    H229708   6.689   0.996   0.362 -0.4484 -0.2014 -0.8561
 2717TIP3   OH229709   4.530   4.281   7.516 -0.0925 -0.0885  0.0039
 2717TIP3    H129710   4.586   4.357   7.499 -2.1709  1.5474  0.1663
 2717TIP3    H229711   4.441   4.311   7.499 -1.2409 -1.7776  2.3565
 2718TIP3   OH229712   2.874   4.270   8.113  0.2112 -0.4206  0.2692
 2718TIP3    H129713   2.962   4.281   8.149  0.2569  1.1284 -0.2408
 2718TIP3    H229714   2.880   4.302   8.023 -1.4009  2.1224  0.9756
 2719TIP3   OH229715   4.434   2.537   6.965  0.3177 -0.0678 -0.0957
 2719TIP3    H129716   4.508   2.584   6.926  0.2440  0.2946  0.1924
 2719TIP3    H229717   4.431   2.454   6.918  1.9272 -0.7906  0.9829
 2720TIP3   OH229718   6.205   1.395   2.076  0.5394 -0.3753 -0.0714
 2720TIP3    H129719   6.251   1.311   2.079 -0.4897 -0.9553 -0.0164
 2720TIP3    H229720   6.256   1.453   2.133  0.4726 -1.3836  1.0606
 2721TIP3   OH229721   0.156   0.333   1.811  0.3845 -0.2487  0.0591
 2721TIP3    H129722   0.094   0.267   1.779  1.1571 -0.8802 -0.1457
 2721TIP3    H229723   0.170   0.310   1.903 -2.0513  1.7274  1.0421
 2722TIP3   OH229724   4.225   0.277   0.960  0.1389 -0.3253 -0.6543
 2722TIP3    H129725   4.158   0.345   0.958 -0.1394 -0.6133 -1.8425
 2722TIP3    H229726   4.307   0.323   0.941  0.7514  0.4451  3.0338
 2723TIP3   OH229727   2.445   6.423   0.956  0.0316  0.3937 -0.0837
 2723TIP3    H129728   2.536   6.395   0.947  0.8447  1.9390  2.3275
 2723TIP3    H229729   2.401   6.349   0.999  0.0193 -0.4849 -1.5518
 2724TIP3   OH229730   3.578   2.564   1.907  0.0331  0.5416  0.4727
 2724TIP3    H129731   3.663   2.536   1.941  0.7403  2.3194  0.2902
 2724TIP3    H229732   3.590   2.657   1.887 -1.8773  0.7624  0.1726
 2725TIP3   OH229733   6.549   5.293   8.095  0.6258  0.3309  0.0643
 2725TIP3    H129734   6.563   5.249   8.011 -0.9956  0.3565 -0.2480
 2725TIP3    H229735   6.569   5.385   8.077 -0.6034  0.4958 -0.5702
 2726TIP3   OH229736   6.730   4.753   2.070  0.1335 -0.0218  0.4104
 2726TIP3    H129737   6.754   4.717   2.155  1.1443  0.8553  0.5147
 2726TIP3    H229738   6.690   4.838   2.090 -1.1744 -0.5466  0.1018
 2727TIP3   OH229739   5.105   2.463   1.444  0.0847 -0.3604 -0.5801
 2727TIP3    H129740   5.111   2.376   1.482 -2.0823 -0.7866 -1.1021
 2727TIP3    H229741   5.103   2.448   1.349 -2.7699 -0.0112 -0.6538
 2728TIP3   OH229742   5.909   3.698   8.100  0.1233 -0.3834 -0.2678
 2728TIP3    H129743   5.877   3.637   8.034 -1.5261  1.0041 -0.8443
 2728TIP3    H229744   5.864   3.673   8.180  0.7425 -0.9522 -0.0930
 2729TIP3   OH229745   5.014   2.218   8.271 -0.4411  0.3263  0.3320
 2729TIP3    H129746   4.959   2.172   8.207  1.6544 -0.5498 -0.9472
 2729TIP3    H229747   5.103   2.208   8.237  0.9042 -0.9117  3.8529
 2730TIP3   OH229748   5.125   1.888   7.137 -0.0285  0.2440 -0.0020
 2730TIP3    H129749   5.105   1.807   7.182  2.7060  1.0391  2.9927
 2730TIP3    H229750   5.136   1.862   7.045  1.1325 -2.8693  0.8863
 2731TIP3   OH229751   5.497   2.694   7.393  0.3015 -0.8710 -0.4514
 2731TIP3    H129752   5.505   2.788   7.402  0.8416 -0.7786 -1.8117
 2731TIP3    H229753   5.551   2.658   7.464 -1.3170 -0.2033  1.2270
 2732TIP3   OH229754   6.177   4.941   0.802 -0.2281  0.3669  0.3179
 2732TIP3    H129755   6.148   4.955   0.892  1.5087  3.4134  0.5502
 2732TIP3    H229756   6.260   4.893   0.809 -0.0058  0.7553  0.3675
 2733TIP3   OH229757   1.116   2.965   0.777  0.2689  0.0308  0.1179
 2733TIP3    H129758   1.152   2.899   0.836  1.7762  0.1968 -0.5658
 2733TIP3    H229759   1.122   2.927   0.690 -3.1179 -0.7309  0.0624
 2734TIP3   OH229760   2.429   5.627   7.091  0.4908 -0.0709  0.0629
 2734TIP3    H129761   2.338   5.600   7.078  0.1598  1.5988 -1.5188
 2734TIP3    H229762   2.441   5.626   7.186 -1.2355 -0.1816  0.3154
 2735TIP3   OH229763   4.896   1.417   8.029 -0.1784 -0.7023  0.0282
 2735TIP3    H129764   4.907   1.350   7.962  0.4391  0.7114 -1.3290
 2735TIP3    H229765   4.921   1.499   7.986 -0.0409  0.2896  1.8997
 2736TIP3   OH229766   1.283   1.329   7.672  0.0940 -0.4129  0.6367
 2736TIP3    H129767   1.238   1.382   7.738 -0.0455 -1.5455  1.4601
 2736TIP3    H229768   1.256   1.369   7.589 -2.9714 -1.3819  1.0447
 2737TIP3   OH229769   5.405   2.054   0.049  0.0360 -0.0074 -0.1063
 2737TIP3    H129770   5.459   1.978   0.028 -0.6821 -0.4387 -0.4253
 2737TIP3    H229771   5.336   2.019   0.106 -1.5791 -0.0590 -1.9912
 2738TIP3   OH229772   6.290   3.017   8.111 -0.6185 -0.3922  0.0910
 2738TIP3    H129773   6.196   3.015   8.097 -0.2528 -0.9555 -2.7952
 2738TIP3    H229774   6.300   3.008   8.206 -3.4363 -0.1223  0.4998
 2739TIP3   OH229775   3.674   1.347   7.118  0.0626  0.4667  0.3644
 2739TIP3    H129776   3.764   1.380   7.109 -0.2144  0.8015 -1.6602
 2739TIP3    H229777   3.676   1.261   7.076 -0.8199  1.0314 -0.8919
 2740TIP3   OH229778   6.824   3.908   7.577  0.1790  0.3240 -0.4609
 2740TIP3    H129779   6.832   3.837   7.642 -1.6394  1.7822  1.4830
 2740TIP3    H229780   6.893   3.970   7.601 -0.0661  0.5504 -0.3385
 2741TIP3   OH229781   1.043   4.564   2.019 -0.3184 -0.2625 -0.0417
 2741TIP3    H129782   1.104   4.630   1.983  1.0274 -0.6954  1.3436
 2741TIP3    H229783   1.100   4.498   2.058 -1.6750 -1.7222 -0.4499
 2742TIP3   OH229784   0.112   4.374   0.551  1.0291 -0.7728  0.2950
 2742TIP3    H129785   0.038   4.323   0.583 -0.1408  0.0806 -0.9273
 2742TIP3    H229786   0.093   4.463   0.580  0.6162 -0.2250 -1.5155
 2743TIP3   OH229787   0.121   4.973   1.328 -0.4611 -0.0761  0.3464
 2743TIP3    H129788   0.137   4.990   1.236 -0.0971 -2.5093 -0.1065
 2743TIP3    H229789   0.048   5.030   1.351  0.2434  1.4691 -1.0980
 2744TIP3   OH229790   4.609   2.095   8.431  0.2451 -0.3728 -0.4356
 2744TIP3    H129791   4.572   2.159   8.371  1.3507  0.9670  0.2544
 2744TIP3    H229792   4.687   2.137   8.467  0.6332 -1.8451  0.5641
 2745TIP3   OH229793   1.433   2.144   8.647 -0.4139  0.8540 -0.0866
 2745TIP3    H129794   1.482   2.183   8.575  1.8021 -1.7350 -0.1525
 2745TIP3    H229795   1.345   2.130   8.612 -0.2689  2.4358 -1.1840
 2746TIP3   OH229796   5.132   1.017   7.781 -0.0411 -0.0037 -0.0669
 2746TIP3    H129797   5.143   1.028   7.686  0.6194  0.9359  0.0952
 2746TIP3    H229798   5.215   1.048   7.818 -0.2871 -0.3738  0.8203
 2747TIP3   OH229799   6.483   4.170   7.762  0.0101  0.1843 -0.2106
 2747TIP3    H129800   6.430   4.235   7.717 -0.1115 -0.0943 -0.4723
 2747TIP3    H229801   6.519   4.216   7.838  0.3654  0.7117 -0.6882
 2748TIP3   OH229802   3.693   5.517   2.160 -0.1547  1.0269  0.2513
 2748TIP3    H129803   3.701   5.433   2.206 -1.2778  0.3237 -0.7831
 2748TIP3    H229804   3.767   5.568   2.191 -0.2337  0.1737  1.9838
 2749TIP3   OH229805   5.160   2.014   0.863  0.1350  0.3941  0.0303
 2749TIP3    H129806   5.092   1.954   0.833  1.1610  0.0333 -1.7141
 2749TIP3    H229807   5.175   1.991   0.954 -1.5338 -0.0210  0.2136
 2750TIP3   OH229808   2.628   1.445   7.932 -0.2137 -0.1690  0.0248
 2750TIP3    H129809   2.645   1.417   7.842 -0.1707  0.8417 -0.2944
 2750TIP3    H229810   2.641   1.540   7.931 -1.1646 -0.0049  0.8699
 2751TIP3   OH229811   3.020   6.711   1.608 -0.1776  0.2696 -0.2107
 2751TIP3    H129812   2.973   6.648   1.663 -0.4187  1.7666  1.4062
 2751TIP3    H229813   3.108   6.675   1.599 -0.3133 -0.3083  0.6744
 2752TIP3   OH229814   5.881   3.624   1.686 -0.0178 -0.1926  0.4289
 2752TIP3    H129815   5.910   3.689   1.621 -0.0272 -1.2667 -0.6909
 2752TIP3    H229816   5.922   3.652   1.768  1.7929  0.0069 -0.4842
 2753TIP3   OH229817   5.508   3.416   1.276 -0.2646 -0.0530  0.6047
 2753TIP3    H129818   5.484   3.441   1.186 -1.0441 -1.3863  0.4241
 2753TIP3    H229819   5.560   3.490   1.307  1.4215 -0.2459 -1.4970
 2754TIP3   OH229820   6.189   1.081   1.700 -0.4291  0.0221  0.0870
 2754TIP3    H129821   6.202   1.131   1.619  1.7647  0.4551  0.6253
 2754TIP3    H229822   6.278   1.058   1.727 -1.2471 -1.9944  1.2281
 2755TIP3   OH229823   4.819   5.699   7.666 -0.8128 -1.0217 -0.1547
 2755TIP3    H129824   4.772   5.656   7.738  0.2286 -3.3216 -0.7566
 2755TIP3    H229825   4.904   5.722   7.704 -0.6122 -1.3772 -0.3868
 2756TIP3   OH229826   2.332   3.823   0.667 -0.3671 -0.3981  0.3278
 2756TIP3    H129827   2.258   3.882   0.658 -1.7685 -2.0543  0.4777
 2756TIP3    H229828   2.296   3.744   0.708  1.0107 -2.0717 -1.4526
 2757TIP3   OH229829   4.180   1.253   0.330 -0.4894  0.4100 -0.0381
 2757TIP3    H129830   4.205   1.346   0.330 -1.4561  0.7068 -2.2240
 2757TIP3    H229831   4.187   1.226   0.239 -1.6911 -1.2735  0.3261
 2758TIP3   OH229832   1.397   1.399   8.229  0.1790  0.1710  0.2354
 2758TIP3    H129833   1.449   1.346   8.169 -0.7323  0.1546 -0.5661
 2758TIP3    H229834   1.453   1.473   8.252  0.2514  0.6347 -1.3182
 2759TIP3   OH229835   0.019   1.987   1.783  1.2314 -0.3497 -0.2157
 2759TIP3    H129836   0.046   1.897   1.765  0.1723 -0.8531  0.5835
 2759TIP3    H229837  -0.075   1.980   1.802  1.4463  0.7052  1.3508
 2760TIP3   OH229838   0.465   4.238   2.294  0.5053 -0.1530  0.3524
 2760TIP3    H129839   0.553   4.227   2.259  0.4263 -0.3076  0.1975
 2760TIP3    H229840   0.414   4.269   2.219  0.8537  1.9250  0.9116
 2761TIP3   OH229841   6.762   5.979   8.053  0.6773 -0.3050 -0.2195
 2761TIP3    H129842   6.854   5.967   8.078  0.4886 -0.2626  0.5222
 2761TIP3    H229843   6.766   6.026   7.969  1.3695 -2.7488 -1.6607
 2762TIP3   OH229844   1.003   3.656   1.000 -0.4347 -0.1519  0.0095
 2762TIP3    H129845   0.985   3.749   1.012 -0.0320  0.1603 -1.5073
 2762TIP3    H229846   1.086   3.642   1.046 -0.9410  0.0127  1.0047
 2763TIP3   OH229847   4.835   2.220   1.730  0.5760  0.7268  0.0362
 2763TIP3    H129848   4.759   2.177   1.769  0.9556  0.9271  1.0486
 2763TIP3    H229849   4.839   2.305   1.774  1.2964  0.7749 -0.1120
 2764TIP3   OH229850   5.375   6.449   7.681  0.5506  0.1190 -0.2530
 2764TIP3    H129851   5.406   6.385   7.616  0.0222 -0.6605  0.2471
 2764TIP3    H229852   5.366   6.530   7.631 -0.0623 -0.5156 -1.2208
 2765TIP3   OH229853   4.365   4.377   1.032  0.2387  0.3690 -0.6493
 2765TIP3    H129854   4.362   4.313   1.104 -0.8015  2.1500  0.9957
 2765TIP3    H229855   4.431   4.440   1.059 -0.6413  1.4287 -0.8799
 2766TIP3   OH229856   0.018   3.522   8.523 -0.3636 -0.0860  0.2807
 2766TIP3    H129857  -0.040   3.560   8.589  1.2676  0.2152  1.5973
 2766TIP3    H229858   0.014   3.584   8.450  2.5878  3.1441  2.5429
 2767TIP3   OH229859   2.085   0.596   0.179 -0.6579 -0.4546 -0.3006
 2767TIP3    H129860   2.095   0.505   0.207  1.9280  0.5101  2.3516
 2767TIP3    H229861   2.173   0.623   0.153 -1.3260  1.3942 -0.7776
 2768TIP3   OH229862   4.525   0.044   7.151 -0.3343  0.3271 -0.2730
 2768TIP3    H129863   4.485  -0.023   7.207 -2.2127  2.1596  0.7248
 2768TIP3    H229864   4.583   0.093   7.209  0.4576  0.0440 -0.8149
 2769TIP3   OH229865   3.704   0.161   0.180  0.2019  0.3213 -0.0103
 2769TIP3    H129866   3.648   0.194   0.250 -2.7558  0.3533 -2.1743
 2769TIP3    H229867   3.763   0.099   0.223 -1.3870  0.4069  2.5067
 2770TIP3   OH229868   1.668   2.721   0.381 -0.8645  0.0279 -0.0587
 2770TIP3    H129869   1.602   2.725   0.450  0.2295 -0.7753  1.0626
 2770TIP3    H229870   1.628   2.769   0.308 -2.8755 -0.8136  0.4091
 2771TIP3   OH229871   2.074   3.736   6.263  0.2231  0.0031  0.2016
 2771TIP3    H129872   2.080   3.644   6.287 -0.2842  0.3952  2.0311
 2771TIP3    H229873   2.060   3.781   6.346 -0.7032  1.6186 -0.7780
 2772TIP3   OH229874   0.568   4.440   7.552  0.1058  0.6239  0.8700
 2772TIP3    H129875   0.500   4.444   7.620 -1.7287  1.2596 -0.9179
 2772TIP3    H229876   0.581   4.346   7.537 -1.0483  0.4955  0.6016
 2773TIP3   OH229877   5.764   2.965   0.330 -0.1420 -0.0182  0.7118
 2773TIP3    H129878   5.672   2.992   0.323  0.4844  2.3928  0.9964
 2773TIP3    H229879   5.760   2.871   0.350 -2.6119  0.4914  3.1898
 2774TIP3   OH229880   6.297   1.458   7.220  0.5410 -0.2591  0.1706
 2774TIP3    H129881   6.247   1.456   7.138  0.5798  1.4716  0.0576
 2774TIP3    H229882   6.347   1.539   7.214  1.6406 -0.8394  1.2931
 2775TIP3   OH229883   4.000   5.684   6.475 -0.3877  0.2784 -0.0724
 2775TIP3    H129884   4.041   5.736   6.406 -0.7462  1.0507  0.2815
 2775TIP3    H229885   3.908   5.711   6.474 -0.1534  1.2305  1.5222
 2776TIP3   OH229886   2.951   1.693   8.072 -0.0215 -0.3142 -0.0457
 2776TIP3    H129887   2.932   1.640   7.995 -0.9952  1.5817 -1.1854
 2776TIP3    H229888   3.011   1.640   8.124 -0.8218 -2.4206 -1.1846
 2777TIP3   OH229889   0.050   0.858   1.376 -0.0217 -0.5066 -0.0517
 2777TIP3    H129890   0.053   0.922   1.305  1.6248  0.2150  0.6329
 2777TIP3    H229891   0.095   0.781   1.340 -1.8701 -1.2884 -0.8216
 2778TIP3   OH229892   2.748   4.104   7.189  0.3018  0.0580 -0.0363
 2778TIP3    H129893   2.744   4.143   7.102  2.2996 -1.0983 -0.7052
 2778TIP3    H229894   2.696   4.023   7.181  0.2676  0.0828 -0.0658
 2779TIP3   OH229895   2.691   2.803   7.114  0.7301  0.1585 -0.2526
 2779TIP3    H129896   2.719   2.729   7.059  1.7594 -0.0683  0.5608
 2779TIP3    H229897   2.676   2.874   7.052  0.8610 -0.3912 -0.9291
 2780TIP3   OH229898   4.547   4.587   0.050 -0.3548  0.3777  0.1040
 2780TIP3    H129899   4.590   4.646   0.112  0.0217 -1.7258  1.9725
 2780TIP3    H229900   4.464   4.564   0.092 -0.1793 -0.9389 -0.2241
 2781TIP3   OH229901   6.488   1.608   1.115 -0.1034 -0.0058  0.7208
 2781TIP3    H129902   6.578   1.610   1.081 -0.5567  2.5657 -0.5494
 2781TIP3    H229903   6.438   1.560   1.049 -0.2314  1.4917 -0.3240
 2782TIP3   OH229904   5.490   1.872   2.046 -0.4052 -0.6928  0.1553
 2782TIP3    H129905   5.553   1.870   1.974 -0.3739  1.7841  0.0180
 2782TIP3    H229906   5.510   1.953   2.092 -1.9819 -1.0453  1.5423
 2783TIP3   OH229907   6.271   3.255   2.223 -0.3957  0.2864 -0.2814
 2783TIP3    H129908   6.325   3.332   2.206  0.9060 -0.3058  1.0215
 2783TIP3    H229909   6.201   3.288   2.279  0.2701  0.4908  0.4417
 2784TIP3   OH229910   6.324   3.283   0.550 -0.3138  0.7760  0.7897
 2784TIP3    H129911   6.272   3.363   0.539 -2.2207 -0.5459 -0.4805
 2784TIP3    H229912   6.382   3.281   0.474 -0.7377  0.6218  0.4693
 2785TIP3   OH229913   5.650   1.249   6.995 -0.3221  0.1868 -0.1582
 2785TIP3    H129914   5.672   1.163   7.029 -1.1252  0.4280  0.9996
 2785TIP3    H229915   5.707   1.260   6.918  0.5830 -0.8971  0.3455
 2786TIP3   OH229916   5.739   4.718   0.554 -0.3109 -0.2589 -0.1913
 2786TIP3    H129917   5.715   4.639   0.506  0.7077 -0.2505 -0.7424
 2786TIP3    H229918   5.754   4.688   0.644 -1.4520 -0.4057 -0.0300
 2787TIP3   OH229919   0.767   3.040   7.596  0.3705  0.4591 -0.0672
 2787TIP3    H129920   0.728   3.028   7.510  0.4471  0.8240 -0.1545
 2787TIP3    H229921   0.782   3.135   7.603  1.5827  0.2954 -0.1956
 2788TIP3   OH229922   0.198   3.115   7.675 -0.1939  0.0960 -0.0854
 2788TIP3    H129923   0.221   3.175   7.747 -1.2652  1.3236 -0.7244
 2788TIP3    H229924   0.163   3.172   7.607 -2.4009 -1.3664 -0.2724
 2789TIP3   OH229925   2.772   4.834   8.018  0.0528 -0.0484  0.5690
 2789TIP3    H129926   2.677   4.836   8.030 -0.2949  0.9898 -1.7446
 2789TIP3    H229927   2.801   4.923   8.041  0.4294 -0.2644  0.9506
 2790TIP3   OH229928   1.639   0.622   2.024 -0.3461 -0.3297 -0.3060
 2790TIP3    H129929   1.607   0.626   1.934  0.6361  1.1896 -0.6342
 2790TIP3    H229930   1.578   0.678   2.073  0.7338  1.1610 -0.6035
 2791TIP3   OH229931   3.553   2.502   0.699 -0.1694  0.1272  0.0607
 2791TIP3    H129932   3.466   2.528   0.729  0.3658  0.6105  1.2521
 2791TIP3    H229933   3.553   2.407   0.704 -0.4477  0.1530  0.6078
 2792TIP3   OH229934   1.814   2.146   7.162 -0.3673 -0.0584  0.0731
 2792TIP3    H129935   1.777   2.223   7.119  1.6725  0.4600 -0.8857
 2792TIP3    H229936   1.840   2.089   7.090  1.2139 -0.1135  0.6571
 2793TIP3   OH229937   4.540   4.485   8.406 -0.6498  0.1665  0.1472
 2793TIP3    H129938   4.555   4.513   8.497 -0.8512 -1.9292  0.8754
 2793TIP3    H229939   4.453   4.445   8.408 -0.0876 -1.1304 -0.6414
 2794TIP3   OH229940   0.969   5.959   7.319  0.1465 -0.5247 -0.9341
 2794TIP3    H129941   0.928   5.872   7.322  1.6320 -1.2617 -0.9655
 2794TIP3    H229942   0.912   6.014   7.373 -0.7336 -1.5584 -0.7642
 2795TIP3   OH229943   5.437   4.279   1.684  0.0843 -0.2595  0.1539
 2795TIP3    H129944   5.365   4.330   1.722 -0.4938 -0.0523 -1.1617
 2795TIP3    H229945   5.496   4.346   1.649  1.5853 -0.3736  2.2851
 2796TIP3   OH229946   1.998   6.846   0.641  0.0063  0.4560  0.2029
 2796TIP3    H129947   1.919   6.795   0.621  1.0936 -1.8913  1.4466
 2796TIP3    H229948   2.053   6.837   0.564  0.6225 -1.2164  0.8033
 2797TIP3   OH229949   5.626   2.483   0.712  0.1779 -0.4878 -0.1951
 2797TIP3    H129950   5.579   2.536   0.776  0.1689  1.5790 -1.8204
 2797TIP3    H229951   5.577   2.494   0.631  3.4641  2.1042 -2.0995
 2798TIP3   OH229952   1.702   6.746   6.510  0.0557 -0.1380  0.5286
 2798TIP3    H129953   1.714   6.727   6.604 -0.2189 -0.0952  0.5713
 2798TIP3    H229954   1.653   6.671   6.477 -0.7714  0.3522  0.6345
 2799TIP3   OH229955   3.234   1.760   0.780 -0.4882 -0.0339  0.3378
 2799TIP3    H129956   3.306   1.766   0.717 -2.0186  0.7520 -1.4380
 2799TIP3    H229957   3.275   1.774   0.865  1.3278  1.2933 -0.6834
 2800TIP3   OH229958   2.482   4.116   0.640  0.8452  0.2159  0.1979
 2800TIP3    H129959   2.426   4.163   0.702  1.8164  0.2605  1.0554
 2800TIP3    H229960   2.517   4.043   0.689  0.8533 -0.3231 -0.5915
 2801TIP3   OH229961   5.806   5.472   1.314 -0.3201  0.2818  0.0001
 2801TIP3    H129962   5.825   5.551   1.264 -0.7667 -1.0069 -2.3308
 2801TIP3    H229963   5.760   5.414   1.253 -0.6444 -1.5190  1.8212
 2802TIP3   OH229964   3.694   6.234   8.152 -0.3314  0.7388 -0.3587
 2802TIP3    H129965   3.631   6.163   8.164  1.2697 -0.5642  0.7118
 2802TIP3    H229966   3.764   6.196   8.098  0.8949  1.2582  0.8131
 2803TIP3   OH229967   4.298   4.912   0.646 -0.1143  0.0387  0.8027
 2803TIP3    H129968   4.293   4.822   0.615 -0.6895  0.8639 -1.7232
 2803TIP3    H229969   4.207   4.937   0.663 -0.1314  0.5896 -0.0196
 2804TIP3   OH229970   6.036   6.144   0.289  0.3020 -0.3957  0.0894
 2804TIP3    H129971   5.997   6.065   0.327  0.1577 -0.4867 -0.2511
 2804TIP3    H229972   6.091   6.179   0.359 -0.8421  0.0595  0.7933
 2805TIP3   OH229973   1.009   4.769   8.493 -0.2325  0.3107 -0.5187
 2805TIP3    H129974   0.937   4.787   8.433 -1.1521 -1.4703 -0.0448
 2805TIP3    H229975   0.991   4.824   8.569 -2.4075 -1.6347  0.5110
 2806TIP3   OH229976   3.634   5.671   7.747  0.5330 -0.5613  0.4954
 2806TIP3    H129977   3.602   5.628   7.667  0.1897  3.0473 -1.5138
 2806TIP3    H229978   3.603   5.616   7.818 -1.1712 -2.7325 -1.7505
 2807TIP3   OH229979   6.265   6.275   6.278  0.2940  0.2039 -0.9792
 2807TIP3    H129980   6.340   6.331   6.298 -0.5854  1.9034 -2.1913
 2807TIP3    H229981   6.216   6.271   6.360  0.2727  1.3999 -0.9148
 2808TIP3   OH229982   6.028   6.682   7.485  0.4583  0.3954  0.2995
 2808TIP3    H129983   6.109   6.646   7.446  1.2399  1.4761  0.8866
 2808TIP3    H229984   5.981   6.605   7.517  2.1759 -0.1484  1.6801
 2809TIP3   OH229985   5.912   1.913   8.047 -0.1600  0.2500  0.7129
 2809TIP3    H129986   5.977   1.982   8.036 -0.0691 -0.1470 -2.1294
 2809TIP3    H229987   5.830   1.952   8.016 -0.1549 -0.7777 -0.6964
 2810TIP3   OH229988   2.004   3.498   8.272  0.0307  0.4347 -0.1183
 2810TIP3    H129989   1.959   3.426   8.229 -0.4269 -0.5982  1.9369
 2810TIP3    H229990   2.089   3.503   8.230 -0.4727 -0.3540 -1.2540
 2811TIP3   OH229991   2.345   4.411   0.315 -0.1308 -0.7402 -0.2334
 2811TIP3    H129992   2.340   4.408   0.220 -1.7623 -0.4685 -0.1787
 2811TIP3    H229993   2.394   4.332   0.339  1.3700 -0.1760 -1.3349
 2812TIP3   OH229994   4.511   4.005   8.185 -0.2812 -0.7417  0.2904
 2812TIP3    H129995   4.492   4.095   8.158 -1.3439 -0.6700  1.1785
 2812TIP3    H229996   4.578   3.975   8.124  0.0412  0.6273 -0.0635
 2813TIP3   OH229997   5.158   2.039   1.354  0.1237  0.3693 -0.2507
 2813TIP3    H129998   5.216   2.108   1.385 -0.3936  1.2316 -1.1429
 2813TIP3    H229999   5.070   2.070   1.374 -0.2365  0.9328 -2.4040
 2814TIP3   OH230000   1.644   0.481   2.425 -0.3985 -0.0133 -0.4830
 2814TIP3    H130001   1.691   0.525   2.354 -0.8428 -0.2719 -0.9416
 2814TIP3    H230002   1.668   0.389   2.416  0.8591  0.1594  0.7283
 2815TIP3   OH230003   1.727   4.995   0.232 -0.1102  0.1103 -0.4436
 2815TIP3    H130004   1.819   5.013   0.214 -0.5864  0.5265 -2.6218
 2815TIP3    H230005   1.692   5.078   0.264  0.3346 -0.1688  0.8439
 2816TIP3   OH230006   2.280   1.487   1.397  0.0001  0.6329  0.2565
 2816TIP3    H130007   2.361   1.536   1.385 -1.2178  2.6725 -0.1580
 2816TIP3    H230008   2.250   1.511   1.485 -0.0565 -0.2881  0.4985
 2817TIP3   OH230009   1.634   5.342   0.098 -0.0235 -0.5148  0.3266
 2817TIP3    H130010   1.576   5.271   0.071 -1.8880  0.5795  1.2188
 2817TIP3    H230011   1.623   5.410   0.031  1.7484 -1.0153 -0.5258
 2818TIP3   OH230012   4.559   0.849   6.648 -0.0643  0.0243  0.0249
 2818TIP3    H130013   4.521   0.769   6.684 -1.5664  0.3098 -0.8742
 2818TIP3    H230014   4.653   0.829   6.642 -0.3006 -1.3818  0.5154
 2819TIP3   OH230015   1.741   6.066   7.253  0.5519  0.1798  0.4755
 2819TIP3    H130016   1.807   6.001   7.276  1.1046  0.0576 -1.2475
 2819TIP3    H230017   1.770   6.099   7.167 -1.5766  0.1813 -0.3043
 2820TIP3   OH230018   6.574   3.804   0.709 -0.4419  0.1686 -0.0195
 2820TIP3    H130019   6.579   3.897   0.684  0.4708  0.1997  0.2328
 2820TIP3    H230020   6.665   3.777   0.717 -0.7068 -0.6782  0.2074
 2821TIP3   OH230021   6.749   0.184   1.771 -0.4002  0.2190 -0.3621
 2821TIP3    H130022   6.737   0.251   1.838  2.6647 -0.0468  0.6274
 2821TIP3    H230023   6.755   0.233   1.689  0.0971  0.9984  0.1266
 2822TIP3   OH230024   4.628   3.980   0.054  0.4612 -0.0484  0.6399
 2822TIP3    H130025   4.601   3.891   0.075 -2.9916  0.4473 -0.8691
 2822TIP3    H230026   4.595   3.994  -0.035 -0.0354  3.0244  1.1995
 2823TIP3   OH230027   3.582   3.858   7.580 -0.3909 -0.2713  0.3361
 2823TIP3    H130028   3.653   3.892   7.527 -2.2535  1.8159 -0.9954
 2823TIP3    H230029   3.511   3.921   7.569 -2.1880 -1.7993  2.2604
 2824TIP3   OH230030   2.523   6.566   0.501  0.2301 -0.1311 -0.3292
 2824TIP3    H130031   2.508   6.661   0.506  1.3233  0.0468 -0.1938
 2824TIP3    H230032   2.547   6.550   0.410  0.4672 -0.2105 -0.2532
 2825TIP3   OH230033   3.101   4.982   1.333 -0.8364 -0.2648  0.0409
 2825TIP3    H130034   3.147   5.065   1.336 -1.4190  0.0630  0.1507
 2825TIP3    H230035   3.047   4.986   1.254 -0.2492 -0.8788 -0.3967
 2826TIP3   OH230036   2.903   2.426   7.179  0.6990 -0.2938  0.0292
 2826TIP3    H130037   2.918   2.447   7.271  0.8701  1.4030 -0.3511
 2826TIP3    H230038   2.972   2.363   7.158 -0.2774 -1.9317  1.4214
 2827TIP3   OH230039   3.408   6.492   1.395 -0.9585 -0.3570 -0.1913
 2827TIP3    H130040   3.501   6.500   1.415 -0.6617 -2.5007 -0.4261
 2827TIP3    H230041   3.368   6.569   1.435  0.4805 -1.0228  2.9036
 2828TIP3   OH230042   3.331   1.214   8.457  1.0687 -0.2172 -0.8110
 2828TIP3    H130043   3.274   1.291   8.453 -0.9452 -1.5210  0.6901
 2828TIP3    H230044   3.363   1.213   8.547  3.2147  0.2325 -1.5118
 2829TIP3   OH230045   1.077   2.697   6.743 -0.5150 -0.0121 -0.0724
 2829TIP3    H130046   1.113   2.611   6.725 -0.1959 -0.2998  1.8004
 2829TIP3    H230047   1.050   2.730   6.657  0.4476 -1.4658 -0.9681
 2830TIP3   OH230048   3.432   6.863   7.131  0.5446  0.0301 -1.0546
 2830TIP3    H130049   3.361   6.923   7.106 -0.5982  0.1886  2.1481
 2830TIP3    H230050   3.391   6.776   7.127  1.4570 -0.3566 -3.1949
 2831TIP3   OH230051   2.006   1.087   1.640  0.1676  0.3123 -0.0790
 2831TIP3    H130052   2.098   1.095   1.663 -0.3446  2.4416  1.6034
 2831TIP3    H230053   2.006   1.065   1.547  2.3482 -0.3654  0.0319
 2832TIP3   OH230054   0.480   3.348   0.643  0.5872 -0.0168 -0.6711
 2832TIP3    H130055   0.570   3.365   0.615  1.2617 -2.1217  0.0011
 2832TIP3    H230056   0.488   3.321   0.735 -0.6365 -0.9880 -0.8232
 2833TIP3   OH230057   4.076   5.804   7.448 -0.2472  0.0127 -0.2876
 2833TIP3    H130058   3.999   5.818   7.502  0.2759  0.5095  0.3298
 2833TIP3    H230059   4.101   5.891   7.417 -0.5477 -0.2586 -1.3545
 2834TIP3   OH230060   3.546   1.028   7.126  0.8895  0.0328  0.1721
 2834TIP3    H130061   3.622   1.032   7.068  0.7896  0.1066  0.0453
 2834TIP3    H230062   3.579   1.060   7.210  1.0384 -0.0875  0.1619
 2835TIP3   OH230063   2.768   5.095   7.800 -0.0357 -0.4288 -0.6513
 2835TIP3    H130064   2.750   5.187   7.818 -3.0859 -1.2067  1.0277
 2835TIP3    H230065   2.802   5.061   7.883  0.1798 -1.0013 -0.9717
 2836TIP3   OH230066   5.502   5.249   1.212  0.2215 -0.5838 -0.4107
 2836TIP3    H130067   5.487   5.156   1.197  1.1087 -0.6454 -0.9820
 2836TIP3    H230068   5.420   5.291   1.185  0.3481 -1.0713 -1.6289
 2837TIP3   OH230069   3.949   2.882   0.747  0.2700  0.0612  0.2491
 2837TIP3    H130070   3.948   2.970   0.785  0.1115  0.5749 -0.8837
 2837TIP3    H230071   3.863   2.846   0.769 -0.1646  0.6907 -0.3451
 2838TIP3   OH230072   3.321   3.390   7.414 -0.0772 -0.0544  0.3929
 2838TIP3    H130073   3.331   3.468   7.360  1.2992  1.3484  2.5192
 2838TIP3    H230074   3.408   3.352   7.417 -0.4428 -0.8995  0.5209
 2839TIP3   OH230075   5.338   0.444   1.727  0.0407 -0.4656  0.1585
 2839TIP3    H130076   5.365   0.425   1.637 -0.1208  0.4234 -0.0821
 2839TIP3    H230077   5.243   0.433   1.726  0.1253 -1.2598  0.4254
 2840TIP3   OH230078   3.080   5.186   7.923 -0.0190 -0.4416  0.2164
 2840TIP3    H130079   3.016   5.245   7.883  1.6455  0.7727 -0.7564
 2840TIP3    H230080   3.146   5.173   7.856  0.4710 -2.1633  0.9849
 2841TIP3   OH230081   4.446   1.483   2.274  0.2545 -0.0164 -0.9747
 2841TIP3    H130082   4.370   1.536   2.249 -0.9997 -0.9672  0.6735
 2841TIP3    H230083   4.478   1.524   2.354  0.5714 -0.5093 -0.8462
 2842TIP3   OH230084   6.822   3.563   7.105 -0.3330 -0.4732 -0.1104
 2842TIP3    H130085   6.809   3.632   7.171  2.6120  1.9988 -1.8537
 2842TIP3    H230086   6.758   3.584   7.036 -1.0394 -0.9524  0.3873
 2843TIP3   OH230087   2.084   0.235   8.350  0.3084  0.0614 -0.2801
 2843TIP3    H130088   2.137   0.314   8.354  1.9977 -0.9698 -0.8735
 2843TIP3    H230089   2.068   0.212   8.441  2.7359 -0.7013  0.0418
 2844TIP3   OH230090   0.889   0.708   1.928 -0.1402 -0.1369  0.2893
 2844TIP3    H130091   0.967   0.656   1.907 -0.7467 -0.2930 -1.7694
 2844TIP3    H230092   0.916   0.762   2.003  1.3042 -1.5866  0.8777
 2845TIP3   OH230093   0.117   0.845   6.750  0.4119 -0.2567 -0.0603
 2845TIP3    H130094   0.148   0.787   6.681 -1.3683  0.7040 -1.7720
 2845TIP3    H230095   0.023   0.826   6.757 -0.3726  2.6484 -1.0680
 2846TIP3   OH230096   1.562   5.610   7.571 -0.1302 -0.0690 -0.2033
 2846TIP3    H130097   1.585   5.521   7.545  0.5958 -0.3420  1.2678
 2846TIP3    H230098   1.483   5.600   7.624 -0.0977  0.1577 -0.1100
 2847TIP3   OH230099   2.835   1.784   1.292 -0.0039 -0.2542 -0.6918
 2847TIP3    H130100   2.754   1.767   1.244 -0.6054 -0.3061  0.3243
 2847TIP3    H230101   2.828   1.731   1.371  0.3611  0.8516  0.1097
 2848TIP3   OH230102   1.744   6.297   2.537  0.6208 -0.0036 -0.6903
 2848TIP3    H130103   1.832   6.335   2.534  0.4073  0.4600 -1.1794
 2848TIP3    H230104   1.686   6.371   2.554  0.3699 -0.3928  0.1980
 2849TIP3   OH230105   3.258   0.076   0.867 -0.2177  0.2645  0.0677
 2849TIP3    H130106   3.257  -0.016   0.841  1.2820 -0.2412  1.5937
 2849TIP3    H230107   3.320   0.117   0.807 -0.0123  0.0325  0.1202
 2850TIP3   OH230108   1.239   0.379   7.112  0.2446 -0.2991 -0.3731
 2850TIP3    H130109   1.282   0.303   7.150  0.7261 -1.1908 -2.5205
 2850TIP3    H230110   1.218   0.352   7.022 -1.7476  1.2814 -0.4602
 2851TIP3   OH230111   0.541   2.782   1.292 -0.1450  0.5823  0.5018
 2851TIP3    H130112   0.475   2.780   1.223 -1.0318 -0.2946  1.3340
 2851TIP3    H230113   0.572   2.872   1.293  1.0987  0.2995 -2.1092
 2852TIP3   OH230114   6.440   5.041   0.563 -0.1446  0.1275  0.2347
 2852TIP3    H130115   6.376   4.999   0.621  0.5435 -0.4246  0.6085
 2852TIP3    H230116   6.392   5.057   0.482 -0.2095 -2.2130 -0.2632
 2853TIP3   OH230117   1.662   1.181   1.595 -0.5992  0.1119 -0.4475
 2853TIP3    H130118   1.700   1.268   1.583 -0.6701  0.2738  0.4363
 2853TIP3    H230119   1.679   1.136   1.512  0.3071  0.6361 -0.5628
 2854TIP3   OH230120   4.352   4.740   1.928 -0.0222 -0.0990  0.1862
 2854TIP3    H130121   4.265   4.747   1.965  0.1496  2.0041  0.2838
 2854TIP3    H230122   4.411   4.736   2.004  0.1872  2.2340  0.2107
 2855TIP3   OH230123   4.425   1.959   8.649  0.5642  0.3048 -0.1714
 2855TIP3    H130124   4.438   1.864   8.651  0.6740  0.3064 -0.6772
 2855TIP3    H230125   4.364   1.973   8.576 -0.7418  0.4759  0.9262
 2856TIP3   OH230126   5.812   6.499   2.341 -0.2729  0.3133  0.2051
 2856TIP3    H130127   5.736   6.558   2.343 -0.1088  0.5113  1.7384
 2856TIP3    H230128   5.816   6.469   2.250 -1.5403  1.1310 -0.1556
 2857TIP3   OH230129   0.012   2.858   6.930 -0.3266  0.0272  0.0235
 2857TIP3    H130130   0.035   2.891   6.843  1.2520 -1.9981 -0.3938
 2857TIP3    H230131  -0.036   2.777   6.913 -0.3872 -0.1601  1.0492
 2858TIP3   OH230132   5.660   6.627   0.953 -0.4174 -0.1779  0.1661
 2858TIP3    H130133   5.724   6.654   0.888 -0.1504  0.4642  0.6911
 2858TIP3    H230134   5.621   6.708   0.984 -0.5405 -0.4819  0.8178
 2859TIP3   OH230135   0.522   0.306   0.693 -0.3832 -1.0097  0.1397
 2859TIP3    H130136   0.543   0.295   0.786  3.5019 -0.1775 -0.4639
 2859TIP3    H230137   0.483   0.393   0.688  0.6808 -0.4698  0.8575
 2860TIP3   OH230138   5.883   3.504   1.377  0.0808 -0.1050 -0.6649
 2860TIP3    H130139   5.799   3.545   1.394  0.2834 -1.0136  4.0140
 2860TIP3    H230140   5.873   3.460   1.293 -3.1803  1.8710 -1.4520
 2861TIP3   OH230141   1.814   2.252   0.560  0.3499  0.2481 -0.0794
 2861TIP3    H130142   1.802   2.164   0.524  0.9301  0.8318 -1.8003
 2861TIP3    H230143   1.871   2.238   0.636 -1.5354 -1.1115  1.1773
 2862TIP3   OH230144   5.054   1.829   0.495  0.2493 -0.2149  0.0268
 2862TIP3    H130145   5.008   1.910   0.472  0.2496 -0.3916 -0.6357
 2862TIP3    H230146   5.046   1.774   0.417  1.3825 -0.3418 -0.0227
 2863TIP3   OH230147   2.930   1.075   8.192  0.5460  0.0140 -0.0716
 2863TIP3    H130148   2.946   0.989   8.152 -0.7800  0.1803 -1.0432
 2863TIP3    H230149   3.016   1.118   8.191  0.8501 -0.5481 -1.4602
 2864TIP3   OH230150   5.271   6.172   1.315  0.1314  0.8516 -0.2416
 2864TIP3    H130151   5.208   6.243   1.323 -0.9044  0.1521 -1.6712
 2864TIP3    H230152   5.218   6.092   1.324  0.8302  0.2486 -1.2083
 2865TIP3   OH230153   4.024   3.525   0.517  0.2682  0.3781 -0.0043
 2865TIP3    H130154   3.993   3.472   0.590  0.8709  1.1993  0.8593
 2865TIP3    H230155   4.119   3.516   0.518  0.2435 -0.3001 -1.2408
 2866TIP3   OH230156   3.817   5.790   1.582 -0.1236 -0.3341  0.5522
 2866TIP3    H130157   3.828   5.842   1.502 -0.2004  1.5603  1.7058
 2866TIP3    H230158   3.741   5.735   1.563 -1.7434  1.8756  0.1305
 2867TIP3   OH230159   3.720   2.967   8.026  0.6878 -0.1979  0.3085
 2867TIP3    H130160   3.679   2.918   8.098  0.0894 -0.3251 -0.1034
 2867TIP3    H230161   3.781   2.904   7.986 -0.6059 -0.8903 -0.6741
 2868TIP3   OH230162   4.280   4.372   1.526 -0.3583  0.2210 -0.3850
 2868TIP3    H130163   4.266   4.282   1.556 -0.5700  0.4946  0.3686
 2868TIP3    H230164   4.306   4.419   1.604  0.4587  0.6727 -0.9187
 2869TIP3   OH230165   1.951   0.371   1.475  0.2686  0.6833 -0.0406
 2869TIP3    H130166   1.957   0.290   1.526 -1.0023 -1.0396 -2.4910
 2869TIP3    H230167   2.043   0.394   1.457  0.6436 -1.0227 -0.4869
 2870TIP3   OH230168   6.616   4.604   7.391  0.2307  0.5671  0.2277
 2870TIP3    H130169   6.612   4.547   7.314  1.3122  1.4972 -0.5591
 2870TIP3    H230170   6.679   4.672   7.367  1.0462  0.5620  2.1532
 2871TIP3   OH230171   5.288   3.658   1.671 -0.5269 -0.1702  0.0623
 2871TIP3    H130172   5.363   3.635   1.726  0.2086 -0.2741 -0.9435
 2871TIP3    H230173   5.243   3.727   1.719  1.3218  1.2781 -0.1753
 2872TIP3   OH230174   1.132   1.726   7.601  0.5830  0.0334  0.1536
 2872TIP3    H130175   1.038   1.715   7.585  0.3836  1.4353  0.2105
 2872TIP3    H230176   1.145   1.821   7.602  1.2099  0.0820  4.6065
 2873TIP3   OH230177   6.377   4.500   0.337  0.2373 -0.3267 -0.2375
 2873TIP3    H130178   6.442   4.530   0.275  1.5451 -1.1526  0.6892
 2873TIP3    H230179   6.310   4.457   0.283 -0.1423  1.4581 -1.2911
 2874TIP3   OH230180   0.661   2.264   1.150 -0.0877 -0.1827 -0.0291
 2874TIP3    H130181   0.625   2.178   1.131 -2.5542  0.8827 -0.6385
 2874TIP3    H230182   0.618   2.291   1.231 -0.1788  0.9165 -0.4315
 2875TIP3   OH230183   2.834   5.638   8.528  0.1657 -0.3399 -0.0376
 2875TIP3    H130184   2.767   5.595   8.581 -1.7921  2.7967  0.3414
 2875TIP3    H230185   2.895   5.674   8.592  0.8703 -1.1539 -0.2477
 2876TIP3   OH230186   0.650   0.643   2.043  0.1502 -0.0849 -0.0423
 2876TIP3    H130187   0.720   0.657   1.980 -0.0689 -1.6130 -0.6697
 2876TIP3    H230188   0.683   0.681   2.125  1.1596  0.3611 -0.6437
 2877TIP3   OH230189   5.087   0.410   7.768 -0.3119 -0.5935  0.1753
 2877TIP3    H130190   5.124   0.455   7.692  0.8013 -0.5942  0.7014
 2877TIP3    H230191   5.043   0.479   7.817 -1.5387 -0.6855 -0.7328
 2878TIP3   OH230192   4.191   6.130   0.515 -0.2649  0.2582  0.2181
 2878TIP3    H130193   4.141   6.212   0.519 -1.1397 -0.2306 -0.3179
 2878TIP3    H230194   4.173   6.088   0.599 -0.2466  0.3804  0.2832
 2879TIP3   OH230195   0.452   0.739   0.219  0.1961 -0.5867 -0.4832
 2879TIP3    H130196   0.522   0.802   0.204  0.4764 -0.0830  2.3971
 2879TIP3    H230197   0.372   0.791   0.221  0.2918 -0.4728  0.7423
 2880TIP3   OH230198   0.107   4.319   6.978 -0.6589  0.0191 -0.3562
 2880TIP3    H130199   0.087   4.326   6.885 -0.9925  0.0894 -0.2809
 2880TIP3    H230200   0.059   4.391   7.019  0.2531  0.5839 -0.2391
 2881TIP3   OH230201   0.465   1.901   7.861  0.7367 -0.6745  0.0332
 2881TIP3    H130202   0.553   1.938   7.848  1.0157  0.3691  3.8225
 2881TIP3    H230203   0.480   1.820   7.908 -0.3220 -0.9226 -0.0403
 2882TIP3   OH230204   4.176   5.034   6.841  0.5627 -0.2613 -0.7561
 2882TIP3    H130205   4.175   5.064   6.750 -0.3710 -1.1400 -1.0643
 2882TIP3    H230206   4.140   4.945   6.837  0.5198 -0.3195  0.4770
 2883TIP3   OH230207   0.547   2.419   0.913  0.7088  0.4758 -0.3180
 2883TIP3    H130208   0.546   2.370   0.996  0.7695 -1.5926 -1.4917
 2883TIP3    H230209   0.470   2.388   0.866  2.3385 -0.7338 -2.3159
 2884TIP3   OH230210   4.351   0.561   1.447  0.0936 -0.2687  0.0730
 2884TIP3    H130211   4.411   0.635   1.458  0.9166 -0.9378  0.2338
 2884TIP3    H230212   4.375   0.523   1.363  0.4800 -1.0414  0.5181
 2885TIP3   OH230213   4.790   3.686   0.331 -0.0602  0.0388 -0.3613
 2885TIP3    H130214   4.794   3.590   0.329  0.6425  0.0595 -2.0429
 2885TIP3    H230215   4.841   3.713   0.254 -2.8981  1.6678 -1.8376
 2886TIP3   OH230216   5.604   3.417   7.755 -0.0293  1.0719  0.0892
 2886TIP3    H130217   5.512   3.429   7.779 -0.7666 -1.8226 -0.9662
 2886TIP3    H230218   5.602   3.393   7.662  1.9506  2.2658 -0.3323
 2887TIP3   OH230219   6.822   5.415   0.723 -0.1345  0.2186  0.0436
 2887TIP3    H130220   6.903   5.438   0.768 -1.0817  1.2715  1.2876
 2887TIP3    H230221   6.754   5.425   0.789 -1.3304 -0.2998 -1.0652
 2888TIP3   OH230222   5.238   4.344   1.966  0.3397 -0.1305 -0.6140
 2888TIP3    H130223   5.200   4.403   2.031  1.2271 -0.1615 -0.0436
 2888TIP3    H230224   5.331   4.367   1.965  0.4220 -0.4567 -1.5368
 2889TIP3   OH230225   6.514   4.587   8.223  0.1476  0.0326  0.3228
 2889TIP3    H130226   6.582   4.646   8.191 -0.8509 -0.5045 -3.2073
 2889TIP3    H230227   6.551   4.500   8.212  0.8983 -0.2182  3.7560
 2890TIP3   OH230228   0.719   5.953   8.009  0.1501  0.1208  0.5033
 2890TIP3    H130229   0.629   5.958   8.042 -0.0440 -0.1384  0.0215
 2890TIP3    H230230   0.726   6.024   7.946  0.2917  0.1560  0.5589
 2891TIP3   OH230231   6.638   5.962   0.707 -0.4828  0.0068  0.2167
 2891TIP3    H130232   6.549   5.966   0.741 -0.7639 -1.2597 -0.2803
 2891TIP3    H230233   6.677   6.046   0.729 -1.6122  0.3519  0.9647
 2892TIP3   OH230234   5.217   4.543   0.008  0.2306  0.0893 -0.0973
 2892TIP3    H130235   5.181   4.552   0.096 -1.9367 -0.8336 -0.8053
 2892TIP3    H230236   5.301   4.500   0.020  0.0129  0.0623  1.5264
 2893TIP3   OH230237   1.877   3.326   1.360 -0.7200  0.6618 -0.3183
 2893TIP3    H130238   1.968   3.305   1.380 -0.1861 -1.2211 -3.8262
 2893TIP3    H230239   1.869   3.419   1.380  1.9615  0.8691  0.1948
 2894TIP3   OH230240   1.110   0.896   7.810  0.2959  0.1068  0.0832
 2894TIP3    H130241   1.089   0.953   7.884 -1.2350 -1.3058  0.7857
 2894TIP3    H230242   1.119   0.955   7.736  1.5265  1.5305  1.2923
 2895TIP3   OH230243   2.959   5.839   7.942 -0.1701  0.1622 -0.4716
 2895TIP3    H130244   2.995   5.917   7.983  1.0189  0.5231 -2.1192
 2895TIP3    H230245   2.947   5.863   7.851 -1.5061 -1.0241 -0.6371
 2896TIP3   OH230246   2.088   6.506   1.574 -0.2763  0.5766 -0.4001
 2896TIP3    H130247   2.076   6.539   1.484  1.8754  0.4195 -0.7902
 2896TIP3    H230248   2.028   6.432   1.580  0.5446 -0.3209 -2.2438
 2897TIP3   OH230249   1.947   5.380   8.587 -0.2193  0.0108  0.0557
 2897TIP3    H130250   1.986   5.352   8.670  1.8804 -1.5230 -1.3476
 2897TIP3    H230251   1.884   5.311   8.565  0.4656 -0.4716 -0.4234
 2898TIP3   OH230252   0.132   0.069   7.736 -0.0989 -0.2619 -0.8781
 2898TIP3    H130253   0.065   0.019   7.689 -0.8986 -0.0232 -0.0139
 2898TIP3    H230254   0.195   0.094   7.668 -0.5674 -1.0035 -1.6004
 2899TIP3   OH230255   6.040   3.129   8.058  0.6816  0.0636 -0.5181
 2899TIP3    H130256   6.028   3.197   7.992 -0.8171  0.5232  0.1783
 2899TIP3    H230257   6.010   3.048   8.016  0.5005  0.2050 -0.6567
 2900TIP3   OH230258   0.665   6.658   0.768 -0.0667  0.5278 -0.0591
 2900TIP3    H130259   0.615   6.739   0.756 -1.3059 -0.2034 -0.0808
 2900TIP3    H230260   0.678   6.624   0.680  0.8236  0.8998 -0.0817
 2901TIP3   OH230261   1.296   3.100   1.824 -0.3089 -0.5052 -0.0705
 2901TIP3    H130262   1.268   3.021   1.870  1.2571 -0.3460  1.2522
 2901TIP3    H230263   1.384   3.117   1.857  0.6838 -0.0307 -2.7120
 2902TIP3   OH230264   5.806   2.356   2.602  0.5737 -0.5071  0.3261
 2902TIP3    H130265   5.786   2.364   2.695 -0.7935  1.0199 -0.0454
 2902TIP3    H230266   5.810   2.447   2.571  1.1857 -0.9895 -1.0773
 2903TIP3   OH230267   0.518   2.078   2.203  0.2809 -0.4320 -0.7033
 2903TIP3    H130268   0.476   2.014   2.146 -0.8177 -0.8762  0.5549
 2903TIP3    H230269   0.522   2.035   2.289  1.0827  0.5490 -0.2244
 2904TIP3   OH230270   3.787   1.764   7.517 -0.0066 -0.0070  0.2245
 2904TIP3    H130271   3.882   1.759   7.511 -0.0913 -1.4415 -0.2039
 2904TIP3    H230272   3.771   1.836   7.578  1.3675 -0.4139  1.1215
 2905TIP3   OH230273   0.046   4.271   1.093  0.0448  0.1820  0.2930
 2905TIP3    H130274   0.094   4.188   1.101  0.3077  0.3515  0.4732
 2905TIP3    H230275   0.103   4.327   1.041 -0.5649 -0.0742 -0.6841
 2906TIP3   OH230276   5.797   1.347   1.782 -0.2974  0.3901 -0.1296
 2906TIP3    H130277   5.731   1.336   1.713  1.5796  0.8662 -2.1246
 2906TIP3    H230278   5.859   1.410   1.745  0.2757  1.4739  2.4518
 2907TIP3   OH230279   2.590   3.882   8.043  0.0273  0.4157  0.2660
 2907TIP3    H130280   2.632   3.918   7.964 -0.1966  1.0753  0.4441
 2907TIP3    H230281   2.659   3.829   8.084  0.5482  1.0951  0.2965
 2908TIP3   OH230282   5.375   1.425   2.064  0.2156 -0.2722  0.7161
 2908TIP3    H130283   5.361   1.514   2.095 -1.1217  0.4308 -1.6442
 2908TIP3    H230284   5.469   1.421   2.044  0.4215  0.3374  1.5182
 2909TIP3   OH230285   1.455   4.857   8.187 -0.2293  0.1847  0.3201
 2909TIP3    H130286   1.419   4.796   8.252  0.6073 -0.3319  0.3058
 2909TIP3    H230287   1.549   4.843   8.190 -0.1840  0.1151 -1.0550
 2910TIP3   OH230288   3.733   2.282   1.407  0.1989 -0.0200 -0.4205
 2910TIP3    H130289   3.739   2.250   1.498 -0.7871  0.1152 -0.3019
 2910TIP3    H230290   3.802   2.234   1.361  1.4425  0.6959  0.6135
 2911TIP3   OH230291   5.452   4.997   1.120 -0.2938 -0.4590  0.0748
 2911TIP3    H130292   5.490   4.930   1.063 -0.6450 -0.1423 -0.5487
 2911TIP3    H230293   5.429   4.950   1.200 -0.8108 -1.1603 -0.4696
 2912TIP3   OH230294   3.813   2.533   7.571 -0.0711  0.3825  0.3020
 2912TIP3    H130295   3.840   2.544   7.662  1.1719 -0.7505  0.0862
 2912TIP3    H230296   3.783   2.443   7.566  0.5885  0.2036 -0.5786
 2913TIP3   OH230297   6.343   0.315   1.717  0.4436  0.4288 -0.1762
 2913TIP3    H130298   6.424   0.365   1.710  0.6301  0.1186 -0.2271
 2913TIP3    H230299   6.304   0.343   1.800  0.0317  1.4260 -0.6905
 2914TIP3   OH230300   6.026   1.839   1.618 -0.1621 -0.1698  0.0327
 2914TIP3    H130301   6.025   1.897   1.694 -1.3388  0.5073 -0.4639
 2914TIP3    H230302   5.935   1.811   1.608  0.5513 -3.0463  0.9281
 2915TIP3   OH230303   1.669   4.633   1.961 -0.6284  0.8233 -0.2184
 2915TIP3    H130304   1.726   4.610   1.888 -0.0286  1.3916  0.0620
 2915TIP3    H230305   1.640   4.549   1.996  0.5944  0.4957  0.0604
 2916TIP3   OH230306   1.723   2.841   0.839  0.4611 -0.2052 -0.1908
 2916TIP3    H130307   1.666   2.765   0.847 -0.0109  0.1123 -0.4951
 2916TIP3    H230308   1.679   2.898   0.775  0.1540  0.8942  0.9547
 2917TIP3   OH230309   5.802   0.740   7.161 -0.4538 -0.5448  0.4935
 2917TIP3    H130310   5.748   0.729   7.240 -1.4551 -0.4887 -0.1677
 2917TIP3    H230311   5.796   0.656   7.116  0.3241 -0.6595  0.5879
 2918TIP3   OH230312   6.742   5.951   2.479  0.0555  0.5583 -0.8745
 2918TIP3    H130313   6.728   5.856   2.471 -1.4559  0.5455  1.1253
 2918TIP3    H230314   6.837   5.961   2.474  0.4182 -1.3509  0.8892
 2919TIP3   OH230315   2.527   0.501   7.302 -0.3450 -0.1373 -0.3094
 2919TIP3    H130316   2.494   0.523   7.389  0.9086  0.6541 -0.0213
 2919TIP3    H230317   2.469   0.431   7.272  0.1554 -1.5532  1.8136
 2920TIP3   OH230318   4.091   5.328   8.545  0.2120 -0.4671 -0.3223
 2920TIP3    H130319   4.109   5.395   8.611  0.8990 -0.6405 -0.3202
 2920TIP3    H230320   4.154   5.258   8.564  0.6474 -0.3798 -1.3459
 2921TIP3   OH230321   2.188   0.885   6.204 -0.2251  0.0951 -0.3953
 2921TIP3    H130322   2.204   0.975   6.234 -0.5203 -0.2429  0.8440
 2921TIP3    H230323   2.262   0.865   6.147  0.0361  0.9922 -0.3870
 2922TIP3   OH230324   4.448   0.499   2.484 -0.6600  0.0725  0.1758
 2922TIP3    H130325   4.369   0.541   2.450 -0.6713  1.0263  1.3129
 2922TIP3    H230326   4.460   0.422   2.429 -1.7635  0.5082 -0.7070
 2923TIP3   OH230327   5.197   2.055   7.346  0.0256 -0.1909  0.1451
 2923TIP3    H130328   5.171   1.995   7.276 -1.2470  0.4352  0.0498
 2923TIP3    H230329   5.123   2.054   7.407  1.0876 -0.7023  1.4999
 2924TIP3   OH230330   6.038   3.464   0.612 -0.3555 -0.0995 -0.3981
 2924TIP3    H130331   6.029   3.547   0.659  1.0103  0.7580 -1.5867
 2924TIP3    H230332   6.043   3.398   0.682  0.5506  1.0277  0.6616
 2925TIP3   OH230333   4.629   2.948   7.829 -0.5381  0.1432 -0.2030
 2925TIP3    H130334   4.674   2.944   7.914 -0.5596 -2.5346 -0.2474
 2925TIP3    H230335   4.675   2.885   7.774 -2.3695 -0.3741 -1.2367
 2926TIP3   OH230336   6.104   0.064   7.176  0.1017  0.3469 -0.0388
 2926TIP3    H130337   6.107  -0.019   7.129 -1.0605  0.9175 -1.1623
 2926TIP3    H230338   6.180   0.113   7.143  0.3678  0.0238  0.0874
 2927TIP3   OH230339   5.297   0.033   7.862 -0.2782 -0.8124 -0.5989
 2927TIP3    H130340   5.280   0.066   7.774 -0.5966 -1.6236 -0.8445
 2927TIP3    H230341   5.310   0.112   7.915  0.1221 -0.3287 -1.4088
 2928TIP3   OH230342   2.969   0.094   7.161 -0.1497  0.3408  0.4896
 2928TIP3    H130343   2.968   0.180   7.120  1.6086  0.1505 -0.0599
 2928TIP3    H230344   2.879   0.062   7.154 -0.7409  1.9566  0.3595
 2929TIP3   OH230345   3.183   0.872   7.936 -0.4709  0.2706 -0.1310
 2929TIP3    H130346   3.252   0.809   7.954 -1.0424 -0.2657  0.2364
 2929TIP3    H230347   3.221   0.932   7.872  0.7782  0.7817  1.0430
 2930TIP3   OH230348   5.046   2.812   7.176 -0.3127  0.2757  0.0373
 2930TIP3    H130349   5.109   2.763   7.123  0.0844 -0.8744  1.5088
 2930TIP3    H230350   4.983   2.847   7.113  0.6797 -0.2470 -1.2708
 2931TIP3   OH230351   2.688   5.607   7.778 -0.2394 -0.0507 -0.1520
 2931TIP3    H130352   2.778   5.631   7.799 -0.5106  0.5491  0.3317
 2931TIP3    H230353   2.677   5.519   7.815 -0.7010  0.9538  2.3327
 2932TIP3   OH230354   6.781   1.898   0.581  0.4883 -0.0688  0.2883
 2932TIP3    H130355   6.771   1.812   0.541  2.5359  0.1387 -0.8255
 2932TIP3    H230356   6.694   1.937   0.577 -0.8697 -2.6015  2.2077
 2933TIP3   OH230357   1.179   5.434   0.997  0.0924 -0.2316  0.1167
 2933TIP3    H130358   1.130   5.365   0.951  0.9554 -0.4187 -0.5408
 2933TIP3    H230359   1.267   5.429   0.960  0.9119 -0.5946  2.0102
 2934TIP3   OH230360   4.038   0.817   7.521  0.4642 -0.1324  0.3453
 2934TIP3    H130361   3.987   0.874   7.578 -0.4834  0.2197 -0.8258
 2934TIP3    H230362   4.059   0.741   7.576 -1.3198 -0.2970  0.8692
 2935TIP3   OH230363   6.498   5.746   1.844  0.2548  0.2286 -0.0682
 2935TIP3    H130364   6.496   5.708   1.756  0.8951  0.5460 -0.2281
 2935TIP3    H230365   6.573   5.705   1.886  0.1545  0.3297  0.2118
 2936TIP3   OH230366   1.161   4.738   1.583 -0.1504  0.4662  0.0574
 2936TIP3    H130367   1.071   4.749   1.612 -0.4260 -1.2313 -0.0693
 2936TIP3    H230368   1.214   4.763   1.659 -0.8387 -3.2523  1.9911
 2937TIP3   OH230369   1.375   5.009   2.299 -0.3238  0.2404  0.4349
 2937TIP3    H130370   1.424   5.082   2.261 -1.3385  0.7498  0.0587
 2937TIP3    H230371   1.284   5.030   2.282 -0.5999 -2.0310 -1.3726
 2938TIP3   OH230372   4.347   3.913   7.574 -0.2153  0.3306 -0.7586
 2938TIP3    H130373   4.431   3.945   7.607 -0.4426 -0.0663  0.2537
 2938TIP3    H230374   4.350   3.930   7.480  0.8813  0.5765 -0.6966
 2939TIP3   OH230375   2.734   5.944   8.131  0.0185 -0.2189 -0.1955
 2939TIP3    H130376   2.800   5.928   8.064 -0.7098 -0.3370 -0.8958
 2939TIP3    H230377   2.784   5.954   8.212  0.9173  0.0765 -0.7753
 2940TIP3   OH230378   1.538   4.336   0.335  0.7394  0.6647 -0.0496
 2940TIP3    H130379   1.628   4.358   0.310  1.3963 -3.2117 -2.0030
 2940TIP3    H230380   1.487   4.354   0.256  0.0803  1.3485  0.5230
 2941TIP3   OH230381   4.122   3.183   1.563  0.3680  0.2245  0.0949
 2941TIP3    H130382   4.194   3.221   1.614 -1.0979  1.9341  0.9909
 2941TIP3    H230383   4.047   3.185   1.622 -1.0143  0.8230 -1.5999
 2942TIP3   OH230384   3.051   3.390   1.788  0.4643  0.4754  0.1818
 2942TIP3    H130385   2.982   3.442   1.746  1.1189  2.0459  0.9654
 2942TIP3    H230386   3.100   3.353   1.715 -1.1579 -0.6866 -0.3937
 2943TIP3   OH230387   1.577   6.542   7.515 -0.1074  0.2917  0.5232
 2943TIP3    H130388   1.671   6.547   7.499  0.1556  0.8376  2.0164
 2943TIP3    H230389   1.552   6.632   7.537 -0.8722  0.0509  0.6780
 2944TIP3   OH230390   5.925   5.500   7.535 -0.2193  0.5607  0.3169
 2944TIP3    H130391   5.960   5.587   7.552 -0.7703  0.9143 -0.3269
 2944TIP3    H230392   5.846   5.494   7.589 -0.2787  0.5305  0.2280
 2945TIP3   OH230393   3.178   1.841   8.343 -0.0326  0.0374 -0.1987
 2945TIP3    H130394   3.125   1.829   8.422  0.8036  0.3621  0.4227
 2945TIP3    H230395   3.195   1.752   8.312  0.1525 -0.1254  0.3461
 2946TIP3   OH230396   4.888   2.880   0.457 -0.2504  0.0158  0.0229
 2946TIP3    H130397   4.822   2.867   0.526  0.5680 -1.7575  0.5302
 2946TIP3    H230398   4.964   2.915   0.504 -0.5055  1.1705 -0.4080
 2947TIP3   OH230399   6.536   6.263   7.642 -0.3102  0.1926 -0.1288
 2947TIP3    H130400   6.482   6.291   7.716  0.1660  0.3966  0.1449
 2947TIP3    H230401   6.478   6.268   7.566  0.1655  3.6399 -0.4267
 2948TIP3   OH230402   1.887   2.664   1.857  0.3427  0.2981  0.1016
 2948TIP3    H130403   1.907   2.724   1.928  1.2687 -0.3988  0.4429
 2948TIP3    H230404   1.842   2.591   1.899  1.3441 -0.3551  0.0614
 2949TIP3   OH230405   6.251   0.383   2.005  0.4232  0.5416  0.3396
 2949TIP3    H130406   6.180   0.362   2.066  0.8782 -1.4501  0.2571
 2949TIP3    H230407   6.312   0.436   2.056 -0.7399  1.6595  0.6211
 2950TIP3   OH230408   1.386   0.245   7.296 -0.2516  0.0558  0.3213
 2950TIP3    H130409   1.438   0.323   7.316  1.4617 -0.7392 -0.7363
 2950TIP3    H230410   1.447   0.172   7.307 -1.2040 -0.9486 -0.7494
 2951TIP3   OH230411   2.182   1.186   7.242 -0.3681  0.1259  0.2468
 2951TIP3    H130412   2.176   1.092   7.260 -1.9681  0.2352  0.4369
 2951TIP3    H230413   2.275   1.202   7.229  0.0463 -1.2934  1.2322
 2952TIP3   OH230414   4.317   5.596   8.157  0.4555  0.4101  0.1582
 2952TIP3    H130415   4.408   5.568   8.163  0.1651 -0.6323 -0.1239
 2952TIP3    H230416   4.267   5.515   8.145 -0.5600  0.9081  0.7919
 2953TIP3   OH230417   5.792   6.297   0.073 -0.3125  0.0140  0.2563
 2953TIP3    H130418   5.806   6.381   0.031 -1.6033  0.3762  0.4887
 2953TIP3    H230419   5.880   6.261   0.087  0.2698  1.4470  0.4271
 2954TIP3   OH230420   6.200   3.554   7.589  0.0831 -0.3258  0.4160
 2954TIP3    H130421   6.202   3.645   7.562 -5.7804  0.1723  0.4475
 2954TIP3    H230422   6.187   3.557   7.684  3.2853 -1.5195  1.0305
 2955TIP3   OH230423   5.530   2.096   1.244  0.1722  0.1329  0.1880
 2955TIP3    H130424   5.617   2.133   1.231 -0.2963  1.1197 -0.2345
 2955TIP3    H230425   5.530   2.016   1.191  0.8114  0.1332  0.1808
 2956TIP3   OH230426   4.426   0.402   1.231  0.2838 -0.5185 -0.1531
 2956TIP3    H130427   4.386   0.419   1.146 -0.8956 -2.5751 -0.0944
 2956TIP3    H230428   4.469   0.317   1.221  1.8334  0.1162  0.7684
 2957TIP3   OH230429   5.358   6.061   2.228  0.1391  0.2096 -0.7528
 2957TIP3    H130430   5.294   6.117   2.182 -0.2444  1.0721  0.7402
 2957TIP3    H230431   5.327   5.972   2.213 -0.8806  0.5670 -0.8708
 2958TIP3   OH230432   6.838   3.607   7.396  0.3229 -0.3009  0.3442
 2958TIP3    H130433   6.750   3.643   7.381  1.8976  3.8251 -0.3384
 2958TIP3    H230434   6.825   3.540   7.464 -3.0822  1.8769  2.1490
 2959TIP3   OH230435   1.890   2.611   7.808  0.6403  0.0558  0.6640
 2959TIP3    H130436   1.822   2.660   7.855  1.4623  0.9407  0.9651
 2959TIP3    H230437   1.874   2.519   7.832 -0.2363  0.2794  0.9921
 2960TIP3   OH230438   0.464   5.586   2.308 -0.8274 -0.9023 -0.1434
 2960TIP3    H130439   0.402   5.609   2.377  0.3487  0.7575  0.4091
 2960TIP3    H230440   0.516   5.665   2.295  1.0690 -2.1854 -0.7190
 2961TIP3   OH230441   1.913   2.098   1.124  0.2785 -0.2048 -0.0804
 2961TIP3    H130442   1.941   2.153   1.197  0.6853 -1.0787  0.4444
 2961TIP3    H230443   1.995   2.064   1.087  0.0645  0.0533 -0.8099
 2962TIP3   OH230444   3.159   5.264   0.708 -0.0204 -0.0402  0.9236
 2962TIP3    H130445   3.213   5.200   0.755 -0.2467 -1.1296 -0.2541
 2962TIP3    H230446   3.078   5.268   0.759 -0.7103 -2.0549  0.1067
 2963TIP3   OH230447   3.788   2.511   0.502 -0.2247  0.2474 -0.0032
 2963TIP3    H130448   3.710   2.472   0.541  0.5600 -0.9071  0.4673
 2963TIP3    H230449   3.861   2.476   0.553  0.8120 -0.8781 -2.0763
 2964TIP3   OH230450   4.724   6.356   8.403  0.2848 -0.3421 -0.2067
 2964TIP3    H130451   4.645   6.393   8.441 -0.0686  0.9670 -2.0610
 2964TIP3    H230452   4.698   6.269   8.373 -0.5167  0.1483 -0.9526
 2965TIP3   OH230453   2.553   1.534   6.285  0.1190  0.0203 -0.3912
 2965TIP3    H130454   2.459   1.517   6.292  0.1045  0.3853  0.3849
 2965TIP3    H230455   2.562   1.584   6.204 -0.3363 -0.1792 -0.5668
 2966TIP3   OH230456   1.187   1.755   0.197 -0.1610  0.6200  0.1314
 2966TIP3    H130457   1.157   1.665   0.181  0.3215  0.6255 -0.9085
 2966TIP3    H230458   1.143   1.781   0.278 -3.4849  0.8515 -1.5777
 2967TIP3   OH230459   5.412   2.154   1.870 -0.2064 -0.6644  0.1109
 2967TIP3    H130460   5.498   2.116   1.850 -0.0883  0.1018 -0.9303
 2967TIP3    H230461   5.430   2.218   1.938 -0.0433 -0.9079  0.2982
 2968TIP3   OH230462   0.811   4.845   8.288  0.1038  0.0964  0.2410
 2968TIP3    H130463   0.731   4.872   8.332  0.4905  1.4085  0.1788
 2968TIP3    H230464   0.805   4.883   8.200 -0.9617 -3.0074 -1.1748
 2969TIP3   OH230465   5.645   3.729   7.779 -1.2105 -0.0747  0.0825
 2969TIP3    H130466   5.584   3.721   7.852  1.1585 -0.2706  2.1775
 2969TIP3    H230467   5.651   3.641   7.743 -0.9473 -0.4165  0.9331
 2970TIP3   OH230468   1.117   1.619   1.032  0.1672 -0.2094 -0.7463
 2970TIP3    H130469   1.192   1.679   1.042 -0.8482  1.0483 -0.3676
 2970TIP3    H230470   1.095   1.624   0.938 -1.0091  1.4432 -0.4263
 2971TIP3   OH230471   4.166   5.784   0.472  0.0608 -0.0713 -0.5241
 2971TIP3    H130472   4.158   5.771   0.567  0.9037 -1.3305 -0.6099
 2971TIP3    H230473   4.095   5.730   0.435 -1.5565  1.9497 -0.5732
 2972TIP3   OH230474   0.353   3.649   2.156 -0.3035 -0.0896 -0.6783
 2972TIP3    H130475   0.267   3.650   2.113  0.5936 -1.5693 -2.6689
 2972TIP3    H230476   0.404   3.714   2.107  0.6597 -1.5988 -1.7473
 2973TIP3   OH230477   5.593   6.846   0.764 -0.2204 -0.0262  0.5551
 2973TIP3    H130478   5.546   6.860   0.682 -2.0127  1.6154  1.7812
 2973TIP3    H230479   5.604   6.751   0.768 -4.6233 -0.7330  0.6948
 2974TIP3   OH230480   5.806   2.517   6.684  0.6988 -0.5597  0.1602
 2974TIP3    H130481   5.862   2.582   6.640 -0.5825 -0.6790 -1.7943
 2974TIP3    H230482   5.757   2.475   6.612 -0.0898 -2.1775  1.5671
 2975TIP3   OH230483   5.943   4.052   7.793  0.6539  0.3029  0.1510
 2975TIP3    H130484   5.929   3.959   7.776  1.1066  0.1509  0.6106
 2975TIP3    H230485   5.887   4.097   7.729 -0.2180 -0.2883  0.4879
 2976TIP3   OH230486   2.620   3.233   1.485  0.1078  0.3209 -0.3550
 2976TIP3    H130487   2.660   3.202   1.566  0.0345 -0.9007 -0.7667
 2976TIP3    H230488   2.647   3.169   1.419  0.6110  1.5974 -1.4194
 2977TIP3   OH230489   0.569   0.252   7.868  0.0385  0.1746  0.0750
 2977TIP3    H130490   0.663   0.271   7.870  0.3169 -1.1284  2.6100
 2977TIP3    H230491   0.529   0.331   7.831  2.2236  0.0231 -3.0081
 2978TIP3   OH230492   2.493   3.963   6.476 -0.1733 -0.3608  0.4284
 2978TIP3    H130493   2.456   3.877   6.498 -0.2770  0.0418  1.9392
 2978TIP3    H230494   2.560   3.944   6.410 -0.4129 -1.5524  0.4978
 2979TIP3   OH230495   4.480   1.082   0.161  0.0479  0.0190 -0.1967
 2979TIP3    H130496   4.452   0.992   0.181 -1.7913  0.5384 -0.1816
 2979TIP3    H230497   4.521   1.112   0.242  2.4825 -1.3952 -0.8125
 2980TIP3   OH230498   6.706   3.909   1.327  0.2324 -0.0043  0.0379
 2980TIP3    H130499   6.700   3.929   1.421  0.6446  1.1595 -0.1690
 2980TIP3    H230500   6.795   3.878   1.315  0.3380  0.3330 -0.0536
 2981TIP3   OH230501   4.661   0.538   6.707 -0.9890  0.0386  0.2132
 2981TIP3    H130502   4.566   0.545   6.697 -0.8725  1.2027 -0.3662
 2981TIP3    H230503   4.696   0.595   6.637  0.1630 -1.5229 -0.5351
 2982TIP3   OH230504   1.912   4.351   7.251 -0.0679  0.3649  0.1372
 2982TIP3    H130505   1.894   4.445   7.252 -0.9823  0.2150 -0.6242
 2982TIP3    H230506   2.007   4.344   7.242 -0.0065  1.2182  0.0749
 2983TIP3   OH230507   0.582   2.503   7.328 -0.1219  0.1732 -0.4023
 2983TIP3    H130508   0.572   2.428   7.387  1.8252 -0.0889 -0.3399
 2983TIP3    H230509   0.505   2.499   7.272 -0.1609 -1.8163 -0.2989
 2984TIP3   OH230510   6.354   0.419   7.221  0.4559 -0.2286 -0.8061
 2984TIP3    H130511   6.339   0.326   7.201 -0.5921  0.2895 -2.6077
 2984TIP3    H230512   6.437   0.440   7.177  1.0631 -0.4497  0.1917
 2985TIP3   OH230513   5.883   4.453   8.616  0.5657  0.1314 -0.4158
 2985TIP3    H130514   5.836   4.462   8.533  0.1913  0.6892 -0.1547
 2985TIP3    H230515   5.945   4.382   8.602 -1.4026 -1.7220 -0.3053
 2986TIP3   OH230516   2.147   3.852   1.174 -0.6039  0.2975  0.6496
 2986TIP3    H130517   2.131   3.922   1.112 -1.6671 -0.2103  0.3186
 2986TIP3    H230518   2.088   3.782   1.147  1.1669 -1.1394  0.3245
 2987TIP3   OH230519   1.621   0.676   6.717 -0.1242  0.6170 -0.3153
 2987TIP3    H130520   1.597   0.762   6.682  0.1208  0.4651 -0.8826
 2987TIP3    H230521   1.707   0.657   6.678  0.1481  0.4204  0.3563
 2988TIP3   OH230522   2.289   2.334   7.676  0.1380  0.0971 -0.1176
 2988TIP3    H130523   2.225   2.272   7.641  0.5059 -0.5263  0.3088
 2988TIP3    H230524   2.239   2.389   7.736 -0.0648 -0.1633 -0.0496
 2989TIP3   OH230525   3.992   6.300   1.652 -0.0628 -0.3731 -0.4587
 2989TIP3    H130526   4.000   6.316   1.746 -0.4142  1.7116 -0.7353
 2989TIP3    H230527   4.062   6.352   1.612  0.6205 -1.8961 -1.3310
 2990TIP3   OH230528   2.100   6.679   7.266  0.2585  0.4518 -0.1630
 2990TIP3    H130529   2.080   6.689   7.173  1.0084  0.6224 -0.3064
 2990TIP3    H230530   2.157   6.603   7.271 -0.1034  0.1975  0.2099
 2991TIP3   OH230531   0.222   2.763   0.315  0.4227 -0.2862  0.1029
 2991TIP3    H130532   0.202   2.688   0.372 -0.3020  0.5896  1.0308
 2991TIP3    H230533   0.262   2.827   0.374  0.1180  0.4448 -0.4807
 2992TIP3   OH230534   5.089   2.363   1.196 -0.0774 -0.0042 -0.3358
 2992TIP3    H130535   5.179   2.332   1.204 -0.3272 -1.3249 -1.9894
 2992TIP3    H230536   5.084   2.399   1.108 -0.8873  1.1024  0.1428
 2993TIP3   OH230537   6.190   5.237   7.534  0.3759  0.4580 -0.3420
 2993TIP3    H130538   6.123   5.294   7.497 -1.2737 -0.9190  0.4037
 2993TIP3    H230539   6.212   5.177   7.462  2.8396  2.4962 -1.4592
 2994TIP3   OH230540   4.005   4.707   0.102 -0.2313 -0.0139  0.3846
 2994TIP3    H130541   4.017   4.776   0.167 -1.9823 -0.5468  1.3126
 2994TIP3    H230542   4.039   4.628   0.145 -0.5631 -0.2028  0.2964
 2995TIP3   OH230543   4.128   6.831   0.126 -0.0274  0.5376  0.0037
 2995TIP3    H130544   4.152   6.885   0.201  0.9990 -0.1913  0.2076
 2995TIP3    H230545   4.192   6.761   0.124 -1.2157 -0.5897 -0.3733
 2996TIP3   OH230546   2.278   6.166   6.761 -0.0648  0.3203  0.2034
 2996TIP3    H130547   2.317   6.220   6.692  0.5287 -0.3991 -0.0389
 2996TIP3    H230548   2.337   6.091   6.769 -0.7499 -0.1769  0.6992
 2997TIP3   OH230549   1.774   0.190   7.262  0.1728  0.1875  0.0908
 2997TIP3    H130550   1.845   0.156   7.316  0.0328  0.4635  0.4497
 2997TIP3    H230551   1.811   0.197   7.175  0.7413  0.8214  0.3753
 2998TIP3   OH230552   3.483   0.295   0.316  0.7053 -0.4201  0.3290
 2998TIP3    H130553   3.479   0.354   0.240 -3.1869  0.3856  0.9363
 2998TIP3    H230554   3.410   0.235   0.303  1.6528 -2.0663  2.1417
 2999TIP3   OH230555   1.940   4.261   0.414 -0.0263  0.2187 -0.4095
 2999TIP3    H130556   1.950   4.281   0.321  0.4835 -0.5053 -0.5192
 2999TIP3    H230557   1.864   4.313   0.442  0.7339  1.6387 -0.8583
 3000TIP3   OH230558   2.352   4.921   2.041  0.5543 -0.0862  0.2683
 3000TIP3    H130559   2.339   4.845   1.985  0.2286 -0.1089  0.3727
 3000TIP3    H230560   2.435   4.904   2.085  0.5071 -0.3604  0.2545
 3001TIP3   OH230561   0.392   0.073   1.449  0.2104 -0.5242  0.5332
 3001TIP3    H130562   0.317   0.034   1.403  0.1612  0.7605 -0.5452
 3001TIP3    H230563   0.428   0.137   1.387  2.5959 -1.5232  0.7664
 3002TIP3   OH230564   1.561   6.720   7.023 -0.1998  0.0810  0.0083
 3002TIP3    H130565   1.577   6.769   7.104 -0.2977  1.3779 -0.7303
 3002TIP3    H230566   1.474   6.682   7.035  0.2432 -0.6593  0.9506
 3003TIP3   OH230567   6.437   3.439   7.139  0.1273 -0.5696 -0.5874
 3003TIP3    H130568   6.452   3.476   7.226 -0.5916 -1.4201 -0.0780
 3003TIP3    H230569   6.462   3.508   7.078 -1.6241  0.9477  0.3210
 3004TIP3   OH230570   1.520   3.535   8.492 -0.4923 -0.4113  0.2192
 3004TIP3    H130571   1.509   3.473   8.564 -1.7354 -0.2917  0.1606
 3004TIP3    H230572   1.508   3.482   8.413  2.0882 -0.7920  0.0054
 3005TIP3   OH230573   2.944   2.615   0.610 -0.1037 -0.0376  0.4711
 3005TIP3    H130574   2.905   2.682   0.666  2.7535  1.2512  1.1048
 3005TIP3    H230575   2.886   2.611   0.534 -1.6743  1.4020  1.5213
 3006TIP3   OH230576   3.551   2.363   7.378  0.2397 -0.2285  0.1330
 3006TIP3    H130577   3.485   2.398   7.437  0.5127  0.8759 -0.1929
 3006TIP3    H230578   3.571   2.435   7.319  0.7029 -0.9983 -0.6725
 3007TIP3   OH230579   1.274   6.477   1.772  0.5131 -0.1814 -0.6214
 3007TIP3    H130580   1.185   6.498   1.745  0.3474 -1.1886 -0.8942
 3007TIP3    H230581   1.268   6.461   1.866 -0.1879 -3.0387 -1.0590
 3008TIP3   OH230582   6.187   4.163   7.749  0.0138 -0.3660  0.3448
 3008TIP3    H130583   6.118   4.123   7.802 -1.0004 -0.0983 -0.7385
 3008TIP3    H230584   6.151   4.166   7.660  0.3178  2.2977  0.2349
 3009TIP3   OH230585   5.098   3.960   1.368  0.4804  0.3674 -0.1136
 3009TIP3    H130586   5.125   4.018   1.439  0.3648  2.5775 -1.7459
 3009TIP3    H230587   5.172   3.961   1.307  0.4384 -1.1783 -0.2060
 3010TIP3   OH230588   3.672   2.763   0.790  0.3019  0.3520 -0.2182
 3010TIP3    H130589   3.689   2.767   0.884 -0.1515 -0.6092 -0.0730
 3010TIP3    H230590   3.647   2.671   0.775 -0.3549  0.6687 -1.1442
 3011TIP3   OH230591   6.210   5.514   1.490 -0.3615 -0.0656  0.5121
 3011TIP3    H130592   6.192   5.577   1.559  0.9135  0.2425  0.5814
 3011TIP3    H230593   6.239   5.567   1.416  0.1802 -0.5263  0.3886
 3012TIP3   OH230594   2.119   6.170   1.396 -0.0655  0.3953 -0.3111
 3012TIP3    H130595   2.133   6.265   1.397  2.8045  0.0478  0.4005
 3012TIP3    H230596   2.066   6.153   1.474  0.2120  1.3277  0.0960
 3013TIP3   OH230597   6.790   5.519   8.130 -0.2096  0.3968  0.1040
 3013TIP3    H130598   6.880   5.552   8.125 -0.3951  0.8388 -0.5310
 3013TIP3    H230599   6.776   5.476   8.045  0.3426 -2.2117  1.2436
 3014TIP3   OH230600   2.909   2.340   8.552  0.2364  0.3099  0.2146
 3014TIP3    H130601   2.857   2.264   8.578  0.6710 -0.3173 -0.6983
 3014TIP3    H230602   2.870   2.413   8.601 -0.4458 -0.4167  0.7980
 3015TIP3   OH230603   4.018   1.261   1.729  0.1582 -0.5282  0.7083
 3015TIP3    H130604   4.015   1.348   1.769  2.5341 -0.1877  0.3230
 3015TIP3    H230605   4.089   1.216   1.775 -0.1920 -1.8237  0.0373
 3016TIP3   OH230606   5.744   2.637   1.426 -0.4637 -0.0074  0.3157
 3016TIP3    H130607   5.782   2.595   1.349 -1.7692 -1.3008  0.3368
 3016TIP3    H230608   5.794   2.601   1.500 -0.1576  0.1339  0.1799
 3017TIP3   OH230609   2.336   3.860   7.078  0.8175 -0.1757 -0.4823
 3017TIP3    H130610   2.411   3.858   7.018  0.2060 -1.4998 -1.2471
 3017TIP3    H230611   2.351   3.786   7.136  1.2934  0.9732  0.9150
 3018TIP3   OH230612   1.857   5.878   1.353 -0.3190 -0.4003 -0.1516
 3018TIP3    H130613   1.778   5.901   1.401 -0.2300  2.7655 -1.2843
 3018TIP3    H230614   1.928   5.886   1.418 -0.6619 -0.6881  0.2613
 3019TIP3   OH230615   4.602   2.989   6.877  0.4507 -0.3220  0.1641
 3019TIP3    H130616   4.521   3.039   6.885  0.4272 -0.4522  0.7694
 3019TIP3    H230617   4.599   2.953   6.789  0.7882  1.3001 -0.5630
 3020TIP3   OH230618   2.931   1.401   1.209 -0.1036  0.1600  0.1264
 3020TIP3    H130619   2.897   1.430   1.294 -2.1145  3.2275 -1.5064
 3020TIP3    H230620   2.961   1.482   1.167 -0.8018 -0.9462 -2.7271
 3021TIP3   OH230621   3.445   2.927   0.663  0.3285  0.3295 -0.5338
 3021TIP3    H130622   3.407   2.968   0.585  0.1287  0.1276 -0.5435
 3021TIP3    H230623   3.498   2.854   0.628 -0.1677 -0.0774 -0.4540
 3022TIP3   OH230624   0.283   2.389   7.845  0.2033  0.3267 -0.4552
 3022TIP3    H130625   0.278   2.335   7.767 -0.4925 -0.3472  0.0363
 3022TIP3    H230626   0.302   2.328   7.916 -1.4653  0.5547  0.2477
 3023TIP3   OH230627   0.630   4.916   7.412 -0.1513 -0.0375 -0.1532
 3023TIP3    H130628   0.633   4.920   7.317 -3.0416 -0.4063 -0.3304
 3023TIP3    H230629   0.654   4.825   7.433 -2.5302 -0.8716 -0.7954
 3024TIP3   OH230630   3.039   1.794   7.711 -0.3535 -0.1648  0.0501
 3024TIP3    H130631   2.982   1.719   7.730 -0.4780 -0.3639 -1.0353
 3024TIP3    H230632   3.037   1.846   7.791 -4.3658  1.3330 -0.8104
 3025TIP3   OH230633   5.637   4.919   7.980  0.5422 -0.5852 -0.0513
 3025TIP3    H130634   5.678   4.846   8.026  1.5592 -1.1930 -1.8008
 3025TIP3    H230635   5.621   4.885   7.892 -0.9424  0.6419 -0.2926
 3026TIP3   OH230636   5.356   5.879   7.676 -0.5091  0.0622  0.5633
 3026TIP3    H130637   5.391   5.792   7.695  0.8223  0.2673 -0.7582
 3026TIP3    H230638   5.326   5.873   7.585 -0.6367  0.9118  0.5435
 3027TIP3   OH230639   6.824   3.284   1.588  0.5095  0.4066  0.2346
 3027TIP3    H130640   6.757   3.341   1.550 -1.0822 -1.0270  0.7668
 3027TIP3    H230641   6.839   3.218   1.520  0.6814  0.1874  0.4899
 3028TIP3   OH230642   1.619   1.686   0.445 -0.0443 -0.4128 -0.2687
 3028TIP3    H130643   1.580   1.770   0.421  0.0155 -0.3093  0.0009
 3028TIP3    H230644   1.713   1.704   0.454 -0.3942  0.3095  3.2584
 3029TIP3   OH230645   5.789   1.129   0.774 -0.0299  0.3984 -0.3423
 3029TIP3    H130646   5.818   1.220   0.778  2.8539 -0.1061 -4.1032
 3029TIP3    H230647   5.710   1.131   0.720 -0.7339  0.7411  0.6756
 3030TIP3   OH230648   2.100   6.068   0.660 -0.1801 -0.1200  0.1531
 3030TIP3    H130649   2.151   6.106   0.588 -0.9237 -1.0805 -0.9280
 3030TIP3    H230650   2.077   6.143   0.715 -0.1453  0.7499 -0.9727
 3031TIP3   OH230651   5.604   6.240   8.112 -0.1179  0.3494 -0.2192
 3031TIP3    H130652   5.637   6.278   8.194  0.2279  2.9486 -1.4610
 3031TIP3    H230653   5.678   6.243   8.052 -0.0357 -2.5778 -0.3891
 3032TIP3   OH230654   4.571   6.129   6.665 -0.1961  0.3047  0.6929
 3032TIP3    H130655   4.504   6.141   6.598  0.5523  0.7921  0.0186
 3032TIP3    H230656   4.546   6.190   6.735 -1.8419 -1.2813  1.5920
 3033TIP3   OH230657   4.544   1.891   1.393 -0.1871  0.8670  0.0208
 3033TIP3    H130658   4.605   1.836   1.345 -0.8033  1.0210 -0.9705
 3033TIP3    H230659   4.579   1.979   1.385  0.3250  0.7428  0.8485
 3034TIP3   OH230660   1.253   1.902   8.369  0.0950 -0.6267 -0.8222
 3034TIP3    H130661   1.332   1.880   8.418 -1.2072  0.8353  2.2618
 3034TIP3    H230662   1.185   1.844   8.406 -0.5834 -0.8792 -2.3867
 3035TIP3   OH230663   6.147   3.537   7.858  0.1755  0.2222 -0.2272
 3035TIP3    H130664   6.086   3.541   7.931 -1.3044 -0.7014 -1.3576
 3035TIP3    H230665   6.230   3.568   7.894 -0.7635  0.7931  1.5517
 3036TIP3   OH230666   4.925   4.647   7.983 -0.3437  0.4240 -0.8760
 3036TIP3    H130667   4.980   4.591   7.927  1.5175  0.6698  0.6157
 3036TIP3    H230668   4.965   4.642   8.069 -2.6991  0.6544  0.3269
 3037TIP3   OH230669   1.248   2.658   8.259 -0.4696  0.4736 -0.3580
 3037TIP3    H130670   1.173   2.718   8.261 -0.1358  0.8979  0.8779
 3037TIP3    H230671   1.211   2.574   8.233 -1.3600  0.7087  0.0755
 3038TIP3   OH230672   3.959   3.085   1.013 -0.0438 -0.1382 -0.0956
 3038TIP3    H130673   3.996   3.013   1.065  0.4692  0.7819  0.8445
 3038TIP3    H230674   3.968   3.162   1.069 -1.1154  0.5634 -0.8654
 3039TIP3   OH230675   4.119   3.483   7.722 -1.0285  0.2796  0.1442
 3039TIP3    H130676   4.155   3.403   7.682  0.2097  0.4052  0.9642
 3039TIP3    H230677   4.163   3.554   7.676 -2.2539  0.5271 -0.6999
 3040TIP3   OH230678   5.950   5.474   1.989 -0.1480  0.2231 -0.0131
 3040TIP3    H130679   5.868   5.498   2.032 -1.0317 -1.9918 -0.3225
 3040TIP3    H230680   6.006   5.440   2.059 -0.3729 -0.3930 -0.1276
 3041TIP3   OH230681   0.234   3.465   8.087 -0.0302  0.0990 -0.1486
 3041TIP3    H130682   0.171   3.396   8.065 -0.8338  1.0999 -1.1177
 3041TIP3    H230683   0.257   3.448   8.178 -1.5677 -0.4268  0.1769
 3042TIP3   OH230684   6.291   6.203   0.625 -0.5676  0.2089 -0.1310
 3042TIP3    H130685   6.326   6.227   0.711 -0.8677  1.2280 -0.2724
 3042TIP3    H230686   6.224   6.270   0.608  0.7834  1.1714 -1.9819
 3043TIP3   OH230687   4.585   0.790   1.963  0.0528  0.5320 -0.2889
 3043TIP3    H130688   4.667   0.747   1.938  1.5562  2.7245  0.5892
 3043TIP3    H230689   4.547   0.818   1.880  1.0240  0.8530 -0.6470
 3044TIP3   OH230690   5.361   5.746   8.211 -0.3914  0.0602 -0.4192
 3044TIP3    H130691   5.397   5.789   8.289 -1.1584 -0.2528  0.1117
 3044TIP3    H230692   5.436   5.697   8.176 -0.5058 -1.4724  1.2930
 3045TIP3   OH230693   6.822   4.974   1.769  0.1458  0.0324  0.3095
 3045TIP3    H130694   6.734   4.962   1.735  0.3427 -0.3783 -0.0622
 3045TIP3    H230695   6.810   5.008   1.858 -0.3767  1.2592 -0.2111
 3046TIP3   OH230696   5.433   1.941   7.437  0.0271  0.4419  0.1971
 3046TIP3    H130697   5.409   1.937   7.529  0.0424 -0.6902  0.1593
 3046TIP3    H230698   5.367   2.000   7.398 -1.2233 -0.6688  0.5615
 3047TIP3   OH230699   1.896   0.596   6.686  0.1180  0.1303  0.0498
 3047TIP3    H130700   1.934   0.524   6.636 -1.3686 -0.7500  0.1026
 3047TIP3    H230701   1.892   0.669   6.625  2.8517  0.6382  0.3616
 3048TIP3   OH230702   1.434   5.100   7.185  0.1777 -0.2771 -0.2186
 3048TIP3    H130703   1.450   5.016   7.227 -1.3277 -0.3143  0.3148
 3048TIP3    H230704   1.500   5.105   7.115  0.6341 -1.6301  0.0950
 3049TIP3   OH230705   1.850   5.001   6.718  0.1550  0.2195 -0.0248
 3049TIP3    H130706   1.890   5.086   6.700  1.2802 -0.2818  0.0574
 3049TIP3    H230707   1.872   4.982   6.809 -2.2802  0.9819  0.8190
 3050TIP3   OH230708   1.566   5.566   6.826  0.0177 -0.4944  1.0683
 3050TIP3    H130709   1.489   5.509   6.820  0.5456 -1.0475 -1.2262
 3050TIP3    H230710   1.640   5.508   6.806  0.9510  0.2841  2.1243
 3051TIP3   OH230711   6.150   1.673   8.003 -0.0425 -0.2399 -0.2144
 3051TIP3    H130712   6.082   1.685   7.937 -2.3699  0.7956  2.1990
 3051TIP3    H230713   6.121   1.597   8.054 -0.6170  1.4272  2.1243
 3052TIP3   OH230714   1.003   4.817   7.546 -0.3859 -0.1367 -0.4542
 3052TIP3    H130715   1.045   4.796   7.462 -1.4653  0.1776 -1.0929
 3052TIP3    H230716   1.039   4.902   7.569 -0.3825 -0.0360 -0.8149
 3053TIP3   OH230717   2.507   2.510   7.973 -0.0108  0.3866 -0.0290
 3053TIP3    H130718   2.477   2.473   8.056  1.0581  0.1212  0.2650
 3053TIP3    H230719   2.576   2.449   7.944  0.3417  1.0407 -0.5780
 3054TIP3   OH230720   6.306   0.740   0.354 -0.3115 -0.4802  0.2382
 3054TIP3    H130721   6.323   0.802   0.425  1.2246 -0.4363 -0.1379
 3054TIP3    H230722   6.362   0.770   0.282 -2.7360  0.2446 -1.4993
 3055TIP3   OH230723   0.429   2.228   2.609  0.4067 -0.2276  0.2073
 3055TIP3    H130724   0.411   2.286   2.535 -0.0326 -2.1467 -1.2704
 3055TIP3    H230725   0.344   2.212   2.649  0.3394 -0.8299 -0.1674
 3056TIP3   OH230726   4.903   2.690   1.715  0.4561 -0.9831 -0.0358
 3056TIP3    H130727   4.814   2.674   1.748  0.4442 -1.2283 -0.1913
 3056TIP3    H230728   4.958   2.630   1.766  0.4111 -1.5179 -0.6112
 3057TIP3   OH230729   0.765   1.641   8.557 -0.0951 -0.2053 -0.0965
 3057TIP3    H130730   0.741   1.566   8.503 -0.0347  0.4159 -1.0090
 3057TIP3    H230731   0.764   1.607   8.646  0.6207 -1.4693 -0.5397
 3058TIP3   OH230732   1.263   3.384   7.055 -0.0087  0.1150  0.0299
 3058TIP3    H130733   1.359   3.378   7.062 -0.0737 -0.0296  1.0000
 3058TIP3    H230734   1.232   3.295   7.073 -0.3342  0.2220  0.0009
 3059TIP3   OH230735   0.825   6.766   7.064  0.4729 -0.4319  0.1009
 3059TIP3    H130736   0.768   6.791   7.137 -3.6005 -1.7476 -2.2887
 3059TIP3    H230737   0.830   6.670   7.069 -1.9075 -0.8356 -2.4199
 3060TIP3   OH230738   2.661   6.633   8.055 -0.0185  1.1239  0.0144
 3060TIP3    H130739   2.633   6.626   7.964  2.8907 -0.4353 -0.9103
 3060TIP3    H230740   2.613   6.564   8.100 -1.7209  2.1077 -0.1998
 3061TIP3   OH230741   0.847   4.313   8.103  0.5632 -0.5236 -0.3613
 3061TIP3    H130742   0.856   4.222   8.077 -0.6502 -0.7676  0.0427
 3061TIP3    H230743   0.821   4.358   8.023  2.4707 -0.2595 -0.8988
 3062TIP3   OH230744   0.572   2.852   2.124  0.7767 -0.4755 -0.1208
 3062TIP3    H130745   0.491   2.895   2.099  1.3625  0.1886 -0.9437
 3062TIP3    H230746   0.552   2.758   2.120  0.0592 -0.3139 -0.3357
 3063TIP3   OH230747   0.813   4.123   8.585 -0.2671 -0.4481  0.2665
 3063TIP3    H130748   0.727   4.144   8.623 -1.1352 -1.9941 -0.7511
 3063TIP3    H230749   0.876   4.168   8.642 -1.7055  0.1866  1.4173
 3064TIP3   OH230750   4.187   1.992   7.410  0.4766 -0.0877 -0.1041
 3064TIP3    H130751   4.163   1.987   7.317 -0.2028  2.2450 -0.1309
 3064TIP3    H230752   4.273   2.034   7.410  0.4296  0.0118  0.3264
 3065TIP3   OH230753   3.436   2.038   8.400 -0.0781 -0.2467 -0.5134
 3065TIP3    H130754   3.481   1.954   8.395  0.9093  0.3126 -1.3315
 3065TIP3    H230755   3.501   2.099   8.434 -0.6235  0.2988 -0.4279
 3066TIP3   OH230756   6.734   1.509   2.289 -0.0879 -0.2891 -0.6300
 3066TIP3    H130757   6.710   1.425   2.330 -0.5050  0.7130  1.3286
 3066TIP3    H230758   6.829   1.504   2.280 -0.1075 -0.9768 -0.5506
 3067TIP3   OH230759   0.551   0.035   0.632  0.2393  0.1996  0.2116
 3067TIP3    H130760   0.595   0.049   0.548 -0.6787 -0.0998 -0.3464
 3067TIP3    H230761   0.513   0.120   0.654 -0.0122  0.1361  0.0252
 3068TIP3   OH230762   3.608   3.188   7.842  0.5208 -0.1108 -0.0006
 3068TIP3    H130763   3.636   3.202   7.932  0.4272 -1.0835  0.1900
 3068TIP3    H230764   3.684   3.215   7.789  1.0648 -0.7312  0.4331
 3069TIP3   OH230765   1.799   0.221   0.313  0.3027 -0.2110  0.2294
 3069TIP3    H130766   1.775   0.146   0.367 -1.1085  2.0377  2.9474
 3069TIP3    H230767   1.889   0.242   0.340 -0.3425  0.8084  1.6582
 3070TIP3   OH230768   4.750   0.329   8.460 -0.3647 -0.0438 -0.3212
 3070TIP3    H130769   4.810   0.296   8.527  0.8498 -1.1098 -1.8715
 3070TIP3    H230770   4.697   0.253   8.435 -2.4117  0.8581  0.9636
 3071TIP3   OH230771   0.231   3.340   7.337 -0.0696 -0.0240 -0.0553
 3071TIP3    H130772   0.261   3.400   7.268 -2.4583  0.2117 -0.9592
 3071TIP3    H230773   0.259   3.253   7.307  2.2287  0.4098  0.6083
 3072TIP3   OH230774   4.022   3.002   7.610  0.2548 -0.0055  0.4469
 3072TIP3    H130775   4.109   2.980   7.575  0.5715  0.7016  0.7804
 3072TIP3    H230776   3.963   2.941   7.566  1.0813 -1.3913  1.1806
 3073TIP3   OH230777   1.480   3.767   6.528 -0.3727  0.0917  0.5442
 3073TIP3    H130778   1.469   3.705   6.600 -1.7712  1.0186  1.1539
 3073TIP3    H230779   1.504   3.850   6.570 -0.3229  0.4306 -0.1337
 3074TIP3   OH230780   0.463   3.014   6.937 -0.3912 -0.5440 -0.6658
 3074TIP3    H130781   0.417   3.086   6.894 -1.9482 -1.2519 -0.2373
 3074TIP3    H230782   0.435   3.020   7.028  2.7882  0.8842  0.3595
 3075TIP3   OH230783   5.377   5.748   1.388  0.0610  0.0444 -0.5078
 3075TIP3    H130784   5.307   5.755   1.453  0.5915 -0.3009  0.1101
 3075TIP3    H230785   5.431   5.675   1.418 -0.7663 -1.4304 -2.3807
 3076TIP3   OH230786   4.223   2.924   1.059  0.3155  0.0364 -0.9651
 3076TIP3    H130787   4.238   2.938   0.965 -0.3061  1.9268 -0.8310
 3076TIP3    H230788   4.309   2.934   1.099  0.5793 -0.7472 -1.3203
 3077TIP3   OH230789   3.223   0.849   0.975 -0.3887 -0.4189 -0.2352
 3077TIP3    H130790   3.276   0.771   0.955  1.9789  0.3118  2.4981
 3077TIP3    H230791   3.217   0.895   0.891 -1.7325 -3.3364 -1.9090
 3078TIP3   OH230792   3.371   3.096   2.271 -0.4897  0.1470  0.0899
 3078TIP3    H130793   3.383   3.047   2.352 -0.2104 -0.3535 -0.2519
 3078TIP3    H230794   3.401   3.037   2.202  0.5125  1.0356 -0.2735
 3079TIP3   OH230795   0.576   5.715   1.235  0.7582 -0.9408  0.0131
 3079TIP3    H130796   0.610   5.630   1.260  0.0283 -1.2526 -0.0229
 3079TIP3    H230797   0.595   5.723   1.142 -1.9525 -2.4639 -0.7654
 3080TIP3   OH230798   3.544   2.284   0.201 -0.3003 -0.3250  0.1165
 3080TIP3    H130799   3.503   2.332   0.274  1.3390 -1.4804  1.9053
 3080TIP3    H230800   3.617   2.340   0.174 -0.4947 -0.2094 -0.1646
 3081TIP3   OH230801   1.332   3.236   8.481  0.1112 -0.3982 -0.0307
 3081TIP3    H130802   1.281   3.234   8.399 -0.0969  3.4347 -0.1584
 3081TIP3    H230803   1.272   3.271   8.546  0.6542 -2.2517  1.5751
 3082TIP3   OH230804   1.451   1.496   2.026 -0.3632 -0.5652 -0.1660
 3082TIP3    H130805   1.417   1.421   2.073  0.4988 -0.1404  1.2232
 3082TIP3    H230806   1.374   1.548   2.002 -0.8483 -1.0036  0.4332
 3083TIP3   OH230807   0.541   2.949   8.555 -0.0237 -0.0672  0.5107
 3083TIP3    H130808   0.559   2.895   8.478 -1.3824  0.0900  0.0533
 3083TIP3    H230809   0.565   2.894   8.629  0.8026 -0.4169  0.0001
 3084TIP3   OH230810   0.868   2.565   1.191  0.0228 -0.0241  0.2946
 3084TIP3    H130811   0.912   2.567   1.107  0.5067  0.3097  0.5554
 3084TIP3    H230812   0.801   2.633   1.185  0.3810  0.3313  0.3602
 3085TIP3   OH230813   6.189   5.533   6.583 -0.2146  0.1351  0.1813
 3085TIP3    H130814   6.268   5.542   6.636 -0.5240 -0.1463  0.6984
 3085TIP3    H230815   6.131   5.476   6.635 -1.1290  1.0846  0.2416
 3086TIP3   OH230816   1.434   1.356   1.601 -0.8096 -0.1521  0.0229
 3086TIP3    H130817   1.508   1.297   1.620 -0.5743 -0.0643 -0.5904
 3086TIP3    H230818   1.457   1.438   1.645  0.8638  0.8302 -2.4311
 3087TIP3   OH230819   5.738   0.911   1.202 -0.2463  0.0799 -0.2403
 3087TIP3    H130820   5.784   0.935   1.122 -1.4066  0.9964 -0.6690
 3087TIP3    H230821   5.648   0.942   1.188 -0.2945  0.9831  1.7070
 3088TIP3   OH230822   4.074   3.082   7.882  0.6681 -0.1639  0.2041
 3088TIP3    H130823   4.112   3.001   7.913  1.2347 -0.2942 -0.8124
 3088TIP3    H230824   4.049   3.065   7.791 -1.6805 -0.0413  0.7410
 3089TIP3   OH230825   6.773   5.859   8.443  0.0877 -0.0888  0.2383
 3089TIP3    H130826   6.822   5.940   8.428  0.4474 -0.5113 -0.9076
 3089TIP3    H230827   6.741   5.833   8.357 -1.5220 -0.2477  0.8406
 3090TIP3   OH230828   3.855   3.458   7.625 -0.7748 -0.2251  0.4818
 3090TIP3    H130829   3.937   3.459   7.673 -0.3118  2.0904 -0.2117
 3090TIP3    H230830   3.795   3.510   7.679 -1.6471 -1.4795  0.7458
 3091TIP3   OH230831   6.596   5.415   0.126  0.0768 -0.2652 -0.4263
 3091TIP3    H130832   6.547   5.333   0.123  1.2279 -1.2993  3.1802
 3091TIP3    H230833   6.529   5.483   0.130 -0.9016 -0.9590 -3.0387
 3092TIP3   OH230834   4.484   0.358   0.906 -0.3395 -0.2215 -0.5518
 3092TIP3    H130835   4.565   0.409   0.899 -0.8197  0.7353  0.4645
 3092TIP3    H230836   4.505   0.286   0.966 -0.1595 -0.1384 -0.5152
 3093TIP3   OH230837   1.104   3.225   6.215  0.1352  0.1508 -0.1769
 3093TIP3    H130838   1.132   3.169   6.287  0.7298 -0.1806 -0.6517
 3093TIP3    H230839   1.009   3.218   6.214  0.2496 -1.6874 -0.8800
 3094TIP3   OH230840   5.396   6.505   6.578 -0.1413  0.1541  0.1896
 3094TIP3    H130841   5.421   6.420   6.615  2.5919  0.8521  0.2278
 3094TIP3    H230842   5.471   6.530   6.523 -1.1820  2.2017 -0.4006
 3095TIP3   OH230843   0.292   5.260   8.436 -0.2787  0.7228 -0.0242
 3095TIP3    H130844   0.268   5.352   8.427 -0.8557  0.7017  1.1453
 3095TIP3    H230845   0.215   5.212   8.406  0.5712  0.5571 -2.1578
 3096TIP3   OH230846   4.915   0.302   0.786 -0.0706 -0.3430  0.0807
 3096TIP3    H130847   4.948   0.377   0.835  2.0774 -0.6086 -0.8636
 3096TIP3    H230848   4.825   0.326   0.762  0.0732  1.2754  1.0454
 3097TIP3   OH230849   4.453   1.846   0.719 -0.7831  0.6088 -0.5898
 3097TIP3    H130850   4.534   1.895   0.705 -0.5768  0.1411 -1.0944
 3097TIP3    H230851   4.458   1.817   0.810 -0.4143  0.6477 -0.5957
 3098TIP3   OH230852   2.203   6.357   0.179 -0.2473 -0.1613  0.6856
 3098TIP3    H130853   2.115   6.321   0.163 -1.5534  1.3059  3.8052
 3098TIP3    H230854   2.263   6.286   0.154 -2.3382 -1.7405 -0.1665
 3099TIP3   OH230855   2.229   5.659   8.056  0.1740  0.3331 -0.2996
 3099TIP3    H130856   2.182   5.742   8.052  1.1993  0.8820 -2.2306
 3099TIP3    H230857   2.302   5.676   8.116 -0.6058  0.2699  0.6803
 3100TIP3   OH230858   5.507   6.382   0.210 -0.4331  0.1537  0.1174
 3100TIP3    H130859   5.479   6.418   0.295  0.3904  2.5718 -0.5531
 3100TIP3    H230860   5.427   6.381   0.157 -0.8225 -0.7713  0.6903
 3101TIP3   OH230861   1.198   4.245   8.556  0.9946  0.2213 -0.7339
 3101TIP3    H130862   1.128   4.310   8.557  0.3145 -0.4815 -1.4304
 3101TIP3    H230863   1.228   4.243   8.465  0.2773 -1.1806 -0.9677
 3102TIP3   OH230864   4.329   5.253   0.787  0.3255 -0.1753  0.4499
 3102TIP3    H130865   4.336   5.344   0.814  0.3517  0.0977 -0.4504
 3102TIP3    H230866   4.325   5.204   0.869 -0.0059  0.6557  0.9445
 3103TIP3   OH230867   3.340   2.428   7.176  0.0206 -0.1126 -0.4867
 3103TIP3    H130868   3.332   2.334   7.190 -0.6826 -0.1744 -1.2253
 3103TIP3    H230869   3.355   2.464   7.264  1.9327 -1.0373 -0.3880
 3104TIP3   OH230870   3.045   2.477   0.821  1.0983 -0.2667 -0.2910
 3104TIP3    H130871   3.035   2.539   0.749 -0.9958  0.6550  0.6802
 3104TIP3    H230872   2.983   2.407   0.801  1.5674 -0.7340 -0.1100
 3105TIP3   OH230873   5.486   0.560   7.044 -0.3107  0.1206 -0.2874
 3105TIP3    H130874   5.497   0.641   6.994 -1.6828 -0.2201 -1.2127
 3105TIP3    H230875   5.575   0.534   7.069  0.2723  1.1484 -1.2100
 3106TIP3   OH230876   1.075   6.346   8.167 -0.3792  0.4375  0.5781
 3106TIP3    H130877   1.028   6.419   8.127 -0.4295  0.1931  0.1935
 3106TIP3    H230878   1.006   6.290   8.203 -0.4534 -0.5139 -0.9914
 3107TIP3   OH230879   1.260   4.544   7.616  0.1561 -0.0826 -0.3051
 3107TIP3    H130880   1.177   4.586   7.638 -0.2324 -1.3185  0.7044
 3107TIP3    H230881   1.281   4.491   7.693  2.3014  0.8246 -0.1921
 3108TIP3   OH230882   1.202   0.808   0.556 -0.1548  0.6559  0.0898
 3108TIP3    H130883   1.249   0.888   0.533 -0.0694  0.4624 -0.4265
 3108TIP3    H230884   1.213   0.751   0.480 -0.3613  0.2184  0.3827
 3109TIP3   OH230885   5.450   6.265   7.473 -0.1309  0.2137  0.4675
 3109TIP3    H130886   5.395   6.330   7.430  0.3475  0.9135  0.9017
 3109TIP3    H230887   5.495   6.220   7.401  0.0550  0.8275  0.1956
 3110TIP3   OH230888   1.646   4.663   1.574  0.0749 -0.0946  0.4092
 3110TIP3    H130889   1.717   4.656   1.509  0.5577  1.3357  0.7576
 3110TIP3    H230890   1.691   4.663   1.658 -0.5341 -1.6750  0.7818
 3111TIP3   OH230891   5.881   0.980   0.997 -0.1362 -0.3268  0.7024
 3111TIP3    H130892   5.840   1.016   0.918  1.4630 -0.7653 -0.3802
 3111TIP3    H230893   5.964   0.943   0.966  1.7184  1.6456  2.9790
 3112TIP3   OH230894   6.476   2.316   7.856 -0.0097  0.2936 -0.3123
 3112TIP3    H130895   6.508   2.226   7.848  1.3482  0.6634  0.6242
 3112TIP3    H230896   6.440   2.322   7.944  2.0293  1.2478  0.5371
 3113TIP3   OH230897   6.521   6.343   6.775 -0.6608 -0.3775 -0.2302
 3113TIP3    H130898   6.487   6.374   6.691 -0.5512 -0.1084 -0.1735
 3113TIP3    H230899   6.443   6.316   6.824 -0.7840  0.1656 -0.1293
 3114TIP3   OH230900   0.889   0.900   6.869  0.0868  0.0751  0.2870
 3114TIP3    H130901   0.869   0.854   6.787  0.1095  1.5327 -0.5679
 3114TIP3    H230902   0.809   0.890   6.921  0.3361 -1.5029  0.4213
 3115TIP3   OH230903   5.943   3.412   8.069 -0.3326 -0.1514  0.0615
 3115TIP3    H130904   5.942   3.369   7.983  0.9288 -2.3268  1.0442
 3115TIP3    H230905   5.852   3.408   8.099 -0.4418 -1.1799 -0.3660
 3116TIP3   OH230906   5.813   2.505   1.687  0.3069  0.6639 -0.3781
 3116TIP3    H130907   5.886   2.451   1.656  1.0913  2.8673 -2.6891
 3116TIP3    H230908   5.853   2.567   1.748  0.3939  1.7407 -1.4892
 3117TIP3   OH230909   4.142   6.111   8.320 -0.8841  0.3951  0.0051
 3117TIP3    H130910   4.163   6.175   8.252  1.3436 -0.8564 -0.5874
 3117TIP3    H230911   4.145   6.026   8.276  1.0489 -0.4825  1.6692
 3118TIP3   OH230912   5.467   1.082   8.167 -0.1577  0.2908  0.0478
 3118TIP3    H130913   5.558   1.072   8.195  0.1064  1.2970 -0.3700
 3118TIP3    H230914   5.441   1.167   8.202 -1.4216 -0.6154  1.3748
 3119TIP3   OH230915   4.901   1.619   7.422 -0.0520  0.0261 -0.1420
 3119TIP3    H130916   4.859   1.642   7.505 -1.3277 -3.0901  0.2075
 3119TIP3    H230917   4.834   1.640   7.356 -0.5165 -0.9555  0.0045
 3120TIP3   OH230918   1.892   0.056   8.269 -0.0447  0.4250  0.0722
 3120TIP3    H130919   1.960   0.020   8.326 -0.7450 -0.2216  0.5181
 3120TIP3    H230920   1.907   0.151   8.271  0.3937  0.3512  0.7414
 3121TIP3   OH230921   2.997   5.239   2.309  0.0904 -0.4795  0.1761
 3121TIP3    H130922   2.921   5.273   2.262  1.1958  0.9325 -0.6650
 3121TIP3    H230923   3.069   5.247   2.247  0.4367 -4.8272 -0.2890
 3122TIP3   OH230924   6.660   5.205   8.555 -0.0640  0.4421  0.3223
 3122TIP3    H130925   6.736   5.170   8.602  1.5272  1.2298 -1.5213
 3122TIP3    H230926   6.585   5.174   8.605  1.3146 -2.9576  0.5844
 3123TIP3   OH230927   0.762   1.191   1.031  0.1979 -0.0148  0.0838
 3123TIP3    H130928   0.673   1.194   0.995  0.4540  0.0613 -0.5686
 3123TIP3    H230929   0.794   1.281   1.024  0.5553 -0.1666 -0.2942
 3124TIP3   OH230930   2.070   4.511   7.469  0.0470  0.4814 -0.0300
 3124TIP3    H130931   1.979   4.519   7.498 -0.2305 -0.8205 -0.4578
 3124TIP3    H230932   2.111   4.593   7.495 -1.0388  0.7430  0.9487
 3125TIP3   OH230933   3.404   6.587   2.013  0.0824 -1.2981  0.3698
 3125TIP3    H130934   3.454   6.517   2.056  2.4938  1.0433  1.7559
 3125TIP3    H230935   3.468   6.628   1.954 -0.0722  1.7530  2.1038
 3126TIP3   OH230936   0.706   3.595   7.929  0.2705 -0.3890  0.0776
 3126TIP3    H130937   0.654   3.521   7.960 -1.9620  1.1295  0.1785
 3126TIP3    H230938   0.762   3.557   7.861 -1.3891 -2.0361 -0.4835
 3127TIP3   OH230939   5.536   4.207   1.279  0.2297  0.3659 -0.3051
 3127TIP3    H130940   5.457   4.205   1.332  0.3533 -1.2814 -0.1410
 3127TIP3    H230941   5.521   4.278   1.216 -0.5524  1.3346  0.9260
 3128TIP3   OH230942   3.107   4.711   1.358 -0.1401 -0.2602  0.0495
 3128TIP3    H130943   3.116   4.805   1.370  1.0012 -0.2226 -0.9653
 3128TIP3    H230944   3.160   4.673   1.428  0.0989 -0.1396 -0.0664
 3129TIP3   OH230945   3.583   1.963   7.300  0.2137  0.2733 -0.4141
 3129TIP3    H130946   3.673   1.995   7.299  0.7239 -1.0914 -0.5454
 3129TIP3    H230947   3.586   1.885   7.355 -0.9303  0.3045 -0.2837
 3130TIP3   OH230948   6.357   3.002   6.585 -0.8464 -0.2203  0.6935
 3130TIP3    H130949   6.337   3.084   6.540 -1.2719 -1.1483 -0.8593
 3130TIP3    H230950   6.301   3.003   6.663 -2.5876 -0.0834 -0.5151
 3131TIP3   OH230951   5.434   3.875   8.412  0.0395 -0.5737 -0.5991
 3131TIP3    H130952   5.406   3.966   8.406  2.1509  0.0170 -3.3202
 3131TIP3    H230953   5.511   3.877   8.469 -1.6395 -1.2662  1.8894
 3132TIP3   OH230954   1.711   5.713   6.476 -0.4218  0.0465 -0.4286
 3132TIP3    H130955   1.771   5.645   6.508  0.1462  0.6261 -0.2281
 3132TIP3    H230956   1.644   5.720   6.545  0.5534  0.9842  0.4592
 3133TIP3   OH230957   4.426   3.886   1.328  0.7675  0.3133  0.0547
 3133TIP3    H130958   4.484   3.812   1.345  1.5270  0.9762  0.4031
 3133TIP3    H230959   4.339   3.854   1.352  1.1651 -0.2768  0.7673
 3134TIP3   OH230960   0.647   6.342   6.427  0.0966 -0.3047  0.2538
 3134TIP3    H130961   0.559   6.307   6.441 -0.5328  1.0796 -0.0672
 3134TIP3    H230962   0.703   6.265   6.423 -0.6400 -1.1655  3.3006
 3135TIP3   OH230963   2.740   2.162   7.067 -0.1128  0.1318 -0.0133
 3135TIP3    H130964   2.749   2.129   6.978  0.9015 -1.5654  0.6738
 3135TIP3    H230965   2.829   2.169   7.101 -0.5175 -0.4605  1.2693
 3136TIP3   OH230966   0.761   4.615   2.050  0.2061 -0.2800 -0.1198
 3136TIP3    H130967   0.856   4.604   2.050  0.2271 -0.3159  1.4535
 3136TIP3    H230968   0.748   4.710   2.052  0.2449 -0.2888  1.0886
 3137TIP3   OH230969   5.116   3.443   1.014 -0.0848  0.1492 -0.0666
 3137TIP3    H130970   5.084   3.359   1.045  0.3821 -0.4706 -1.2095
 3137TIP3    H230971   5.209   3.443   1.035 -0.0299  0.2686 -0.3017
 3138TIP3   OH230972   6.461   3.175   7.199 -0.6366  0.0526 -0.2523
 3138TIP3    H130973   6.425   3.263   7.196 -0.5016  0.1693  1.1703
 3138TIP3    H230974   6.555   3.188   7.212 -0.9081 -0.2718  2.6016
 3139TIP3   OH230975   6.358   5.778   6.582  0.3483 -0.3327  0.2064
 3139TIP3    H130976   6.382   5.714   6.649  4.8963  0.4850 -0.3574
 3139TIP3    H230977   6.347   5.860   6.631  3.4472  0.2172  0.1386
 3140TIP3   OH230978   4.773   5.855   6.176 -0.2975  0.1340 -0.2422
 3140TIP3    H130979   4.868   5.865   6.187 -0.3833  0.5077  0.1672
 3140TIP3    H230980   4.758   5.873   6.083  0.1779 -1.0993 -0.5936
 3141TIP3   OH230981   2.005   5.360   6.010 -0.1064 -0.2752  0.2697
 3141TIP3    H130982   2.087   5.406   6.030  0.3348 -1.6230  1.8374
 3141TIP3    H230983   1.937   5.425   6.024  0.5417  0.1476  1.7315
 3142TIP3   OH230984   2.682   1.504   0.106 -0.2803  0.4548 -0.2854
 3142TIP3    H130985   2.732   1.579   0.138 -0.5577  1.9984 -3.1131
 3142TIP3    H230986   2.727   1.477   0.026 -0.4170 -2.2392  0.4329
 3143TIP3   OH230987   3.972   0.334   8.367 -0.0042  0.1146 -0.6801
 3143TIP3    H130988   3.878   0.318   8.375  0.4486 -2.1177  0.9140
 3143TIP3    H230989   4.004   0.335   8.456  1.9651 -2.8173 -1.2213
 3144TIP3   OH230990   0.093   1.639   1.034 -0.7764 -0.0915  0.2627
 3144TIP3    H130991   0.132   1.631   0.947  1.0705 -0.7410  1.0967
 3144TIP3    H230992   0.120   1.559   1.080 -0.8086  0.7162  1.7511
 3145TIP3   OH230993   3.464   6.713   0.351 -0.1896  0.6006  0.5243
 3145TIP3    H130994   3.482   6.636   0.405 -0.0443  0.1560 -0.1477
 3145TIP3    H230995   3.540   6.770   0.364  0.7643 -0.3494 -0.6773
 3146TIP3   OH230996   2.049   3.625   6.551 -0.4415  0.4058 -0.4553
 3146TIP3    H130997   2.105   3.693   6.587  0.8701 -0.4883 -0.7623
 3146TIP3    H230998   2.075   3.545   6.596 -1.1402 -0.1079 -0.9429
 3147TIP3   OH230999   3.755   5.106   0.107  0.6447 -0.1927 -0.6219
 3147TIP3    H131000   3.753   5.144   0.194 -0.0713 -1.1139 -0.2103
 3147TIP3    H231001   3.781   5.015   0.122 -1.2216 -0.8674 -1.1306
 3148TIP3   OH231002   3.426   4.056   8.570 -0.0013 -0.5025 -0.1933
 3148TIP3    H131003   3.519   4.056   8.593  0.2315  1.7366 -0.8934
 3148TIP3    H231004   3.388   4.124   8.625 -0.6057  0.6810 -1.9859
 3149TIP3   OH231005   4.030   2.292   0.241 -0.0184 -0.2270 -0.0229
 3149TIP3    H131006   4.098   2.260   0.300 -0.3654  0.6959  0.8972
 3149TIP3    H231007   3.989   2.213   0.206  1.6425 -0.8198 -0.7714
 3150TIP3   OH231008   0.162   5.336   1.393  0.2461 -0.2547 -0.6054
 3150TIP3    H131009   0.108   5.262   1.421 -0.1731  0.0162 -0.7044
 3150TIP3    H231010   0.122   5.366   1.312  1.1735 -0.7273 -1.2611
 3151TIP3   OH231011   5.331   2.361   6.849 -0.2934  0.2581  0.9884
 3151TIP3    H131012   5.345   2.273   6.882 -1.9960 -0.5022 -0.1315
 3151TIP3    H231013   5.418   2.401   6.846  0.3660 -0.9716  2.5657
 3152TIP3   OH231014   1.730   3.704   6.162  0.1073 -0.0136 -0.6079
 3152TIP3    H131015   1.706   3.612   6.176 -1.4882  0.2450 -1.3779
 3152TIP3    H231016   1.813   3.701   6.115 -0.0417 -1.0658 -0.8294
 3153TIP3   OH231017   4.334   3.132   7.157  0.0113 -0.5381  0.9814
 3153TIP3    H131018   4.424   3.106   7.178 -0.0211 -0.5232  1.1417
 3153TIP3    H231019   4.285   3.050   7.153  0.6361 -0.8809 -2.1821
 3154TIP3   OH231020   1.340   2.605   6.643  0.3306 -0.0541 -0.2352
 3154TIP3    H131021   1.307   2.648   6.564 -1.5551 -0.0187  0.5224
 3154TIP3    H231022   1.399   2.538   6.611 -1.0034 -0.5650 -1.7556
 3155TIP3   OH231023   4.711   4.832   8.112  0.2358 -0.3833 -0.0289
 3155TIP3    H131024   4.746   4.913   8.148 -0.7028  1.1434 -2.3119
 3155TIP3    H231025   4.781   4.797   8.057  0.5222 -0.9771  0.6964
 3156TIP3   OH231026   0.876   4.603   7.948  0.0684  0.2881  0.2402
 3156TIP3    H131027   0.823   4.528   7.922  0.6072 -0.1918  0.4976
 3156TIP3    H231028   0.812   4.670   7.973 -0.5252  0.9533 -2.6612
 3157TIP3   OH231029   5.629   6.213   7.262 -0.0556  0.7272 -0.0151
 3157TIP3    H131030   5.694   6.251   7.203 -0.2643 -0.2207 -0.8864
 3157TIP3    H231031   5.571   6.162   7.205 -1.6987  1.6853  0.7013
 3158TIP3   OH231032   6.501   4.367   8.001 -0.0983  0.4217 -0.1089
 3158TIP3    H131033   6.487   4.429   7.930  0.5214 -0.1317 -0.7277
 3158TIP3    H231034   6.415   4.359   8.043 -0.6242  0.2923 -1.1766
 3159TIP3   OH231035   1.322   3.276   7.580 -0.3490 -0.6336 -0.7274
 3159TIP3    H131036   1.297   3.326   7.502 -0.9095 -2.3202 -1.6837
 3159TIP3    H231037   1.240   3.268   7.630  0.0433  0.5828  0.1429
 3160TIP3   OH231038   0.279   2.700   0.895  0.0327 -0.4222  0.3193
 3160TIP3    H131039   0.208   2.666   0.950 -0.0201  0.4147  0.7892
 3160TIP3    H231040   0.304   2.783   0.937  0.3558 -0.0278 -0.6279
 3161TIP3   OH231041   1.667   1.318   7.228  0.1259  0.1983  0.1175
 3161TIP3    H131042   1.590   1.371   7.250  1.0356  1.1752  1.0982
 3161TIP3    H231043   1.724   1.326   7.305  0.5787 -1.6969  0.0134
 3162TIP3   OH231044   2.758   6.533   7.707 -0.1315  0.6136  0.3650
 3162TIP3    H131045   2.848   6.555   7.729  0.2140  0.3719 -0.7332
 3162TIP3    H231046   2.758   6.438   7.695 -0.8422  0.4236  1.6716
 3163TIP3   OH231047   3.507   3.247   1.972 -0.4877  0.0439 -0.5978
 3163TIP3    H131048   3.469   3.266   2.058 -2.0072 -0.5815 -1.1041
 3163TIP3    H231049   3.568   3.175   1.988  0.2992  0.8515  0.1722
 3164TIP3   OH231050   2.142   0.893   7.296  0.3418 -0.2516 -0.3484
 3164TIP3    H131051   2.050   0.900   7.323  1.2989  2.2158  2.8110
 3164TIP3    H231052   2.172   0.810   7.332  0.2026  0.5786  1.7793
 3165TIP3   OH231053   3.113   3.199   1.965 -0.3115  0.3564 -0.2267
 3165TIP3    H131054   3.109   3.286   1.923  2.4255  0.5336 -0.3066
 3165TIP3    H231055   3.172   3.211   2.039 -1.1602 -1.1296  0.7366
 3166TIP3   OH231056   1.762   6.658   7.185  0.1885 -0.6753  0.1957
 3166TIP3    H131057   1.839   6.667   7.129 -0.0969 -2.8720 -0.6396
 3166TIP3    H231058   1.692   6.632   7.125 -1.1003  0.7031  1.0365
 3167TIP3   OH231059   3.093   4.310   7.575 -0.1635 -0.2963 -0.0534
 3167TIP3    H131060   3.170   4.355   7.540  0.1257 -0.1584  0.7340
 3167TIP3    H231061   3.020   4.368   7.555  0.3277  1.1128  1.8995
 3168TIP3   OH231062   0.599   3.078   7.920 -0.3464  0.1790 -0.6850
 3168TIP3    H131063   0.507   3.098   7.937 -0.1808  1.3632 -1.0868
 3168TIP3    H231064   0.606   3.071   7.825  0.2696  1.8405 -0.8101
 3169TIP3   OH231065   2.849   2.348   6.822  0.2147 -0.1903 -0.2583
 3169TIP3    H131066   2.824   2.376   6.734  0.9110  1.2313 -0.0307
 3169TIP3    H231067   2.788   2.277   6.843 -1.5160  1.0315 -0.9617
 3170TIP3   OH231068   5.018   3.832   7.572  0.3809  0.1974  0.2641
 3170TIP3    H131069   5.004   3.926   7.573  2.3042  0.5256  0.1341
 3170TIP3    H231070   5.109   3.821   7.599 -0.2515 -1.7384  1.9282
 3171TIP3   OH231071   4.494   3.956   1.583 -0.1211  0.3686  0.0697
 3171TIP3    H131072   4.475   3.869   1.617  1.9843 -0.9183 -1.8091
 3171TIP3    H231073   4.448   3.960   1.499  1.4234  0.2361 -0.8098
 3172TIP3   OH231074   2.763   6.497   0.328  0.1548 -0.4929 -0.2896
 3172TIP3    H131075   2.688   6.495   0.269 -0.3585 -0.3740  0.3420
 3172TIP3    H231076   2.833   6.452   0.280 -0.4006 -0.8480 -0.7803
 3173TIP3   OH231077   1.959   6.736   8.014  0.3541  0.2104  0.0936
 3173TIP3    H131078   1.938   6.734   8.108  0.6730 -1.7576  0.1736
 3173TIP3    H231079   1.875   6.741   7.971  0.0292 -1.1915  0.4950
 3174TIP3   OH231080   0.614   2.446   7.758  0.5164 -0.0593 -0.3973
 3174TIP3    H131081   0.541   2.445   7.696 -1.5015 -0.7000  1.8119
 3174TIP3    H231082   0.692   2.453   7.704 -1.1512  0.2730 -2.9215
 3175TIP3   OH231083   2.064   2.915   8.586 -0.3195 -0.4309 -0.2020
 3175TIP3    H131084   1.991   2.965   8.548 -2.2452 -2.4793  0.5946
 3175TIP3    H231085   2.087   2.851   8.518  0.4754 -0.0670 -0.2848
 3176TIP3   OH231086   6.824   3.944   1.613  0.3665  0.2383  0.1644
 3176TIP3    H131087   6.810   3.850   1.625  1.9822  0.1196  1.4339
 3176TIP3    H231088   6.801   3.982   1.698  1.0336  0.8159  0.0943
 3177TIP3   OH231089   1.659   5.982   1.490  0.8227  0.3886  0.8562
 3177TIP3    H131090   1.613   6.042   1.432  0.1738 -0.2112  0.7333
 3177TIP3    H231091   1.598   5.967   1.562  0.5179 -0.9605  0.3453
 3178TIP3   OH231092   3.929   1.741   6.958  0.1275  0.4574 -0.0678
 3178TIP3    H131093   3.976   1.810   6.911  1.4467 -0.4476 -0.1285
 3178TIP3    H231094   3.939   1.663   6.903 -0.8487  0.0659  0.2790
 3179TIP3   OH231095   0.649   3.030   1.803  0.8037 -0.5866 -0.3667
 3179TIP3    H131096   0.652   3.085   1.881  0.6052 -1.5075  0.3086
 3179TIP3    H231097   0.593   3.077   1.742 -1.2297 -1.0566  1.0307
 3180TIP3   OH231098   6.585   4.413   7.196  0.1317  0.2376 -0.1396
 3180TIP3    H131099   6.530   4.397   7.119  2.1585 -1.4423 -1.3415
 3180TIP3    H231100   6.621   4.328   7.218  2.9397  1.3500 -0.0131
 3181TIP3   OH231101   5.496   1.483   0.389 -0.3548  0.2898 -0.0216
 3181TIP3    H131102   5.538   1.546   0.448  0.9424 -1.2503  0.7751
 3181TIP3    H231103   5.440   1.430   0.446  0.2052 -0.6297 -0.3131
 3182TIP3   OH231104   4.518   3.157   8.617  0.4721 -0.0738  0.1671
 3182TIP3    H131105   4.441   3.131   8.567 -0.3557  0.3964  1.1608
 3182TIP3    H231106   4.585   3.174   8.551 -0.2676 -0.4845 -0.7173
 3183TIP3   OH231107   0.407   1.453   1.030  0.1838  0.3800  0.5613
 3183TIP3    H131108   0.403   1.439   0.935  0.5908 -1.8686  0.8160
 3183TIP3    H231109   0.317   1.441   1.060  0.2947 -0.3293  0.6158
 3184TIP3   OH231110   6.522   4.914   8.491  0.1556 -0.2195 -0.0469
 3184TIP3    H131111   6.544   4.974   8.420  0.7796 -1.2966 -0.7873
 3184TIP3    H231112   6.596   4.853   8.494  0.2569 -0.0723  1.6726
 3185TIP3   OH231113   1.171   1.041   8.042 -0.0125 -0.5111  0.4631
 3185TIP3    H131114   1.117   1.119   8.056  1.2173  0.5873 -0.6176
 3185TIP3    H231115   1.253   1.060   8.088 -0.0071 -1.5617  0.9198
 3186TIP3   OH231116   5.597   4.476   8.466  0.6767 -0.3366 -0.1097
 3186TIP3    H131117   5.588   4.571   8.479  2.5014  0.4717 -3.4985
 3186TIP3    H231118   5.507   4.445   8.461  0.0271  1.2772  0.7005
 3187TIP3   OH231119   1.617   3.309   7.446  0.3072 -0.2689  0.8190
 3187TIP3    H131120   1.556   3.238   7.425 -0.9154  1.0284 -0.1497
 3187TIP3    H231121   1.682   3.268   7.504 -1.3438 -1.7401  1.7163
 3188TIP3   OH231122   6.573   0.900   2.144 -0.6777  0.1614  0.2674
 3188TIP3    H131123   6.519   0.969   2.182 -1.9355 -1.1096  0.8810
 3188TIP3    H231124   6.628   0.871   2.217 -0.6083  0.0745  0.1799
 3189TIP3   OH231125   3.367   2.448   8.274  0.3246  0.3186 -0.0554
 3189TIP3    H131126   3.412   2.446   8.359 -3.7691 -0.8391  2.3953
 3189TIP3    H231127   3.286   2.495   8.292 -0.5921  0.2736 -3.4988
 3190TIP3   OH231128   0.248   3.171   0.312  0.0902 -0.0400  0.4060
 3190TIP3    H131129   0.244   3.161   0.407 -0.3469 -0.5600  0.3407
 3190TIP3    H231130   0.164   3.209   0.288  0.1708  0.0218  0.2195
 3191TIP3   OH231131   4.081   4.433   1.091  0.3904 -0.4734 -0.4908
 3191TIP3    H131132   4.160   4.467   1.133  0.2175 -1.4366  0.6550
 3191TIP3    H231133   4.048   4.366   1.151 -1.2279 -0.1898 -1.0067
 3192TIP3   OH231134   5.439   3.715   7.081 -0.6048 -0.8418  0.4688
 3192TIP3    H131135   5.423   3.633   7.035 -0.0599 -0.0701 -1.1815
 3192TIP3    H231136   5.354   3.740   7.116 -0.9860 -1.5826  0.0888
 3193TIP3   OH231137   0.846   3.379   2.166 -0.2248 -0.0326 -0.7967
 3193TIP3    H131138   0.794   3.303   2.193  1.8103 -0.4088  2.6985
 3193TIP3    H231139   0.786   3.453   2.175 -1.3590 -0.8753 -1.1394
 3194TIP3   OH231140   1.625   6.781   1.589  0.4443  0.0651 -0.0496
 3194TIP3    H131141   1.551   6.773   1.528 -1.3755 -1.0988  2.1689
 3194TIP3    H231142   1.652   6.873   1.581 -1.1997  0.5147 -0.9768
 3195TIP3   OH231143   5.950   3.301   2.176  0.0025  0.2308  0.1886
 3195TIP3    H131144   5.992   3.335   2.255 -0.2359 -0.0253  0.4295
 3195TIP3    H231145   5.857   3.311   2.192 -0.0608 -0.2486  0.1362
 3196TIP3   OH231146   4.129   4.920   1.040 -0.1040 -0.0480 -0.3180
 3196TIP3    H131147   4.047   4.911   0.991 -0.3090  0.8083 -0.1574
 3196TIP3    H231148   4.192   4.867   0.991 -0.7371 -0.6594 -0.4846
 3197TIP3   OH231149   0.452   4.455   0.619 -0.1884  0.4689 -0.2859
 3197TIP3    H131150   0.468   4.368   0.655 -0.8221  0.0194 -1.0484
 3197TIP3    H231151   0.520   4.510   0.658  0.2777 -0.3806  0.1382
 3198TIP3   OH231152   0.238   4.090   2.044  0.4781 -0.3038  0.1838
 3198TIP3    H131153   0.249   4.034   2.121  0.8149 -0.3236  0.1209
 3198TIP3    H231154   0.302   4.160   2.057  0.1427  0.0028  0.2032
 3199TIP3   OH231155   4.684   4.525   1.339 -0.8988 -0.1049 -0.6476
 3199TIP3    H131156   4.694   4.571   1.422  0.6442  0.6879 -1.2317
 3199TIP3    H231157   4.635   4.446   1.361 -2.6498  1.2374  0.5798
 3200TIP3   OH231158   5.125   1.508   0.649  0.2982  0.0471  0.2486
 3200TIP3    H131159   5.163   1.567   0.714  0.7940 -1.1645  1.0962
 3200TIP3    H231160   5.042   1.480   0.688  1.1699 -1.6564  0.9826
 3201TIP3   OH231161   5.983   5.076   0.485  0.9002 -0.4442  0.2466
 3201TIP3    H131162   6.031   5.014   0.539  1.2915  0.4291  0.9130
 3201TIP3    H231163   6.048   5.142   0.459  0.2886  0.2089  0.3407
 3202TIP3   OH231164   3.451   2.191   1.012  0.5235 -0.4694  0.5603
 3202TIP3    H131165   3.494   2.106   1.021  1.8438 -0.2311 -2.2948
 3202TIP3    H231166   3.358   2.172   1.016  0.7877 -2.1403 -0.4581
 3203TIP3   OH231167   3.901   5.673   2.286  0.7993  0.7620  0.4772
 3203TIP3    H131168   3.918   5.768   2.285  3.3614  0.3927  1.4177
 3203TIP3    H231169   3.987   5.633   2.274  0.3036 -1.4549  3.2211
 3204TIP3   OH231170   6.858   1.770   1.257 -0.3594  0.2437  0.1485
 3204TIP3    H131171   6.922   1.801   1.321 -1.0794  0.3288  0.8425
 3204TIP3    H231172   6.910   1.731   1.188  0.4255 -0.2738  1.0136
 3205TIP3   OH231173   2.449   2.575   2.208 -0.2820 -0.1386  0.7151
 3205TIP3    H131174   2.379   2.510   2.211 -2.1448  1.7076  0.0387
 3205TIP3    H231175   2.403   2.658   2.194  2.1244  1.0645 -0.5978
 3206TIP3   OH231176   1.478   5.045   0.766 -0.3264  0.1381 -0.1947
 3206TIP3    H131177   1.421   5.115   0.736  0.1356  0.6916  0.1996
 3206TIP3    H231178   1.467   5.045   0.861 -0.5248 -0.5013 -0.2148
 3207TIP3   OH231179   0.758   5.256   8.168 -0.1406 -0.7696 -0.2871
 3207TIP3    H131180   0.853   5.251   8.179 -0.0781  1.0653  0.4002
 3207TIP3    H231181   0.729   5.165   8.164  1.4096 -1.4100  1.6347
 3208TIP3   OH231182   2.090   5.948   6.726  0.6230 -0.3031  0.1049
 3208TIP3    H131183   2.085   5.954   6.631  1.6757 -1.3956 -0.0366
 3208TIP3    H231184   2.167   6.000   6.750  0.2028  0.2039  0.4090
 3209TIP3   OH231185   3.842   5.567   0.025 -0.2302 -0.2284 -0.0624
 3209TIP3    H131186   3.777   5.577   0.095  0.9894  0.9653  0.9736
 3209TIP3    H231187   3.919   5.530   0.069  0.7609  1.1032 -0.6006
 3210TIP3   OH231188   5.080   0.793   7.389  0.6312 -0.0403 -0.5048
 3210TIP3    H131189   5.138   0.744   7.330  2.1810  0.0605  0.8609
 3210TIP3    H231190   5.037   0.857   7.332  1.4139 -0.5083 -1.6660
 3211TIP3   OH231191   5.792   0.520   1.913 -0.1650 -0.5454  0.2078
 3211TIP3    H131192   5.826   0.479   1.834  1.2884 -0.4024  0.7319
 3211TIP3    H231193   5.828   0.467   1.985 -0.0020  0.3704  0.8196
 3212TIP3   OH231194   4.111   5.533   1.339  0.2137 -0.3115  0.1164
 3212TIP3    H131195   4.070   5.480   1.407 -0.2040 -1.6140 -1.0963
 3212TIP3    H231196   4.039   5.557   1.281  0.8452 -0.9010 -0.9284
 3213TIP3   OH231197   1.575   2.374   7.318  0.5309 -1.1825  0.2101
 3213TIP3    H131198   1.545   2.353   7.230  0.2188 -1.8899  0.4691
 3213TIP3    H231199   1.618   2.459   7.310 -0.0298 -0.9528 -0.5043
 3214TIP3   OH231200   2.651   6.851   5.953 -0.3686  0.2544  0.1779
 3214TIP3    H131201   2.675   6.930   5.905 -0.4667  0.4173  0.3920
 3214TIP3    H231202   2.614   6.792   5.887  2.3872 -0.8018 -0.5508
 3215TIP3   OH231203   6.480   4.363   1.152 -0.0744 -0.4618 -0.9806
 3215TIP3    H131204   6.551   4.318   1.197  0.5569 -1.8881 -3.2510
 3215TIP3    H231205   6.507   4.455   1.151  0.5512 -0.6188  0.2849
 3216TIP3   OH231206   3.520   4.204   6.644 -0.1840  0.0966 -0.0682
 3216TIP3    H131207   3.566   4.127   6.611 -0.2685  0.2866 -0.6418
 3216TIP3    H231208   3.590   4.266   6.665 -0.1216 -0.0905  0.2901
 3217TIP3   OH231209   5.871   2.913   7.650 -0.1057 -0.4359 -0.2314
 3217TIP3    H131210   5.779   2.939   7.655  0.3031  1.0085  0.3699
 3217TIP3    H231211   5.872   2.822   7.678 -1.3191 -0.3772  0.0403
 3218TIP3   OH231212   5.468   0.798   6.874 -0.0225 -0.0113  0.2936
 3218TIP3    H131213   5.374   0.787   6.885 -0.0684  1.6379  2.0199
 3218TIP3    H231214   5.477   0.874   6.816  0.1999  0.4632  0.9269
 3219TIP3   OH231215   5.202   3.634   8.606 -0.3222 -0.0430 -0.2759
 3219TIP3    H131216   5.126   3.628   8.664  1.2637 -0.8863  1.8339
 3219TIP3    H231217   5.195   3.721   8.567 -1.7078  0.3755  0.8255
 3220TIP3   OH231218   4.738   2.758   7.675 -0.4342  0.5680  0.2607
 3220TIP3    H131219   4.815   2.739   7.623  0.1120 -1.3454  1.6799
 3220TIP3    H231220   4.666   2.717   7.627 -0.5192  1.8135 -0.7335
 3221TIP3   OH231221   0.544   2.602   7.996  0.2379 -0.5834 -0.5574
 3221TIP3    H131222   0.608   2.557   8.050 -0.7833 -0.7718  0.5502
 3221TIP3    H231223   0.557   2.567   7.908  0.0891 -2.3641  0.0989
 3222TIP3   OH231224   1.767   5.795   2.498  0.5743  0.2606  0.2823
 3222TIP3    H131225   1.813   5.866   2.543  1.4943  0.6022 -1.1374
 3222TIP3    H231226   1.739   5.736   2.568  1.2305  1.1839  1.3517
 3223TIP3   OH231227   2.452   6.707   8.415 -0.1332  0.3927  0.1428
 3223TIP3    H131228   2.423   6.639   8.476  0.6665 -1.3477 -1.2893
 3223TIP3    H231229   2.408   6.685   8.333 -0.1926  1.9112 -0.2588
 3224TIP3   OH231230   2.235   0.089   0.424  0.5065 -0.3666 -0.2546
 3224TIP3    H131231   2.206   0.055   0.340  1.0326 -0.6792 -0.3146
 3224TIP3    H231232   2.319   0.046   0.440  0.6502  0.0648  0.1929
 3225TIP3   OH231233   3.561   3.606   0.925 -0.1516 -1.1053  0.5116
 3225TIP3    H131234   3.487   3.660   0.896  0.4375 -0.4367  0.1935
 3225TIP3    H231235   3.522   3.539   0.980 -1.0699 -1.1579 -0.1776
 3226TIP3   OH231236   6.416   0.077   1.509 -0.1125  0.1388 -0.3409
 3226TIP3    H131237   6.403   0.030   1.592 -0.6320 -0.5537 -0.7981
 3226TIP3    H231238   6.343   0.138   1.504 -0.9329 -0.8441 -0.9524
 3227TIP3   OH231239   1.901   0.134   7.658  0.5925 -0.0679  0.4149
 3227TIP3    H131240   1.965   0.142   7.729  1.0921  3.6854 -0.2521
 3227TIP3    H231241   1.953   0.104   7.583  0.6251 -1.3044  0.9119
 3228TIP3   OH231242   0.385   4.053   8.419  0.1157  0.0015  0.1665
 3228TIP3    H131243   0.422   3.965   8.411  1.8023  0.6654  0.4655
 3228TIP3    H231244   0.356   4.059   8.510 -1.3332 -0.7112 -0.2049
 3229TIP3   OH231245   5.109   4.481   2.194  0.2904  0.1473 -0.2057
 3229TIP3    H131246   5.019   4.455   2.212 -0.1740  1.7364 -0.1136
 3229TIP3    H231247   5.148   4.494   2.281 -0.3491  2.5132 -0.2173
 3230TIP3   OH231248   5.092   3.831   1.935  0.1418 -0.1038  0.0012
 3230TIP3    H131249   5.039   3.910   1.934 -0.3242 -0.4116 -1.3298
 3230TIP3    H231250   5.148   3.840   2.013 -0.4808  1.1310  0.3209
 3231TIP3   OH231251   4.672   2.195   7.988  0.3760  0.1154 -0.6797
 3231TIP3    H131252   4.718   2.129   8.041  0.3324 -0.5695 -1.4642
 3231TIP3    H231253   4.710   2.278   8.015  0.6056 -0.2517  0.1687
 3232TIP3   OH231254   0.093   0.439   7.223 -0.3255 -0.2243 -0.3738
 3232TIP3    H131255   0.126   0.362   7.269  0.7498  0.1801 -0.4525
 3232TIP3    H231256   0.044   0.404   7.149 -0.7105 -0.8411  0.1599
 3233TIP3   OH231257   4.601   4.553   2.360 -0.5763 -0.0716  0.1987
 3233TIP3    H131258   4.609   4.615   2.434 -0.2406  0.2337 -0.0876
 3233TIP3    H231259   4.569   4.607   2.288  0.4681 -0.0444 -0.2752
 3234TIP3   OH231260   0.292   4.318   7.468  0.0073 -0.7517  0.3297
 3234TIP3    H131261   0.233   4.392   7.451 -0.8783 -1.3303  0.7955
 3234TIP3    H231262   0.330   4.338   7.553  0.5112 -0.3706  0.0232
 3235TIP3   OH231263   3.781   4.195   2.335 -0.1363  0.0015  0.2108
 3235TIP3    H131264   3.779   4.281   2.376  0.1900  0.0222  0.1837
 3235TIP3    H231265   3.697   4.155   2.358 -0.3225  0.3573  0.1525
 3236TIP3   OH231266   5.520   4.917   0.790  0.0533  0.2452 -0.1848
 3236TIP3    H131267   5.549   4.870   0.868 -1.2713 -0.3873 -0.0473
 3236TIP3    H231268   5.600   4.953   0.753  0.6962  0.8071  1.6150
 3237TIP3   OH231269   4.363   0.819   1.775  0.1740 -0.7824  0.1842
 3237TIP3    H131270   4.353   0.849   1.685  0.4293  1.1654  0.7611
 3237TIP3    H231271   4.273   0.816   1.809  0.1933 -0.0020  0.3144
 3238TIP3   OH231272   3.915   5.781   0.953  0.2019 -0.0976 -0.2743
 3238TIP3    H131273   3.829   5.820   0.940 -0.2299 -0.8008  0.3374
 3238TIP3    H231274   3.900   5.710   1.016  1.4833  0.7417  1.0730
 3239TIP3   OH231275   6.088   5.842   0.731  0.1879 -0.2773 -0.1750
 3239TIP3    H131276   6.115   5.933   0.730 -0.6486  0.0666 -3.4005
 3239TIP3    H231277   6.034   5.833   0.809  1.5727  1.5187  1.0498
 3240TIP3   OH231278   4.483   5.596   1.494  0.1950  0.3307  0.4375
 3240TIP3    H131279   4.566   5.548   1.500 -0.4811 -1.3597 -2.1009
 3240TIP3    H231280   4.430   5.561   1.566  1.7448  1.8029  2.4234
 3241TIP3   OH231281   2.496   4.411   6.395 -0.0029  0.1138 -0.0210
 3241TIP3    H131282   2.584   4.375   6.386 -0.3295 -0.3787 -1.5374
 3241TIP3    H231283   2.509   4.499   6.429  1.1317  0.2952 -0.8927
 3242TIP3   OH231284   2.071   2.317   1.490  0.0401 -0.5676 -0.4016
 3242TIP3    H131285   2.036   2.288   1.574 -3.7727  2.7718 -0.5368
 3242TIP3    H231286   2.154   2.358   1.512  0.0448 -1.4117  1.3789
 3243TIP3   OH231287   6.197   5.147   8.598  0.1192  0.1637  0.2514
 3243TIP3    H131288   6.145   5.127   8.676  1.6632 -0.4604  1.1560
 3243TIP3    H231289   6.213   5.062   8.558  1.1601  0.2379  0.4775
 3244TIP3   OH231290   4.661   0.342   0.434 -0.3477  0.4997  0.0106
 3244TIP3    H131291   4.644   0.436   0.439 -1.7459  0.2667 -0.0306
 3244TIP3    H231292   4.597   0.303   0.493  0.8694 -0.3773  0.7919
 3245TIP3   OH231293   3.441   4.003   0.384  0.4242  1.0141  0.2513
 3245TIP3    H131294   3.421   4.067   0.315 -0.2528  0.8446  0.2865
 3245TIP3    H231295   3.360   3.996   0.434  1.2049  1.9336  1.7269
 3246TIP3   OH231296   5.375   4.637   7.245 -0.5894  0.1636  0.0139
 3246TIP3    H131297   5.423   4.666   7.168  0.1379 -1.3297 -0.1182
 3246TIP3    H231298   5.442   4.604   7.305 -1.2914 -0.2679  0.5854
 3247TIP3   OH231299   4.380   2.062   7.916  0.1275 -0.0215 -0.1939
 3247TIP3    H131300   4.317   2.127   7.884  0.0869  0.4604  0.8232
 3247TIP3    H231301   4.462   2.111   7.926  0.5557 -0.5332 -1.0471
 3248TIP3   OH231302   3.681   1.870   0.509  0.1025  0.0847  0.0494
 3248TIP3    H131303   3.675   1.960   0.541 -1.6121  0.3634 -0.9265
 3248TIP3    H231304   3.715   1.879   0.420  3.3706 -0.5683  1.0955
 3249TIP3   OH231305   5.189   5.883   1.032 -0.3839 -0.0210 -0.0365
 3249TIP3    H131306   5.148   5.911   1.114  0.2879  1.0767 -0.0535
 3249TIP3    H231307   5.170   5.954   0.971  0.7062  0.0550 -0.3080
 3250TIP3   OH231308   3.594   3.156   1.638  0.3373 -0.7045  0.6668
 3250TIP3    H131309   3.521   3.112   1.683  2.0923 -1.4123  3.0125
 3250TIP3    H231310   3.564   3.247   1.630 -1.8335 -1.4602 -0.8783
 3251TIP3   OH231311   6.804   4.256   7.239 -0.5839  0.4963 -1.1780
 3251TIP3    H131312   6.771   4.177   7.196  0.1550 -0.0408 -0.8001
 3251TIP3    H231313   6.899   4.253   7.223 -0.7534  2.3800 -2.8770
 3252TIP3   OH231314   5.198   2.223   7.711 -0.1829  0.0192 -0.0006
 3252TIP3    H131315   5.262   2.155   7.730  0.2014  0.2153 -0.5502
 3252TIP3    H231316   5.119   2.195   7.756  0.4606  0.0975  1.2340
 3253TIP3   OH231317   0.778   3.503   1.842  0.0903 -0.3173  0.9233
 3253TIP3    H131318   0.734   3.548   1.914 -1.3502 -0.8668  0.4192
 3253TIP3    H231319   0.841   3.567   1.809 -1.8675  1.3765  0.2400
 3254TIP3   OH231320   3.574   5.433   7.394 -0.3566 -0.0111 -0.4628
 3254TIP3    H131321   3.543   5.446   7.484 -2.4159 -0.4549 -1.0601
 3254TIP3    H231322   3.554   5.341   7.375  0.5960 -0.0802 -1.1910
 3255TIP3   OH231323   2.383   3.814   0.392 -0.2823  0.2449  0.4780
 3255TIP3    H131324   2.477   3.834   0.384 -1.0292  4.0406 -1.4127
 3255TIP3    H231325   2.367   3.814   0.487  1.2800  2.2423  0.8275
 3256TIP3   OH231326   3.181   1.217   8.185 -0.3131 -0.5573 -0.2191
 3256TIP3    H131327   3.180   1.218   8.280 -2.0973 -3.0422 -0.1258
 3256TIP3    H231328   3.256   1.272   8.161 -0.2902  0.7712  2.5419
 3257TIP3   OH231329   5.682   2.036   7.933  0.2331 -0.4395 -0.7320
 3257TIP3    H131330   5.664   2.087   8.012  1.0589  0.3440 -1.0356
 3257TIP3    H231331   5.596   2.013   7.899 -0.1448  0.2946 -0.2860
 3258TIP3   OH231332   4.264   4.561   2.277 -0.2245  0.4554  0.5099
 3258TIP3    H131333   4.204   4.519   2.339 -0.7016  1.3507  0.6695
 3258TIP3    H231334   4.332   4.600   2.332  2.4179 -3.2230  0.2483
 3259TIP3   OH231335   0.345   3.697   0.167  0.3494  0.4288 -0.0647
 3259TIP3    H131336   0.417   3.726   0.224  0.6091  0.3711 -0.3655
 3259TIP3    H231337   0.376   3.616   0.128 -0.8853 -1.0451  1.8033
 3260TIP3   OH231338   1.869   0.214   6.982  0.7260 -0.6260 -0.5728
 3260TIP3    H131339   1.850   0.304   6.954  0.9198 -0.9263 -1.7234
 3260TIP3    H231340   1.885   0.167   6.901  2.7773 -1.2079  0.1094
 3261TIP3   OH231341   4.077   2.748   0.258 -0.5818 -0.7235  0.3804
 3261TIP3    H131342   4.014   2.758   0.329 -1.4524 -1.1081 -0.3041
 3261TIP3    H231343   4.037   2.682   0.201 -0.3038  0.1530 -0.8779
 3262TIP3   OH231344   1.748   2.971   2.075 -0.3319  0.3756  0.7857
 3262TIP3    H131345   1.734   3.037   2.144 -0.6271  1.0225  0.1203
 3262TIP3    H231346   1.670   2.916   2.080 -0.4741  0.5749  0.8042
 3263TIP3   OH231347   3.289   3.994   6.284 -0.3048 -0.0387  0.1600
 3263TIP3    H131348   3.270   3.906   6.253 -1.3235 -0.7451  2.5389
 3263TIP3    H231349   3.379   3.989   6.318 -0.4567 -0.2484  0.5375
 3264TIP3   OH231350   1.484   2.869   1.129  0.7542 -0.4415  0.0807
 3264TIP3    H131351   1.516   2.937   1.070  0.7663 -1.1048 -0.6868
 3264TIP3    H231352   1.559   2.850   1.186  1.3889 -1.1619 -0.9547
 3265TIP3   OH231353   2.341   5.287   7.869 -0.0450  0.1282 -0.3751
 3265TIP3    H131354   2.307   5.315   7.785 -1.4571  1.0358  0.4657
 3265TIP3    H231355   2.298   5.343   7.933 -0.9478 -2.1528  1.1733
 3266TIP3   OH231356   5.532   5.752   0.164  0.2794 -0.2634  0.3442
 3266TIP3    H131357   5.496   5.665   0.183  0.5213 -0.7655 -1.3423
 3266TIP3    H231358   5.626   5.743   0.179  0.1868 -0.0003  1.1251
 3267TIP3   OH231359   6.447   6.621   8.624  0.3729  0.8784  0.5197
 3267TIP3    H131360   6.384   6.692   8.612  0.0058  0.3721 -0.6219
 3267TIP3    H231361   6.429   6.559   8.553 -0.4761 -1.2440  2.4662
 3268TIP3   OH231362   3.349   0.741   0.149  0.4499  0.0611 -0.0148
 3268TIP3    H131363   3.264   0.782   0.133  1.5481  3.2417  1.3002
 3268TIP3    H231364   3.403   0.768   0.074  0.7951 -0.2839  0.1094
 3269TIP3   OH231365   3.801   6.336   1.453  0.1831  0.1329  0.7446
 3269TIP3    H131366   3.840   6.353   1.539 -0.9634 -0.2235  1.3708
 3269TIP3    H231367   3.834   6.250   1.428  1.7104  0.8808  0.1069
 3270TIP3   OH231368   6.483   3.148   0.776  0.5070 -0.0212 -0.4451
 3270TIP3    H131369   6.487   3.061   0.736  0.6884 -0.3997  0.3570
 3270TIP3    H231370   6.477   3.209   0.703  2.5508 -0.5627 -1.1275
 3271TIP3   OH231371   5.184   0.786   6.840 -0.1175 -0.2992 -0.2348
 3271TIP3    H131372   5.134   0.790   6.758  0.1202  1.2353 -0.3249
 3271TIP3    H231373   5.176   0.694   6.868  2.3445 -1.7162 -3.5404
 3272TIP3   OH231374   3.386   3.841   7.842 -1.1812 -0.0460  0.7599
 3272TIP3    H131375   3.379   3.787   7.763 -1.4782  0.2558  0.5743
 3272TIP3    H231376   3.409   3.780   7.912 -0.5365 -0.2606  0.3689
 3273TIP3   OH231377   5.001   5.756   2.341  0.1042 -0.2111 -0.5755
 3273TIP3    H131378   4.978   5.674   2.385  0.3890 -0.5152 -0.9825
 3273TIP3    H231379   5.086   5.781   2.379 -0.3164  0.2814  0.0662
 3274TIP3   OH231380   4.897   2.578   0.736  0.0602  0.5814 -0.3175
 3274TIP3    H131381   4.817   2.527   0.718  0.5914 -0.9969  1.4811
 3274TIP3    H231382   4.918   2.619   0.652 -2.5161  0.9003 -0.9057
 3275TIP3   OH231383   0.244   4.246   6.268 -0.0747  0.5169  0.2193
 3275TIP3    H131384   0.191   4.210   6.339 -1.3373  1.3703 -0.2651
 3275TIP3    H231385   0.182   4.295   6.214  1.1385  1.2173 -0.5792
 3276TIP3   OH231386   2.977   2.484   1.703  0.6788 -0.1951  0.8823
 3276TIP3    H131387   2.884   2.504   1.692  0.6842 -0.9382 -0.6797
 3276TIP3    H231388   3.009   2.552   1.763 -0.6299  0.6926  0.6123
 3277TIP3   OH231389   0.539   3.668   8.535 -0.2193  0.5846  0.0520
 3277TIP3    H131390   0.586   3.746   8.505  0.4617  0.3462  0.4726
 3277TIP3    H231391   0.495   3.635   8.456 -0.1425  1.1365 -0.2244
 3278TIP3   OH231392   4.732   5.334   7.432  0.4754 -0.5130 -0.0070
 3278TIP3    H131393   4.709   5.327   7.340  1.7522  0.0784 -0.3937
 3278TIP3    H231394   4.810   5.390   7.434  0.9189 -1.1111  1.3563
 3279TIP3   OH231395   2.580   2.021   8.425  0.2748 -0.0091  0.3805
 3279TIP3    H131396   2.651   2.085   8.429  0.0763  0.1656  1.6054
 3279TIP3    H231397   2.502   2.072   8.449 -0.0907 -0.4235  0.0710
 3280TIP3   OH231398   5.509   2.250   0.496  0.0933 -0.5151 -0.4492
 3280TIP3    H131399   5.438   2.195   0.463 -0.1194 -0.2800 -0.3840
 3280TIP3    H231400   5.474   2.339   0.493 -1.4070 -0.7115  3.9993
 3281TIP3   OH231401   4.878   0.184   0.344  0.0532 -0.0582  0.6453
 3281TIP3    H131402   4.826   0.252   0.385 -0.2566  0.5911 -0.7782
 3281TIP3    H231403   4.836   0.168   0.259  1.5197 -0.2794 -0.0817
 3282TIP3   OH231404   3.191   0.862   2.032  0.3218 -0.0059 -0.7738
 3282TIP3    H131405   3.116   0.869   2.091 -0.0330  0.6265 -1.2806
 3282TIP3    H231406   3.243   0.790   2.068  0.9389  1.3589  1.2164
 3283TIP3   OH231407   3.158   1.273   2.384 -0.0275 -0.3857  0.4583
 3283TIP3    H131408   3.107   1.223   2.448 -1.2263 -1.1117 -0.9953
 3283TIP3    H231409   3.216   1.209   2.343 -1.7735 -0.7613 -1.6169
 3284TIP3   OH231410   2.123   4.028   7.195  0.2673 -0.1309  0.1365
 3284TIP3    H131411   2.121   3.977   7.276  2.9750 -1.3936 -0.4739
 3284TIP3    H231412   2.216   4.033   7.173 -0.1345  2.6666 -1.3934
 3285TIP3   OH231413   3.029   1.752   6.479  0.0627  0.9457  0.3870
 3285TIP3    H131414   2.983   1.755   6.395  0.2980  1.0228  0.2625
 3285TIP3    H231415   3.093   1.683   6.469  0.8911  1.7364  0.0929
 3286TIP3   OH231416   4.912   3.657   8.517  0.1110 -0.5917  0.3559
 3286TIP3    H131417   4.931   3.746   8.488  0.7555 -0.6005  0.7245
 3286TIP3    H231418   4.938   3.601   8.443  2.9234 -0.7113  1.2940
 3287TIP3   OH231419   3.991   1.040   1.217 -0.1734  0.3974 -0.3565
 3287TIP3    H131420   4.019   1.036   1.125 -0.4192  0.7044 -0.4450
 3287TIP3    H231421   4.002   0.951   1.249 -0.2488  0.2504 -0.7341
 3288TIP3   OH231422   4.658   2.453   0.650  0.1090 -0.2749 -0.4170
 3288TIP3    H131423   4.572   2.441   0.690 -0.8356 -0.1614 -2.3311
 3288TIP3    H231424   4.647   2.525   0.588  2.0123  0.8247  0.4231
 3289TIP3   OH231425   2.993   2.825   8.003 -0.6788 -0.5327 -0.3240
 3289TIP3    H131426   3.043   2.746   7.982 -0.0462  0.0076 -0.9529
 3289TIP3    H231427   3.051   2.897   7.977 -0.4434  0.1946  1.9577
 3290TIP3   OH231428   4.295   1.027   6.897  0.1923 -0.2512 -0.0969
 3290TIP3    H131429   4.315   1.121   6.899  0.3455 -0.2869  1.4274
 3290TIP3    H231430   4.366   0.987   6.947  0.2972 -1.2174 -1.0128
 3291TIP3   OH231431   1.031   6.824   6.902 -0.5957  0.4296  0.4475
 3291TIP3    H131432   0.953   6.823   6.958 -1.3895  0.9845 -0.6097
 3291TIP3    H231433   1.050   6.732   6.885 -0.1129  0.2254  1.8973
 3292TIP3   OH231434   3.872   0.839   0.196  0.0573 -0.3072  0.2568
 3292TIP3    H131435   3.894   0.858   0.287 -0.2882  0.6069  0.1582
 3292TIP3    H231436   3.796   0.782   0.201  0.5621 -0.9711  0.5459
 3293TIP3   OH231437   3.539   6.738   6.888 -0.2745 -0.5574  0.4748
 3293TIP3    H131438   3.606   6.702   6.829  0.1958  0.8474  0.1252
 3293TIP3    H231439   3.571   6.825   6.911 -1.6388 -0.1378  0.8860
 3294TIP3   OH231440   2.712   0.252   0.939 -0.7498  0.0868 -0.9616
 3294TIP3    H131441   2.670   0.273   0.856 -0.5364  0.3706 -1.0005
 3294TIP3    H231442   2.792   0.205   0.915 -1.5336 -1.3639 -0.8560
 3295TIP3   OH231443   6.322   2.374   7.504 -0.2259 -0.4781 -0.4516
 3295TIP3    H131444   6.394   2.434   7.486  1.3478 -2.1438  0.0784
 3295TIP3    H231445   6.257   2.393   7.435  0.2565  1.7098 -0.3604
 3296TIP3   OH231446   3.223   2.729   2.431 -0.2380 -0.0023 -0.2136
 3296TIP3    H131447   3.224   2.634   2.438  1.0461  0.1219  2.1895
 3296TIP3    H231448   3.130   2.752   2.426 -0.5522 -1.3551 -1.0616
 3297TIP3   OH231449   0.457   2.396   1.293  0.2928  0.3755 -0.6940
 3297TIP3    H131450   0.392   2.346   1.243  0.7315  0.6732 -1.5708
 3297TIP3    H231451   0.407   2.467   1.333 -0.2181 -0.3770  0.0312
 3298TIP3   OH231452   1.559   5.484   8.519  0.0378 -0.3896  0.7720
 3298TIP3    H131453   1.487   5.546   8.507 -0.9730 -1.4254  1.3740
 3298TIP3    H231454   1.541   5.414   8.457  0.3850 -0.7960  1.1285
 3299TIP3   OH231455   1.447   2.343   0.215 -0.3522 -0.3959  0.1377
 3299TIP3    H131456   1.468   2.270   0.157  2.0736 -0.0602  0.4527
 3299TIP3    H231457   1.531   2.366   0.255 -1.6189  0.4798  2.5232
 3300TIP3   OH231458   1.389   3.959   0.934 -0.1919  0.1364  0.2242
 3300TIP3    H131459   1.330   3.885   0.916 -1.3992  1.0857  0.1242
 3300TIP3    H231460   1.435   3.934   1.014 -0.6381 -0.6988  0.2328
 3301TIP3   OH231461   3.790   3.191   7.627 -0.4677 -0.0040 -0.2591
 3301TIP3    H131462   3.813   3.284   7.628 -2.5938  0.5736  0.3931
 3301TIP3    H231463   3.873   3.146   7.607  0.9149  1.9215  0.7806
 3302TIP3   OH231464   2.498   3.724   8.609 -0.0024  0.0758  0.4890
 3302TIP3    H131465   2.415   3.681   8.588  0.2483 -1.4541  2.3303
 3302TIP3    H231466   2.520   3.774   8.531 -2.7644  0.7227  0.0175
 3303TIP3   OH231467   0.890   4.088   2.007  0.1224 -0.5903 -0.0186
 3303TIP3    H131468   0.870   3.995   1.996  0.0281 -0.5955  0.1864
 3303TIP3    H231469   0.904   4.121   1.918 -1.1536 -0.5163 -0.2179
 3304TIP3   OH231470   3.637   4.608   6.725 -0.3646 -0.3192 -0.5443
 3304TIP3    H131471   3.568   4.656   6.678 -0.8958 -1.9764 -1.5462
 3304TIP3    H231472   3.718   4.649   6.696 -0.8721  1.5568  0.5246
 3305TIP3   OH231473   5.456   1.208   0.154 -0.2054 -0.2626 -0.2217
 3305TIP3    H131474   5.409   1.180   0.233 -2.1583  1.7884 -0.5711
 3305TIP3    H231475   5.391   1.201   0.084  1.2826 -1.3483 -1.5589
 3306TIP3   OH231476   6.218   3.598   6.938  0.2097  0.2965 -0.5228
 3306TIP3    H131477   6.202   3.663   7.007 -1.0542 -0.5711  0.0418
 3306TIP3    H231478   6.313   3.596   6.929  0.2741  2.5676 -0.9111
 3307TIP3   OH231479   0.572   1.255   0.087 -0.6330  0.0640  0.6190
 3307TIP3    H131480   0.582   1.227   0.178  0.6929  0.2874  0.5613
 3307TIP3    H231481   0.501   1.319   0.089 -1.7702 -1.1859  1.2050
 3308TIP3   OH231482   1.813   6.762   0.410  0.1726 -0.0776  0.1696
 3308TIP3    H131483   1.761   6.692   0.369 -0.4296 -0.0944  0.9393
 3308TIP3    H231484   1.868   6.796   0.339 -2.1981  1.2082 -1.1854
 3309TIP3   OH231485   3.950   3.574   1.462  0.2901  0.0883 -0.1049
 3309TIP3    H131486   3.960   3.491   1.415  1.3932  0.0864  0.0891
 3309TIP3    H231487   3.977   3.553   1.552 -0.3479  0.4433  0.1757
 3310TIP3   OH231488   6.354   1.739   7.303 -0.3769  0.1282  0.0574
 3310TIP3    H131489   6.417   1.771   7.239  0.5396  0.2744  1.0011
 3310TIP3    H231490   6.358   1.803   7.375  0.4568 -1.3317  1.3547
 3311TIP3   OH231491   3.623   5.314   6.507 -0.7501  0.2191 -0.4085
 3311TIP3    H131492   3.716   5.333   6.497 -0.9906  2.1301  0.4603
 3311TIP3    H231493   3.585   5.397   6.536 -2.6964 -0.5761 -0.5269
 3312TIP3   OH231494   0.548   3.250   7.663  0.0988 -0.2908  0.6579
 3312TIP3    H131495   0.520   3.274   7.752  0.5111  1.0288  0.4464
 3312TIP3    H231496   0.466   3.244   7.614 -0.1757 -1.5274  1.2228
 3313TIP3   OH231497   4.397   4.084   1.961 -0.5429 -0.4047 -0.4537
 3313TIP3    H131498   4.358   4.025   2.025  0.0462 -1.6855 -1.2493
 3313TIP3    H231499   4.491   4.076   1.975 -0.3857  2.7669  1.5513
 3314TIP3   OH231500   3.218   0.035   8.050  0.1653 -0.4227 -0.0267
 3314TIP3    H131501   3.311   0.049   8.036  0.1318  1.3351  1.2768
 3314TIP3    H231502   3.213  -0.022   8.127  0.1807  0.8843  0.9774
 3315TIP3   OH231503   4.837   0.902   7.587 -0.0906  0.5861 -0.5914
 3315TIP3    H131504   4.921   0.940   7.564  0.3263  0.2517  0.3225
 3315TIP3    H231505   4.772   0.965   7.555  0.5009  0.7745 -1.4248
 3316TIP3   OH231506   1.306   6.683   1.081 -0.0073  0.4064  0.1785
 3316TIP3    H131507   1.273   6.597   1.054 -0.9342  1.6241 -3.0963
 3316TIP3    H231508   1.232   6.723   1.127 -0.5580  0.4241 -0.6999
 3317TIP3   OH231509   6.508   0.820   0.194 -0.3988 -0.0040 -0.2499
 3317TIP3    H131510   6.555   0.892   0.237  1.8210 -0.9460 -0.9683
 3317TIP3    H231511   6.477   0.857   0.112  2.1854 -0.1996 -1.4114
 3318TIP3   OH231512   3.645   3.833   0.591 -0.0882  0.2422 -0.1711
 3318TIP3    H131513   3.590   3.912   0.592  1.6975  1.5727  1.6354
 3318TIP3    H231514   3.583   3.761   0.586 -2.0350  1.6527  1.7667
 3319TIP3   OH231515   3.602   0.508   0.502  0.6554  0.3998 -0.3826
 3319TIP3    H131516   3.589   0.600   0.524 -0.6472 -0.3673  2.4179
 3319TIP3    H231517   3.518   0.480   0.465  0.6393  0.0185 -0.0560
 3320TIP3   OH231518   6.410   5.069   0.930 -0.1615  0.0380 -0.4108
 3320TIP3    H131519   6.445   5.143   0.881  0.5015 -0.9849 -1.5429
 3320TIP3    H231520   6.485   5.011   0.942 -0.2308  0.3661  2.1228
 3321TIP3   OH231521   1.673   1.810   7.263  0.1441  0.0433 -0.1280
 3321TIP3    H131522   1.597   1.868   7.261 -1.3701 -1.7697  1.2179
 3321TIP3    H231523   1.678   1.781   7.354  3.3601  1.1623  0.1755
 3322TIP3   OH231524   4.407   2.715   8.387 -0.6150  0.6193 -0.0174
 3322TIP3    H131525   4.376   2.641   8.439 -1.2164  0.6619 -0.3115
 3322TIP3    H231526   4.502   2.715   8.399 -0.6649  0.1044  0.3816
 3323TIP3   OH231527   6.766   0.857   8.465  0.3368  0.3514  0.2809
 3323TIP3    H131528   6.761   0.923   8.535  1.0640  2.9302 -1.9151
 3323TIP3    H231529   6.859   0.843   8.452  0.2463  0.6458 -0.7768
 3324TIP3   OH231530   1.330   0.028   0.851  0.3486 -0.3528  0.0211
 3324TIP3    H131531   1.299  -0.046   0.904 -0.7763  0.0925  0.0193
 3324TIP3    H231532   1.266   0.034   0.779  1.2674 -0.2969 -0.8160
 3325TIP3   OH231533   3.062   0.430   1.812  0.0975 -0.6830 -0.4222
 3325TIP3    H131534   3.081   0.378   1.734  0.9491 -2.0356  0.6489
 3325TIP3    H231535   3.147   0.467   1.837  0.2304 -1.8419  0.9478
 3326TIP3   OH231536   3.669   1.390   0.539 -0.1779 -0.4070  0.0055
 3326TIP3    H131537   3.680   1.477   0.499  1.6304 -0.8029 -0.4388
 3326TIP3    H231538   3.753   1.372   0.581 -0.5761 -1.8887  0.2235
 3327TIP3   OH231539   2.817   6.867   8.462 -0.6870  0.1735 -0.3670
 3327TIP3    H131540   2.835   6.775   8.445  0.9034  0.9557 -3.8262
 3327TIP3    H231541   2.781   6.901   8.380 -1.5478  2.5898  0.8966
 3328TIP3   OH231542   1.449   3.932   2.463 -0.2549  0.2095  0.4096
 3328TIP3    H131543   1.438   4.013   2.512 -0.0050  1.0239 -0.8431
 3328TIP3    H231544   1.541   3.932   2.436 -0.1271 -0.7352  0.7793
 3329TIP3   OH231545   0.287   5.729   1.608  0.2174  0.6346  0.1022
 3329TIP3    H131546   0.294   5.772   1.523 -0.6281  0.4781 -0.0517
 3329TIP3    H231547   0.206   5.762   1.645  0.2235  0.1592  0.5477
 3330TIP3   OH231548   2.594   1.088   1.589 -0.6112  0.0497  0.4500
 3330TIP3    H131549   2.675   1.097   1.640 -0.8319 -1.3286  1.0791
 3330TIP3    H231550   2.578   1.176   1.555  1.2702  0.3166  0.1265
 3331TIP3   OH231551   3.189   6.147   0.297 -0.1214  0.2029 -0.2411
 3331TIP3    H131552   3.202   6.157   0.391 -1.0746  1.0280 -0.1879
 3331TIP3    H231553   3.164   6.055   0.286 -1.7975  0.5445  0.5263
 3332TIP3   OH231554   3.466   3.356   8.640 -0.2903  0.8097  0.2791
 3332TIP3    H131555   3.490   3.293   8.708 -1.6909  0.8218  0.8114
 3332TIP3    H231556   3.425   3.303   8.572 -3.4323  1.2621  1.6413
 3333TIP3   OH231557   5.148   4.808   0.415 -0.9177 -0.3582  0.3773
 3333TIP3    H131558   5.107   4.761   0.488 -0.1678  0.7218  1.5605
 3333TIP3    H231559   5.222   4.853   0.456  0.6726 -1.2185 -1.4345
 3334TIP3   OH231560   3.752   0.276   1.113 -0.0683 -0.0916  0.2467
 3334TIP3    H131561   3.827   0.234   1.154  0.3788  1.0220  0.6182
 3334TIP3    H231562   3.708   0.206   1.065  0.8962 -0.8699  0.4702
 3335TIP3   OH231563   1.658   3.797   0.020  0.1333  0.0688 -0.7265
 3335TIP3    H131564   1.583   3.857   0.026 -2.0075 -2.3418 -1.3370
 3335TIP3    H231565   1.711   3.833  -0.051  0.5387  2.7631  0.8115
 3336TIP3   OH231566   5.604   2.077   2.164 -0.0970  0.4311 -0.1995
 3336TIP3    H131567   5.665   2.149   2.149  0.4329  0.3313  1.3059
 3336TIP3    H231568   5.532   2.116   2.212 -0.2758  0.1438 -0.2316
 3337TIP3   OH231569   5.165   3.228   7.818  0.5037 -0.0426 -0.1781
 3337TIP3    H131570   5.203   3.150   7.858  2.0531  0.4804 -0.5324
 3337TIP3    H231571   5.175   3.214   7.724  0.4120  0.3871 -0.2573
 3338TIP3   OH231572   3.766   2.789   1.687 -0.5672  0.7255  0.3988
 3338TIP3    H131573   3.710   2.795   1.764 -0.5747  1.6653  0.3283
 3338TIP3    H231574   3.855   2.782   1.722 -0.5598  1.2783  0.4987
 3339TIP3   OH231575   5.198   5.216   7.749 -0.0514  0.0024 -0.3824
 3339TIP3    H131576   5.181   5.244   7.659  1.5501 -1.4652 -1.1939
 3339TIP3    H231577   5.264   5.278   7.781 -1.1651  0.9815  0.0688
 3340TIP3   OH231578   1.577   4.180   8.408 -0.1914  0.4323 -0.7605
 3340TIP3    H131579   1.607   4.143   8.325 -0.2295  0.8596 -0.9691
 3340TIP3    H231580   1.485   4.200   8.394 -0.3886 -0.1835 -0.3653
 3341TIP3   OH231581   3.385   4.472   6.596 -0.2154 -0.2800  0.1834
 3341TIP3    H131582   3.394   4.377   6.587 -1.3907 -0.3572 -0.3651
 3341TIP3    H231583   3.445   4.508   6.531 -1.0339 -0.6906 -0.8282
 3342TIP3   OH231584   0.559   1.871   8.641 -0.3945 -0.0548  0.7967
 3342TIP3    H131585   0.570   1.857   8.735 -3.5962 -1.8562  1.0219
 3342TIP3    H231586   0.629   1.818   8.601  1.0180  0.7539  2.0786
 3343TIP3   OH231587   2.842   6.055   0.125 -0.1913 -0.1182 -0.0129
 3343TIP3    H131588   2.850   5.964   0.154  0.5742 -0.1463 -0.3029
 3343TIP3    H231589   2.902   6.062   0.051 -0.7135  0.4634 -0.3938
 3344TIP3   OH231590   4.180   6.448   1.127  0.2166  0.3850  0.0738
 3344TIP3    H131591   4.182   6.537   1.164 -0.7002  1.1662 -1.6704
 3344TIP3    H231592   4.104   6.407   1.169  0.8962  0.2328  1.2160
 3345TIP3   OH231593   4.610   2.915   1.430 -0.1773  0.5150  0.5056
 3345TIP3    H131594   4.606   2.831   1.385  1.5035  0.2396  0.8212
 3345TIP3    H231595   4.563   2.900   1.512  0.6444 -0.3163  0.8405
 3346TIP3   OH231596   0.495   2.227   6.621 -0.6497 -0.2851 -0.2656
 3346TIP3    H131597   0.534   2.192   6.541 -1.9527  0.8589 -1.4498
 3346TIP3    H231598   0.551   2.301   6.644 -0.5214 -0.3537 -0.3570
 3347TIP3   OH231599   1.302   6.753   1.775 -0.1370  0.3535 -0.0115
 3347TIP3    H131600   1.361   6.710   1.837  0.0902  0.9989  0.2283
 3347TIP3    H231601   1.289   6.689   1.705 -0.3577 -0.3672  0.6735
 3348TIP3   OH231602   1.006   3.829   7.907  0.2875  0.2223 -0.3796
 3348TIP3    H131603   0.964   3.750   7.872 -1.2155  1.3090 -1.1672
 3348TIP3    H231604   0.957   3.848   7.988  1.4482 -0.3056  0.4759
 3349TIP3   OH231605   0.501   5.359   0.520  0.3885 -0.0965 -0.0519
 3349TIP3    H131606   0.428   5.421   0.510  0.5172  0.2597  1.0663
 3349TIP3    H231607   0.461   5.279   0.552  0.5669  0.3523  1.3381
 3350TIP3   OH231608   0.356   3.385   2.104  0.0260  0.3189  0.6015
 3350TIP3    H131609   0.436   3.379   2.053  1.1187 -0.6873  2.3172
 3350TIP3    H231610   0.360   3.470   2.147 -0.2150  0.5832  0.1111
 3351TIP3   OH231611   3.735   4.594   1.335 -0.4614 -0.2248  0.7244
 3351TIP3    H131612   3.777   4.637   1.261 -1.5779 -0.4804 -0.0731
 3351TIP3    H231613   3.773   4.506   1.336  0.7665  0.2828  1.4897
 3352TIP3   OH231614   2.504   5.219   8.543  0.2437 -0.5426  0.0267
 3352TIP3    H131615   2.551   5.195   8.623  1.0156  2.0380  0.4403
 3352TIP3    H231616   2.411   5.215   8.568  0.4813  0.8694  1.3063
 3353TIP3   OH231617   5.692   4.405   1.658 -0.0768  0.0816 -0.6713
 3353TIP3    H131618   5.722   4.382   1.570 -2.6668  0.1544 -1.6520
 3353TIP3    H231619   5.717   4.331   1.713  1.1360 -0.1824 -1.5614
 3354TIP3   OH231620   3.923   1.426   7.079 -0.1913  0.1077  0.2676
 3354TIP3    H131621   3.947   1.468   6.996  0.0247  0.6028  0.5805
 3354TIP3    H231622   3.943   1.491   7.146 -1.3341  0.1046  0.6338
 3355TIP3   OH231623   1.878   0.881   6.995  0.2958 -0.0368 -0.0239
 3355TIP3    H131624   1.851   0.789   7.006 -1.1360  0.2596 -0.7853
 3355TIP3    H231625   1.806   0.932   7.031  0.2310  0.8052 -1.2819
 3356TIP3   OH231626   1.741   0.605   0.091  0.3999 -0.7754 -0.3807
 3356TIP3    H131627   1.751   0.607   0.186 -0.9021  0.2343 -0.2365
 3356TIP3    H231628   1.825   0.574   0.058  2.0287  1.9561  0.9094
 3357TIP3   OH231629   3.968   1.641   1.390  0.0662  0.7134  0.1888
 3357TIP3    H131630   3.950   1.551   1.416  1.2390  0.3507 -0.1944
 3357TIP3    H231631   3.907   1.659   1.319  1.1319 -0.4714 -1.0671
 3358TIP3   OH231632   5.904   4.673   7.911  0.1971 -0.2923  0.2224
 3358TIP3    H131633   5.870   4.749   7.863 -0.8738 -0.0438  1.3210
 3358TIP3    H231634   5.998   4.689   7.917  0.4888 -0.6328 -2.2738
 3359TIP3   OH231635   3.588   4.276   1.837  0.5920  1.0169 -0.6027
 3359TIP3    H131636   3.625   4.249   1.754  0.0645  1.5510 -1.0242
 3359TIP3    H231637   3.530   4.204   1.862 -1.4629  2.0405 -2.1403
 3360TIP3   OH231638   6.794   4.779   7.642  0.9651  0.1558 -0.5794
 3360TIP3    H131639   6.731   4.842   7.676  0.8786 -0.2089 -0.0565
 3360TIP3    H231640   6.849   4.830   7.582  0.7684  0.6806 -0.3164
 3361TIP3   OH231641   2.965   6.443   0.554  0.0805 -0.1213 -0.5615
 3361TIP3    H131642   2.916   6.409   0.480 -1.6780  0.2639  0.3836
 3361TIP3    H231643   3.021   6.511   0.517 -2.8099  2.0837 -1.1937
 3362TIP3   OH231644   5.554   5.109   2.292 -0.5378  0.4583 -0.2981
 3362TIP3    H131645   5.529   5.176   2.356  0.2852 -1.0599  1.7425
 3362TIP3    H231646   5.635   5.142   2.254 -0.4300  0.8858  0.2805
 3363TIP3   OH231647   1.638   0.044   8.381 -0.1040 -0.3803  0.0419
 3363TIP3    H131648   1.612  -0.044   8.408 -0.1057 -0.2702  0.4007
 3363TIP3    H231649   1.723   0.031   8.338 -0.2812 -0.6069 -0.2380
 3364TIP3   OH231650   0.813   6.106   6.477  0.0281 -0.7729  0.0619
 3364TIP3    H131651   0.805   6.049   6.400 -0.6050 -2.0059  1.0092
 3364TIP3    H231652   0.825   6.046   6.550 -0.0395  0.3537  1.0202
 3365TIP3   OH231653   5.015   3.384   7.550  0.5413  0.0174 -0.5483
 3365TIP3    H131654   5.011   3.347   7.462  0.9865  0.7301 -0.8708
 3365TIP3    H231655   4.924   3.401   7.573  0.5210  1.5471 -1.6148
 3366TIP3   OH231656   4.184   6.670   1.949  0.0345  0.0741  0.1398
 3366TIP3    H131657   4.117   6.700   2.010  1.5768  1.2597  1.3360
 3366TIP3    H231658   4.215   6.749   1.906 -1.7035 -0.8022 -3.0819
 3367TIP3   OH231659   6.281   0.132   8.038 -0.4894  0.4073 -0.0519
 3367TIP3    H131660   6.306   0.069   8.104  0.5690  0.5868 -0.2702
 3367TIP3    H231661   6.247   0.207   8.087 -0.1780  0.3399  0.2628
 3368TIP3   OH231662   2.482   1.472   2.054 -0.4501 -0.2897 -0.0672
 3368TIP3    H131663   2.418   1.530   2.095 -0.2135  0.6909 -1.0372
 3368TIP3    H231664   2.430   1.414   1.999 -0.6981 -1.1046  0.9902
 3369TIP3   OH231665   2.144   3.548   1.573  0.2427 -0.2124 -0.7711
 3369TIP3    H131666   2.140   3.468   1.520  0.9475 -0.4361 -0.4989
 3369TIP3    H231667   2.063   3.594   1.553  0.6214 -0.1406 -2.2939
 3370TIP3   OH231668   2.610   4.730   1.246 -0.0687 -0.5069 -0.3984
 3370TIP3    H131669   2.619   4.734   1.151  0.6860  2.2515 -0.2860
 3370TIP3    H231670   2.634   4.640   1.268 -2.4165 -1.9426 -2.9386
 3371TIP3   OH231671   0.421   1.431   0.638 -0.5315  0.5338  0.6424
 3371TIP3    H131672   0.431   1.390   0.552 -2.6130 -1.5469  1.2957
 3371TIP3    H231673   0.471   1.376   0.698 -0.5741  0.9277  1.0479
 3372TIP3   OH231674   3.696   2.946   0.464 -0.6470  0.3155  0.0941
 3372TIP3    H131675   3.721   2.990   0.545  0.5400 -0.1380 -0.0056
 3372TIP3    H231676   3.752   2.869   0.461 -0.5888  0.3974 -1.2242
 3373TIP3   OH231677   1.707   6.514   0.953 -0.2398  0.5794  0.2952
 3373TIP3    H131678   1.638   6.577   0.932  1.8773  3.4708  1.3317
 3373TIP3    H231679   1.770   6.522   0.882  0.2124 -0.1287  0.6051
 3374TIP3   OH231680   4.063   5.490   7.207  0.2353  0.1986  0.2225
 3374TIP3    H131681   3.991   5.498   7.269  0.4665 -0.4749  0.5830
 3374TIP3    H231682   4.141   5.514   7.256  0.3037  0.5677 -0.0643
 3375TIP3   OH231683   6.318   0.576   7.732  0.3680  0.2205 -0.3183
 3375TIP3    H131684   6.345   0.544   7.646  0.7038  0.2003 -0.2069
 3375TIP3    H231685   6.330   0.500   7.790  1.4375  0.6137  0.0024
 3376TIP3   OH231686   3.071   6.340   0.788 -0.2730 -0.0169 -0.3292
 3376TIP3    H131687   2.995   6.293   0.822  0.8162 -0.5655  1.4905
 3376TIP3    H231688   3.042   6.375   0.704 -2.1924 -1.0859 -0.1699
 3377TIP3   OH231689   0.918   3.257   7.327 -0.3860  0.1803 -0.5736
 3377TIP3    H131690   0.878   3.333   7.368 -0.7686  0.5989 -1.6866
 3377TIP3    H231691   0.852   3.226   7.265  0.4567  0.0214 -1.4090
 3378TIP3   OH231692   4.915   4.844   7.789 -0.6679 -0.3296  0.4423
 3378TIP3    H131693   4.844   4.824   7.728  0.2240  1.4893 -1.2939
 3378TIP3    H231694   4.916   4.769   7.849 -2.0648 -1.8598 -1.3009
 3379TIP3   OH231695   0.799   4.911   2.064  0.0933 -0.1715 -0.0751
 3379TIP3    H131696   0.863   4.979   2.047  1.3643 -0.9826  1.2752
 3379TIP3    H231697   0.760   4.934   2.148 -1.9120  0.6548 -1.1574
 3380TIP3   OH231698   2.053   0.317   0.304  0.2133  0.2660 -0.3579
 3380TIP3    H131699   2.058   0.384   0.372  0.8937  1.6401 -1.6945
 3380TIP3    H231700   2.110   0.246   0.336  1.2652  1.2867  0.1153
 3381TIP3   OH231701   5.666   1.500   7.989  0.4399 -0.4311 -0.1448
 3381TIP3    H131702   5.700   1.412   7.998 -0.1022 -0.6080  0.2062
 3381TIP3    H231703   5.642   1.508   7.896  2.5721  0.1273 -0.6977
 3382TIP3   OH231704   2.115   5.492   7.473 -0.2568  0.1447  0.1793
 3382TIP3    H131705   2.129   5.418   7.532 -2.3385 -0.1407  0.3901
 3382TIP3    H231706   2.198   5.501   7.426 -0.1460 -2.8515 -0.4427
 3383TIP3   OH231707   0.537   0.787   6.268 -0.0617  0.1934  0.0421
 3383TIP3    H131708   0.515   0.698   6.297 -0.2688  0.3981  0.5131
 3383TIP3    H231709   0.632   0.785   6.255  0.2764  0.5097  2.1848
 3384TIP3   OH231710   0.018   6.299   8.580  0.5071  0.5051  0.2777
 3384TIP3    H131711   0.091   6.237   8.574 -0.2291 -0.3034 -0.5940
 3384TIP3    H231712  -0.037   6.265   8.650 -0.6736 -0.7198 -1.1790
 3385TIP3   OH231713   5.284   4.716   6.284  0.2199  0.4294 -0.1938
 3385TIP3    H131714   5.322   4.801   6.265 -0.4712  0.5795 -0.9932
 3385TIP3    H231715   5.359   4.658   6.296  0.6907  1.0801  0.0490
 3386TIP3   OH231716   3.145   1.828   1.803  0.3286 -0.7709  0.2557
 3386TIP3    H131717   3.183   1.746   1.773  3.4899  0.9034 -0.7257
 3386TIP3    H231718   3.157   1.826   1.898  1.3317 -1.0561  0.1359
 3387TIP3   OH231719   2.808   0.006   7.743 -0.6096 -0.3936 -0.4594
 3387TIP3    H131720   2.760  -0.073   7.715  0.7798 -1.2381 -0.5550
 3387TIP3    H231721   2.900  -0.017   7.731 -0.0962  0.5767  1.2932
 3388TIP3   OH231722   2.563   5.235   0.763 -0.2015  0.1652  0.0520
 3388TIP3    H131723   2.563   5.328   0.785 -1.8932  0.0016  0.9188
 3388TIP3    H231724   2.545   5.191   0.847 -4.3955 -0.6122 -0.9973
 3389TIP3   OH231725   5.792   5.675   0.207 -0.0876 -0.5870 -0.1274
 3389TIP3    H131726   5.813   5.618   0.281  1.2262  0.6669  0.4910
 3389TIP3    H231727   5.783   5.615   0.133  1.3234 -1.6224  0.4919
 3390TIP3   OH231728   2.325   0.501   6.188  0.2455  0.3516 -0.2661
 3390TIP3    H131729   2.237   0.534   6.169  1.3781  2.7489 -1.8480
 3390TIP3    H231730   2.359   0.473   6.103  1.6112  1.1200 -0.0052
 3391TIP3   OH231731   3.325   5.905   8.644 -0.0140  0.2943 -0.4710
 3391TIP3    H131732   3.327   5.891   8.549  1.4258  1.8201 -0.7256
 3391TIP3    H231733   3.411   5.942   8.664 -0.5093  0.5472  1.3483
 3392TIP3   OH231734   5.617   4.363   0.673  0.5252 -0.4116  0.1498
 3392TIP3    H131735   5.533   4.400   0.699  1.1572  0.1427  1.4986
 3392TIP3    H231736   5.615   4.273   0.705  0.4469 -0.3920  0.2003
 3393TIP3   OH231737   0.395   5.498   0.032  0.2419  0.5610  0.3494
 3393TIP3    H131738   0.471   5.555   0.031  0.1726  0.7418  2.2621
 3393TIP3    H231739   0.320   5.557   0.028  0.1703  0.4429 -0.2667
 3394TIP3   OH231740   6.167   3.749   1.820 -0.1113 -0.4239  0.3247
 3394TIP3    H131741   6.213   3.828   1.847 -2.0083  0.2453  1.8769
 3394TIP3    H231742   6.091   3.745   1.878 -0.1265 -3.3575  0.2781
 3395TIP3   OH231743   0.067   4.416   8.125  0.2776 -0.4586  0.3262
 3395TIP3    H131744  -0.021   4.434   8.158  0.5845 -0.1853  1.0148
 3395TIP3    H231745   0.071   4.462   8.041 -0.2386 -0.4835  0.2864
 3396TIP3   OH231746   0.645   4.759   1.304  0.5142  0.8842  0.2493
 3396TIP3    H131747   0.715   4.766   1.368  0.7133  0.7010  0.0516
 3396TIP3    H231748   0.572   4.807   1.343  1.3516  2.8184 -0.3931
 3397TIP3   OH231749   4.274   4.155   1.719  0.3192 -0.6106  0.5476
 3397TIP3    H131750   4.331   4.137   1.793  2.7720 -0.3071 -1.1552
 3397TIP3    H231751   4.255   4.069   1.682  0.5222 -0.6464  0.5261
 3398TIP3   OH231752   6.753   2.253   8.054  0.4417  0.2053  0.0780
 3398TIP3    H131753   6.766   2.328   7.997  0.9995  1.1867  1.4405
 3398TIP3    H231754   6.671   2.271   8.100  0.7321  0.1562  0.6312
 3399TIP3   OH231755   3.279   5.901   1.619 -0.1623 -0.3095  0.0432
 3399TIP3    H131756   3.297   5.876   1.710 -0.7997 -1.0801 -0.0279
 3399TIP3    H231757   3.225   5.829   1.585  0.4491 -0.2582 -1.0839
 3400TIP3   OH231758   3.774   4.801   7.846 -0.4427 -0.1346  0.2650
 3400TIP3    H131759   3.702   4.774   7.789 -0.7061  0.5898  0.2419
 3400TIP3    H231760   3.731   4.839   7.923 -0.0844  0.0260  0.3880
 3401TIP3   OH231761   1.488   1.128   2.026 -0.2571 -0.4120 -0.3511
 3401TIP3    H131762   1.522   1.173   1.949  1.4541 -1.1425 -0.0574
 3401TIP3    H231763   1.498   1.191   2.097 -0.9455 -0.0899 -0.5258
 3402TIP3   OH231764   6.127   2.692   2.118  0.0612 -0.2097  0.4580
 3402TIP3    H131765   6.112   2.600   2.141  0.9084 -0.0390  1.7546
 3402TIP3    H231766   6.183   2.726   2.187 -0.1689  1.2793 -0.0463
 3403TIP3   OH231767   3.177   4.020   0.468  0.5192 -0.5089  0.2590
 3403TIP3    H131768   3.122   3.943   0.482 -2.4798  0.9970 -2.0772
 3403TIP3    H231769   3.145   4.083   0.533  1.5127 -0.5179  0.7732
 3404TIP3   OH231770   4.235   2.077   0.165  0.0285 -0.2376 -0.6764
 3404TIP3    H131771   4.302   2.030   0.116  2.2636  1.2160  0.8317
 3404TIP3    H231772   4.209   2.149   0.106  0.3334 -0.3769 -0.9835
 3405TIP3   OH231773   5.586   2.307   8.584 -0.0355  0.4522 -0.6619
 3405TIP3    H131774   5.550   2.221   8.561 -0.4086  0.3017  0.4201
 3405TIP3    H231775   5.572   2.360   8.506  0.7617 -0.6318 -1.5749
 3406TIP3   OH231776   3.505   3.832   8.137  0.0267 -0.1625 -0.2922
 3406TIP3    H131777   3.446   3.906   8.134 -2.3021 -1.9000  0.0417
 3406TIP3    H231778   3.505   3.804   8.229 -0.4185 -1.4929 -0.6679
 3407TIP3   OH231779   1.565   0.827   0.362 -0.3600 -0.2832 -0.1858
 3407TIP3    H131780   1.577   0.748   0.414 -0.3686 -0.8223 -0.9913
 3407TIP3    H231781   1.510   0.800   0.289 -2.7789  1.1183  1.0220
 3408TIP3   OH231782   5.990   1.632   0.584  0.1180 -0.6043 -0.2306
 3408TIP3    H131783   6.076   1.638   0.544  0.1810  0.7482  0.0384
 3408TIP3    H231784   5.986   1.708   0.642 -0.9807 -1.0506  0.3032
 3409TIP3   OH231785   1.417   5.447   7.171  0.1947  0.3180  0.1152
 3409TIP3    H131786   1.414   5.355   7.144 -0.0330 -0.3882  2.3803
 3409TIP3    H231787   1.371   5.450   7.255  0.1033  2.5358  0.0594
 3410TIP3   OH231788   0.718   0.217   1.150  0.7125 -0.1880 -0.8143
 3410TIP3    H131789   0.762   0.156   1.209  1.6717  0.9259 -0.3191
 3410TIP3    H231790   0.749   0.193   1.063  0.8648 -0.5778 -0.6557
 3411TIP3   OH231791   2.135   5.126   8.219 -0.0775  0.0465 -0.6649
 3411TIP3    H131792   2.095   5.060   8.164 -3.4393 -0.1906  1.7797
 3411TIP3    H231793   2.181   5.076   8.287 -0.2416  0.2546 -0.3968
 3412TIP3   OH231794   5.166   4.173   1.050  0.2561  0.3178 -0.1796
 3412TIP3    H131795   5.118   4.254   1.067  1.3570  1.3551 -1.6780
 3412TIP3    H231796   5.180   4.173   0.955 -1.0541 -2.4420 -0.4728
 3413TIP3   OH231797   0.252   1.740   7.166 -1.0852 -0.9234 -0.0535
 3413TIP3    H131798   0.293   1.653   7.160  3.7663  0.9815  0.3754
 3413TIP3    H231799   0.249   1.758   7.260 -1.6441 -0.4821 -0.1553
 3414TIP3   OH231800   6.466   5.799   7.951 -0.1820 -0.7284  0.1984
 3414TIP3    H131801   6.542   5.749   7.981  0.8643  0.2887 -0.6686
 3414TIP3    H231802   6.405   5.733   7.917  1.5327 -1.4071 -1.7463
 3415TIP3   OH231803   5.073   4.359   1.734 -0.1368 -0.1101 -0.5076
 3415TIP3    H131804   4.981   4.342   1.755  0.1379 -2.3506 -0.8579
 3415TIP3    H231805   5.118   4.357   1.818 -0.4295  1.3041 -0.3020
 3416TIP3   OH231806   1.297   5.200   1.301 -0.0526 -0.3268 -0.2234
 3416TIP3    H131807   1.261   5.135   1.241  0.1870 -0.0724 -0.6453
 3416TIP3    H231808   1.366   5.243   1.251 -0.1583  0.2015  0.0816
 3417TIP3   OH231809   0.563   0.271   0.057 -0.1519  0.0502 -0.1203
 3417TIP3    H131810   0.650   0.305   0.038 -0.0416  0.9950  1.8536
 3417TIP3    H231811   0.504   0.343   0.036 -0.2892  0.0584  0.2976
 3418TIP3   OH231812   6.596   3.011   1.805 -0.1246 -0.1881 -0.0932
 3418TIP3    H131813   6.675   2.965   1.833 -1.2364 -1.5480  0.9453
 3418TIP3    H231814   6.625   3.064   1.731  1.4588 -1.7496 -0.6832
 3419TIP3   OH231815   1.869   3.020   8.133 -0.0680  0.4573  0.4078
 3419TIP3    H131816   1.794   3.036   8.077 -0.2390  1.4315  0.8936
 3419TIP3    H231817   1.852   2.934   8.172 -1.2352  0.9248  0.9802
 3420TIP3   OH231818   4.393   2.696   0.858  0.1443 -0.1369  0.1472
 3420TIP3    H131819   4.320   2.663   0.806  0.0224  0.1663  0.1203
 3420TIP3    H231820   4.397   2.789   0.836  0.8423 -0.2473 -0.2097
 3421TIP3   OH231821   2.693   4.575   7.250 -0.4637  0.4408  0.6670
 3421TIP3    H131822   2.778   4.532   7.251 -0.6390  0.0696  0.1510
 3421TIP3    H231823   2.693   4.629   7.171 -0.0754  1.7630  1.5523
 3422TIP3   OH231824   6.380   3.676   0.984 -0.4643 -0.7252  0.5540
 3422TIP3    H131825   6.367   3.584   1.007  2.6248 -1.4201  0.0243
 3422TIP3    H231826   6.438   3.674   0.908 -0.0058  1.6796  0.7574
 3423TIP3   OH231827   0.009   6.332   1.756  0.0915 -0.2085  0.1756
 3423TIP3    H131828  -0.066   6.375   1.715 -0.0903 -0.5438  0.1451
 3423TIP3    H231829   0.084   6.387   1.736 -0.1099 -0.0024 -0.0080
 3424TIP3   OH231830   1.406   5.746   7.019  0.0013  0.1279  0.2675
 3424TIP3    H131831   1.408   5.783   6.931  1.3973  1.5718  0.8460
 3424TIP3    H231832   1.387   5.820   7.076  1.3404 -0.3130  1.3498
 3425TIP3   OH231833   2.534   1.300   1.286  0.1209  0.2518  0.1087
 3425TIP3    H131834   2.563   1.383   1.322 -1.7371  0.6561  0.8068
 3425TIP3    H231835   2.477   1.324   1.212  2.0875 -0.5193 -1.7725
 3426TIP3   OH231836   4.290   3.566   0.522 -0.0088  0.0906 -0.2077
 3426TIP3    H131837   4.361   3.621   0.488  1.1868 -1.3725 -0.1556
 3426TIP3    H231838   4.279   3.498   0.456 -0.5802 -0.3525  0.3330
 3427TIP3   OH231839   6.112   2.829   1.125  0.0433 -0.0040 -0.3237
 3427TIP3    H131840   6.134   2.898   1.187 -0.2431 -0.8583  0.7570
 3427TIP3    H231841   6.093   2.752   1.180 -2.3290 -0.2167 -1.3411
 3428TIP3   OH231842   4.685   6.328   0.710 -0.2995  0.0651  0.3400
 3428TIP3    H131843   4.621   6.257   0.719 -0.8163  0.4728 -0.0889
 3428TIP3    H231844   4.691   6.366   0.797 -0.9074  0.2413  0.3134
 3429TIP3   OH231845   4.982   0.906   7.154 -0.2151  0.3611  0.0433
 3429TIP3    H131846   4.939   0.898   7.069  0.8876 -1.9003 -0.3859
 3429TIP3    H231847   5.076   0.903   7.134  0.0606 -0.9338  1.3423
 3430TIP3   OH231848   2.419   5.952   6.968  0.1739 -0.0068 -0.2799
 3430TIP3    H131849   2.349   5.958   7.033  0.5594 -0.3896  0.1724
 3430TIP3    H231850   2.393   5.877   6.914  1.4656 -1.7685  1.4041
 3431TIP3   OH231851   4.622   0.859   1.275 -0.3839  0.0522 -0.0719
 3431TIP3    H131852   4.537   0.896   1.252  1.6496  3.9768 -2.1904
 3431TIP3    H231853   4.672   0.860   1.193  1.3291 -3.7411  0.6910
 3432TIP3   OH231854   0.679   5.633   8.320  0.1803 -0.9023  0.0415
 3432TIP3    H131855   0.615   5.573   8.282 -0.0254  1.0997 -3.1501
 3432TIP3    H231856   0.764   5.602   8.288  0.0850  0.3167 -1.5104
 3433TIP3   OH231857   3.908   3.154   8.102  0.7844 -0.1483  0.5981
 3433TIP3    H131858   3.857   3.073   8.103  0.2421  0.1872  1.1156
 3433TIP3    H231859   3.969   3.144   8.029 -0.7378 -0.1379 -0.7442
 3434TIP3   OH231860   2.913   5.757   1.902 -0.0742 -0.0210 -0.4749
 3434TIP3    H131861   2.837   5.761   1.844  0.7233  4.4283 -1.5894
 3434TIP3    H231862   2.877   5.774   1.990 -0.5595  0.1890 -0.7108
 3435TIP3   OH231863   3.202   2.073   0.747  0.1468 -0.4967  0.0283
 3435TIP3    H131864   3.177   2.077   0.655 -0.9103  1.0202  0.3430
 3435TIP3    H231865   3.190   1.982   0.772 -2.5121 -0.3710 -0.5696
 3436TIP3   OH231866   1.619   0.433   7.305 -0.5548  0.3712 -0.4066
 3436TIP3    H131867   1.589   0.404   7.391  0.4533  2.0699  0.5731
 3436TIP3    H231868   1.679   0.364   7.277  1.3130  1.0623  1.5793
 3437TIP3   OH231869   3.319   1.029   1.445 -0.3035  0.0826 -0.0127
 3437TIP3    H131870   3.305   0.934   1.444  0.9718 -0.1275  0.3047
 3437TIP3    H231871   3.383   1.044   1.515 -1.1102  1.2843  0.5049
 3438TIP3   OH231872   3.219   4.725   8.204 -0.8528 -0.0924 -0.0132
 3438TIP3    H131873   3.225   4.685   8.117 -3.4574 -0.5418 -0.0593
 3438TIP3    H231874   3.249   4.815   8.191 -1.5408 -0.0372 -1.4809
 3439TIP3   OH231875   4.322   6.280   8.631 -0.0092 -0.3766  1.0374
 3439TIP3    H131876   4.235   6.309   8.604 -0.2661 -2.2176 -0.3097
 3439TIP3    H231877   4.315   6.184   8.636  2.3669 -0.7532 -0.9179
 3440TIP3   OH231878   2.161   1.525   0.705 -0.4444  0.6944 -0.1023
 3440TIP3    H131879   2.235   1.481   0.663 -0.0271  0.2611  1.0441
 3440TIP3    H231880   2.088   1.515   0.643 -0.6207 -2.4165  0.4460
 3441TIP3   OH231881   2.859   0.122   7.505  0.4081  0.4054 -0.4789
 3441TIP3    H131882   2.830   0.097   7.593 -2.4645  2.1422 -0.8072
 3441TIP3    H231883   2.897   0.209   7.516  3.4870 -0.8449 -0.4757
 3442TIP3   OH231884   1.605   6.711   0.805  0.0252 -0.1898 -0.3604
 3442TIP3    H131885   1.521   6.756   0.800  0.4900  0.5738 -1.6473
 3442TIP3    H231886   1.659   6.768   0.860  0.0473 -0.0959 -0.4783
 3443TIP3   OH231887   0.639   5.859   7.215 -0.1987 -0.9225  0.9704
 3443TIP3    H131888   0.567   5.886   7.272  1.3466 -1.4378  3.3158
 3443TIP3    H231889   0.675   5.942   7.182 -0.4701 -0.5334  1.6232
 3444TIP3   OH231890   1.259   1.839   1.055 -0.5779  0.2337  0.6848
 3444TIP3    H131891   1.350   1.811   1.065 -0.4721  0.5800  0.7137
 3444TIP3    H231892   1.265   1.932   1.033 -0.9783  0.7320  2.5219
 3445TIP3   OH231893   1.598   6.026   8.429  0.2419 -0.8793  0.3710
 3445TIP3    H131894   1.668   5.970   8.463  0.6037 -0.8101 -0.2532
 3445TIP3    H231895   1.531   5.965   8.400  0.4534 -0.9828  0.0886
 3446TIP3   OH231896   3.285   1.856   1.050  0.2195  0.2406  0.0385
 3446TIP3    H131897   3.204   1.871   1.099  0.5365  1.9355  0.1102
 3446TIP3    H231898   3.352   1.904   1.099  0.8662  0.5620 -1.1252
 3447TIP3   OH231899   0.045   2.338   1.701  0.1216  0.1671 -0.0373
 3447TIP3    H131900   0.086   2.361   1.618 -1.0440  1.0842 -0.3939
 3447TIP3    H231901   0.040   2.421   1.750  0.6453 -0.3268  0.8857
 3448TIP3   OH231902   5.166   3.733   7.017 -0.5338  0.3554 -0.1183
 3448TIP3    H131903   5.156   3.680   7.096  1.1338  0.2692  0.0562
 3448TIP3    H231904   5.109   3.809   7.032 -1.6075 -0.5193  0.3723
 3449TIP3   OH231905   2.557   4.036   7.545  0.6883 -0.5787 -0.9059
 3449TIP3    H131906   2.482   4.030   7.604  0.7881 -0.1530 -0.7378
 3449TIP3    H231907   2.559   3.950   7.502 -0.7497 -0.1275 -1.9690
 3450TIP3   OH231908   1.107   4.249   7.835 -0.9223  0.3758  0.0803
 3450TIP3    H131909   1.026   4.235   7.884  0.2395  1.7111  2.5666
 3450TIP3    H231910   1.138   4.160   7.815 -0.9438 -0.3003  2.7477
 3451TIP3   OH231911   2.392   5.820   1.269  0.0951  0.4603  0.6096
 3451TIP3    H131912   2.432   5.830   1.182  0.8565  0.4119  0.9458
 3451TIP3    H231913   2.306   5.863   1.261 -0.4142 -0.7141 -0.5529
 3452TIP3   OH231914   4.119   4.660   2.067 -0.5580 -0.2339  0.4455
 3452TIP3    H131915   4.164   4.604   2.130  2.4993  0.4047 -0.9714
 3452TIP3    H231916   4.107   4.743   2.113  1.9338  0.3307  0.2195
 3453TIP3   OH231917   2.169   1.700   7.588 -0.0088 -0.0478  0.4894
 3453TIP3    H131918   2.247   1.695   7.533 -0.4678 -0.4890 -0.1301
 3453TIP3    H231919   2.123   1.618   7.572 -1.4078  0.8709 -0.3811
 3454TIP3   OH231920   6.472   5.959   7.735  0.3069  0.6356 -0.1460
 3454TIP3    H131921   6.516   6.040   7.759 -0.8409  1.1171  0.4389
 3454TIP3    H231922   6.464   5.911   7.818  1.9933 -0.6155 -0.6718
 3455TIP3   OH231923   1.868   3.645   1.437 -0.2362  0.2221  0.0417
 3455TIP3    H131924   1.889   3.728   1.395 -1.3635  1.0667  1.0810
 3455TIP3    H231925   1.779   3.657   1.472 -1.5394 -2.3018 -2.0148
 3456TIP3   OH231926   0.441   3.401   7.893 -0.1540 -0.1554 -0.1079
 3456TIP3    H131927   0.424   3.469   7.828 -0.3798 -0.1299 -0.0240
 3456TIP3    H231928   0.369   3.410   7.956  0.4776  0.3285  0.5614
 3457TIP3   OH231929   3.544   6.457   8.283 -0.2893  0.0658 -0.0540
 3457TIP3    H131930   3.553   6.545   8.248  1.6536  0.2186  0.7025
 3457TIP3    H231931   3.562   6.400   8.208 -0.3678  0.3281 -0.2741
 3458TIP3   OH231932   1.804   6.112   7.729  0.2707  1.0810 -0.3192
 3458TIP3    H131933   1.846   6.194   7.706 -0.6543  2.0188  1.1713
 3458TIP3    H231934   1.765   6.081   7.648  1.2957  1.6839 -1.0665
 3459TIP3   OH231935   3.578   5.568   7.980  0.3416 -0.5109  0.7189
 3459TIP3    H131936   3.643   5.497   7.971  1.2511  0.3834  0.0210
 3459TIP3    H231937   3.583   5.592   8.073 -1.1569 -2.4187  1.3627
 3460TIP3   OH231938   5.775   5.716   1.173  0.1889  0.6651  0.0041
 3460TIP3    H131939   5.681   5.732   1.173  0.2343  1.0130  1.0457
 3460TIP3    H231940   5.814   5.798   1.204  0.7886  0.3534  0.0971
 3461TIP3   OH231941   5.196   6.642   7.845 -0.3071 -0.1841  0.0171
 3461TIP3    H131942   5.228   6.729   7.868  1.1212 -0.6755  0.0304
 3461TIP3    H231943   5.151   6.654   7.761  0.1650  0.5189 -0.1425
 3462TIP3   OH231944   1.298   4.093   1.218  0.0307  0.4009 -0.0220
 3462TIP3    H131945   1.381   4.050   1.237 -0.4233 -1.4318 -1.7888
 3462TIP3    H231946   1.234   4.046   1.271 -0.1938  0.0860 -0.5512
 3463TIP3   OH231947   5.192   0.667   8.105 -0.0273 -0.0976  0.5400
 3463TIP3    H131948   5.116   0.622   8.142  1.3427 -3.2278 -0.1431
 3463TIP3    H231949   5.162   0.699   8.020 -1.0776  0.4906  1.0988
 3464TIP3   OH231950   1.612   5.217   0.340 -0.8519  0.3562 -0.0857
 3464TIP3    H131951   1.623   5.291   0.281 -1.7482  0.1424 -0.5388
 3464TIP3    H231952   1.518   5.201   0.342 -0.5638 -2.4263 -2.1017
 3465TIP3   OH231953   1.919   3.304   8.125  0.6227  0.0055 -0.3901
 3465TIP3    H131954   1.886   3.220   8.156 -1.4402  1.0058  0.3163
 3465TIP3    H231955   1.853   3.335   8.063  0.2026  2.0190  0.9379
 3466TIP3   OH231956   4.524   5.541   0.788  0.2590  0.3795  0.5399
 3466TIP3    H131957   4.510   5.564   0.696  0.7714  0.3894  0.4611
 3466TIP3    H231958   4.619   5.529   0.795  0.1806 -0.0168  0.9753
 3467TIP3   OH231959   6.708   5.711   7.688  0.2314  0.5421 -0.2230
 3467TIP3    H131960   6.777   5.777   7.678  0.6871 -0.0457 -0.9665
 3467TIP3    H231961   6.630   5.751   7.649  0.2216  1.0641  0.3066
 3468TIP3   OH231962   3.423   3.478   1.125  1.1477 -0.0140  0.1963
 3468TIP3    H131963   3.472   3.450   1.202 -1.1933 -0.6801  1.5444
 3468TIP3    H231964   3.336   3.438   1.135 -0.4334  2.8445 -0.8961
 3469TIP3   OH231965   2.161   5.006   7.279  0.6292 -0.3811 -0.0440
 3469TIP3    H131966   2.167   4.916   7.250 -0.5005 -0.5397  0.1763
 3469TIP3    H231967   2.166   5.001   7.375 -2.5462 -0.5648  0.2117
 3470TIP3   OH231968   3.358   2.386   1.661  0.2142 -0.5323  0.2549
 3470TIP3    H131969   3.329   2.421   1.746  1.0223 -1.3086  0.8732
 3470TIP3    H231970   3.448   2.416   1.652  0.5639 -1.5361  0.2944
 3471TIP3   OH231971   4.411   5.634   6.987 -0.1533  0.0062 -0.0366
 3471TIP3    H131972   4.438   5.650   6.897 -1.3232 -1.4128 -0.6755
 3471TIP3    H231973   4.347   5.704   7.005 -0.5882 -0.2236 -0.6350
 3472TIP3   OH231974   0.781   1.429   7.531 -0.2157  0.5643  0.6675
 3472TIP3    H131975   0.756   1.521   7.521  0.1633  0.5977 -0.0799
 3472TIP3    H231976   0.815   1.422   7.620 -0.8106  1.0105  0.9325
 3473TIP3   OH231977   2.232   1.118   6.504  0.2430 -0.3248 -0.2498
 3473TIP3    H131978   2.171   1.050   6.533  0.3322 -0.3358 -0.0848
 3473TIP3    H231979   2.311   1.069   6.479 -0.0909 -0.3823 -1.2243
 3474TIP3   OH231980   3.246   1.248   7.278  0.6088 -0.3937 -0.2363
 3474TIP3    H131981   3.317   1.183   7.277  1.1035  0.1413 -0.6177
 3474TIP3    H231982   3.173   1.205   7.233  1.0077 -0.5960 -0.6958
 3475TIP3   OH231983   0.124   6.114   0.662 -0.2749 -0.0666  0.4216
 3475TIP3    H131984   0.041   6.160   0.673  0.4069  1.1668  0.6137
 3475TIP3    H231985   0.116   6.036   0.717 -0.8363  0.6877  1.4336
 3476TIP3   OH231986   4.841   2.966   0.138  0.2519  0.2043 -0.7753
 3476TIP3    H131987   4.836   3.061   0.147  1.0435  0.1222  0.9611
 3476TIP3    H231988   4.934   2.946   0.151 -0.0992 -0.9061  0.2048
 3477TIP3   OH231989   3.938   4.400   1.552  0.4311 -0.0479  0.0010
 3477TIP3    H131990   3.986   4.479   1.529  1.2498 -0.2189  1.0508
 3477TIP3    H231991   3.927   4.354   1.469  1.3678  0.3974 -0.3792
 3478TIP3   OH231992   1.374   0.647   1.060 -0.0799 -0.2531  0.4343
 3478TIP3    H131993   1.422   0.564   1.054  3.3338  1.6022 -0.5505
 3478TIP3    H231994   1.368   0.677   0.969 -0.5286  0.9694  0.8611
 3479TIP3   OH231995   3.500   5.840   7.413  0.6299 -0.4389  0.1554
 3479TIP3    H131996   3.482   5.872   7.502  4.2147 -0.4687  1.0584
 3479TIP3    H231997   3.464   5.907   7.356 -0.3164  0.4220  1.6938
 3480TIP3   OH231998   5.475   3.708   8.002  0.7934  0.0716 -0.8138
 3480TIP3    H131999   5.489   3.654   8.080  1.6999  3.2832  1.4834
 3480TIP3    H232000   5.380   3.713   7.993  0.5536  1.4233  1.6055
 3481TIP3   OH232001   6.556   1.343   8.115 -0.0394 -0.2960  0.9651
 3481TIP3    H132002   6.532   1.250   8.118  0.9777 -0.5633  1.1611
 3481TIP3    H232003   6.495   1.381   8.051 -0.6751 -1.0266  1.1192
 3482TIP3   OH232004   4.040   4.428   2.357 -0.4268 -0.2326 -0.4193
 3482TIP3    H132005   4.064   4.344   2.396 -1.3680 -0.1491  0.3492
 3482TIP3    H232006   3.974   4.464   2.415  2.6253  2.8918  1.5187
 3483TIP3   OH232007   2.329   3.403   0.662 -0.6767 -0.3209 -0.1979
 3483TIP3    H132008   2.417   3.399   0.699 -0.9867 -2.8428  0.4457
 3483TIP3    H232009   2.343   3.428   0.571  0.2383  4.1280  0.9270
 3484TIP3   OH232010   0.972   4.806   0.726 -0.3567 -0.0138  0.0740
 3484TIP3    H132011   1.055   4.830   0.766  0.5152  0.0059 -1.6672
 3484TIP3    H232012   0.964   4.712   0.744  1.7359 -0.8104 -2.4950
 3485TIP3   OH232013   4.563   3.936   1.064 -0.0399  0.0823  0.9468
 3485TIP3    H132014   4.597   3.943   1.154  0.0599  2.1355  0.7991
 3485TIP3    H232015   4.630   3.979   1.010 -0.9255  0.4538  0.1204
 3486TIP3   OH232016   6.642   0.165   8.043 -0.0919 -0.1726  0.5869
 3486TIP3    H132017   6.702   0.220   7.992  0.4062 -1.0628  0.1973
 3486TIP3    H232018   6.621   0.219   8.119  1.2333  0.1535  0.7561
 3487TIP3   OH232019   6.165   5.071   7.059 -0.0073 -0.0556  0.2250
 3487TIP3    H132020   6.129   5.086   6.971 -0.7093 -0.2356  0.4684
 3487TIP3    H232021   6.245   5.021   7.044  0.4030  0.7652 -0.3680
 3488TIP3   OH232022   4.350   2.180   7.192 -0.6317 -0.1088  0.4339
 3488TIP3    H132023   4.399   2.140   7.120 -2.0985 -0.8073 -0.2136
 3488TIP3    H232024   4.334   2.270   7.163 -0.5646 -0.1621  0.2281
 3489TIP3   OH232025   2.135   5.628   7.064  0.2333  0.3818  0.4018
 3489TIP3    H132026   2.130   5.569   6.989  2.8899  0.7446 -0.1688
 3489TIP3    H232027   2.121   5.715   7.028 -1.0020  0.3607  0.7913
 3490TIP3   OH232028   1.321   1.228   8.563  0.3699 -0.4627 -0.1721
 3490TIP3    H132029   1.261   1.154   8.574 -0.3520  0.4047  2.3491
 3490TIP3    H232030   1.408   1.188   8.556 -0.1181 -1.5874 -0.0263
 3491TIP3   OH232031   4.558   2.540   1.533  0.7953  0.0167 -0.3679
 3491TIP3    H132032   4.512   2.531   1.617 -0.4790  0.2075 -1.0165
 3491TIP3    H232033   4.650   2.532   1.555  0.5191  0.6554  1.1439
 3492TIP3   OH232034   5.792   2.206   1.205  0.3192 -0.5279 -0.2030
 3492TIP3    H132035   5.828   2.293   1.185 -0.3224  0.1124  1.2728
 3492TIP3    H232036   5.839   2.146   1.147  0.4229  0.8586 -1.6123
 3493TIP3   OH232037   3.161   1.775   7.026 -0.5124  0.2958  0.2353
 3493TIP3    H132038   3.228   1.750   7.089  0.7615  1.3028 -0.6736
 3493TIP3    H232039   3.205   1.769   6.941 -1.9383 -0.2148 -0.4999
 3494TIP3   OH232040   4.576   3.460   8.609  0.4981 -0.1682 -0.2459
 3494TIP3    H132041   4.636   3.391   8.580  1.9238  1.0753 -0.3966
 3494TIP3    H232042   4.562   3.443   8.702  0.4654 -0.9113 -0.3822
 3495TIP3   OH232043   2.983   5.572   7.906 -0.3909  0.3122  0.5451
 3495TIP3    H132044   2.999   5.533   7.992  1.5324  1.2305  0.6478
 3495TIP3    H232045   2.992   5.666   7.921  1.2494  0.4271 -0.8751
 3496TIP3   OH232046   0.924   5.775   8.047  0.0838  0.5447  0.3674
 3496TIP3    H132047   0.924   5.716   7.971 -1.0398  0.6290  0.2824
 3496TIP3    H232048   0.853   5.837   8.028 -1.0005 -0.1227  1.9967
 3497TIP3   OH232049   5.652   6.372   1.803  0.7767 -0.1050 -0.0158
 3497TIP3    H132050   5.627   6.454   1.759 -0.6643 -0.3033  0.4085
 3497TIP3    H232051   5.621   6.382   1.893  1.8213 -0.5746  0.4142
 3498TIP3   OH232052   0.399   0.075   0.353 -0.3589  0.4323  0.3687
 3498TIP3    H132053   0.330   0.138   0.333  0.6892  1.2402 -0.8561
 3498TIP3    H232054   0.481   0.123   0.338  0.4686 -1.0144  0.0503
 3499TIP3   OH232055   1.625   5.056   1.548  0.1954 -0.4187  0.1526
 3499TIP3    H132056   1.673   5.032   1.469  0.5157 -0.3085  0.3162
 3499TIP3    H232057   1.540   5.012   1.538 -0.9881  1.9980 -1.7204
 3500TIP3   OH232058   1.296   6.719   6.613  0.3811 -0.1121  0.1231
 3500TIP3    H132059   1.208   6.681   6.619  0.7527 -1.1233 -0.5403
 3500TIP3    H232060   1.283   6.812   6.631 -1.0554  0.0440 -1.4782
 3501TIP3   OH232061   3.131   4.435   6.331  0.3256 -0.1648  0.1134
 3501TIP3    H132062   3.106   4.443   6.423  1.4277 -2.2764  0.6615
 3501TIP3    H232063   3.207   4.376   6.331 -1.8325 -3.3460 -2.3975
 3502TIP3   OH232064   2.419   2.944   0.518 -0.3437 -0.2690 -0.8275
 3502TIP3    H132065   2.351   2.878   0.508 -0.4091 -0.3315 -0.0233
 3502TIP3    H232066   2.373   3.028   0.515 -0.8336 -0.3308  2.0301
 3503TIP3   OH232067   4.397   3.888   7.302 -0.1886  0.5762 -0.8205
 3503TIP3    H132068   4.347   3.831   7.244  0.1598 -0.4090 -0.1832
 3503TIP3    H232069   4.489   3.863   7.288 -0.1884 -1.2508  1.6581
 3504TIP3   OH232070   2.520   5.118   1.031  0.1624 -0.4292  0.4903
 3504TIP3    H132071   2.587   5.053   1.049  0.3933  0.1133  1.6876
 3504TIP3    H232072   2.461   5.114   1.106 -0.1334  0.3542  0.3169
 3505TIP3   OH232073   6.430   4.024   1.506  0.0442  1.0324  0.1455
 3505TIP3    H132074   6.412   3.971   1.428 -2.4280  1.9285  0.0176
 3505TIP3    H232075   6.410   4.114   1.480  1.9356  1.7651  1.0318
 3506TIP3   OH232076   5.300   0.339   8.617 -0.2228  0.0681  0.5988
 3506TIP3    H132077   5.250   0.378   8.546  0.1121 -0.3271  0.1442
 3506TIP3    H232078   5.244   0.351   8.694 -0.6652  0.3336  0.2421
 3507TIP3   OH232079   5.932   4.380   1.170  0.4678  0.0560  0.5286
 3507TIP3    H132080   6.000   4.422   1.222  1.2953  2.0831 -1.9722
 3507TIP3    H232081   5.979   4.337   1.099 -0.6965 -1.3294  0.5516
 3508TIP3   OH232082   6.767   4.271   7.715  0.0331  0.2535  0.0695
 3508TIP3    H132083   6.704   4.238   7.651  0.1002 -0.0964  0.1840
 3508TIP3    H232084   6.778   4.363   7.691 -1.7035  0.7448  1.0328
 3509TIP3   OH232085   5.395   5.716   0.473  0.0173 -0.1965 -0.0332
 3509TIP3    H132086   5.366   5.635   0.515 -0.7196  0.4785  0.8176
 3509TIP3    H232087   5.314   5.759   0.445  0.4828 -0.6149 -2.2164
 3510TIP3   OH232088   2.311   4.981   0.050 -0.0276  0.3707 -0.3380
 3510TIP3    H132089   2.292   5.011   0.139  2.2245 -2.1549  1.1615
 3510TIP3    H232090   2.249   4.909   0.035  0.9765 -0.6431  0.1555
 3511TIP3   OH232091   0.247   1.360   6.925  0.0477 -0.1219 -0.9024
 3511TIP3    H132092   0.224   1.269   6.906 -0.5108  0.0945 -1.2977
 3511TIP3    H232093   0.165   1.408   6.913  0.3741  0.4510 -0.8436
 3512TIP3   OH232094   1.334   2.034   1.434  0.3395 -0.7313 -0.2764
 3512TIP3    H132095   1.365   2.071   1.517 -1.7348 -1.2895  0.8404
 3512TIP3    H232096   1.414   2.018   1.383  1.6782 -0.2205  1.5458
 3513TIP3   OH232097   6.046   3.345   6.971 -0.5740  0.2296 -0.2788
 3513TIP3    H132098   6.120   3.284   6.974 -1.0199 -0.3644 -1.1428
 3513TIP3    H232099   6.044   3.383   7.059  0.6954  0.1876 -0.2104
 3514TIP3   OH232100   3.725   4.357   6.671 -0.3070 -0.1512  0.0451
 3514TIP3    H132101   3.689   4.443   6.691  0.4318  0.5807 -1.5269
 3514TIP3    H232102   3.749   4.363   6.578  0.5776 -1.7553  0.1404
 3515TIP3   OH232103   5.477   1.315   6.630 -0.2058  0.4896 -0.2614
 3515TIP3    H132104   5.391   1.354   6.642 -0.5175 -0.5971  1.4216
 3515TIP3    H232105   5.530   1.385   6.592 -1.4431  1.6459  0.0707
 3516TIP3   OH232106   0.894   1.842   0.351 -0.3488  0.0319 -0.0438
 3516TIP3    H132107   0.878   1.895   0.429  0.5579  0.9549 -0.4514
 3516TIP3    H232108   0.932   1.761   0.384  1.6383  1.0970  0.3944
 3517TIP3   OH232109   0.529   4.873   1.544  0.4567 -0.1043 -0.5628
 3517TIP3    H132110   0.608   4.881   1.597 -0.1850 -0.3306  0.4435
 3517TIP3    H232111   0.478   4.803   1.585  0.0067 -0.3986 -1.5638
 3518TIP3   OH232112   0.396   6.559   8.568  0.5026  0.4304  0.1337
 3518TIP3    H132113   0.477   6.609   8.564 -0.0119  1.2678 -0.0680
 3518TIP3    H232114   0.329   6.624   8.587 -0.0285 -0.3605  1.0340
 3519TIP3   OH232115   5.317   2.773   7.833 -0.0929  0.1161  0.3789
 3519TIP3    H132116   5.292   2.789   7.742 -2.7175 -0.5993  0.8975
 3519TIP3    H232117   5.335   2.679   7.837  1.5678  0.4039  0.3067
 3520TIP3   OH232118   1.078   2.788   6.490 -0.1553  0.5162  0.7870
 3520TIP3    H132119   1.023   2.785   6.412  1.5460 -0.1152 -0.4690
 3520TIP3    H232120   1.162   2.751   6.461  0.9044  1.3391  2.6165
 3521TIP3   OH232121   3.067   5.894   0.308 -0.1935 -0.0720 -0.1095
 3521TIP3    H132122   3.004   5.921   0.374 -1.8292 -0.0356 -1.6116
 3521TIP3    H232123   3.026   5.820   0.263  0.9160 -0.1867 -0.9992
 3522TIP3   OH232124   1.612   6.295   6.938 -0.5225 -0.4042 -0.2580
 3522TIP3    H132125   1.654   6.209   6.928 -0.4228 -0.2743 -0.9954
 3522TIP3    H232126   1.685   6.356   6.947 -0.5908 -0.5172  1.5843
 3523TIP3   OH232127   0.712   2.320   0.349 -0.7449 -0.5174 -1.0034
 3523TIP3    H132128   0.701   2.405   0.391  2.1411 -1.3037  1.8769
 3523TIP3    H232129   0.637   2.268   0.379 -0.8206  0.1232 -0.0313
 3524TIP3   OH232130   6.414   1.445   7.899  0.0530  0.3329 -0.3016
 3524TIP3    H132131   6.461   1.436   7.816 -0.3631  0.9430 -0.6120
 3524TIP3    H232132   6.323   1.428   7.877  0.1809 -1.6016  0.4440
 3525TIP3   OH232133   5.743   1.586   2.193  0.3454  0.0160  0.2922
 3525TIP3    H132134   5.826   1.600   2.149  0.7112 -2.6696 -0.0727
 3525TIP3    H232135   5.710   1.674   2.213  2.3255  1.1784 -1.2564
 3526TIP3   OH232136   3.614   0.687   6.801 -0.1109 -0.2855 -0.3710
 3526TIP3    H132137   3.585   0.604   6.763 -2.6479  0.7169 -0.7947
 3526TIP3    H232138   3.552   0.705   6.871  2.3190 -0.2609  1.9574
 3527TIP3   OH232139   2.582   3.068   0.894 -0.8656 -0.5151  0.5714
 3527TIP3    H132140   2.638   3.101   0.824  0.1187 -1.0147  1.1086
 3527TIP3    H232141   2.522   3.007   0.850 -1.2043  0.2435 -0.0531
 3528TIP3   OH232142   4.605   5.933   2.126 -0.2299 -0.0255 -0.1783
 3528TIP3    H132143   4.576   5.907   2.039 -0.8796 -1.1295  0.3595
 3528TIP3    H232144   4.618   6.028   2.120  1.3019 -0.2920 -1.9188
 3529TIP3   OH232145   4.559   6.745   1.711  0.0293  0.1871 -0.4833
 3529TIP3    H132146   4.590   6.831   1.684  2.7621 -0.3482  0.5409
 3529TIP3    H232147   4.495   6.763   1.780  0.0601  1.4064 -0.7494
 3530TIP3   OH232148   3.164   0.270   1.593 -0.0952 -0.6342  0.3355
 3530TIP3    H132149   3.248   0.228   1.610  0.3497  0.8468  2.1406
 3530TIP3    H232150   3.111   0.202   1.551  0.7384 -2.8434  2.6022
 3531TIP3   OH232151   2.318   4.091   1.419 -0.3245  0.2777 -0.0220
 3531TIP3    H132152   2.276   4.049   1.344 -3.3485 -1.1270  2.1929
 3531TIP3    H232153   2.388   4.030   1.444  2.5908  2.0906 -3.1177
 3532TIP3   OH232154   4.762   6.609   0.388 -0.0990  0.1618  0.0848
 3532TIP3    H132155   4.725   6.624   0.301  0.3430 -1.2491 -0.3631
 3532TIP3    H232156   4.769   6.697   0.426  1.1979  0.9967 -1.9187
 3533TIP3   OH232157   4.832   5.100   6.964 -0.4308  0.2906  0.2120
 3533TIP3    H132158   4.915   5.065   6.931  1.5183  3.3859  1.3529
 3533TIP3    H232159   4.816   5.053   7.046 -0.5258 -1.1981 -0.6284
 3534TIP3   OH232160   5.740   2.440   7.073 -0.0951 -0.0459  0.0412
 3534TIP3    H132161   5.824   2.475   7.044 -0.3321 -1.5286 -2.7880
 3534TIP3    H232162   5.680   2.458   7.000 -1.2864 -2.3277  0.3530
 3535TIP3   OH232163   0.559   4.774   0.393 -0.3805 -0.4480 -0.3239
 3535TIP3    H132164   0.650   4.746   0.384 -0.2324 -0.1895  0.2646
 3535TIP3    H232165   0.550   4.848   0.333  0.5916  1.2870  1.5180
 3536TIP3   OH232166   2.892   2.577   8.360  0.0712  0.1943 -0.1194
 3536TIP3    H132167   2.838   2.500   8.347  2.5250 -1.6724  0.0955
 3536TIP3    H232168   2.865   2.611   8.446 -1.7788  0.2778 -0.6940
 3537TIP3   OH232169   1.878   1.613   6.489  0.1214  0.0471  0.2274
 3537TIP3    H132170   1.913   1.555   6.421 -1.0919  2.1156 -2.3379
 3537TIP3    H232171   1.802   1.566   6.524  0.1339 -0.6271 -0.6208
 3538TIP3   OH232172   2.148   2.081   0.994 -0.7642  0.5957 -0.3727
 3538TIP3    H132173   2.118   2.079   0.903  1.1886  1.2224 -1.0868
 3538TIP3    H232174   2.233   2.127   0.991  0.0808 -0.6883  1.5375
 3539TIP3   OH232175   5.922   2.166   2.440 -0.0508  0.4559 -0.1243
 3539TIP3    H132176   5.872   2.220   2.501 -0.6127 -0.1809  0.0010
 3539TIP3    H232177   5.990   2.126   2.494 -1.0979 -0.8157  0.3107
 3540TIP3   OH232178   3.576   3.278   2.223  0.3670  0.2428 -0.3156
 3540TIP3    H132179   3.559   3.240   2.309  0.2118 -0.1428 -0.5156
 3540TIP3    H232180   3.537   3.366   2.228 -2.2519 -0.7931 -0.9259
 3541TIP3   OH232181   6.797   2.209   6.515 -0.5095 -0.0590 -0.7349
 3541TIP3    H132182   6.800   2.281   6.578  0.5385  1.5101 -2.4823
 3541TIP3    H232183   6.847   2.138   6.557 -1.0772  0.3938  0.7745
 3542TIP3   OH232184   0.369   4.319   8.349  0.0739  0.0842 -0.2946
 3542TIP3    H132185   0.352   4.318   8.255  1.4518  0.7770 -0.5622
 3542TIP3    H232186   0.394   4.229   8.370  0.0861  0.0047 -0.6516
 3543TIP3   OH232187   2.247   5.417   0.799 -0.4559  0.3902  0.2465
 3543TIP3    H132188   2.214   5.406   0.710 -3.2366 -1.0646  1.3334
 3543TIP3    H232189   2.268   5.511   0.805  0.6597  0.3638 -2.1347
 3544TIP3   OH232190   3.232   4.294   8.470 -0.1186 -0.3597 -0.5479
 3544TIP3    H132191   3.309   4.263   8.422  0.5128  0.5512 -0.1581
 3544TIP3    H232192   3.213   4.380   8.431 -0.6574 -0.3804 -0.3305
 3545TIP3   OH232193   6.159   1.366   7.772  0.1279 -0.5823  0.3735
 3545TIP3    H132194   6.092   1.365   7.703  0.5783  1.3693 -0.1569
 3545TIP3    H232195   6.115   1.331   7.849 -0.9050 -1.1782 -0.4573
 3546TIP3   OH232196   2.977   1.224   0.207  0.4742 -0.6480  0.5456
 3546TIP3    H132197   3.003   1.218   0.116 -0.3206 -0.9617  0.3289
 3546TIP3    H232198   2.912   1.154   0.218 -0.3417  0.1663  1.0302
 3547TIP3   OH232199   2.154   1.474   0.251  0.4135 -0.1065 -1.0865
 3547TIP3    H132200   2.205   1.409   0.299  0.8548  1.1377  0.2007
 3547TIP3    H232201   2.095   1.423   0.196  2.4650 -1.5788 -2.0151
 3548TIP3   OH232202   1.651   1.723   1.965 -0.4013  0.0255  0.1306
 3548TIP3    H132203   1.610   1.638   1.979  0.2415 -0.4018 -0.5199
 3548TIP3    H232204   1.583   1.777   1.926  0.0793 -1.2009 -2.6455
 3549TIP3   OH232205   1.983   5.309   1.367 -0.1876  0.1486 -0.2826
 3549TIP3    H132206   2.042   5.233   1.370 -1.5559 -1.0420 -1.7847
 3549TIP3    H232207   1.956   5.314   1.275 -2.2471  0.7778  0.3160
 3550TIP3   OH232208   2.586   5.690   0.572  0.0284  0.7268  0.6427
 3550TIP3    H132209   2.505   5.643   0.550  0.6406  1.5253 -4.6031
 3550TIP3    H232210   2.556   5.773   0.609 -1.5481  0.6195 -0.2930
 3551TIP3   OH232211   6.822   3.509   2.175 -0.4084 -0.0274 -0.5069
 3551TIP3    H132212   6.871   3.427   2.188 -0.1836 -0.1232 -1.8440
 3551TIP3    H232213   6.747   3.502   2.234  0.3833 -0.5498  0.4655
 3552TIP3   OH232214   2.798   0.702   7.235 -0.5365  0.4693  0.4257
 3552TIP3    H132215   2.886   0.679   7.203 -0.5885 -1.7803  1.6806
 3552TIP3    H232216   2.814   0.760   7.309 -0.0471 -0.5089  1.1048
 3553TIP3   OH232217   3.090   0.369   6.070 -0.4746  0.2676 -0.3219
 3553TIP3    H132218   3.057   0.295   6.020 -0.2485 -0.8340  1.1052
 3553TIP3    H232219   3.011   0.410   6.107 -0.4437 -1.0275  1.2587
 3554TIP3   OH232220   6.583   0.510   7.077 -0.5428 -0.7799 -0.0050
 3554TIP3    H132221   6.589   0.602   7.053 -2.4835 -0.4794  0.4664
 3554TIP3    H232222   6.644   0.501   7.150 -0.5085  0.2077  0.1069
 3555TIP3   OH232223   4.813   3.514   2.114 -0.1820 -0.3054 -0.0785
 3555TIP3    H132224   4.891   3.561   2.144 -0.9836  0.2126  1.2572
 3555TIP3    H232225   4.792   3.553   2.029  0.8102 -0.2308 -0.3026
 3556TIP3   OH232226   1.895   3.238   2.381 -0.3259  0.0870 -0.2593
 3556TIP3    H132227   1.916   3.230   2.474  1.3161  0.1685 -0.5878
 3556TIP3    H232228   1.864   3.329   2.371  2.0031  0.9562 -0.1838
 3557TIP3   OH232229   1.464   2.634   0.575  0.0245  0.2186  0.2374
 3557TIP3    H132230   1.410   2.673   0.643 -1.6850 -1.9518  0.2247
 3557TIP3    H232231   1.406   2.626   0.500  0.6486 -1.2513 -0.1185
 3558TIP3   OH232232   0.546   0.988   0.762 -0.1043 -0.1047 -0.1292
 3558TIP3    H132233   0.635   0.972   0.733  0.0458 -0.7816  0.6829
 3558TIP3    H232234   0.491   0.949   0.694  0.2414 -1.4204  0.3205
 3559TIP3   OH232235   0.555   4.394   0.923  0.1672 -0.2094 -0.3551
 3559TIP3    H132236   0.575   4.471   0.871 -1.6051 -0.1057 -0.9368
 3559TIP3    H232237   0.514   4.428   1.002  0.4120 -0.5023 -0.0999
 3560TIP3   OH232238   4.499   6.340   2.301  0.2001 -0.1452  0.4611
 3560TIP3    H132239   4.577   6.309   2.254  1.8553  2.6752  1.0534
 3560TIP3    H232240   4.425   6.307   2.251  1.8324 -0.8925 -1.5924
 3561TIP3   OH232241   1.752   5.719   2.049  0.2956 -0.0733  0.1562
 3561TIP3    H132242   1.798   5.637   2.069 -0.5024 -0.8638 -1.0786
 3561TIP3    H232243   1.763   5.731   1.955  0.8191  1.5331  0.3957
 3562TIP3   OH232244   5.074   0.942   1.420 -0.6547  0.1189  0.0506
 3562TIP3    H132245   5.107   1.024   1.455 -1.4121 -0.1587  1.4611
 3562TIP3    H232246   5.007   0.968   1.357 -0.3442  0.5803 -0.0974
 3563TIP3   OH232247   4.608   1.317   6.968 -0.3137  0.6342 -0.2513
 3563TIP3    H132248   4.631   1.267   7.047 -0.5821  0.5496 -0.2249
 3563TIP3    H232249   4.588   1.250   6.903  0.3318  0.6953 -0.5268
 3564TIP3   OH232250   2.204   3.965   7.894 -0.4940  0.3007 -0.0603
 3564TIP3    H132251   2.258   4.011   7.830 -0.6208  1.6360  0.7599
 3564TIP3    H232252   2.117   3.963   7.856 -0.5443  0.9934  0.0018
 3565TIP3   OH232253   2.894   6.333   6.677 -0.1441 -0.4609  0.6627
 3565TIP3    H132254   2.814   6.303   6.633  1.6563  0.0689 -3.4716
 3565TIP3    H232255   2.903   6.425   6.650  1.1343 -0.0814  2.2370
 3566TIP3   OH232256   4.788   2.872   0.939  0.3478  0.7825  0.7374
 3566TIP3    H132257   4.717   2.881   1.002 -1.9402  1.4312 -1.7296
 3566TIP3    H232258   4.801   2.777   0.930 -1.4302  0.5684  0.0488
 3567TIP3   OH232259   4.267   6.562   6.875  0.2225  0.0798  0.3361
 3567TIP3    H132260   4.328   6.623   6.832 -0.3274 -0.6179 -1.5286
 3567TIP3    H232261   4.252   6.601   6.961  1.2219  1.6801 -0.1552
 3568TIP3   OH232262   4.472   4.965   0.862 -0.3072 -0.1185  0.1065
 3568TIP3    H132263   4.431   4.886   0.897  1.8093 -1.9166 -1.1472
 3568TIP3    H232264   4.429   4.979   0.778 -2.2471  1.5157  1.2712
 3569TIP3   OH232265   3.325   4.563   6.852 -0.4177  0.0133  0.0277
 3569TIP3    H132266   3.282   4.649   6.846 -1.8404 -0.6741 -0.1736
 3569TIP3    H232267   3.340   4.538   6.761  0.7857  0.4095  0.1071
 3570TIP3   OH232268   4.056   4.026   1.191  0.3768  0.0769  0.2473
 3570TIP3    H132269   4.004   4.006   1.114 -0.2418 -1.3147  0.9928
 3570TIP3    H232270   4.083   3.940   1.225  0.1211  0.6291  1.9212
 3571TIP3   OH232271   5.515   2.036   2.525 -0.0155 -0.5409 -0.0348
 3571TIP3    H132272   5.481   2.088   2.597 -0.4742  0.0354 -0.6518
 3571TIP3    H232273   5.440   2.023   2.467  0.4327 -0.6798 -0.5922
 3572TIP3   OH232274   0.051   4.537   7.865  0.0616 -0.6126  0.2051
 3572TIP3    H132275   0.040   4.471   7.796 -0.4421 -1.4319  1.0464
 3572TIP3    H232276  -0.038   4.551   7.899  0.2127  0.2691  0.2725
 3573TIP3   OH232277   2.650   2.013   1.598 -0.1501 -0.3635  0.3235
 3573TIP3    H132278   2.732   1.990   1.641  0.2402 -0.2164 -0.3306
 3573TIP3    H232279   2.663   1.988   1.506  0.0557  1.7795 -0.3058
 3574TIP3   OH232280   0.606   0.797   1.352  0.6191  0.0945  0.0478
 3574TIP3    H132281   0.601   0.810   1.447 -0.1276 -0.4467  0.0966
 3574TIP3    H232282   0.642   0.710   1.342 -0.5588 -0.3966 -0.1218
 3575TIP3   OH232283   3.442   0.205   7.361 -0.7891 -0.4915 -0.3623
 3575TIP3    H132284   3.513   0.187   7.423 -0.9770  0.2855  0.0941
 3575TIP3    H232285   3.484   0.204   7.275  0.3725  2.5814  0.0452
 3576TIP3   OH232286   4.053   1.756   7.520 -0.1463  0.0904  0.2806
 3576TIP3    H132287   4.103   1.714   7.590 -1.4691 -2.3010 -0.0959
 3576TIP3    H232288   4.109   1.827   7.490  3.4072 -2.7500 -0.5328
 3577TIP3   OH232289   0.353   3.445   1.087  0.1069 -0.4009  0.4060
 3577TIP3    H132290   0.364   3.526   1.137  1.1099  0.7569 -1.5420
 3577TIP3    H232291   0.259   3.430   1.084 -0.0437  0.2585  1.4326
 3578TIP3   OH232292   5.025   5.658   0.195 -0.3684 -0.1214  0.7183
 3578TIP3    H132293   4.985   5.637   0.111  1.7438 -1.3931 -0.0599
 3578TIP3    H232294   5.086   5.729   0.175  0.4680 -0.7266  1.0337
 3579TIP3   OH232295   4.545   3.132   0.723 -0.7395  0.0150 -0.6171
 3579TIP3    H132296   4.472   3.108   0.666 -0.7905 -0.8567 -0.1994
 3579TIP3    H232297   4.513   3.116   0.811 -0.2707  0.2570 -0.3986
 3580TIP3   OH232298   6.117   3.563   0.850 -0.5542 -0.3969  0.5740
 3580TIP3    H132299   6.099   3.586   0.941 -0.8734 -0.2462  0.4759
 3580TIP3    H232300   6.199   3.514   0.853  1.2910  2.4768  0.5501
 3581TIP3   OH232301   5.926   3.497   8.533  0.4593 -0.5598 -0.1104
 3581TIP3    H132302   5.934   3.466   8.623 -0.0638  0.2223  0.2141
 3581TIP3    H232303   5.859   3.440   8.494 -0.5260  0.1715  0.4929
 3582TIP3   OH232304   1.414   4.527   1.171 -0.4199 -0.2610  0.4329
 3582TIP3    H132305   1.399   4.484   1.255 -2.8458  0.7974  0.6068
 3582TIP3    H232306   1.374   4.469   1.107  0.6895 -0.6511  0.0657
 3583TIP3   OH232307   3.840   3.072   1.575 -0.9337 -0.3925 -0.4700
 3583TIP3    H132308   3.894   3.090   1.652  0.8001 -0.3785 -1.6200
 3583TIP3    H232309   3.752   3.101   1.599 -0.4645 -0.4750  1.5152
 3584TIP3   OH232310   3.644   1.362   8.467  0.3005  0.1826 -0.1911
 3584TIP3    H132311   3.561   1.314   8.476  0.7008 -1.0866 -2.4780
 3584TIP3    H232312   3.712   1.296   8.482  0.8777  0.6604 -0.6371
 3585TIP3   OH232313   1.181   0.284   6.822 -0.5879 -0.1734 -0.5257
 3585TIP3    H132314   1.247   0.216   6.838 -1.0107 -0.4575  0.0002
 3585TIP3    H232315   1.230   0.355   6.780  0.4695  0.4458  1.6368
 3586TIP3   OH232316   6.410   2.700   1.642  0.3474  0.0029  0.6937
 3586TIP3    H132317   6.367   2.679   1.726  2.4107 -0.6766  1.6588
 3586TIP3    H232318   6.498   2.663   1.651  0.0443 -1.9482 -2.5860
 3587TIP3   OH232319   0.207   2.943   8.175 -0.3064 -0.0419  0.2307
 3587TIP3    H132320   0.209   2.848   8.190 -1.8094 -0.2997 -0.8923
 3587TIP3    H232321   0.233   2.981   8.258 -1.2973 -1.4410  1.2308
 3588TIP3   OH232322   6.112   4.080   1.456  0.2734 -0.1916 -0.0779
 3588TIP3    H132323   6.078   4.035   1.534  3.2286 -0.3711  1.2556
 3588TIP3    H232324   6.152   4.010   1.404 -0.5535  0.1049 -1.1376
 3589TIP3   OH232325   0.637   5.661   6.976  0.2162 -0.9259  0.0650
 3589TIP3    H132326   0.550   5.621   6.987 -0.2148  0.1395  0.7864
 3589TIP3    H232327   0.640   5.728   7.045  0.8368  0.3518 -1.1623
 3590TIP3   OH232328   1.609   1.290   8.058 -0.0655 -0.1413  0.2921
 3590TIP3    H132329   1.649   1.204   8.068 -1.5322 -0.6872  2.0583
 3590TIP3    H232330   1.572   1.290   7.970 -0.1902 -1.3797  0.3290
 3591TIP3   OH232331   6.834   2.665   7.956 -0.2542  0.3435  0.3794
 3591TIP3    H132332   6.897   2.689   7.888  0.1253 -0.4861  0.4250
 3591TIP3    H232333   6.794   2.584   7.924 -0.7309  0.4406  0.7195
 3592TIP3   OH232334   0.034   3.274   7.516 -0.6017 -0.0019  0.0868
 3592TIP3    H132335   0.039   3.360   7.557  1.0502  0.3327 -0.7625
 3592TIP3    H232336   0.083   3.283   7.434 -2.9203 -0.9443 -1.5091
 3593TIP3   OH232337   2.226   0.749   8.242 -0.1256  0.1623  0.4714
 3593TIP3    H132338   2.211   0.667   8.194 -0.8905 -0.7520  2.1703
 3593TIP3    H232339   2.321   0.755   8.251  0.0266  0.3150 -1.0400
 3594TIP3   OH232340   1.487   3.648   2.406  0.1746 -0.6544  0.0220
 3594TIP3    H132341   1.403   3.614   2.436  0.5720 -0.0809  1.9804
 3594TIP3    H232342   1.495   3.733   2.448  1.6981 -0.6668 -0.1688
 3595TIP3   OH232343   1.138   4.794   7.306  0.2248 -0.2235 -0.0692
 3595TIP3    H132344   1.231   4.770   7.314  0.0828 -0.2598  1.7475
 3595TIP3    H232345   1.125   4.804   7.212  1.5474 -2.2630 -0.5355
 3596TIP3   OH232346   1.889   4.166   0.067  0.0064 -0.5275 -0.2555
 3596TIP3    H132347   1.954   4.100   0.089  1.1610  1.1238  1.4755
 3596TIP3    H232348   1.812   4.142   0.119  0.7813  0.0592  1.2064
 3597TIP3   OH232349   5.700   0.875   1.490  0.2617  0.4293  0.1158
 3597TIP3    H132350   5.778   0.824   1.466 -0.9772 -0.3538 -2.5235
 3597TIP3    H232351   5.692   0.941   1.422 -0.9086  1.0643  0.8367
 3598TIP3   OH232352   6.156   5.015   7.338  0.5705 -0.0867 -0.0066
 3598TIP3    H132353   6.103   5.037   7.261  0.0220 -1.1116  0.0611
 3598TIP3    H232354   6.230   4.965   7.302  2.2419  2.3413 -0.2567
 3599TIP3   OH232355   4.804   5.246   2.485 -0.0983  0.7558  0.3062
 3599TIP3    H132356   4.767   5.172   2.437  1.8531 -0.2925  0.3262
 3599TIP3    H232357   4.801   5.319   2.422  1.2121 -0.2658 -0.9996
 3600TIP3   OH232358   5.682   5.796   0.485  0.3062  0.0618  0.7019
 3600TIP3    H132359   5.675   5.753   0.569 -0.9519  1.0667  1.1564
 3600TIP3    H232360   5.611   5.759   0.433  0.3399  0.2841  0.4929
 3601TIP3   OH232361   4.281   2.672   7.313  0.5586 -0.2102 -0.4762
 3601TIP3    H132362   4.375   2.663   7.329  0.0382 -1.5138  2.8748
 3601TIP3    H232363   4.257   2.592   7.265  1.1820  0.2745 -1.6122
 3602TIP3   OH232364   3.116   3.182   6.545  0.1543  0.4664 -0.0946
 3602TIP3    H132365   3.069   3.099   6.557 -0.5178  0.9257  0.5236
 3602TIP3    H232366   3.134   3.186   6.451  1.2353 -0.9316  0.0193
 3603TIP3   OH232367   2.311   1.852   1.506 -0.6865  0.2953 -1.0487
 3603TIP3    H132368   2.278   1.928   1.553  2.6374  1.1684  0.1626
 3603TIP3    H232369   2.285   1.867   1.415 -1.0483  2.3379 -0.6532
 3604TIP3   OH232370   6.388   6.808   1.130  0.1298  0.3632  0.0455
 3604TIP3    H132371   6.330   6.817   1.206  0.2142  1.0199  0.0376
 3604TIP3    H232372   6.399   6.714   1.119  1.7336  0.2408  2.0824
 3605TIP3   OH232373   1.045   5.881   0.546 -0.2566 -0.3194 -0.0644
 3605TIP3    H132374   1.073   5.970   0.523  0.2156 -0.4311  0.0768
 3605TIP3    H232375   0.968   5.866   0.491 -0.9950  0.5798  0.6901
 3606TIP3   OH232376   0.057   0.918   0.453 -0.7813  0.2842 -0.2400
 3606TIP3    H132377  -0.025   0.953   0.417 -0.5355 -0.1617 -1.2748
 3606TIP3    H232378   0.116   0.913   0.378  1.1102  3.0609  0.9174
 3607TIP3   OH232379   5.420   5.766   0.783 -0.0570 -0.3483 -0.2216
 3607TIP3    H132380   5.373   5.762   0.866  0.9625  1.2743  0.5024
 3607TIP3    H232381   5.369   5.712   0.723 -0.3295 -2.3170  1.6781
 3608TIP3   OH232382   4.331   2.841   2.453  0.0456  0.1027  0.2233
 3608TIP3    H132383   4.370   2.754   2.442  0.1804 -0.0155  1.4060
 3608TIP3    H232384   4.237   2.826   2.452  0.0620 -0.2885  1.7842
 3609TIP3   OH232385   0.997   6.264   7.641 -0.0067  0.0795  0.4712
 3609TIP3    H132386   1.070   6.202   7.630  1.7562  2.2553 -1.0796
 3609TIP3    H232387   1.016   6.309   7.723  0.2515  0.3932  0.2470
 3610TIP3   OH232388   6.200   6.444   0.830  0.0428 -0.2261 -0.4094
 3610TIP3    H132389   6.167   6.468   0.916 -0.8752  0.2517 -0.8800
 3610TIP3    H232390   6.273   6.504   0.814 -1.0821  1.0786 -0.8105
 3611TIP3   OH232391   5.305   6.441   2.091 -0.8881 -0.1622  0.0145
 3611TIP3    H132392   5.346   6.421   2.007 -0.3191  1.6482 -0.1727
 3611TIP3    H232393   5.246   6.367   2.107  2.2782 -2.8601  0.2618
 3612TIP3   OH232394   3.567   3.184   0.189 -0.3728 -0.1893 -0.6428
 3612TIP3    H132395   3.632   3.235   0.238 -0.5071  1.1297 -1.7710
 3612TIP3    H232396   3.599   3.094   0.193  0.5150  0.1483  0.3977
 3613TIP3   OH232397   5.291   2.099   1.629 -0.4626  0.1360  0.4439
 3613TIP3    H132398   5.363   2.094   1.566 -1.1065 -2.4053 -0.2021
 3613TIP3    H232399   5.334   2.098   1.714  0.3211 -1.6190  0.0721
 3614TIP3   OH232400   6.220   5.878   7.635  0.1806 -0.4198 -0.4807
 3614TIP3    H132401   6.252   5.803   7.585 -0.4245 -1.4491  0.6323
 3614TIP3    H232402   6.297   5.912   7.679  0.3374 -0.8162 -0.4450
 3615TIP3   OH232403   2.239   5.958   7.179  0.0923  0.3602  0.8730
 3615TIP3    H132404   2.234   5.879   7.233  2.0888  0.4976  1.3251
 3615TIP3    H232405   2.237   6.030   7.241 -0.6686  0.6473  0.5284
 3616TIP3   OH232406   4.244   1.073   8.308  0.1395  0.4943  0.3995
 3616TIP3    H132407   4.242   1.158   8.264 -1.3078  1.3318  1.9685
 3616TIP3    H232408   4.327   1.072   8.353  0.3897  0.8506 -0.0385
 3617TIP3   OH232409   3.582   4.758   1.466  0.1387 -0.0393  0.0523
 3617TIP3    H132410   3.647   4.712   1.413  0.4428  0.6228 -0.1677
 3617TIP3    H232411   3.564   4.699   1.539  0.2483 -0.6539 -0.4073
 3618TIP3   OH232412   3.148   5.647   0.498  0.5064  0.3178 -0.1440
 3618TIP3    H132413   3.108   5.639   0.411  0.4706 -0.5032 -0.0520
 3618TIP3    H232414   3.075   5.650   0.559  0.5116  1.3768 -0.1607
 3619TIP3   OH232415   3.688   6.333   6.814  0.1738  0.1529 -0.3632
 3619TIP3    H132416   3.728   6.413   6.848 -0.5461  0.1858  0.4225
 3619TIP3    H232417   3.697   6.340   6.719 -0.3840  1.4381 -0.3364
 3620TIP3   OH232418   0.287   2.735   6.363 -0.1286 -0.0763 -0.2987
 3620TIP3    H132419   0.274   2.781   6.446 -1.0657 -1.7289  0.5299
 3620TIP3    H232420   0.291   2.804   6.297  3.4166  1.5518  1.3428
 3621TIP3   OH232421   5.325   1.317   8.202  0.1820 -0.0690 -0.1410
 3621TIP3    H132422   5.254   1.313   8.267 -0.4155 -0.0937 -0.7802
 3621TIP3    H232423   5.281   1.345   8.121  1.2983  2.4681  0.0267
 3622TIP3   OH232424   3.881   3.844   6.980  0.2968 -0.3120 -0.0543
 3622TIP3    H132425   3.851   3.845   6.889  0.9767 -0.8159 -0.2969
 3622TIP3    H232426   3.924   3.928   6.993 -1.9825  0.8483  0.5941
 3623TIP3   OH232427   6.358   0.830   7.814 -0.1477  0.3329 -0.2195
 3623TIP3    H132428   6.361   0.744   7.771 -0.6042 -0.9884  2.1893
 3623TIP3    H232429   6.310   0.885   7.753 -0.3655 -1.2882 -1.6017
 3624TIP3   OH232430   4.145   6.746   1.097  0.2132 -0.5053 -0.1246
 3624TIP3    H132431   4.211   6.802   1.137  0.3268 -1.2786  0.8118
 3624TIP3    H232432   4.091   6.806   1.044 -0.5599  0.7727  1.9783
 3625TIP3   OH232433   6.829   0.166   0.592 -0.2847  0.2367 -0.3656
 3625TIP3    H132434   6.819   0.163   0.497 -0.5657 -1.2281 -0.3108
 3625TIP3    H232435   6.743   0.196   0.623 -0.5449 -0.3185 -0.5300
 3626TIP3   OH232436   1.409   6.002   0.588 -0.2288  0.0029 -0.3282
 3626TIP3    H132437   1.397   5.920   0.635 -0.5201  0.6613  0.8020
 3626TIP3    H232438   1.491   6.038   0.623  0.5489 -0.3531 -1.6933
 3627TIP3   OH232439   0.739   3.888   1.273  0.2541 -0.6973 -0.3983
 3627TIP3    H132440   0.824   3.902   1.232  0.8811 -0.1458  1.0397
 3627TIP3    H232441   0.686   3.962   1.244 -0.0417 -1.4530 -1.9441
 3628TIP3   OH232442   4.234   1.723   1.090 -0.0958 -0.2949  0.3916
 3628TIP3    H132443   4.215   1.757   1.003  0.7874 -0.7178  0.0214
 3628TIP3    H232444   4.257   1.801   1.142 -2.6447  0.2408  0.8575
 3629TIP3   OH232445   5.316   2.244   7.198  0.4944 -0.0439 -0.8380
 3629TIP3    H132446   5.277   2.173   7.249 -2.0714 -0.5014 -3.1918
 3629TIP3    H232447   5.392   2.204   7.155  1.2601 -0.2789  0.6709
 3630TIP3   OH232448   5.093   6.689   0.675  0.5255  0.0880  0.3957
 3630TIP3    H132449   5.085   6.728   0.588  1.4592  0.5143  0.4859
 3630TIP3    H232450   5.005   6.658   0.695  0.3987 -0.4999 -0.9223
 3631TIP3   OH232451   2.719   2.900   7.996 -0.0975  0.1678  0.4445
 3631TIP3    H132452   2.806   2.864   8.015 -0.2774 -0.7031 -0.3167
 3631TIP3    H232453   2.694   2.859   7.913 -1.0894  0.6800  0.4807
 3632TIP3   OH232454   5.747   5.547   7.064  0.7971  0.1468 -0.0282
 3632TIP3    H132455   5.732   5.453   7.052  2.9542 -0.2119 -0.2056
 3632TIP3    H232456   5.753   5.581   6.975 -1.7025  0.8167 -0.0062
 3633TIP3   OH232457   4.953   0.804   8.390 -0.5628 -0.1980  0.5789
 3633TIP3    H132458   4.889   0.736   8.411 -1.0429  0.6203  1.9032
 3633TIP3    H232459   4.917   0.884   8.429 -0.3496  0.9787 -1.5047
 3634TIP3   OH232460   1.723   6.334   1.629  0.5498  0.3648 -0.3302
 3634TIP3    H132461   1.656   6.276   1.593  0.5651 -2.1549  3.1691
 3634TIP3    H232462   1.677   6.416   1.647 -0.4690  0.1582 -1.8060
 3635TIP3   OH232463   1.559   6.699   8.519 -0.0368 -0.1219  0.4732
 3635TIP3    H132464   1.563   6.696   8.614  1.4778  0.0251  0.4414
 3635TIP3    H232465   1.470   6.728   8.499  0.1975  1.8141  1.9044
 3636TIP3   OH232466   1.484   2.022   7.590  0.1238 -0.2707  0.8317
 3636TIP3    H132467   1.457   1.959   7.524  1.5718 -0.4053  0.3322
 3636TIP3    H232468   1.559   2.068   7.551  0.3453  0.3845  1.9549
 3637TIP3   OH232469   1.704   3.590   1.742 -0.3816 -0.6132  0.0031
 3637TIP3    H132470   1.638   3.621   1.803  0.7998 -1.3572  1.7449
 3637TIP3    H232471   1.687   3.496   1.733 -2.7551 -0.0378 -3.7409
 3638TIP3   OH232472   2.599   5.078   8.318  0.0635 -0.6014  0.3691
 3638TIP3    H132473   2.534   5.121   8.373 -0.7918 -1.3283 -0.0409
 3638TIP3    H232474   2.666   5.048   8.379  0.0171  0.1384  0.8016
 3639TIP3   OH232475   0.833   6.085   0.925 -0.1582  0.0645 -0.4381
 3639TIP3    H132476   0.851   6.147   0.995 -0.7482 -0.1031 -0.1279
 3639TIP3    H232477   0.894   6.013   0.940 -1.2854 -0.6725  0.8166
 3640TIP3   OH232478   2.456   3.597   7.755 -0.0881  0.5619  0.7419
 3640TIP3    H132479   2.433   3.662   7.822 -0.7421 -1.2877  2.4026
 3640TIP3    H232480   2.515   3.537   7.799  0.4277 -0.0649 -0.7281
 3641TIP3   OH232481   1.648   0.700   7.288 -0.1107  0.2226 -0.0873
 3641TIP3    H132482   1.641   0.608   7.313 -0.0988  0.3008  0.2022
 3641TIP3    H232483   1.659   0.698   7.193 -0.9873 -0.0421 -0.1967
 3642TIP3   OH232484   5.727   6.121   1.723  0.0093  0.0568  0.1118
 3642TIP3    H132485   5.718   6.210   1.758 -1.1832 -0.1187  0.3086
 3642TIP3    H232486   5.816   6.118   1.688  0.1007  1.3014  0.1772
 3643TIP3   OH232487   2.671   4.329   0.662 -0.9459  0.2122  0.6278
 3643TIP3    H132488   2.744   4.283   0.621 -1.1534  1.1700 -0.8756
 3643TIP3    H232489   2.596   4.271   0.648 -0.7995  0.0080  0.6725
 3644TIP3   OH232490   5.314   1.521   7.010 -0.5409 -0.2452 -0.4603
 3644TIP3    H132491   5.331   1.493   6.920 -0.5887 -0.8485 -0.2882
 3644TIP3    H232492   5.383   1.584   7.029 -0.4503 -0.2166 -0.8780
 3645TIP3   OH232493   5.963   6.491   2.094  0.2288 -0.4195 -0.2110
 3645TIP3    H132494   5.972   6.461   2.004  1.2806  1.0632 -0.6272
 3645TIP3    H232495   6.041   6.456   2.139  0.7950  0.5633 -0.3970
 3646TIP3   OH232496   6.030   2.738   8.083  0.0638  0.3718 -0.1923
 3646TIP3    H132497   6.111   2.700   8.116  0.1172 -0.6819 -1.4458
 3646TIP3    H232498   5.960   2.689   8.126  0.1048  0.3375 -0.1649
 3647TIP3   OH232499   1.776   1.027   0.799 -0.2257 -0.1534 -0.4550
 3647TIP3    H132500   1.858   1.063   0.832 -0.5847  1.0078 -0.7597
 3647TIP3    H232501   1.725   1.006   0.877 -0.1661  0.4172 -0.2572
 3648TIP3   OH232502   4.868   1.928   1.608  0.1471 -0.2263 -0.4245
 3648TIP3    H132503   4.909   2.002   1.652 -0.1705 -0.1187 -0.3032
 3648TIP3    H232504   4.774   1.939   1.625  0.0828 -0.5610 -0.5492
 3649TIP3   OH232505   3.076   2.344   6.976  0.6181 -0.4390  0.2179
 3649TIP3    H132506   3.120   2.429   6.968  0.5969 -0.5479 -1.4228
 3649TIP3    H232507   2.993   2.355   6.931  0.7031 -1.3796 -0.2012
 3650TIP3   OH232508   6.818   2.679   0.486  0.3853  0.3709 -0.1713
 3650TIP3    H132509   6.830   2.770   0.512 -1.1414  0.1111  1.6975
 3650TIP3    H232510   6.732   2.678   0.444 -0.4393 -0.4511  1.4322
 3651TIP3   OH232511   3.420   5.719   1.087  0.3569  0.8024  0.0248
 3651TIP3    H132512   3.351   5.755   1.142  1.1066  1.1327  0.7866
 3651TIP3    H232513   3.377   5.697   1.005 -0.6536  0.9574  0.4942
 3652TIP3   OH232514   1.148   5.693   0.930 -0.3928 -0.2876 -0.5771
 3652TIP3    H132515   1.223   5.720   0.983 -1.2380 -0.2174  0.6343
 3652TIP3    H232516   1.146   5.597   0.939 -0.2654 -0.3220 -0.8854
 3653TIP3   OH232517   1.633   5.720   0.595  0.1717 -0.5587  0.5517
 3653TIP3    H132518   1.661   5.770   0.672 -1.0606  2.1932 -0.6517
 3653TIP3    H232519   1.667   5.771   0.520 -0.5567 -1.9334 -0.7613
 3654TIP3   OH232520   1.546   1.224   0.391  0.1061  0.5379  0.4630
 3654TIP3    H132521   1.529   1.186   0.305  3.0924  2.7276 -1.2992
 3654TIP3    H232522   1.564   1.148   0.448  1.9102 -0.9304 -1.8623
 3655TIP3   OH232523   2.915   5.353   7.062  0.4580  0.3306  0.1273
 3655TIP3    H132524   2.869   5.270   7.072  0.1235  0.4496 -0.3424
 3655TIP3    H232525   2.999   5.330   7.023  0.9300  0.0809  1.2641
 3656TIP3   OH232526   6.651   3.418   1.175  0.3546  0.0366 -0.8323
 3656TIP3    H132527   6.662   3.323   1.169 -1.5378 -0.1901 -1.3343
 3656TIP3    H232528   6.586   3.430   1.245  2.0288  1.1089  0.6178
 3657TIP3   OH232529   3.552   6.366   2.163 -0.0149 -0.1269 -0.3704
 3657TIP3    H132530   3.508   6.383   2.246 -0.2932  0.6656 -0.6777
 3657TIP3    H232531   3.511   6.285   2.130  1.1988 -1.3627  1.0026
 3658TIP3   OH232532   1.151   3.158   0.361  0.3219  0.4194 -0.3997
 3658TIP3    H132533   1.164   3.106   0.281 -0.6685 -0.1701 -0.1993
 3658TIP3    H232534   1.060   3.185   0.357  0.0930 -0.1040  0.8023
 3659TIP3   OH232535   6.482   6.266   7.122 -0.3959 -0.0505 -0.1131
 3659TIP3    H132536   6.416   6.273   7.053 -0.2652 -1.0040 -0.3586
 3659TIP3    H232537   6.553   6.216   7.081  0.1602  0.3291  0.3721
 3660TIP3   OH232538   5.522   6.535   6.912  0.1063 -1.0303  0.1758
 3660TIP3    H132539   5.459   6.531   6.984 -0.3242  1.1485  0.0051
 3660TIP3    H232540   5.468   6.552   6.835  0.8325  0.4976 -0.0325
 3661TIP3   OH232541   2.343   0.435   0.973 -0.0453 -0.2619 -0.4376
 3661TIP3    H132542   2.352   0.348   0.935 -0.7679 -0.3208 -0.4964
 3661TIP3    H232543   2.352   0.421   1.068  0.3494 -0.3249 -0.4850
 3662TIP3   OH232544   0.768   4.211   0.955  0.0680 -0.1185  0.8980
 3662TIP3    H132545   0.694   4.267   0.928 -0.2706 -0.8454  0.2905
 3662TIP3    H232546   0.845   4.256   0.921 -0.3144 -0.7721 -0.9177
 3663TIP3   OH232547   2.662   0.770   0.939  0.1858  0.2988 -0.2204
 3663TIP3    H132548   2.640   0.852   0.984  0.1979  0.2116 -0.0537
 3663TIP3    H232549   2.757   0.773   0.929  0.4589 -0.5694  1.5442
 3664TIP3   OH232550   3.076   3.405   8.141 -0.0487  0.0721  0.2327
 3664TIP3    H132551   3.101   3.495   8.161  1.8601 -0.2741 -0.4281
 3664TIP3    H232552   3.139   3.376   8.075 -2.7229 -0.6311 -2.2282
 3665TIP3   OH232553   5.792   2.882   7.254  0.6009  0.8896 -0.3925
 3665TIP3    H132554   5.762   2.882   7.163  0.2540  0.0522 -0.2903
 3665TIP3    H232555   5.816   2.790   7.271 -2.4285  0.2911  1.3422
 3666TIP3   OH232556   1.702   5.345   1.535 -0.3626  0.4346  0.3116
 3666TIP3    H132557   1.666   5.264   1.498  1.6563  0.3728 -1.7688
 3666TIP3    H232558   1.733   5.320   1.622 -0.4599 -0.8428  0.0002
 3667TIP3   OH232559   2.508   2.472   1.555  0.2458 -0.1720 -0.9024
 3667TIP3    H132560   2.532   2.423   1.634  0.8809 -0.1299 -1.0667
 3667TIP3    H232561   2.513   2.409   1.484  0.4319 -0.0291 -1.0184
 3668TIP3   OH232562   1.426   1.654   0.078 -0.2069 -0.0638 -0.1542
 3668TIP3    H132563   1.343   1.697   0.098 -0.4710 -0.9005  0.6222
 3668TIP3    H232564   1.445   1.601   0.156  1.6722  1.0365  0.2008
 3669TIP3   OH232565   3.896   1.232   8.482  0.6639 -0.3153  0.1244
 3669TIP3    H132566   3.878   1.155   8.537 -1.1189 -0.1873 -0.2154
 3669TIP3    H232567   3.931   1.196   8.401  2.0466 -0.5870  0.8010
 3670TIP3   OH232568   0.412   0.517   2.144 -0.0941 -0.0897 -0.1391
 3670TIP3    H132569   0.354   0.591   2.165  0.1420 -0.4026  1.7920
 3670TIP3    H232570   0.490   0.558   2.108 -0.9223  0.4166 -1.4691
 3671TIP3   OH232571   1.743   4.016   2.107 -0.1098 -0.1400 -0.3504
 3671TIP3    H132572   1.678   4.086   2.113 -0.7169 -0.5386 -1.8528
 3671TIP3    H232573   1.727   3.962   2.185 -0.0785  0.9992  0.4683
 3672TIP3   OH232574   1.760   5.737   7.112 -0.2709 -0.5844  0.0665
 3672TIP3    H132575   1.827   5.732   7.180  0.2658 -0.0836 -0.4097
 3672TIP3    H232576   1.805   5.778   7.038 -1.6721  1.8506  0.4598
 3673TIP3   OH232577   0.462   0.653   7.268  0.0959  0.1357 -0.1538
 3673TIP3    H132578   0.550   0.644   7.230 -0.9883  0.1884 -2.9017
 3673TIP3    H232579   0.478   0.677   7.359  2.9237 -0.6689 -0.3420
 3674TIP3   OH232580   4.316   2.512   6.580  0.3372  0.2747  0.0936
 3674TIP3    H132581   4.382   2.454   6.618  0.1938  0.0889  0.0641
 3674TIP3    H232582   4.360   2.596   6.568  0.6966  0.0244 -0.3470
 3675TIP3   OH232583   5.914   3.143   8.302 -0.4090  1.0710 -0.2229
 3675TIP3    H132584   5.832   3.163   8.257 -0.7215 -1.9833 -1.2553
 3675TIP3    H232585   5.979   3.141   8.231 -0.4223 -1.2388 -0.2406
 3676TIP3   OH232586   6.582   2.098   1.286  0.0206 -0.7948 -0.0306
 3676TIP3    H132587   6.673   2.107   1.258 -0.2140  0.5569 -0.4354
 3676TIP3    H232588   6.531   2.103   1.206 -0.6299  2.7148  0.4366
 3677TIP3   OH232589   3.248   3.310   2.165  0.0058 -0.2753  0.1020
 3677TIP3    H132590   3.294   3.231   2.192 -2.7044 -1.7250  0.9112
 3677TIP3    H232591   3.192   3.331   2.240 -0.2232  1.7235 -0.5811
 3678TIP3   OH232592   3.857   2.799   1.269  0.0525  0.2434 -0.4702
 3678TIP3    H132593   3.868   2.881   1.316  1.5849  0.4177 -1.0854
 3678TIP3    H232594   3.938   2.750   1.285  0.1830 -0.1222 -2.0567
 3679TIP3   OH232595   1.393   3.716   8.131  0.2817  0.2837  0.3255
 3679TIP3    H132596   1.308   3.759   8.131  0.4571  0.6358 -0.1952
 3679TIP3    H232597   1.386   3.646   8.067  0.7249  1.0174 -0.5496
 3680TIP3   OH232598   1.427   1.000   7.693  0.5547 -0.3851  0.5998
 3680TIP3    H132599   1.456   0.948   7.768  0.6611 -2.8029 -0.9734
 3680TIP3    H232600   1.498   0.992   7.629 -0.7163 -0.8560 -0.8215
 3681TIP3   OH232601   6.108   5.491   1.097 -0.9986 -0.4660  0.0467
 3681TIP3    H132602   6.121   5.396   1.101 -0.5881 -0.3793  1.0788
 3681TIP3    H232603   6.031   5.503   1.042 -1.7568 -1.4724  0.8567
 3682TIP3   OH232604   1.140   4.814   6.826  0.5888  0.0490 -0.7966
 3682TIP3    H132605   1.150   4.752   6.754 -0.1071 -1.8566  0.6452
 3682TIP3    H232606   1.069   4.872   6.798 -2.1895 -2.8462 -0.3581
 3683TIP3   OH232607   0.286   3.806   0.962  0.0298 -0.0802 -1.0244
 3683TIP3    H132608   0.252   3.716   0.968 -0.0417 -0.1787 -2.4158
 3683TIP3    H232609   0.207   3.861   0.966  0.0288 -0.1045 -0.6826
 3684TIP3   OH232610   6.775   3.883   6.895  0.6124 -0.4373  0.4296
 3684TIP3    H132611   6.708   3.930   6.845  2.2267  2.4741  0.7573
 3684TIP3    H232612   6.753   3.791   6.884 -2.4991  0.3200 -0.7423
 3685TIP3   OH232613   0.022   2.612   8.265 -0.6080 -0.1962  0.0078
 3685TIP3    H132614   0.018   2.637   8.173  0.7738  0.6049  0.1388
 3685TIP3    H232615   0.041   2.693   8.312 -3.1769 -0.2207  1.2532
 3686TIP3   OH232616   1.391   4.516   0.140 -0.1396  0.0216  0.1662
 3686TIP3    H132617   1.464   4.543   0.084  0.1131  0.2138  0.5851
 3686TIP3    H232618   1.394   4.576   0.214 -0.1949 -0.5241  0.6137
 3687TIP3   OH232619   4.620   0.363   2.708 -0.2522  0.1432  0.2971
 3687TIP3    H132620   4.574   0.419   2.646  0.5852 -1.8167 -2.2869
 3687TIP3    H232621   4.660   0.294   2.654  1.6851 -0.9709  2.8914
 3688TIP3   OH232622   2.419   1.221   6.210  0.7756 -0.5786 -0.1179
 3688TIP3    H132623   2.365   1.282   6.260  1.3712 -0.4206  0.3446
 3688TIP3    H232624   2.428   1.145   6.266  1.7457 -0.2550  0.1863
 3689TIP3   OH232625   4.361   0.076   8.250  0.2161 -0.2653 -0.4057
 3689TIP3    H132626   4.327  -0.004   8.290  0.0761  0.0143  0.0418
 3689TIP3    H232627   4.288   0.138   8.253  0.1642 -0.2786 -1.2139
 3690TIP3   OH232628   0.313   2.664   7.167  0.3020  0.1928  0.4961
 3690TIP3    H132629   0.402   2.646   7.136  0.3473  0.1971  0.6241
 3690TIP3    H232630   0.286   2.583   7.209 -0.2772 -0.2887 -0.7617
 3691TIP3   OH232631   0.220   5.422   0.512  0.4456  0.2747  0.3906
 3691TIP3    H132632   0.172   5.505   0.514  0.9080  0.5618 -0.0224
 3691TIP3    H232633   0.168   5.366   0.455 -1.2592 -0.6336  2.6803
 3692TIP3   OH232634   3.689   4.930   1.667 -0.3417  0.3009  0.1345
 3692TIP3    H132635   3.725   4.865   1.727 -0.0997 -0.4796 -0.8139
 3692TIP3    H232636   3.664   4.879   1.590 -0.1850  1.3314 -0.6222
 3693TIP3   OH232637   1.936   5.890   7.315 -0.5924  0.2686 -0.8236
 3693TIP3    H132638   1.982   5.807   7.302  0.7393  1.0422 -1.2334
 3693TIP3    H232639   1.993   5.941   7.372 -2.0091  0.4515  0.5033
 3694TIP3   OH232640   0.004   3.967   6.326  0.0530 -0.1778 -0.2041
 3694TIP3    H132641   0.049   3.956   6.243 -2.1887 -0.2650 -1.4877
 3694TIP3    H232642   0.002   3.879   6.364  1.4451 -0.0633  0.1621
 3695TIP3   OH232643   3.357   4.910   8.489  0.4914 -0.5340  0.4350
 3695TIP3    H132644   3.297   4.972   8.448 -0.3911 -1.3043  0.5134
 3695TIP3    H232645   3.419   4.887   8.420 -0.4832 -1.1911 -0.2561
 3696TIP3   OH232646   5.550   3.649   7.386 -0.1140 -0.4856 -0.2968
 3696TIP3    H132647   5.458   3.642   7.410 -0.3841  3.0837  0.3323
 3696TIP3    H232648   5.550   3.704   7.308  1.5115  1.4263  0.9636
 3697TIP3   OH232649   6.224   4.636   2.701 -0.0047 -0.1524  0.4538
 3697TIP3    H132650   6.253   4.546   2.715  1.0337  0.3558  1.8548
 3697TIP3    H232651   6.279   4.688   2.760 -0.1525  1.4726 -0.7826
 3698TIP3   OH232652   0.230   2.872   1.436  0.9394 -0.1881 -0.1495
 3698TIP3    H132653   0.295   2.931   1.401  0.5823  0.7162  0.6576
 3698TIP3    H232654   0.146   2.905   1.403  0.8103 -0.7676 -0.4101
 3699TIP3   OH232655   1.094   0.957   0.324 -0.3030 -0.0783 -0.8300
 3699TIP3    H132656   1.152   0.911   0.263  1.1346 -0.4138  0.7082
 3699TIP3    H232657   1.097   1.048   0.296  0.5519 -0.1830 -1.1232
 3700TIP3   OH232658   4.222   3.628   7.198 -0.1460  0.6027  0.3027
 3700TIP3    H132659   4.280   3.562   7.238 -0.3023 -0.7546 -1.5877
 3700TIP3    H232660   4.150   3.637   7.261 -0.3713 -1.4210  0.4158
 3701TIP3   OH232661   2.091   3.938   0.078 -0.1761  0.3576  0.0944
 3701TIP3    H132662   2.184   3.954   0.095 -0.6001  0.9094  2.1852
 3701TIP3    H232663   2.067   3.867   0.139 -0.8211 -0.7612 -1.4106
 3702TIP3   OH232664   5.569   0.665   7.331 -0.0931 -0.0334  0.3712
 3702TIP3    H132665   5.505   0.696   7.268  1.0623  1.4909 -0.1333
 3702TIP3    H232666   5.571   0.732   7.399  2.8854  1.5230 -1.0266
 3703TIP3   OH232667   3.408   2.916   6.473 -0.1983  0.7240 -0.4991
 3703TIP3    H132668   3.344   2.869   6.420  0.3917 -0.0279 -0.5493
 3703TIP3    H232669   3.361   2.933   6.556 -0.1957 -0.5813 -0.2079
 3704TIP3   OH232670   3.468   1.101   1.716 -0.4531  0.2973 -0.3703
 3704TIP3    H132671   3.439   1.089   1.807 -0.8299 -0.7485 -0.6094
 3704TIP3    H232672   3.456   1.194   1.699 -0.6805  0.4453  0.5539
 3705TIP3   OH232673   3.343   1.130   6.445 -0.3861 -0.3314 -0.2145
 3705TIP3    H132674   3.403   1.092   6.382 -1.3707 -1.2996 -0.5923
 3705TIP3    H232675   3.345   1.070   6.520  1.2007  1.0909  0.9774
 3706TIP3   OH232676   0.819   6.447   1.447  0.2046  0.3172 -0.6054
 3706TIP3    H132677   0.785   6.532   1.476  1.6393  0.4717  0.7846
 3706TIP3    H232678   0.747   6.386   1.464  0.2280  0.7577  1.4598
 3707TIP3   OH232679   6.720   4.725   0.830 -0.2788 -0.0545 -0.6426
 3707TIP3    H132680   6.720   4.632   0.809  0.8642  0.3104 -2.4446
 3707TIP3    H232681   6.806   4.741   0.870 -0.5613  0.1848 -0.1230
 3708TIP3   OH232682   2.676   0.598   7.571  0.0299  0.4204 -0.1275
 3708TIP3    H132683   2.695   0.541   7.497 -1.9376  1.3348 -1.4172
 3708TIP3    H232684   2.581   0.611   7.569 -0.0254  0.9332  2.2460
 3709TIP3   OH232685   5.404   3.319   7.482  0.4650  0.1042  0.2111
 3709TIP3    H132686   5.493   3.284   7.493  0.0643 -1.8437 -2.0188
 3709TIP3    H232687   5.349   3.262   7.535 -0.0052 -1.9259 -2.3018
 3710TIP3   OH232688   1.436   4.894   0.422  0.2343  0.1220 -0.2884
 3710TIP3    H132689   1.362   4.843   0.454  1.0962 -1.8583 -1.2585
 3710TIP3    H232690   1.411   4.986   0.435 -1.3278 -0.5355  1.6518
 3711TIP3   OH232691   0.388   6.634   0.693 -0.6597 -0.2949  0.5431
 3711TIP3    H132692   0.439   6.580   0.754 -1.2457  0.6632  1.9253
 3711TIP3    H232693   0.299   6.631   0.727 -0.9452  0.5199 -0.0946
 3712TIP3   OH232694   5.261   0.750   0.808 -0.9974 -0.5764 -0.3129
 3712TIP3    H132695   5.301   0.790   0.885 -2.3053 -0.6453  0.4415
 3712TIP3    H232696   5.253   0.822   0.745  0.3305 -0.5810 -0.5151
 3713TIP3   OH232697   4.289   3.269   1.774  0.2183  0.1682 -0.1152
 3713TIP3    H132698   4.201   3.283   1.810  0.6071 -0.0388  0.9416
 3713TIP3    H232699   4.329   3.206   1.833  0.8738 -0.1974 -0.9394
 3714TIP3   OH232700   4.979   0.001   1.049  0.0159 -0.5034  0.7038
 3714TIP3    H132701   4.923  -0.036   0.981  0.3217 -0.4604  0.4227
 3714TIP3    H232702   5.068  -0.020   1.020  0.1076 -2.7688  2.3905
 3715TIP3   OH232703   6.829   1.378   7.246 -0.4249 -0.5082 -0.2079
 3715TIP3    H132704   6.916   1.398   7.213 -1.1966  0.6536 -1.6361
 3715TIP3    H232705   6.776   1.454   7.223 -1.5122 -0.5093  1.9752
 3716TIP3   OH232706   6.131   0.714   1.711  0.3417  0.1636  0.4930
 3716TIP3    H132707   6.217   0.672   1.719 -0.0251 -0.8123 -0.3952
 3716TIP3    H232708   6.110   0.744   1.799  1.7176  0.6737  0.6722
 3717TIP3   OH232709   4.432   6.083   7.078 -0.1374 -0.2869 -0.1984
 3717TIP3    H132710   4.425   6.150   7.011  1.3068 -2.3731 -2.6165
 3717TIP3    H232711   4.519   6.045   7.065 -0.6648 -2.2330  1.4200
 3718TIP3   OH232712   5.348   1.235   2.388 -0.0432 -0.1889  0.1008
 3718TIP3    H132713   5.324   1.203   2.302  0.5218 -0.3264 -0.0105
 3718TIP3    H232714   5.271   1.219   2.442 -0.9460  1.2207 -0.7025
 3719TIP3   OH232715   1.224   1.515   7.461 -0.2576  0.0002 -0.3049
 3719TIP3    H132716   1.144   1.469   7.435 -0.2534 -0.7358  0.9043
 3719TIP3    H232717   1.196   1.605   7.479 -0.6350 -0.0195 -0.7696
 3720TIP3   OH232718   6.414   3.637   8.397  0.7827  0.1275 -0.8844
 3720TIP3    H132719   6.392   3.558   8.447 -0.0839  1.7549  1.4641
 3720TIP3    H232720   6.478   3.607   8.333  0.9670 -2.3519  0.3288
 3721TIP3   OH232721   1.923   2.031   2.167  0.4537  0.0301 -0.8031
 3721TIP3    H132722   1.956   1.942   2.161  1.6329  0.5092 -1.8280
 3721TIP3    H232723   1.849   2.025   2.228  1.5687 -1.3311  0.5066
 3722TIP3   OH232724   3.410   4.331   6.992  0.2019 -0.4352  0.6363
 3722TIP3    H132725   3.505   4.324   6.982  0.2012  0.6695 -0.3661
 3722TIP3    H232726   3.386   4.408   6.941 -1.1515 -0.2536  1.4943
 3723TIP3   OH232727   1.835   6.183   8.391  0.5719  0.4328 -0.1744
 3723TIP3    H132728   1.898   6.153   8.325 -0.1193  0.1080 -0.6978
 3723TIP3    H232729   1.755   6.133   8.373  0.1852  0.7812  0.5301
 3724TIP3   OH232730   5.438   1.613   0.755  0.6035 -0.2348 -0.0269
 3724TIP3    H132731   5.384   1.675   0.706  0.0865  0.4598  1.3784
 3724TIP3    H232732   5.387   1.593   0.834  2.1961  0.0930  1.1420
 3725TIP3   OH232733   0.322   5.070   1.503  0.5591 -0.1074 -1.2313
 3725TIP3    H132734   0.243   5.035   1.461 -1.3262  1.6735  0.5504
 3725TIP3    H232735   0.377   4.994   1.519 -0.7177 -1.4048 -2.6917
 3726TIP3   OH232736   2.100   0.906   6.646  0.2140 -0.2654 -0.5244
 3726TIP3    H132737   2.021   0.881   6.598  1.1463  1.1346 -2.9262
 3726TIP3    H232738   2.142   0.823   6.668 -1.2327 -0.9919 -0.3560
 3727TIP3   OH232739   5.677   5.269   6.879 -0.3124 -0.0766 -0.1777
 3727TIP3    H132740   5.737   5.276   6.806 -0.7848  2.6593 -0.4056
 3727TIP3    H232741   5.621   5.194   6.858  0.9504 -0.6900 -1.4895
 3728TIP3   OH232742   6.568   3.520   7.858 -0.1306  0.1035  0.5034
 3728TIP3    H132743   6.494   3.570   7.824  0.1137  0.5178  0.5740
 3728TIP3    H232744   6.549   3.507   7.951  0.2406  0.8718  0.6970
 3729TIP3   OH232745   3.671   5.286   6.243 -0.2527  0.2237  0.4634
 3729TIP3    H132746   3.657   5.320   6.332 -1.3188 -0.4672  0.5818
 3729TIP3    H232747   3.723   5.353   6.199 -0.8179  1.1685  1.2108
 3730TIP3   OH232748   1.550   0.168   8.076  0.2161  0.4768  0.5524
 3730TIP3    H132749   1.643   0.187   8.089  0.2874 -0.6111  1.8555
 3730TIP3    H232750   1.532   0.198   7.988  2.5970 -2.1565 -1.0186
 3731TIP3   OH232751   6.174   6.547   7.970  0.1587 -0.7200 -0.0126
 3731TIP3    H132752   6.124   6.486   7.916 -0.0545 -0.0843 -0.5358
 3731TIP3    H232753   6.154   6.634   7.935  2.6026 -0.5107 -1.0706
 3732TIP3   OH232754   5.711   3.447   0.087 -0.2519  0.3305 -0.1393
 3732TIP3    H132755   5.646   3.473   0.022 -0.0784  0.1072 -0.4068
 3732TIP3    H232756   5.677   3.365   0.124 -0.4467  0.5596  0.1912
 3733TIP3   OH232757   4.674   4.492   7.954  0.6892  0.6841 -0.4403
 3733TIP3    H132758   4.679   4.507   8.049 -0.8500 -0.0398 -0.2097
 3733TIP3    H232759   4.765   4.492   7.925  1.2556 -0.1042  1.2101
 3734TIP3   OH232760   5.180   4.033   8.595  0.4493 -0.6345 -0.0308
 3734TIP3    H132761   5.266   4.044   8.635 -0.0801  0.5528  0.8355
 3734TIP3    H232762   5.125   3.998   8.665 -0.3347  0.8631  0.1228
 3735TIP3   OH232763   6.092   6.453   8.447  0.7038  0.7590  0.0352
 3735TIP3    H132764   6.066   6.364   8.422 -1.2736  1.1345  0.5763
 3735TIP3    H232765   6.186   6.456   8.429  0.5039 -0.8827 -1.6326
 3736TIP3   OH232766   0.678   5.047   0.880  0.1139  0.8639  0.1328
 3736TIP3    H132767   0.611   5.101   0.839  1.5212  1.0900 -2.0453
 3736TIP3    H232768   0.714   4.994   0.809  1.0173 -0.5641  1.5817
 3737TIP3   OH232769   6.540   6.031   8.481 -0.6548  0.1818  0.5084
 3737TIP3    H132770   6.544   6.105   8.542 -1.6410 -1.4310  2.6235
 3737TIP3    H232771   6.628   5.993   8.483 -1.0589 -0.7483  2.1448
 3738TIP3   OH232772   3.433   4.637   0.910 -0.4055 -0.0796  0.0235
 3738TIP3    H132773   3.398   4.680   0.988  0.2269  1.2683 -0.3923
 3738TIP3    H232774   3.412   4.697   0.839 -0.8095 -1.2002 -0.8269
 3739TIP3   OH232775   2.051   4.312   7.831  0.4007  0.5870 -0.0925
 3739TIP3    H132776   2.006   4.227   7.836  3.2433 -1.0583 -0.1858
 3739TIP3    H232777   2.008   4.358   7.759 -0.3068 -1.3896 -0.9927
 3740TIP3   OH232778   3.763   0.675   7.840 -0.5584  0.6849 -0.3018
 3740TIP3    H132779   3.824   0.698   7.770 -0.9141 -0.0026 -0.8467
 3740TIP3    H232780   3.818   0.630   7.905 -0.0072  2.3153  0.4177
 3741TIP3   OH232781   3.028   3.943   1.098  0.4048 -0.1971 -0.1852
 3741TIP3    H132782   2.976   4.021   1.077 -2.2598 -1.7978 -0.0846
 3741TIP3    H232783   3.105   3.977   1.144 -0.2152  2.3990 -0.8719
 3742TIP3   OH232784   1.752   6.119   1.910 -0.3802  0.0788 -0.5300
 3742TIP3    H132785   1.681   6.056   1.921 -0.7430  0.6500  0.5871
 3742TIP3    H232786   1.720   6.181   1.845 -1.0051  0.4425  0.1060
 3743TIP3   OH232787   0.346   4.415   8.063 -0.1004  0.5401 -0.0982
 3743TIP3    H132788   0.396   4.496   8.075 -0.9197  0.9336  0.8804
 3743TIP3    H232789   0.259   4.436   8.098 -0.8715 -0.2189 -1.4643
 3744TIP3   OH232790   4.836   2.982   1.651 -0.1039  0.2107  0.0485
 3744TIP3    H132791   4.796   2.904   1.612 -0.9613  0.2356  0.8258
 3744TIP3    H232792   4.762   3.039   1.672  0.4002  0.5915  0.8455
 3745TIP3   OH232793   3.214   6.870   8.592  0.1633 -0.1562 -0.1828
 3745TIP3    H132794   3.199   6.930   8.518 -0.1641 -0.1702 -0.1271
 3745TIP3    H232795   3.129   6.829   8.608  0.7611 -1.9830 -1.3774
 3746TIP3   OH232796   1.478   1.462   8.524  0.0277  0.0648 -0.1531
 3746TIP3    H132797   1.420   1.390   8.549  0.1068  0.4919  1.3461
 3746TIP3    H232798   1.440   1.539   8.566 -0.0625  0.9315 -1.7300
 3747TIP3   OH232799   2.074   2.180   8.462  0.2875 -0.2715 -0.4674
 3747TIP3    H132800   2.018   2.158   8.388  0.8533  0.8207 -1.2473
 3747TIP3    H232801   2.151   2.124   8.451  0.5642  0.2007 -0.9607
 3748TIP3   OH232802   1.196   4.661   8.322  0.1877 -0.1257  0.3977
 3748TIP3    H132803   1.170   4.702   8.240  0.6568 -1.3657 -0.4101
 3748TIP3    H232804   1.135   4.696   8.387 -0.1035  0.9879 -0.4395
 3749TIP3   OH232805   2.396   3.324   6.846  0.2590 -0.1888  0.1815
 3749TIP3    H132806   2.434   3.412   6.846  0.8989 -0.4460 -0.8024
 3749TIP3    H232807   2.331   3.326   6.915 -0.1827  1.2563 -0.2425
 3750TIP3   OH232808   4.402   5.872   8.041  0.2610 -0.4673  0.5241
 3750TIP3    H132809   4.374   5.959   8.013  1.2215 -0.8755 -1.9257
 3750TIP3    H232810   4.446   5.887   8.125  1.4719  1.5913 -0.4128
 3751TIP3   OH232811   6.694   0.217   1.501 -0.6133  0.1535 -0.1726
 3751TIP3    H132812   6.669   0.294   1.451 -1.6869  0.1626  0.3709
 3751TIP3    H232813   6.616   0.162   1.502  0.3551 -1.3438 -1.2441
 3752TIP3   OH232814   1.713   6.519   0.659 -0.0901  0.0633  0.1501
 3752TIP3    H132815   1.680   6.596   0.705 -0.8059 -0.8673  1.2775
 3752TIP3    H232816   1.638   6.460   0.654  1.0105 -1.6133  1.6869
 3753TIP3   OH232817   1.728   0.121   0.561  0.3644 -0.3481 -0.0794
 3753TIP3    H132818   1.641   0.131   0.599  1.4359  0.0996  2.4598
 3753TIP3    H232819   1.731   0.031   0.529 -1.0334 -0.3302 -0.3027
 3754TIP3   OH232820   5.536   4.636   6.348  0.6887  0.2027  0.0155
 3754TIP3    H132821   5.625   4.669   6.335  0.5444  0.5041 -0.2239
 3754TIP3    H232822   5.548   4.550   6.388  1.1241 -0.2563 -1.0666
 3755TIP3   OH232823   5.488   4.863   2.407 -0.3375  0.6111 -0.1442
 3755TIP3    H132824   5.515   4.942   2.360  0.3962 -0.6913 -2.0473
 3755TIP3    H232825   5.394   4.854   2.388  0.4456 -1.5053 -4.2047
 3756TIP3   OH232826   2.420   0.879   0.114 -0.7876 -0.0462 -0.0988
 3756TIP3    H132827   2.492   0.936   0.088 -0.7063  0.8181  1.8568
 3756TIP3    H232828   2.436   0.861   0.207 -2.4192 -0.8537  0.0622
 3757TIP3   OH232829   3.963   6.008   2.220 -0.5499  0.3976 -0.3935
 3757TIP3    H132830   4.044   5.963   2.195 -0.5066  0.0529  0.3375
 3757TIP3    H232831   3.993   6.084   2.271 -0.7051 -0.7003  1.4315
 3758TIP3   OH232832   4.560   6.241   1.868 -0.2093  0.3521  0.7024
 3758TIP3    H132833   4.571   6.160   1.819 -0.9098  0.4918  0.2916
 3758TIP3    H232834   4.527   6.304   1.803 -2.1953  0.2587  1.5430
 3759TIP3   OH232835   5.385   4.072   7.791  0.4621 -0.1147  0.1256
 3759TIP3    H132836   5.456   4.114   7.743  0.4384 -1.2956 -0.9751
 3759TIP3    H232837   5.428   4.031   7.866  0.8638 -0.4405 -0.2863
 3760TIP3   OH232838   6.557   6.387   1.401 -0.4436 -0.3909 -0.3492
 3760TIP3    H132839   6.566   6.300   1.363 -1.2515 -0.6981  0.1449
 3760TIP3    H232840   6.464   6.408   1.392 -0.4200  0.0520  0.3232
 3761TIP3   OH232841   5.728   4.326   1.416 -0.4140  0.0351 -0.1043
 3761TIP3    H132842   5.671   4.277   1.357 -0.2731 -0.9338  0.5272
 3761TIP3    H232843   5.805   4.346   1.364 -0.0473 -1.3047 -0.1086
 3762TIP3   OH232844   5.371   5.621   7.810 -0.3367 -0.1374 -0.4004
 3762TIP3    H132845   5.363   5.539   7.860 -1.2724  1.0934  1.5753
 3762TIP3    H232846   5.465   5.638   7.807 -0.1895 -0.8405 -0.0696
 3763TIP3   OH232847   2.778   4.543   8.438  0.7698 -0.1436 -0.1609
 3763TIP3    H132848   2.825   4.538   8.521 -0.2858 -0.8252  0.4315
 3763TIP3    H232849   2.838   4.586   8.378  1.7654 -0.1420  0.8116
 3764TIP3   OH232850   6.182   1.115   2.021 -0.3362  0.3375  0.0227
 3764TIP3    H132851   6.093   1.139   1.994 -0.0632  0.7598 -0.5325
 3764TIP3    H232852   6.202   1.037   1.969 -0.6530 -0.1961  0.6936
 3765TIP3   OH232853   0.582   2.190   6.353 -0.4877  0.3356 -0.3505
 3765TIP3    H132854   0.599   2.120   6.290  0.7532  1.0325 -0.8203
 3765TIP3    H232855   0.561   2.267   6.300 -1.0801  0.5241  0.1397
 3766TIP3   OH232856   3.460   2.136   2.088  0.2342  0.1079 -0.2937
 3766TIP3    H132857   3.383   2.181   2.123 -0.5871 -1.5058  0.0810
 3766TIP3    H232858   3.529   2.151   2.153 -0.5621 -0.7362  0.7854
 3767TIP3   OH232859   6.556   1.233   7.227  0.4800  0.6639 -0.4355
 3767TIP3    H132860   6.616   1.276   7.167  0.6051 -0.6537 -1.2658
 3767TIP3    H232861   6.604   1.157   7.260 -0.9309 -0.8550 -1.6996
 3768TIP3   OH232862   2.193   0.628   7.345  0.4084 -0.3360  0.3918
 3768TIP3    H132863   2.257   0.606   7.277  1.5851  1.8911  0.6931
 3768TIP3    H232864   2.114   0.580   7.320  1.0954 -0.3281 -2.0438
 3769TIP3   OH232865   2.707   3.590   7.216  0.1206 -0.2493  0.1488
 3769TIP3    H132866   2.686   3.510   7.167 -0.2294 -0.7941  1.1529
 3769TIP3    H232867   2.774   3.563   7.278  0.6591  0.4682 -0.1034
 3770TIP3   OH232868   6.651   1.318   6.954  0.0667 -0.6575 -0.7877
 3770TIP3    H132869   6.661   1.286   6.864 -3.1196 -1.5945 -0.9436
 3770TIP3    H232870   6.580   1.382   6.949  2.7273  2.6659  0.4454
 3771TIP3   OH232871   2.109   0.568   0.810 -0.1787 -0.3030  0.3538
 3771TIP3    H132872   2.162   0.616   0.746  0.5905 -0.8552  0.5595
 3771TIP3    H232873   2.155   0.484   0.820  0.4887  0.2608  2.6376
 3772TIP3   OH232874   6.099   1.283   0.179  0.2874 -0.6719 -0.4196
 3772TIP3    H132875   6.190   1.293   0.151  0.5289  0.0978  0.5586
 3772TIP3    H232876   6.048   1.325   0.110  0.6111 -1.7223 -1.3186
 3773TIP3   OH232877   5.621   4.216   7.722 -0.2912 -1.0647  0.3135
 3773TIP3    H132878   5.617   4.311   7.735  1.0725 -1.0565  0.9367
 3773TIP3    H232879   5.662   4.205   7.636 -0.4013 -1.0760  0.2633
 3774TIP3   OH232880   5.167   4.491   1.140  0.8950  0.3575  0.4171
 3774TIP3    H132881   5.076   4.492   1.111  0.9825  2.3988  0.0172
 3774TIP3    H232882   5.175   4.570   1.194  2.1559 -0.3804  1.3537
 3775TIP3   OH232883   4.538   1.558   8.222  0.1370 -0.6268  0.4412
 3775TIP3    H132884   4.515   1.478   8.176  3.3961 -2.5897  1.8766
 3775TIP3    H232885   4.454   1.598   8.244 -1.6348 -3.5853 -0.4109
 3776TIP3   OH232886   4.758   5.436   0.930 -0.2137  0.1887 -0.1383
 3776TIP3    H132887   4.679   5.387   0.952 -1.2885  0.9919 -2.0448
 3776TIP3    H232888   4.757   5.512   0.988 -0.4949 -0.1242  0.2699
 3777TIP3   OH232889   3.451   1.745   7.465  0.2764 -0.1509  0.1094
 3777TIP3    H132890   3.439   1.681   7.535 -1.5278 -0.6595 -0.5946
 3777TIP3    H232891   3.406   1.823   7.497  1.4452  0.3965  0.4642
 3778TIP3   OH232892   0.249   2.448   8.229 -0.1196  0.1008  0.4402
 3778TIP3    H132893   0.253   2.440   8.325 -0.5043 -1.4197  0.3642
 3778TIP3    H232894   0.181   2.513   8.213 -1.4205 -1.0101  1.2127
 3779TIP3   OH232895   1.844   6.407   6.844 -1.0775  0.0257  0.2056
 3779TIP3    H132896   1.883   6.336   6.794 -0.5185 -0.0875  0.7861
 3779TIP3    H232897   1.906   6.479   6.836 -0.7515 -0.1377  1.0939
 3780TIP3   OH232898   1.199   3.348   6.757 -0.0071  0.2305 -0.0443
 3780TIP3    H132899   1.142   3.272   6.762  0.6317 -0.1901  1.2353
 3780TIP3    H232900   1.239   3.354   6.843  0.5673  1.5478 -0.3721
 3781TIP3   OH232901   0.722   3.399   0.547  0.0768 -0.2107 -0.2581
 3781TIP3    H132902   0.730   3.329   0.482  1.3176 -0.1249 -0.2258
 3781TIP3    H232903   0.777   3.470   0.514  0.9354 -0.2565  0.9717
 3782TIP3   OH232904   5.907   6.561   0.305  0.4015 -0.3636 -0.1457
 3782TIP3    H132905   5.830   6.616   0.289 -0.1241 -1.0673 -0.0992
 3782TIP3    H232906   5.871   6.473   0.321  1.1390 -0.4779  1.0068
 3783TIP3   OH232907   1.150   4.100   0.998  0.1764 -0.1843 -0.3747
 3783TIP3    H132908   1.208   4.121   1.071 -1.2239  0.7683  0.5209
 3783TIP3    H232909   1.208   4.090   0.923  1.6601 -1.1363  0.8385
 3784TIP3   OH232910   6.583   1.276   1.992  0.5008  0.3706  0.2253
 3784TIP3    H132911   6.651   1.342   2.003  1.3451 -0.5492  0.6706
 3784TIP3    H232912   6.588   1.224   2.072 -0.7675  0.3146  0.2820
 3785TIP3   OH232913   5.669   2.147   1.771 -0.2112 -0.0117 -0.0481
 3785TIP3    H132914   5.705   2.113   1.689 -1.9103  2.1892 -1.8289
 3785TIP3    H232915   5.740   2.200   1.808  0.0409  0.2989 -0.9581
 3786TIP3   OH232916   3.923   3.899   0.411  0.3993 -0.1039 -0.3465
 3786TIP3    H132917   3.880   3.840   0.473  0.4637 -3.6459 -3.3346
 3786TIP3    H232918   3.857   3.966   0.393 -0.2537  0.0167  2.1563
 3787TIP3   OH232919   4.615   1.940   1.721 -0.8975 -0.1915  0.0249
 3787TIP3    H132920   4.580   1.916   1.635  2.3621 -0.8216 -1.2945
 3787TIP3    H232921   4.587   1.868   1.779  0.5153 -2.1863 -1.6112
 3788TIP3   OH232922   2.768   6.493   0.016 -0.1680  0.6732 -0.0037
 3788TIP3    H132923   2.835   6.508  -0.051 -0.8876  1.8508 -0.4787
 3788TIP3    H232924   2.698   6.554  -0.005 -2.1454 -1.6050 -0.4908
 3789TIP3   OH232925   6.414   0.858   8.586 -0.3453 -0.4198  0.3627
 3789TIP3    H132926   6.473   0.803   8.535  1.2971  1.6409 -0.0897
 3789TIP3    H232927   6.455   0.945   8.586 -2.1774  0.5423  2.0786
 3790TIP3   OH232928   0.214   2.796   7.504  0.4307  0.4098 -0.0785
 3790TIP3    H132929   0.163   2.800   7.585  2.8359  4.1489  1.5675
 3790TIP3    H232930   0.157   2.753   7.441 -2.4822 -0.6237  2.9587
 3791TIP3   OH232931   1.965   6.526   0.569 -0.1422  0.1295  0.2316
 3791TIP3    H132932   1.960   6.517   0.474  2.8649 -0.4794  0.0214
 3791TIP3    H232933   1.874   6.523   0.599 -1.2034  0.9807 -2.6423
 3792TIP3   OH232934   3.988   5.319   6.999 -0.1009  0.0962  0.5828
 3792TIP3    H132935   4.042   5.240   7.003 -0.1852 -0.0313 -0.4433
 3792TIP3    H232936   4.008   5.366   7.080  0.9385 -0.3357  0.5926
 3793TIP3   OH232937   2.921   5.357   7.748 -0.2944  0.0061 -0.0375
 3793TIP3    H132938   2.847   5.352   7.687  0.0618  0.2936 -0.5091
 3793TIP3    H232939   2.911   5.442   7.791 -2.5152 -1.5673  2.9374
 3794TIP3   OH232940   4.409   6.258   1.619 -0.2219  0.2308 -0.5613
 3794TIP3    H132941   4.359   6.315   1.678 -0.5047 -0.5573 -0.0194
 3794TIP3    H232942   4.351   6.245   1.544 -0.3553  0.2552 -0.4632
 3795TIP3   OH232943   4.874   6.053   1.346  0.0914  0.5215 -0.1374
 3795TIP3    H132944   4.780   6.042   1.338 -0.0012  0.9745  0.2386
 3795TIP3    H232945   4.890   6.143   1.318  0.3653  0.5549  0.1177
 3796TIP3   OH232946   2.344   5.305   7.235  0.4270 -0.1141 -0.5790
 3796TIP3    H132947   2.310   5.310   7.145 -2.1089  0.7517  0.3503
 3796TIP3    H232948   2.309   5.223   7.269  0.6956 -0.0408 -0.1188
 3797TIP3   OH232949   6.149   4.768   7.956  0.3719 -0.1203  0.2482
 3797TIP3    H132950   6.122   4.860   7.954 -1.1372 -0.5494 -0.1806
 3797TIP3    H232951   6.183   4.755   8.045 -1.6836  0.2602  1.1552
 3798TIP3   OH232952   4.093   1.117   6.490 -0.0748  0.1025  0.4795
 3798TIP3    H132953   4.126   1.161   6.412 -0.0331 -0.6332  0.0745
 3798TIP3    H232954   4.101   1.183   6.560  0.6805  0.4822  0.0489
 3799TIP3   OH232955   4.051   1.779   8.489 -0.4465  0.4260  0.3975
 3799TIP3    H132956   4.103   1.857   8.472 -0.6107  0.5547  0.4787
 3799TIP3    H232957   3.971   1.812   8.530  0.4022  0.0442  2.4748
 3800TIP3   OH232958   4.456   3.430   0.915  0.0060  0.5780 -0.2870
 3800TIP3    H132959   4.549   3.450   0.921  1.0645 -2.1018 -3.8208
 3800TIP3    H232960   4.419   3.502   0.863  0.6336  0.5759 -0.7489
 3801TIP3   OH232961   0.898   2.192   1.278 -0.1977  0.1285 -0.1054
 3801TIP3    H132962   0.814   2.189   1.233  0.0755 -0.0231 -0.6088
 3801TIP3    H232963   0.944   2.114   1.249  0.5011  0.7067 -0.5983
 3802TIP3   OH232964   3.522   1.492   7.627 -0.1937  0.1651 -0.3002
 3802TIP3    H132965   3.449   1.433   7.609 -1.1451  0.8627  1.0773
 3802TIP3    H232966   3.535   1.487   7.721  0.0304  1.7378 -0.2098
 3803TIP3   OH232967   5.463   0.164   2.029  0.7854  0.8589  0.4433
 3803TIP3    H132968   5.460   0.070   2.017  2.1795  0.8119  0.2759
 3803TIP3    H232969   5.371   0.192   2.032  0.3633 -0.5159  0.7087
 3804TIP3   OH232970   0.185   4.672   7.555  0.8143 -0.1306  0.4160
 3804TIP3    H132971   0.225   4.730   7.491  1.6252 -0.2288  0.8163
 3804TIP3    H232972   0.152   4.730   7.623  1.3997 -0.1115  0.6926
 3805TIP3   OH232973   2.315   3.044   1.382 -0.0745 -0.0264  0.3250
 3805TIP3    H132974   2.265   3.083   1.311 -0.0335 -0.4324  0.0714
 3805TIP3    H232975   2.387   2.998   1.339  0.1249 -0.0149  0.6455
 3806TIP3   OH232976   1.179   2.774   0.949 -0.0595  0.1796  0.1916
 3806TIP3    H132977   1.115   2.787   1.018  0.5543  0.7666  0.6728
 3806TIP3    H232978   1.263   2.768   0.995  0.6524  2.7479 -0.5588
 3807TIP3   OH232979   4.556   4.140   7.230 -0.3653 -0.1408  0.0606
 3807TIP3    H132980   4.623   4.153   7.298 -0.4414  0.4975  0.0242
 3807TIP3    H232981   4.487   4.091   7.274 -0.5562  0.5444  0.5524
 3808TIP3   OH232982   4.044   3.340   1.343 -0.1480 -0.3412 -0.5424
 3808TIP3    H132983   4.122   3.346   1.289  0.9903 -0.2710  1.0498
 3808TIP3    H232984   4.069   3.286   1.418 -2.1016 -1.6692 -0.7561
 3809TIP3   OH232985   1.827   4.502   8.352 -0.6190  0.3482 -0.2590
 3809TIP3    H132986   1.851   4.436   8.417  1.1034  2.6436  1.6296
 3809TIP3    H232987   1.887   4.485   8.279 -0.4329 -0.3822  0.0479
 3810TIP3   OH232988   4.534   6.296   7.559  0.6102 -0.1473 -0.4945
 3810TIP3    H132989   4.564   6.223   7.505  0.0484 -1.8443  1.3830
 3810TIP3    H232990   4.454   6.326   7.516  1.1107 -0.2745 -1.5582
 3811TIP3   OH232991   2.459   3.698   7.276 -0.4662  0.1536 -0.1949
 3811TIP3    H132992   2.470   3.726   7.367  1.2231 -0.4078 -0.2029
 3811TIP3    H232993   2.548   3.685   7.244 -1.0269  0.6463 -2.0396
 3812TIP3   OH232994   5.079   6.111   0.422 -0.0718  0.1957 -0.3646
 3812TIP3    H132995   5.014   6.144   0.484  0.8173  1.1596  0.1109
 3812TIP3    H232996   5.130   6.048   0.472  2.0361  2.5374  0.6809
 3813TIP3   OH232997   0.270   6.695   0.197  0.4909  0.6620 -0.2141
 3813TIP3    H132998   0.270   6.791   0.196  1.1254  0.6650 -0.1605
 3813TIP3    H232999   0.298   6.671   0.285 -0.0498  0.4190 -0.1010
 3814TIP3   OH233000   2.977   2.225   0.547  0.5401 -0.0430 -0.0706
 3814TIP3    H133001   2.941   2.283   0.481  0.3540 -1.2143 -1.0343
 3814TIP3    H233002   3.047   2.178   0.502 -0.6355 -2.0212  0.0513
 3815TIP3   OH233003   0.470   2.321   1.798  0.2391  0.0576  0.1106
 3815TIP3    H133004   0.514   2.297   1.879  1.5638 -0.6660 -0.7976
 3815TIP3    H233005   0.389   2.270   1.798  1.1388 -1.3949  0.0947
 3816TIP3   OH233006   1.718   6.557   8.257 -0.2756  0.2800  0.1757
 3816TIP3    H133007   1.636   6.510   8.270 -0.5446 -0.6498 -3.7062
 3816TIP3    H233008   1.692   6.641   8.220  0.4741  0.9287  1.0817
 3817TIP3   OH233009   2.525   3.470   8.235 -0.2303 -0.0573  0.1029
 3817TIP3    H133010   2.538   3.484   8.329  0.7242  0.8066 -0.1476
 3817TIP3    H233011   2.607   3.430   8.205  0.0917  1.1043 -0.6359
 3818TIP3   OH233012   1.451   3.831   7.712  0.3548 -0.1132 -0.2002
 3818TIP3    H133013   1.412   3.749   7.681  0.4561  0.6569 -2.5269
 3818TIP3    H233014   1.523   3.803   7.768 -1.5347 -1.5679  1.6436
 3819TIP3   OH233015   0.425   1.696   7.413 -0.4073 -0.2033  0.4472
 3819TIP3    H133016   0.388   1.783   7.405 -0.4703 -0.3111 -0.5755
 3819TIP3    H233017   0.352   1.641   7.441 -1.5450 -0.7178 -3.0550
 3820TIP3   OH233018   2.408   2.146   7.036  0.1850 -0.0206  0.2781
 3820TIP3    H133019   2.394   2.120   7.127 -0.4093  1.4189  0.6160
 3820TIP3    H233020   2.391   2.066   6.986  0.4268 -0.8075  1.4062
 3821TIP3   OH233021   3.787   5.819   7.972  0.1871 -0.0003  0.2206
 3821TIP3    H133022   3.757   5.733   7.943  0.6703 -0.1585  0.1831
 3821TIP3    H233023   3.876   5.826   7.938  0.4388  0.1879  0.9048
 3822TIP3   OH233024   6.606   4.903   1.033 -0.3344  0.0723  0.0897
 3822TIP3    H133025   6.613   4.817   0.991  1.5945  1.6146 -3.1448
 3822TIP3    H233026   6.695   4.938   1.031 -1.4715  3.2646 -1.4366
 3823TIP3   OH233027   6.167   0.852   0.083 -0.3240  0.1023 -0.0329
 3823TIP3    H133028   6.247   0.838   0.033 -0.5765 -1.6485 -0.0173
 3823TIP3    H233029   6.196   0.890   0.166  0.6040 -1.2331  0.2859
 3824TIP3   OH233030   2.041   4.487   1.153 -0.2237  0.3068  0.0338
 3824TIP3    H133031   2.015   4.577   1.135  0.1224  0.1740 -1.2413
 3824TIP3    H233032   2.045   4.445   1.067  0.6585 -0.6387  0.5037
 3825TIP3   OH233033   2.526   4.922   8.109  0.3788  0.1100  0.3147
 3825TIP3    H133034   2.556   4.978   8.181  0.5440 -0.2963  0.5677
 3825TIP3    H233035   2.523   4.835   8.148  0.6810 -0.1445 -0.2372
 3826TIP3   OH233036   6.761   1.047   8.241 -0.5090  0.0766  0.4913
 3826TIP3    H133037   6.725   0.998   8.314 -0.0406  1.3392  1.6101
 3826TIP3    H233038   6.848   1.010   8.227 -0.7485 -0.4251  0.2952
 3827TIP3   OH233039   2.515   2.266   6.778  0.0791  0.6506  0.7021
 3827TIP3    H133040   2.577   2.265   6.705 -0.1105  0.6846  0.5404
 3827TIP3    H233041   2.542   2.193   6.833 -1.8492 -1.6416 -1.1490
 3828TIP3   OH233042   6.167   1.061   8.199  0.0900  0.0387 -0.1236
 3828TIP3    H133043   6.166   0.999   8.127  0.3225 -0.2116  0.0851
 3828TIP3    H233044   6.075   1.080   8.217 -0.0254 -1.1003  0.5424
 3829TIP3   OH233045   1.145   5.108   7.179  0.4993 -0.5708  0.1657
 3829TIP3    H133046   1.237   5.133   7.187 -0.1685  2.0038  0.5701
 3829TIP3    H233047   1.141   5.020   7.216  2.9931 -1.2855 -1.0397
 3830TIP3   OH233048   0.599   5.389   0.771  0.2928  0.1034 -0.3156
 3830TIP3    H133049   0.562   5.302   0.785  1.1887 -0.0318  1.3554
 3830TIP3    H233050   0.572   5.412   0.681 -4.3726  0.2909  0.8562
 3831TIP3   OH233051   4.620   5.548   1.963 -0.0246  0.3539 -0.7558
 3831TIP3    H133052   4.671   5.538   2.043 -1.2920 -2.4122 -0.1702
 3831TIP3    H233053   4.597   5.641   1.960  1.6130  0.8771  1.0608
 3832TIP3   OH233054   6.658   3.067   2.277  0.1805  0.0203  0.7386
 3832TIP3    H133055   6.676   3.119   2.198 -0.9361 -1.7381 -0.7579
 3832TIP3    H233056   6.744   3.037   2.306  0.5101 -0.6197 -0.7944
 3833TIP3   OH233057   3.807   4.664   6.285  0.3672 -0.3170  0.3756
 3833TIP3    H133058   3.860   4.586   6.271 -0.6733 -0.5472 -3.1539
 3833TIP3    H233059   3.827   4.721   6.211 -1.0443  1.5272  1.3182
 3834TIP3   OH233060   5.777   6.398   6.381  0.3094  0.3111 -0.3166
 3834TIP3    H133061   5.847   6.335   6.361 -0.5434 -0.6544 -0.3539
 3834TIP3    H233062   5.699   6.359   6.343 -0.2742  1.3397 -0.2075
 3835TIP3   OH233063   5.990   2.154   0.201  0.5684  0.0037  0.2851
 3835TIP3    H133064   6.000   2.154   0.296  0.6682 -3.1488  0.3870
 3835TIP3    H233065   5.928   2.225   0.183  0.9054  0.9619  2.6423
 3836TIP3   OH233066   5.673   6.382   0.825  0.0791  0.1286  0.1576
 3836TIP3    H133067   5.583   6.351   0.810 -0.1272  1.1863 -1.0108
 3836TIP3    H233068   5.666   6.444   0.898 -0.2345  0.5439 -0.2168
 3837TIP3   OH233069   4.780   3.738   1.553  0.1262 -0.5465  0.4908
 3837TIP3    H133070   4.830   3.814   1.581  0.4245 -0.8268  0.7128
 3837TIP3    H233071   4.708   3.775   1.500  1.6084 -0.2500 -1.4307
 3838TIP3   OH233072   1.861   2.768   8.233  0.0291  0.0558  0.6053
 3838TIP3    H133073   1.829   2.725   8.154  0.8146  0.2738  0.1521
 3838TIP3    H233074   1.889   2.696   8.290  1.3762 -0.0722 -0.1638
 3839TIP3   OH233075   6.487   4.655   6.715  0.0459  0.2907 -0.0813
 3839TIP3    H133076   6.544   4.716   6.762  2.4900 -0.9375 -1.2678
 3839TIP3    H233077   6.487   4.576   6.769 -0.3211  0.1855 -0.2314
 3840TIP3   OH233078   4.824   2.261   2.410  0.3712 -0.0904  0.0867
 3840TIP3    H133079   4.857   2.171   2.402  2.7074  0.5127  1.9969
 3840TIP3    H233080   4.747   2.253   2.467  0.6427 -0.8850  0.3566
 3841TIP3   OH233081   3.587   4.394   7.826 -0.2765  0.6496 -0.8476
 3841TIP3    H133082   3.556   4.416   7.738 -2.1189 -0.0379 -0.4330
 3841TIP3    H233083   3.571   4.300   7.833 -0.7931  0.8144  0.4379
 3842TIP3   OH233084   2.027   1.048   6.837 -0.7936 -0.0636  0.9816
 3842TIP3    H133085   2.069   0.988   6.775 -1.3976  1.5176 -1.0791
 3842TIP3    H233086   1.981   0.990   6.899 -1.1425 -1.7601 -0.7636
 3843TIP3   OH233087   1.994   4.445   8.138 -0.6933  0.2135  0.6257
 3843TIP3    H133088   2.012   4.355   8.109 -0.3626  0.6370 -0.5356
 3843TIP3    H233089   1.916   4.471   8.089  0.3274  1.2208 -0.5037
 3844TIP3   OH233090   1.620   1.804   7.987  0.1346  0.2328  0.2191
 3844TIP3    H133091   1.537   1.824   8.030  0.3195  2.2070 -0.2516
 3844TIP3    H233092   1.612   1.713   7.960 -2.1844  0.5996 -0.5082
 3845TIP3   OH233093   2.417   5.852   1.734  0.2105  0.2970 -0.3307
 3845TIP3    H133094   2.345   5.855   1.798  1.5152  1.4222  1.1537
 3845TIP3    H233095   2.379   5.808   1.658 -1.1710 -1.9543  1.5136
 3846TIP3   OH233096   3.502   2.122   1.829  0.7293  0.1740 -0.0770
 3846TIP3    H133097   3.510   2.133   1.924  1.4042 -0.0598 -0.1029
 3846TIP3    H233098   3.409   2.131   1.812  0.1764 -2.5473  0.9610
 3847TIP3   OH233099   6.619   2.026   7.043  0.2938  0.1395  0.6625
 3847TIP3    H133100   6.642   2.067   7.126 -1.5625  1.0904  0.7676
 3847TIP3    H233101   6.692   1.967   7.024  0.9459  0.1898  2.7597
 3848TIP3   OH233102   4.636   5.386   1.705  0.1961 -0.0097  0.2041
 3848TIP3    H133103   4.667   5.437   1.780  0.1480 -2.5880  2.1140
 3848TIP3    H233104   4.543   5.372   1.723  0.2674 -0.9482 -0.1238
 3849TIP3   OH233105   5.950   1.185   1.927  0.0445 -0.0565 -0.2682
 3849TIP3    H133106   5.899   1.239   1.866  0.3792  0.4874 -0.0699
 3849TIP3    H233107   5.952   1.098   1.886  0.0099  0.2280 -0.8853
 3850TIP3   OH233108   4.065   0.807   1.305  0.2320  0.1839 -0.3539
 3850TIP3    H133109   4.025   0.787   1.390  1.0426  0.3384  0.0786
 3850TIP3    H233110   4.062   0.724   1.257  0.8530 -0.2352  0.2952
 3851TIP3   OH233111   6.816   3.854   1.000 -0.0000  0.2152 -0.5913
 3851TIP3    H133112   6.863   3.854   1.083  0.3081 -0.0621 -0.7587
 3851TIP3    H233113   6.787   3.764   0.988 -0.5009  0.3704 -0.5316
 3852TIP3   OH233114   1.649   0.194   1.543  0.2034 -0.1020  0.2679
 3852TIP3    H133115   1.718   0.251   1.510  1.0408 -0.5242  1.2559
 3852TIP3    H233116   1.581   0.197   1.475  0.2913  1.9155  0.2120
 3853TIP3   OH233117   0.693   2.484   1.971 -0.0236  0.0824 -0.3331
 3853TIP3    H133118   0.659   2.395   1.959 -0.3703  0.1153  0.3525
 3853TIP3    H233119   0.777   2.483   1.926  0.5722 -0.9761  0.7527
 3854TIP3   OH233120   6.658   1.849   0.045  0.0326 -0.2054  0.1266
 3854TIP3    H133121   6.639   1.919   0.108  0.5712  0.2849 -0.2404
 3854TIP3    H233122   6.751   1.829   0.059  0.3579  0.4264 -1.0018
 3855TIP3   OH233123   2.868   1.953   1.748 -0.1097 -0.0487 -0.0649
 3855TIP3    H133124   2.894   2.042   1.773 -0.0654 -0.1409  0.2229
 3855TIP3    H233125   2.917   1.897   1.807  0.4202 -0.2971 -0.7321
 3856TIP3   OH233126   1.175   1.487   8.088 -0.4432 -1.1086  0.9667
 3856TIP3    H133127   1.250   1.458   8.140 -0.2890 -2.3644  0.0848
 3856TIP3    H233128   1.121   1.409   8.079 -1.6731 -0.3088  1.2597
 3857TIP3   OH233129   0.097   3.292   2.281 -0.2645 -0.0195 -0.2830
 3857TIP3    H133130   0.088   3.197   2.279  0.9589 -0.1452 -0.9502
 3857TIP3    H233131   0.192   3.307   2.283 -0.4432  1.1806  0.5798
 3858TIP3   OH233132   4.357   1.084   7.974  0.1541  0.2125 -0.1758
 3858TIP3    H133133   4.303   1.036   7.911 -2.7129  1.1820  1.3765
 3858TIP3    H233134   4.422   1.019   8.004  0.2280 -0.8713 -2.4676
 3859TIP3   OH233135   3.848   5.032   8.346  0.1524  0.0669 -0.0690
 3859TIP3    H133136   3.841   5.092   8.421 -2.5917 -0.3637  0.1053
 3859TIP3    H233137   3.877   4.950   8.385  0.6840  0.3747  0.2015
 3860TIP3   OH233138   1.545   4.427   7.771 -0.6486 -0.1300  0.6974
 3860TIP3    H133139   1.452   4.405   7.772 -0.9636  1.1081  1.0645
 3860TIP3    H233140   1.554   4.491   7.700  0.3440 -1.8260 -0.7807
 3861TIP3   OH233141   2.077   6.737   8.386 -0.0778 -0.1713 -0.0237
 3861TIP3    H133142   2.129   6.726   8.466 -1.4596 -1.3890  0.7569
 3861TIP3    H233143   2.015   6.664   8.387  0.1530 -0.4909 -2.4661
 3862TIP3   OH233144   4.086   5.543   7.953 -0.3612 -0.0835 -0.0354
 3862TIP3    H133145   4.173   5.518   7.924 -0.0889  0.5174  0.2449
 3862TIP3    H233146   4.066   5.623   7.904 -0.2392  0.4703  0.8028
 3863TIP3   OH233147   2.486   0.952   0.681  0.2474  0.4340 -0.2143
 3863TIP3    H133148   2.581   0.947   0.670  0.2285 -0.8585 -0.0100
 3863TIP3    H233149   2.474   1.001   0.762  0.7958 -0.2173  0.2800
 3864TIP3   OH233150   1.973   6.477   8.304 -0.3563 -0.2994 -0.2081
 3864TIP3    H133151   1.878   6.489   8.306 -0.1830  1.1239  0.0853
 3864TIP3    H233152   1.984   6.388   8.269 -1.7794 -0.3282 -0.6800
 3865TIP3   OH233153   2.546   1.091   7.384 -0.2440 -0.0156  0.0975
 3865TIP3    H133154   2.488   1.121   7.315 -0.2020  0.6943  0.3676
 3865TIP3    H233155   2.516   1.136   7.463  1.1867  1.0548  0.0786
 3866TIP3   OH233156   1.522   5.901   6.582  0.6957  0.2354  0.0686
 3866TIP3    H133157   1.456   5.857   6.528 -1.1852  1.3430  1.3608
 3866TIP3    H233158   1.559   5.969   6.525  2.4523 -1.8308 -1.4018
 3867TIP3   OH233159   1.942   5.487   2.206 -0.5723  0.4360 -0.1144
 3867TIP3    H133160   1.870   5.424   2.210  0.2771 -0.5215  0.9129
 3867TIP3    H233161   1.933   5.539   2.286  1.1605 -1.2430  1.2931
 3868TIP3   OH233162   2.842   4.790   1.545  0.0917 -0.0814 -0.2079
 3868TIP3    H133163   2.839   4.884   1.559 -0.1206  0.0553 -1.1317
 3868TIP3    H233164   2.765   4.771   1.492 -0.1666 -0.8572  0.4321
 3869TIP3   OH233165   4.818   3.226   6.534 -0.1405 -0.2921  0.1987
 3869TIP3    H133166   4.898   3.277   6.523  1.1309 -2.5406 -1.8205
 3869TIP3    H233167   4.751   3.291   6.556  1.5184  2.1340 -1.4015
 3870TIP3   OH233168   6.569   3.424   1.855  0.5677  0.2641 -0.6402
 3870TIP3    H133169   6.477   3.450   1.861  0.2214 -1.1852  0.7459
 3870TIP3    H233170   6.617   3.496   1.897 -0.0478  0.4357 -0.2230
 3871TIP3   OH233171   0.369   5.295   1.143  0.0427  0.0585 -0.0141
 3871TIP3    H133172   0.358   5.286   1.237 -0.2096 -2.1740 -0.1980
 3871TIP3    H233173   0.436   5.362   1.132 -0.2533  0.6750  1.7194
 3872TIP3   OH233174   1.950   5.318   8.170  0.0317 -0.7720  0.1605
 3872TIP3    H133175   1.995   5.389   8.125  0.5509  1.0287  3.2296
 3872TIP3    H233176   2.020   5.261   8.203 -0.2404 -1.0842  0.2119
 3873TIP3   OH233177   1.417   6.330   2.430 -0.3953 -0.5767  0.2015
 3873TIP3    H133178   1.419   6.396   2.360  0.9041  0.2609  0.9813
 3873TIP3    H233179   1.343   6.356   2.485 -0.2719 -0.1279  0.1579
 3874TIP3   OH233180   5.878   5.898   0.356  0.1454  0.0152  0.0875
 3874TIP3    H133181   5.812   5.865   0.416 -2.5138  1.6049 -1.7277
 3874TIP3    H233182   5.884   5.832   0.287  0.1183  0.0589  0.0425
 3875TIP3   OH233183   1.866   6.142   1.222 -0.1178 -0.3232  0.1307
 3875TIP3    H133184   1.908   6.126   1.138 -0.9622 -1.8412 -0.0375
 3875TIP3    H233185   1.880   6.062   1.272 -0.7277  0.0686  0.9683
 3876TIP3   OH233186   1.896   2.421   8.270  0.6841 -0.1237  0.8301
 3876TIP3    H133187   1.895   2.328   8.294  2.0689  0.2620  2.6046
 3876TIP3    H233188   1.819   2.432   8.215  1.1972 -2.5862 -0.5495
 3877TIP3   OH233189   5.794   0.500   8.029  0.2869 -0.3976 -0.2547
 3877TIP3    H133190   5.716   0.474   8.079 -0.0302 -0.3319 -0.7160
 3877TIP3    H233191   5.794   0.443   7.953  0.5008 -0.1607 -0.4334
 3878TIP3   OH233192   6.598   1.580   7.345  0.0843 -0.2871  0.2993
 3878TIP3    H133193   6.515   1.544   7.377 -1.1527  0.0470 -2.3091
 3878TIP3    H233194   6.573   1.661   7.300  1.9065  0.0757 -0.1093
 3879TIP3   OH233195   3.994   1.565   7.297 -0.4599 -0.0607 -0.1059
 3879TIP3    H133196   3.921   1.530   7.348  0.8881 -2.7993  0.1232
 3879TIP3    H233197   4.070   1.514   7.326  1.4535  2.1946 -0.8382
 3880TIP3   OH233198   3.057   4.966   6.273  0.2938 -0.6063  0.1723
 3880TIP3    H133199   3.095   4.983   6.186 -1.9016 -0.7277 -0.8912
 3880TIP3    H233200   2.973   5.012   6.272 -0.4948 -1.9070  1.6322
 3881TIP3   OH233201   0.264   3.693   7.455  0.3574 -0.0053 -0.5169
 3881TIP3    H133202   0.194   3.636   7.422  0.9793 -1.7956  1.0868
 3881TIP3    H233203   0.226   3.736   7.532  0.9178 -0.7997  0.2173
 3882TIP3   OH233204   3.291   0.080   7.557 -0.7375 -0.4824 -0.0948
 3882TIP3    H133205   3.223   0.032   7.510 -1.3226  0.0388  0.2115
 3882TIP3    H233206   3.336   0.131   7.489  0.2468 -1.8387 -0.5154
 3883TIP3   OH233207   6.795   0.986   2.726  0.1953  0.6315  0.0638
 3883TIP3    H133208   6.881   0.945   2.729  0.6692  1.4596 -1.2678
 3883TIP3    H233209   6.812   1.079   2.711 -0.9141  0.5688 -2.0700
 3884TIP3   OH233210   3.635   2.498   1.634  0.0304 -0.4380  0.4480
 3884TIP3    H133211   3.714   2.450   1.658 -0.4430 -1.5935 -0.2583
 3884TIP3    H233212   3.618   2.554   1.710  1.8259  0.2545  0.3824
 3885TIP3   OH233213   0.018   1.173   1.882  0.2459 -0.1747 -0.6317
 3885TIP3    H133214  -0.003   1.250   1.936  0.3877  0.3095 -1.2558
 3885TIP3    H233215  -0.010   1.098   1.935 -0.5225  0.3381 -0.2978
 3886TIP3   OH233216   6.442   2.534   0.453 -0.0314  0.0419  0.0081
 3886TIP3    H133217   6.469   2.620   0.421 -0.2197 -0.1535 -0.6794
 3886TIP3    H233218   6.349   2.528   0.432 -0.3176  0.1696  1.1755
 3887TIP3   OH233219   3.018   5.416   1.083  0.2139 -0.5498 -0.0283
 3887TIP3    H133220   3.097   5.395   1.134 -0.3319  1.8592  1.9706
 3887TIP3    H233221   2.953   5.352   1.113  0.6421 -0.8292  0.3234
 3888TIP3   OH233222   0.465   2.973   0.230  0.8370  0.2634  0.2304
 3888TIP3    H133223   0.420   2.947   0.150  0.4813 -1.2269  0.8785
 3888TIP3    H233224   0.401   3.025   0.278  0.1200 -0.9969  0.6856
 3889TIP3   OH233225   2.059   4.953   0.919  0.6277 -0.6588 -0.3628
 3889TIP3    H133226   2.103   5.037   0.914  1.2057 -1.0211 -2.3148
 3889TIP3    H233227   1.968   4.972   0.896 -0.4981  0.1282  3.8985
 3890TIP3   OH233228   0.659   6.467   0.563 -0.6993  0.1571 -0.3451
 3890TIP3    H133229   0.583   6.434   0.514 -2.8081  0.8828  2.2114
 3890TIP3    H233230   0.667   6.408   0.637 -1.5492  2.4573  1.7255
 3891TIP3   OH233231   4.184   6.225   8.084  0.6553  0.1844  0.2509
 3891TIP3    H133232   4.246   6.234   8.012 -0.2878 -1.2616 -0.8014
 3891TIP3    H233233   4.098   6.234   8.042  0.0892 -0.5809  1.2142
 3892TIP3   OH233234   0.800   4.482   1.256 -0.2156  0.2256  0.7465
 3892TIP3    H133235   0.770   4.493   1.346  0.5962 -2.4863  1.4212
 3892TIP3    H233236   0.726   4.512   1.202 -1.2800  0.5097  2.2995
 3893TIP3   OH233237   6.686   5.803   0.190  0.4634  0.4544 -0.0369
 3893TIP3    H133238   6.694   5.862   0.265 -2.0861  0.2509  0.4749
 3893TIP3    H233239   6.619   5.843   0.135  0.0042 -1.0284 -0.6018
 3894TIP3   OH233240   3.647   6.162   7.393 -0.3547  0.2455  0.3782
 3894TIP3    H133241   3.703   6.236   7.368 -1.5015  0.4898 -1.6860
 3894TIP3    H233242   3.703   6.085   7.382  0.5510  0.6940  1.5955
 3895TIP3   OH233243   3.879   0.829   7.263  0.3263 -0.0184 -0.7273
 3895TIP3    H133244   3.931   0.783   7.329  0.9098 -0.3193 -1.3824
 3895TIP3    H233245   3.821   0.886   7.313  1.2706  0.2994  0.0207
 3896TIP3   OH233246   2.349   5.993   7.566 -0.3335  0.0800  0.4166
 3896TIP3    H133247   2.296   5.984   7.645  0.0739  0.0972  0.6947
 3896TIP3    H233248   2.439   6.001   7.598 -0.1971  0.4026 -0.0332
 3897TIP3   OH233249   1.683   5.897   6.829  0.3121  0.6199 -0.3028
 3897TIP3    H133250   1.745   5.828   6.803 -1.0070 -0.1301 -1.5898
 3897TIP3    H233251   1.599   5.869   6.792 -0.7781  1.7206  1.1914
 3898TIP3   OH233252   3.054   5.216   6.763  0.0236 -0.0640  0.4419
 3898TIP3    H133253   3.120   5.238   6.829  1.0821 -1.3356 -0.1361
 3898TIP3    H233254   3.024   5.128   6.788  1.6704 -1.3164 -1.6023
 3899TIP3   OH233255   4.266   6.266   2.180 -0.4330  0.0491  0.3541
 3899TIP3    H133256   4.222   6.349   2.161  1.7033  0.9930 -0.9563
 3899TIP3    H233257   4.196   6.201   2.179 -1.9975  1.6459  0.0477
 3900TIP3   OH233258   4.640   0.574   2.284  0.2207  0.4091  0.4545
 3900TIP3    H133259   4.608   0.572   2.374 -1.5308  0.3099 -0.1278
 3900TIP3    H233260   4.603   0.655   2.248 -1.4545 -0.9046 -0.9421
 3901TIP3   OH233261   6.811   4.203   0.673  0.1880  0.3531 -0.4565
 3901TIP3    H133262   6.850   4.138   0.732 -0.4349 -0.9570 -1.4445
 3901TIP3    H233263   6.740   4.157   0.629  1.0091  1.0767 -2.7013
 3902TIP3   OH233264   3.429   4.913   0.401  0.0454 -0.2277  0.2903
 3902TIP3    H133265   3.448   4.913   0.307  3.3997  0.2476  0.8664
 3902TIP3    H233266   3.418   5.005   0.423 -1.6428 -0.3952  0.2613
 3903TIP3   OH233267   5.361   2.484   2.758 -0.3564 -0.0728  0.1386
 3903TIP3    H133268   5.402   2.558   2.712  0.3361 -0.0907  0.7173
 3903TIP3    H233269   5.269   2.510   2.768  0.0513  1.0990  1.0913
 3904TIP3   OH233270   6.551   5.279   7.427  0.4851  0.1476 -0.1635
 3904TIP3    H133271   6.488   5.350   7.416  2.1360  1.8167  0.5300
 3904TIP3    H233272   6.636   5.319   7.408  1.7209 -1.0428  2.3027
 3905TIP3   OH233273   6.809   4.509   7.571  0.1976 -0.3374 -0.2044
 3905TIP3    H133274   6.880   4.537   7.513  0.6106  0.5805  0.6945
 3905TIP3    H233275   6.763   4.590   7.593 -1.1318 -0.9125 -0.7368
 3906TIP3   OH233276   1.017   3.866   7.061 -0.2059 -0.1468  0.2557
 3906TIP3    H133277   0.973   3.902   6.984  1.6439 -0.3736 -0.9676
 3906TIP3    H233278   1.028   3.941   7.120 -0.5159  0.2941 -0.2347
 3907TIP3   OH233279   0.359   5.024   6.511  0.0642  0.2112 -0.7479
 3907TIP3    H133280   0.308   4.996   6.435 -0.4394 -0.4441 -0.1730
 3907TIP3    H233281   0.336   4.963   6.580 -0.7372  1.7610  0.4280
 3908TIP3   OH233282   4.052   0.550   1.228 -0.2121 -0.3044  0.0525
 3908TIP3    H133283   4.036   0.523   1.137  1.2229 -1.0171 -0.0110
 3908TIP3    H233284   4.093   0.474   1.269  0.3112  0.4396  0.9536
 3909TIP3   OH233285   1.183   5.098   7.907 -0.5479  0.3538 -0.0683
 3909TIP3    H133286   1.202   5.005   7.922 -2.0072  0.2121  1.1096
 3909TIP3    H233287   1.268   5.142   7.918 -0.0604 -0.7064  0.5608
 3910TIP3   OH233288   5.334   0.865   0.565  0.2586 -0.1933  0.5314
 3910TIP3    H133289   5.356   0.791   0.508  0.0040 -0.5161  0.8520
 3910TIP3    H233290   5.410   0.874   0.623 -0.3413 -1.1751  1.4982
 3911TIP3   OH233291   2.987   1.353   2.187 -0.2996 -0.4653 -0.2878
 3911TIP3    H133292   3.060   1.333   2.246 -0.3253  0.8741  0.2363
 3911TIP3    H233293   2.918   1.387   2.244 -0.6629 -0.0002 -0.9899
 3912TIP3   OH233294   5.517   3.565   8.233  0.4724  0.2008  0.1255
 3912TIP3    H133295   5.580   3.602   8.294 -0.8919  0.4444  1.4236
 3912TIP3    H233296   5.456   3.516   8.288 -0.2089 -0.4402 -1.1531
 3913TIP3   OH233297   6.686   6.772   1.818 -0.6093 -0.4768 -0.4445
 3913TIP3    H133298   6.735   6.854   1.819  0.0447 -0.8581 -0.1527
 3913TIP3    H233299   6.718   6.727   1.739 -0.7410 -0.5796 -0.4383
 3914TIP3   OH233300   0.421   6.672   1.316  0.0188  0.3180  0.3321
 3914TIP3    H133301   0.481   6.599   1.303  0.1170  0.7462 -2.0156
 3914TIP3    H233302   0.468   6.748   1.281 -1.0967  1.0196  0.3271
 3915TIP3   OH233303   3.551   0.483   7.605 -0.1420 -0.2706 -0.3619
 3915TIP3    H133304   3.475   0.505   7.551 -0.7260 -0.9473  0.1620
 3915TIP3    H233305   3.550   0.546   7.676 -1.3208 -1.3945  0.6726
 3916TIP3   OH233306   6.315   4.033   7.960  0.1565 -0.1257 -0.0710
 3916TIP3    H133307   6.298   4.088   7.884  1.1196  1.2959  0.6876
 3916TIP3    H233308   6.244   3.969   7.960 -1.0188  1.1161 -0.9954
 3917TIP3   OH233309   4.061   3.060   0.556 -0.1479 -0.3656  0.1271
 3917TIP3    H133310   3.990   3.122   0.573 -0.3097 -0.0417 -1.5428
 3917TIP3    H233311   4.024   2.975   0.577 -0.7138 -0.1101  0.1872
 3918TIP3   OH233312   3.303   0.959   6.660 -0.3681 -0.0449  0.4572
 3918TIP3    H133313   3.276   1.015   6.733 -0.8192 -0.5594  0.6975
 3918TIP3    H233314   3.273   0.872   6.685 -0.8884 -0.1615 -0.5369
 3919TIP3   OH233315   4.258   6.641   7.124 -0.0839  0.0383 -0.3009
 3919TIP3    H133316   4.207   6.591   7.188  0.1133 -1.0344 -0.9538
 3919TIP3    H233317   4.319   6.692   7.177 -1.5055  1.0245  0.4741
 3920TIP3   OH233318   5.115   3.518   7.782 -0.0021 -0.0953 -0.5713
 3920TIP3    H133319   5.078   3.458   7.719  0.0556 -0.3164 -0.3962
 3920TIP3    H233320   5.086   3.486   7.867  1.8952 -1.2421 -0.2920
 3921TIP3   OH233321   1.437   5.287   8.340  0.3955 -0.0444  0.2782
 3921TIP3    H133322   1.390   5.211   8.304  1.7262 -0.0627 -1.5768
 3921TIP3    H233323   1.529   5.270   8.320  0.7419  2.0228 -0.1393
 3922TIP3   OH233324   4.957   2.104   7.837  0.3776  0.1319 -0.1465
 3922TIP3    H133325   4.927   2.089   7.927  1.3222 -1.1174  0.0047
 3922TIP3    H233326   4.915   2.034   7.786  1.1041 -0.1688 -0.3543
 3923TIP3   OH233327   0.943   1.951   8.646  0.3664 -0.1441 -0.3869
 3923TIP3    H133328   1.015   1.990   8.695  1.6443 -1.7218 -0.9126
 3923TIP3    H233329   0.976   1.866   8.618 -1.4317 -0.5906 -1.3415
 3924TIP3   OH233330   2.935   6.703   6.339  0.8309  0.0441 -0.4306
 3924TIP3    H133331   2.862   6.765   6.330  0.6854  0.1864  1.4265
 3924TIP3    H233332   2.942   6.662   6.253 -1.5326 -0.0642 -0.6373
 3925TIP3   OH233333   0.561   2.706   1.674  0.2180  0.5702  0.7532
 3925TIP3    H133334   0.643   2.753   1.682 -0.5667  2.4289 -1.2069
 3925TIP3    H233335   0.494   2.769   1.699 -0.7534 -0.1693  0.1028
 3926TIP3   OH233336   1.320   5.093   8.195  0.3261 -0.4066  0.1692
 3926TIP3    H133337   1.234   5.056   8.216  0.1100 -0.1402 -0.2417
 3926TIP3    H233338   1.377   5.016   8.184 -0.1543 -0.6283 -0.8283
 3927TIP3   OH233339   3.678   1.701   2.142 -0.1704  0.0606 -0.0539
 3927TIP3    H133340   3.725   1.780   2.117 -0.4741  1.3178  2.9529
 3927TIP3    H233341   3.590   1.731   2.166 -0.1547 -1.0708  1.5923
 3928TIP3   OH233342   1.368   4.773   6.949  0.1423 -0.6862  0.0604
 3928TIP3    H133343   1.276   4.772   6.925 -0.3190  0.6934  1.5891
 3928TIP3    H233344   1.411   4.818   6.876 -0.4392 -1.0125 -0.4916
 3929TIP3   OH233345   1.626   1.218   6.796  0.1848 -0.0613 -0.1838
 3929TIP3    H133346   1.646   1.125   6.806 -0.3723 -0.0775  0.9465
 3929TIP3    H233347   1.710   1.258   6.774  0.1556 -1.0194 -2.2693
 3930TIP3   OH233348   6.579   6.817   7.873  0.3208  0.2478  0.2951
 3930TIP3    H133349   6.545   6.754   7.936 -0.2198  1.2010  0.9909
 3930TIP3    H233350   6.596   6.896   7.925 -0.7126  1.2659 -0.8395
 3931TIP3   OH233351   0.232   0.273   0.254  0.2620 -0.2489  0.3935
 3931TIP3    H133352   0.185   0.353   0.275 -1.9421 -1.5678  0.6954
 3931TIP3    H233353   0.246   0.278   0.159  0.0862  0.4274  0.3979
 3932TIP3   OH233354   6.419   6.576   0.244 -0.8804  0.0763  0.5618
 3932TIP3    H133355   6.341   6.623   0.276 -0.4043  1.1281  0.2329
 3932TIP3    H233356   6.419   6.594   0.150 -1.1888 -1.3698  0.2631
 3933TIP3   OH233357   2.210   2.189   0.500 -0.0449 -0.1714  0.1907
 3933TIP3    H133358   2.257   2.140   0.432 -0.4949  1.2661 -1.2454
 3933TIP3    H233359   2.151   2.126   0.540  1.3878 -1.4414  0.3778
 3934TIP3   OH233360   4.807   1.279   7.173  0.2412 -0.1542  0.3782
 3934TIP3    H133361   4.768   1.197   7.201 -0.5960  0.6645  1.6871
 3934TIP3    H233362   4.892   1.254   7.135 -0.1816 -1.6381  0.3755
 3935TIP3   OH233363   5.052   5.852   7.701  0.4668 -0.6167  0.1901
 3935TIP3    H133364   5.116   5.856   7.629 -0.8652  1.5052 -0.9823
 3935TIP3    H233365   5.105   5.859   7.780  1.7650  0.6038 -0.7266
 3936TIP3   OH233366   4.178   5.859   2.180 -0.2610  0.3690  0.4182
 3936TIP3    H133367   4.203   5.814   2.099 -2.7098 -1.8865  0.7774
 3936TIP3    H233368   4.259   5.861   2.231  0.7496 -0.4970 -1.0404
 3937TIP3   OH233369   5.670   4.487   0.416 -0.4035 -0.0270  0.3259
 3937TIP3    H133370   5.688   4.426   0.345  1.2241 -1.4683  1.8876
 3937TIP3    H233371   5.694   4.440   0.496 -1.5666  1.7364  1.8242
 3938TIP3   OH233372   4.260   1.660   1.528 -0.3734 -0.0900  0.9756
 3938TIP3    H133373   4.286   1.578   1.570 -0.8627 -0.4522  0.5804
 3938TIP3    H233374   4.193   1.634   1.464  0.4114  0.4244 -0.1000
 3939TIP3   OH233375   5.576   2.510   6.852 -0.0635 -0.1730  0.5312
 3939TIP3    H133376   5.643   2.493   6.787 -1.6052 -1.5377 -0.7650
 3939TIP3    H233377   5.565   2.605   6.851 -0.8238 -0.2291 -2.0612
 3940TIP3   OH233378   0.255   4.352   0.947 -0.5906 -0.1932 -0.3522
 3940TIP3    H133379   0.255   4.316   0.859  1.1452  2.7024 -1.6871
 3940TIP3    H233380   0.345   4.340   0.978 -0.3403  1.5300 -0.2945
 3941TIP3   OH233381   0.217   0.041   7.042 -0.2557 -0.3949  0.2815
 3941TIP3    H133382   0.198   0.044   6.948  0.9802 -2.0206 -0.0734
 3941TIP3    H233383   0.217  -0.053   7.063  0.6841 -0.1137  1.6431
 3942TIP3   OH233384   4.232   2.588   8.565 -0.4199 -0.2257  0.9680
 3942TIP3    H133385   4.281   2.621   8.640 -0.4805  0.7368  0.5998
 3942TIP3    H233386   4.144   2.626   8.576 -0.3485  0.1434  0.2683
 3943TIP3   OH233387   3.060   2.135   1.980 -1.0120 -0.1295  0.0782
 3943TIP3    H133388   3.066   2.071   2.052 -2.8768  1.0815  1.3821
 3943TIP3    H233389   3.066   2.220   2.023 -0.4521  0.6191 -1.4282
 3944TIP3   OH233390   0.629   6.172   6.741  0.2371  0.6718 -0.6536
 3944TIP3    H133391   0.557   6.224   6.704  0.5535  0.7643 -1.1499
 3944TIP3    H233392   0.701   6.235   6.752  0.6893  0.3111 -1.4485
 3945TIP3   OH233393   1.144   6.566   8.349 -0.6668  0.2753 -0.2774
 3945TIP3    H133394   1.134   6.643   8.292 -1.4674  2.0530  2.1093
 3945TIP3    H233395   1.134   6.491   8.290 -2.3034  1.9899 -2.3442
 3946TIP3   OH233396   5.423   6.595   1.251 -0.1417  0.0543 -0.3839
 3946TIP3    H133397   5.450   6.581   1.341 -0.0110  0.5615 -0.3412
 3946TIP3    H233398   5.337   6.636   1.257  0.2245  0.8424 -0.4711
 3947TIP3   OH233399   5.453   4.767   7.006 -0.4674 -0.4857  0.7504
 3947TIP3    H133400   5.469   4.847   6.955 -0.1724 -1.2791 -0.4371
 3947TIP3    H233401   5.399   4.713   6.949  0.0012 -1.4692  1.2214
 3948TIP3   OH233402   4.179   6.706   8.218 -0.1629 -0.0714 -0.1793
 3948TIP3    H133403   4.195   6.737   8.308 -1.3515  0.5367 -0.1687
 3948TIP3    H233404   4.168   6.611   8.228  1.7569 -0.3287  0.0120
 3949TIP3   OH233405   1.205   4.359   6.912 -0.5293 -0.0968 -0.0978
 3949TIP3    H133406   1.175   4.409   6.988  1.5671  2.7972 -0.9772
 3949TIP3    H233407   1.142   4.382   6.843  0.6077  1.8590 -0.5923
 3950TIP3   OH233408   4.029   6.858   1.653 -0.3918 -0.3928  0.1677
 3950TIP3    H133409   3.960   6.901   1.704  1.6704  0.3709  2.5310
 3950TIP3    H233410   3.999   6.768   1.643 -1.8196 -0.0463  0.9715
 3951TIP3   OH233411   6.418   3.179   7.585  0.0951 -0.3323 -0.2617
 3951TIP3    H133412   6.378   3.221   7.661 -1.0415  0.1936 -1.1000
 3951TIP3    H233413   6.388   3.232   7.511  1.6142 -0.4988 -1.0356
 3952TIP3   OH233414   3.333   4.824   6.343 -0.1596 -0.1396  0.3216
 3952TIP3    H133415   3.257   4.796   6.292  0.1024  1.7465 -1.2002
 3952TIP3    H233416   3.402   4.762   6.319 -0.8992 -1.2178  0.8965
 3953TIP3   OH233417   2.652   1.850   0.366  0.6885  0.3089  0.7545
 3953TIP3    H133418   2.576   1.810   0.325  0.5744  1.9847 -0.7750
 3953TIP3    H233419   2.727   1.814   0.318  0.7616 -0.0605  1.1396
 3954TIP3   OH233420   0.695   1.528   1.389 -0.0915  0.1296 -0.6458
 3954TIP3    H133421   0.658   1.563   1.470  0.0785 -0.2876 -0.3814
 3954TIP3    H233422   0.625   1.474   1.352  0.6397 -1.7779  0.5517
 3955TIP3   OH233423   1.525   0.088   6.328  0.8260  0.3818 -0.4058
 3955TIP3    H133424   1.501  -0.004   6.316  1.6315  0.3828 -2.2019
 3955TIP3    H233425   1.460   0.121   6.390  0.3260 -1.3024  0.0287
 3956TIP3   OH233426   4.792   2.608   0.080  0.0880  0.1139 -0.1428
 3956TIP3    H133427   4.714   2.572   0.123  1.2573 -1.6031  0.6878
 3956TIP3    H233428   4.780   2.703   0.084 -3.3277  0.0232 -2.7110
 3957TIP3   OH233429   3.175   3.687   1.222  0.0947 -0.3003 -0.1391
 3957TIP3    H133430   3.112   3.695   1.150 -1.4510 -2.1087  0.9036
 3957TIP3    H233431   3.261   3.696   1.181 -0.7768 -0.0583 -1.9961
 3958TIP3   OH233432   0.274   1.126   1.852  1.0461  0.1143 -0.6354
 3958TIP3    H133433   0.180   1.146   1.855  1.3480  1.7083 -0.8670
 3958TIP3    H233434   0.278   1.033   1.832 -0.4986 -0.3054  0.7285
 3959TIP3   OH233435   6.097   6.554   1.459  0.0155 -0.2639 -0.0465
 3959TIP3    H133436   6.142   6.605   1.527  0.4053 -0.6872  0.0158
 3959TIP3    H233437   6.167   6.517   1.406 -0.2691  2.3845 -2.4840
 3960TIP3   OH233438   2.669   0.266   7.647  0.2162  0.0717  0.0994
 3960TIP3    H133439   2.593   0.230   7.600  0.4718  0.8020 -0.9188
 3960TIP3    H233440   2.725   0.300   7.577  0.8727  0.7048  0.9259
 3961TIP3   OH233441   3.139   6.440   2.045 -0.3063 -0.7119 -0.1004
 3961TIP3    H133442   3.152   6.463   2.137 -0.4455  1.4920 -0.5721
 3961TIP3    H233443   3.222   6.461   2.003 -0.8450  0.1798 -0.7708
 3962TIP3   OH233444   1.494   4.963   1.242  0.1663 -0.3119 -0.6896
 3962TIP3    H133445   1.565   4.899   1.235 -1.2810 -1.8324 -2.7364
 3962TIP3    H233446   1.455   4.946   1.328  1.8863  0.1816  0.2302
 3963TIP3   OH233447   5.141   0.685   1.546  0.0490  0.3759 -0.2545
 3963TIP3    H133448   5.139   0.740   1.625 -1.5311 -0.9963  0.7382
 3963TIP3    H233449   5.083   0.728   1.485  1.5023  1.6029 -0.8245
 3964TIP3   OH233450   0.461   1.452   8.330 -0.2623 -0.1688 -0.2157
 3964TIP3    H133451   0.378   1.498   8.340 -0.7213 -1.1468  0.6324
 3964TIP3    H233452   0.443   1.381   8.269  0.1115 -0.0117 -0.5145
 3965TIP3   OH233453   5.402   6.337   1.572 -0.0039 -0.1745  0.5045
 3965TIP3    H133454   5.335   6.270   1.562  0.6652 -0.7191 -0.5387
 3965TIP3    H233455   5.356   6.420   1.561 -0.9338 -0.4009  2.3082
 3966TIP3   OH233456   1.552   3.406   2.022  0.0025  0.5094 -0.7035
 3966TIP3    H133457   1.539   3.312   2.010 -1.4942  0.5893  0.0779
 3966TIP3    H233458   1.583   3.414   2.112 -1.4505  0.8511 -0.2005
 3967TIP3   OH233459   1.571   4.463   0.819  0.2938  0.3226  0.2044
 3967TIP3    H133460   1.497   4.418   0.861  1.0423  0.3405  1.6030
 3967TIP3    H233461   1.547   4.556   0.823  0.1376  0.2850  0.1469
 3968TIP3   OH233462   3.095   3.113   0.225  0.2780 -0.1709  0.0436
 3968TIP3    H133463   3.166   3.067   0.182  2.1949  1.4850  1.2675
 3968TIP3    H233464   3.048   3.046   0.274  0.8341 -1.3168 -0.9455
 3969TIP3   OH233465   1.884   1.319   0.781 -0.0090  0.0511  0.7995
 3969TIP3    H133466   1.844   1.247   0.732  0.5702 -0.5164  1.1538
 3969TIP3    H233467   1.937   1.277   0.847  1.8904  0.7729 -0.1894
 3970TIP3   OH233468   1.704   5.290   8.328 -0.2805 -0.0115  0.4284
 3970TIP3    H133469   1.730   5.220   8.388  0.6941  0.3527  0.4449
 3970TIP3    H233470   1.774   5.294   8.263 -0.2494  1.0401  0.5108
 3971TIP3   OH233471   2.455   0.224   1.123 -0.0482 -0.5159  0.2894
 3971TIP3    H133472   2.472   0.135   1.155 -0.4542 -1.2036 -1.3396
 3971TIP3    H233473   2.531   0.244   1.068 -0.6082 -0.4085 -0.4540
 3972TIP3   OH233474   5.777   4.761   6.303 -0.0790 -0.3381  0.3546
 3972TIP3    H133475   5.836   4.730   6.372 -2.7730 -0.0380  3.0307
 3972TIP3    H233476   5.775   4.856   6.314 -0.9735 -0.3404  0.2866
 3973TIP3   OH233477   0.538   1.454   6.639  0.2488 -0.7059  0.0619
 3973TIP3    H133478   0.496   1.413   6.563  1.6815 -0.4765 -0.8954
 3973TIP3    H233479   0.551   1.545   6.613  0.3855 -0.5232  0.7474
 3974TIP3   OH233480   3.734   0.208   8.344 -0.3350 -0.2781  0.3427
 3974TIP3    H133481   3.759   0.151   8.417  2.1217 -0.3830 -0.4922
 3974TIP3    H233482   3.663   0.162   8.300 -1.5081 -0.4679  2.3168
 3975TIP3   OH233483   2.245   4.668   0.621  0.3781  0.3069 -0.5471
 3975TIP3    H133484   2.153   4.673   0.648  0.5083  1.2102 -0.2226
 3975TIP3    H233485   2.270   4.578   0.639  0.1274  0.5591  1.3055
 3976TIP3   OH233486   0.146   5.307   7.849 -0.3652  0.3533  0.4622
 3976TIP3    H133487   0.191   5.317   7.933 -0.9896  0.6294  0.7776
 3976TIP3    H233488   0.124   5.397   7.824  1.0614  0.4105 -0.7124
 3977TIP3   OH233489   6.383   5.932   0.802 -0.2217 -0.4531 -0.6045
 3977TIP3    H133490   6.363   6.000   0.866 -0.7615  0.4471 -1.6819
 3977TIP3    H233491   6.358   5.850   0.844 -1.8286  0.2311 -0.1523
 3978TIP3   OH233492   2.749   2.293   7.575  0.1290 -0.3091  0.0213
 3978TIP3    H133493   2.682   2.235   7.539 -0.0398 -0.1146  0.0214
 3978TIP3    H233494   2.729   2.379   7.537  1.8873 -0.7201 -2.0458
 3979TIP3   OH233495   4.747   4.903   0.471 -0.0718  0.3546  0.5758
 3979TIP3    H133496   4.815   4.887   0.536  0.0208 -1.0006  0.1560
 3979TIP3    H233497   4.744   4.999   0.463  1.5089  0.4511  0.8728
 3980TIP3   OH233498   2.832   1.142   7.578  0.3047  0.4235  0.0412
 3980TIP3    H133499   2.876   1.058   7.594 -2.4126 -0.9319  0.9915
 3980TIP3    H233500   2.826   1.148   7.482 -1.2205 -1.4982 -0.0300
 3981TIP3   OH233501   3.687   2.831   1.071 -0.3578 -0.0752  0.8219
 3981TIP3    H133502   3.754   2.832   1.139 -0.2688  0.0051  0.7344
 3981TIP3    H233503   3.604   2.828   1.118 -0.3094  0.3909  0.9404
 3982TIP3   OH233504   5.772   4.179   7.988 -0.4433 -0.5417  0.0793
 3982TIP3    H133505   5.680   4.154   7.982 -0.4957 -0.0067 -1.8225
 3982TIP3    H233506   5.819   4.113   7.936 -0.0263  0.4308 -0.8237
 3983TIP3   OH233507   2.671   1.446   8.368 -0.2904  0.7552 -0.3108
 3983TIP3    H133508   2.622   1.519   8.330  1.4894  1.5111 -1.3110
 3983TIP3    H233509   2.660   1.374   8.305 -0.4705  0.7846 -0.3121
 3984TIP3   OH233510   4.510   6.060   8.376  0.0346  0.2184  0.5899
 3984TIP3    H133511   4.430   6.011   8.395 -1.0299  1.6585 -0.0429
 3984TIP3    H233512   4.483   6.128   8.315  1.8706  0.3811 -0.1076
 3985TIP3   OH233513   4.229   0.565   2.306 -0.7859 -0.3674  0.0033
 3985TIP3    H133514   4.193   0.524   2.228  1.2888  0.3390 -1.4309
 3985TIP3    H233515   4.236   0.658   2.283  0.1081 -0.1868  0.9061
 3986TIP3   OH233516   1.658   5.448   1.906  0.2790  0.3826  0.4728
 3986TIP3    H133517   1.571   5.408   1.904 -0.1490  1.2086 -2.4834
 3986TIP3    H233518   1.641   5.542   1.910  1.0032  0.5511 -0.1351
 3987TIP3   OH233519   1.420   0.743   6.299 -0.0657  0.2691  0.4159
 3987TIP3    H133520   1.449   0.803   6.231 -1.0676 -0.1886 -0.4244
 3987TIP3    H233521   1.392   0.799   6.371  1.3926  0.7493  0.6469
 3988TIP3   OH233522   6.203   5.677   7.336  1.0564  0.1813  0.2249
 3988TIP3    H133523   6.219   5.771   7.341 -0.0759  0.8304 -4.3878
 3988TIP3    H233524   6.110   5.669   7.316  1.1281 -1.9708  0.4538
 3989TIP3   OH233525   2.905   4.985   6.838 -0.3736 -0.3081  0.1411
 3989TIP3    H133526   2.973   4.964   6.774  0.4622 -0.7521  1.1563
 3989TIP3    H233527   2.845   4.911   6.835 -0.3803 -0.2913 -0.1803
 3990TIP3   OH233528   0.896   4.118   1.728  0.0244 -0.1391 -0.0759
 3990TIP3    H133529   0.907   4.109   1.634 -1.3162  0.0237 -0.2584
 3990TIP3    H233530   0.825   4.181   1.739 -1.8080 -2.2244  0.9654
 3991TIP3   OH233531   4.492   6.104   0.642 -0.0947 -0.3763  0.1888
 3991TIP3    H133532   4.433   6.062   0.704  1.7858 -2.6995  0.5869
 3991TIP3    H233533   4.482   6.054   0.561  0.4811 -0.0827 -0.0739
 3992TIP3   OH233534   0.050   5.562   1.784 -0.5317 -0.6363 -0.1696
 3992TIP3    H133535   0.052   5.657   1.794  0.4018 -0.6240 -0.3771
 3992TIP3    H233536   0.020   5.548   1.694 -2.5148 -0.5993  0.4418
 3993TIP3   OH233537   6.571   4.879   8.133 -0.1345  0.1875  0.5322
 3993TIP3    H133538   6.481   4.872   8.163  0.6996 -0.7028  3.1227
 3993TIP3    H233539   6.610   4.946   8.190  1.5436 -1.5329  1.5079
 3994TIP3   OH233540   3.239   3.106   8.208  0.1379  0.3596  0.3884
 3994TIP3    H133541   3.207   3.018   8.226 -0.1225  0.5055  0.6563
 3994TIP3    H233542   3.308   3.094   8.142  0.7462 -0.1459  1.0944
 3995TIP3   OH233543   3.322   0.012   6.767 -0.2717 -0.0953  0.1757
 3995TIP3    H133544   3.348   0.104   6.769 -1.9991  0.4740 -1.1735
 3995TIP3    H233545   3.391  -0.034   6.816 -0.5696  2.1748  2.9684
 3996TIP3   OH233546   0.235   3.757   8.506 -0.3919 -0.4170  0.1962
 3996TIP3    H133547   0.276   3.844   8.510  0.0363 -0.3935 -2.6517
 3996TIP3    H233548   0.267   3.712   8.584  0.9083  1.3346  0.7490
 3997TIP3   OH233549   2.250   3.489   8.145  0.0333  0.0880  0.0494
 3997TIP3    H133550   2.325   3.455   8.193  1.0723  0.5198 -1.1897
 3997TIP3    H233551   2.282   3.570   8.104 -1.3443  0.7002  0.1240
 3998TIP3   OH233552   4.063   0.884   1.716 -0.0428 -0.1644  0.1848
 3998TIP3    H133553   4.069   0.957   1.655 -1.0775  0.1008  0.3772
 3998TIP3    H233554   3.996   0.826   1.679  0.0727 -0.5272  0.5236
 3999TIP3   OH233555   1.055   2.127   0.829  0.3296 -0.0631  0.1570
 3999TIP3    H133556   1.064   2.047   0.777 -2.0172 -0.9847  1.0337
 3999TIP3    H233557   1.031   2.194   0.765 -0.4243 -0.6955 -0.2424
 4000TIP3   OH233558   6.384   2.584   1.210  0.1965  0.0049  0.7092
 4000TIP3    H133559   6.438   2.616   1.138  1.9293  2.0493  2.7605
 4000TIP3    H233560   6.437   2.515   1.251 -0.6450 -0.9290  0.2810
 4001TIP3   OH233561   3.293   4.877   0.668 -0.2127 -0.1245  0.4002
 4001TIP3    H133562   3.253   4.904   0.585 -0.9022 -0.0485  0.7503
 4001TIP3    H233563   3.224   4.829   0.713  0.4705 -1.0396  0.5079
 4002TIP3   OH233564   3.040   0.493   7.985  0.3970  0.4406 -0.5138
 4002TIP3    H133565   3.045   0.399   8.005 -0.6550  0.6709  1.0029
 4002TIP3    H233566   2.980   0.498   7.910 -2.0270  0.0484  1.2714
 4003TIP3   OH233567   1.396   5.325   0.623  0.1795 -0.6872 -0.0379
 4003TIP3    H133568   1.369   5.374   0.545  0.8011 -1.6447 -0.8871
 4003TIP3    H233569   1.488   5.302   0.605  0.8045  0.3268  1.6425
 4004TIP3   OH233570   2.587   1.295   6.027 -0.2098  0.0294  0.5134
 4004TIP3    H133571   2.631   1.210   6.031  0.1603  0.1221 -1.0547
 4004TIP3    H233572   2.520   1.291   6.095  0.5628 -1.0733  1.2340
 4005TIP3   OH233573   4.939   4.105   7.618  0.2099  0.3531  0.1353
 4005TIP3    H133574   5.018   4.151   7.590  0.3685 -0.8213 -1.4783
 4005TIP3    H233575   4.956   4.080   7.709  1.5181  0.4891 -0.0579
 4006TIP3   OH233576   2.201   4.921   8.421  0.2884 -0.2678  0.5040
 4006TIP3    H133577   2.134   4.855   8.405 -0.5836  0.6685  0.1861
 4006TIP3    H233578   2.265   4.877   8.478  0.6828 -1.9690 -1.1232
 4007TIP3   OH233579   1.359   1.822   7.433 -0.0560  0.0307 -0.1876
 4007TIP3    H133580   1.421   1.824   7.360  0.0914 -1.8886 -0.1509
 4007TIP3    H233581   1.273   1.822   7.390 -0.0490  1.6034 -0.2608
 4008TIP3   OH233582   5.394   1.128   7.875  0.2630 -0.3289 -0.6344
 4008TIP3    H133583   5.366   1.216   7.899 -1.2034 -1.1722  0.9698
 4008TIP3    H233584   5.431   1.092   7.956  1.6229 -0.9391 -1.4784
 4009TIP3   OH233585   6.084   0.510   1.491  0.3568 -0.5719 -0.3152
 4009TIP3    H133586   6.071   0.585   1.550 -1.6047 -2.0274  1.2324
 4009TIP3    H233587   5.996   0.490   1.459  0.9269 -1.8799 -1.1323
 4010TIP3   OH233588   5.017   2.873   8.043  0.3816  0.6288 -0.2222
 4010TIP3    H133589   4.968   2.871   8.126  0.1738 -2.7693 -0.2881
 4010TIP3    H233590   4.967   2.817   7.984  2.5567 -0.2004 -1.3901
 4011TIP3   OH233591   6.041   2.905   2.330  0.2459  0.7197  0.3881
 4011TIP3    H133592   6.087   2.870   2.406 -1.7549 -0.6486  1.0431
 4011TIP3    H233593   6.003   2.987   2.361  0.8276  1.0153  0.3359
 4012TIP3   OH233594   5.665   6.620   1.687 -0.1594  0.2664  0.1756
 4012TIP3    H133595   5.584   6.643   1.641 -0.3899 -1.1478 -0.1681
 4012TIP3    H233596   5.734   6.629   1.621  0.1486  2.3289  0.6869
 4013TIP3   OH233597   2.954   5.180   8.331  0.1584 -0.3693 -0.1547
 4013TIP3    H133598   2.926   5.272   8.329  1.5697  0.1109  0.3834
 4013TIP3    H233599   2.890   5.137   8.387  0.4094  0.6730  1.0087
 4014TIP3   OH233600   5.484   3.657   1.883  0.1611 -0.4798 -0.4604
 4014TIP3    H133601   5.455   3.727   1.942 -1.2837 -2.2072  1.0104
 4014TIP3    H233602   5.565   3.625   1.922 -0.4318 -1.1590  0.2613
 4015TIP3   OH233603   1.430   2.874   7.597  0.0096  0.3438  0.2334
 4015TIP3    H133604   1.423   2.779   7.588  2.2294  0.3297 -2.7129
 4015TIP3    H233605   1.524   2.891   7.607  0.0136  2.3097 -2.1783
 4016TIP3   OH233606   0.064   0.344   7.866  0.4646 -0.3834 -0.1133
 4016TIP3    H133607   0.073   0.383   7.779  2.7624 -0.8180 -0.1311
 4016TIP3    H233608   0.043   0.252   7.850  2.0390 -0.7462 -0.3026
 4017TIP3   OH233609   3.420   0.189   7.778  0.3125 -0.7040 -0.0914
 4017TIP3    H133610   3.347   0.175   7.718 -0.7863  0.6008  0.8875
 4017TIP3    H233611   3.498   0.187   7.722 -0.5694 -0.8551 -1.3406
 4018TIP3   OH233612   5.856   1.187   1.188  0.1268  0.0954 -0.3685
 4018TIP3    H133613   5.877   1.094   1.188  0.3109  0.1368 -0.3109
 4018TIP3    H233614   5.914   1.225   1.122 -0.3027  0.0901 -0.7520
 4019TIP3   OH233615   1.441   5.511   0.859 -0.0504  0.1068 -0.5373
 4019TIP3    H133616   1.534   5.496   0.877  0.0618  1.8372  0.4393
 4019TIP3    H233617   1.422   5.450   0.787  1.8486 -0.2092 -0.8457
 4020TIP3   OH233618   5.475   0.448   6.750 -0.0464 -0.2546  0.0208
 4020TIP3    H133619   5.386   0.413   6.750  0.2873 -1.1324  0.5468
 4020TIP3    H233620   5.499   0.451   6.843  0.9437 -1.2913 -0.1780
 4021TIP3   OH233621   1.526   3.549   1.108 -0.0713 -0.0249  0.0971
 4021TIP3    H133622   1.528   3.641   1.136  2.0948 -0.1280  0.4300
 4021TIP3    H233623   1.551   3.500   1.186 -0.1150 -0.8160 -0.3815
 4022TIP3   OH233624   3.743   0.257   1.681  0.1448  0.1942  1.0854
 4022TIP3    H133625   3.663   0.220   1.643 -0.4245  1.6382  0.7908
 4022TIP3    H233626   3.733   0.242   1.775  0.5513 -1.5113  0.8808
 4023TIP3   OH233627   4.403   1.020   1.585  0.3225 -0.4481  0.6233
 4023TIP3    H133628   4.422   1.102   1.539 -2.0024  0.4773  1.1820
 4023TIP3    H233629   4.483   1.001   1.634  1.5886  0.4185 -1.0293
 4024TIP3   OH233630   1.321   4.343   0.511  0.2584  0.2340 -0.1915
 4024TIP3    H133631   1.409   4.329   0.475  0.6762 -0.7004  1.1475
 4024TIP3    H233632   1.264   4.348   0.434  1.3373 -0.2164 -1.0360
 4025TIP3   OH233633   4.783   0.799   7.900  0.1722  0.2279 -0.1486
 4025TIP3    H133634   4.830   0.824   7.820  0.1324 -1.0144 -0.5886
 4025TIP3    H233635   4.826   0.850   7.970  1.7370 -0.3515 -0.6351
 4026TIP3   OH233636   0.307   6.304   0.738 -0.0337  0.1694  0.4838
 4026TIP3    H133637   0.274   6.330   0.824 -1.0371  0.2154  0.1058
 4026TIP3    H233638   0.243   6.239   0.706  0.0976  0.4468 -0.3860
 4027TIP3   OH233639   0.046   4.314   0.220 -0.2219 -0.2279 -0.5868
 4027TIP3    H133640   0.130   4.306   0.265 -0.3775 -0.4401 -0.3254
 4027TIP3    H233641   0.048   4.401   0.180  0.6288 -0.7051 -1.6346
 4028TIP3   OH233642   5.148   5.811   7.040 -0.5004  0.1650 -0.3880
 4028TIP3    H133643   5.148   5.782   7.131  2.2497  3.2115  0.7577
 4028TIP3    H233644   5.177   5.734   6.990  2.3547 -0.4112  1.9146
 4029TIP3   OH233645   5.120   4.844   8.641 -0.1660  0.2644  0.7258
 4029TIP3    H133646   5.135   4.892   8.560  0.4217  0.0978  0.7326
 4029TIP3    H233647   5.166   4.761   8.629 -1.0684 -0.2530  0.7626
 4030TIP3   OH233648   3.926   6.364   0.341 -0.1551 -0.1305  0.1454
 4030TIP3    H133649   4.008   6.410   0.360 -0.5167  0.6040 -0.0344
 4030TIP3    H233650   3.947   6.308   0.265  0.2009 -0.0105  0.1546
 4031TIP3   OH233651   1.396   5.687   1.798  0.4899 -0.7654  0.2968
 4031TIP3    H133652   1.314   5.732   1.777  1.0233  0.2721  0.4002
 4031TIP3    H233653   1.412   5.629   1.723  0.6966  0.5075 -0.6736
 4032TIP3   OH233654   1.432   1.054   1.190 -0.0711  0.3145  0.0345
 4032TIP3    H133655   1.417   1.079   1.099 -1.3623 -0.9551 -0.1354
 4032TIP3    H233656   1.371   1.109   1.240 -0.0481  0.3322  0.0433
 4033TIP3   OH233657   2.612   0.434   0.647  0.7749  0.1673 -0.0974
 4033TIP3    H133658   2.544   0.385   0.602 -0.3721  1.8124 -0.2359
 4033TIP3    H233659   2.564   0.496   0.702  2.1311  1.7746 -0.6428
 4034TIP3   OH233660   1.520   2.190   0.567  0.3000 -0.0581 -0.6130
 4034TIP3    H133661   1.585   2.260   0.557 -0.5620  0.5670 -2.2015
 4034TIP3    H233662   1.440   2.236   0.593  0.1769 -0.6981  0.2011
 4035TIP3   OH233663   2.132   5.659   1.205  0.5831 -0.2916  0.3348
 4035TIP3    H133664   2.078   5.641   1.129  1.5123  0.1960 -0.4640
 4035TIP3    H233665   2.135   5.755   1.211 -0.3213 -0.3199  1.6125
 4036TIP3   OH233666   2.531   1.374   1.623 -0.1174 -0.2807  0.2754
 4036TIP3    H133667   2.618   1.407   1.647  0.6484 -0.7480 -1.6683
 4036TIP3    H233668   2.476   1.452   1.618  0.6523  0.2412 -0.2625
 4037TIP3   OH233669   0.015   2.754   7.289  0.2742 -0.4562 -0.1392
 4037TIP3    H133670  -0.067   2.726   7.249  0.8962 -2.1064 -0.3455
 4037TIP3    H233671   0.083   2.708   7.240  1.5176  2.3622 -1.2628
 4038TIP3   OH233672   2.050   6.477   1.031 -0.3000 -0.1099 -0.3106
 4038TIP3    H133673   2.111   6.407   1.054  0.7621 -0.0108 -2.5328
 4038TIP3    H233674   2.107   6.552   1.012 -1.3890  1.2702  1.5861
 4039TIP3   OH233675   3.858   4.400   0.859 -0.0872 -0.4307 -0.4684
 4039TIP3    H133676   3.866   4.484   0.906 -2.0889  0.1807 -1.1051
 4039TIP3    H233677   3.849   4.425   0.767  2.5143 -1.5554 -1.1180
 4040TIP3   OH233678   1.928   3.119   7.176 -0.3044  0.1668  0.1039
 4040TIP3    H133679   1.915   3.191   7.238  2.3165  0.2366  0.6824
 4040TIP3    H233680   1.840   3.096   7.147 -1.4057  1.8671  1.8756
 4041TIP3   OH233681   0.609   1.641   2.205 -0.3299 -0.0602  0.4059
 4041TIP3    H133682   0.672   1.629   2.133  1.1299 -1.9805  1.8809
 4041TIP3    H233683   0.525   1.616   2.167  0.6709 -2.9207 -0.2607
 4042TIP3   OH233684   3.420   2.183   7.218  0.0464  0.1827  0.0484
 4042TIP3    H133685   3.489   2.231   7.263  0.6373  0.0759 -0.7247
 4042TIP3    H233686   3.451   2.093   7.215  0.1176  0.2307 -0.7620
 4043TIP3   OH233687   2.460   0.935   1.316  0.0939  0.0149 -0.0753
 4043TIP3    H133688   2.534   0.987   1.346  0.4783 -0.9863  0.7590
 4043TIP3    H233689   2.439   0.878   1.390 -2.5571  1.3475  0.3662
 4044TIP3   OH233690   5.226   3.067   0.125  0.8923 -0.2146 -0.1277
 4044TIP3    H133691   5.320   3.088   0.127  1.0319 -0.9000  1.2675
 4044TIP3    H233692   5.183   3.149   0.149  1.1752 -0.0856 -0.0528
 4045TIP3   OH233693   5.796   1.158   8.496 -0.1341 -0.2825 -0.1132
 4045TIP3    H133694   5.815   1.247   8.525  1.1718  0.1725 -2.1396
 4045TIP3    H233695   5.881   1.114   8.495 -0.4227 -0.8614 -1.2052
 4046TIP3   OH233696   3.084   1.881   1.268  0.3729  0.0255 -0.1629
 4046TIP3    H133697   3.122   1.931   1.340  0.0647 -0.2494  0.1970
 4046TIP3    H233698   3.000   1.850   1.302  0.9207 -1.4274 -0.0935
 4047TIP3   OH233699   4.814   6.847   0.504  0.4523  0.2725 -0.0633
 4047TIP3    H133700   4.777   6.908   0.569 -1.5710  0.7499 -1.5648
 4047TIP3    H233701   4.843   6.903   0.433  2.5853 -0.2575  0.3297
 4048TIP3   OH233702   0.331   3.458   1.750 -0.0134 -0.0739  0.0929
 4048TIP3    H133703   0.244   3.498   1.753  0.3336  0.8973 -1.7106
 4048TIP3    H233704   0.362   3.462   1.841 -1.8458 -0.4733  0.7724
 4049TIP3   OH233705   4.540   0.880   8.052 -0.7765  0.0088  0.5740
 4049TIP3    H133706   4.608   0.831   8.006 -0.8783 -0.1556  0.5944
 4049TIP3    H233707   4.588   0.933   8.116 -0.7268 -0.9838  1.4028
 4050TIP3   OH233708   5.750   6.341   0.399  0.8359 -0.3952  0.4801
 4050TIP3    H133709   5.673   6.384   0.361 -1.1024 -2.4235  1.9029
 4050TIP3    H233710   5.751   6.369   0.490  2.9388  1.0215  0.1071
 4051TIP3   OH233711   0.404   3.782   6.306 -0.3173 -0.7823 -0.4257
 4051TIP3    H133712   0.493   3.756   6.330 -0.1414  0.4379  0.3141
 4051TIP3    H233713   0.412   3.874   6.280 -1.2363 -0.8802 -1.0983
 4052TIP3   OH233714   6.778   3.657   1.698 -0.3687  0.3037 -0.4058
 4052TIP3    H133715   6.690   3.658   1.660 -0.7336 -1.5771  0.2733
 4052TIP3    H233716   6.763   3.674   1.791  0.0689  0.6250 -0.3931
 4053TIP3   OH233717   6.704   0.195   7.735 -0.5080 -0.1863 -0.1338
 4053TIP3    H133718   6.613   0.200   7.765 -0.7950 -1.1993 -0.7620
 4053TIP3    H233719   6.708   0.113   7.685  1.0792 -0.8451  0.9774
 4054TIP3   OH233720   3.275   1.380   7.606  0.2051 -0.2171  0.0995
 4054TIP3    H133721   3.237   1.411   7.689  2.7831  1.3157  0.8068
 4054TIP3    H233722   3.232   1.433   7.539  0.4423  0.9036  0.7960
 4055TIP3   OH233723   2.992   4.977   0.066 -0.1835  0.0717  0.0094
 4055TIP3    H133724   3.043   4.897   0.081  1.1260  1.2169  2.1646
 4055TIP3    H233725   2.933   4.982   0.141 -0.9906  0.6048 -0.6506
 4056TIP3   OH233726   5.929   0.706   2.114  0.1378  0.1087 -0.1823
 4056TIP3    H133727   5.861   0.739   2.055  0.9737  0.3370 -1.0411
 4056TIP3    H233728   5.890   0.628   2.154 -1.5846  1.6380  1.2908
 4057TIP3   OH233729   2.167   1.905   7.327  0.3941 -0.6843 -0.3229
 4057TIP3    H133730   2.095   1.867   7.276  0.3029 -0.6589 -0.2145
 4057TIP3    H233731   2.209   1.829   7.369 -0.1007 -0.6206  0.2950
 4058TIP3   OH233732   2.767   0.337   7.132  0.0388  0.0164  0.1653
 4058TIP3    H133733   2.859   0.360   7.125 -0.0824  0.2554 -0.7098
 4058TIP3    H233734   2.738   0.324   7.042 -0.5241 -1.0890  0.4816
 4059TIP3   OH233735   6.137   6.019   0.072 -0.1470  0.0751 -0.1697
 4059TIP3    H133736   6.092   6.059   0.147 -1.1117  0.0995 -0.7366
 4059TIP3    H233737   6.229   6.017   0.097 -0.5223 -0.4683  1.2654
 4060TIP3   OH233738   2.377   5.579   0.422 -0.3554  0.1671  0.0829
 4060TIP3    H133739   2.340   5.497   0.391 -2.3354  1.6084 -1.6934
 4060TIP3    H233740   2.303   5.629   0.455  0.4390  1.9465 -0.6421
 4061TIP3   OH233741   5.058   3.152   6.722 -0.4000  0.2561  0.0780
 4061TIP3    H133742   4.980   3.190   6.681  0.6112  1.8866 -0.4692
 4061TIP3    H233743   5.094   3.223   6.775  1.7020  0.1983 -1.1381
 4062TIP3   OH233744   4.668   5.595   6.461 -0.4676 -0.4427  0.2082
 4062TIP3    H133745   4.692   5.503   6.450 -0.1577 -0.2705 -0.5547
 4062TIP3    H233746   4.595   5.609   6.400 -2.5403 -0.9335  2.3986
 4063TIP3   OH233747   1.888   2.518   0.217  0.2330  0.0061  0.2762
 4063TIP3    H133748   1.798   2.488   0.219  0.6605 -1.4317 -0.7328
 4063TIP3    H233749   1.924   2.491   0.302 -0.4510  1.2316  0.9815
 4064TIP3   OH233750   5.056   1.165   8.070  0.2297 -0.2218  0.5334
 4064TIP3    H133751   5.112   1.242   8.062 -0.1360 -0.0316 -0.2320
 4064TIP3    H233752   5.007   1.161   7.988  1.3069 -2.1110 -0.0896
 4065TIP3   OH233753   5.833   0.371   0.918 -0.0693 -0.2406  0.0883
 4065TIP3    H133754   5.884   0.290   0.923 -0.3689 -0.3571  1.9317
 4065TIP3    H233755   5.829   0.402   1.008 -0.9633  1.2117 -0.4271
 4066TIP3   OH233756   6.762   6.579   0.136  0.3616 -0.4395  0.8294
 4066TIP3    H133757   6.670   6.602   0.151  0.4463  0.6413 -0.1607
 4066TIP3    H233758   6.784   6.522   0.210 -0.8744 -0.0643  1.5316
 4067TIP3   OH233759   1.005   6.721   7.342  0.0803  0.3312  0.3982
 4067TIP3    H133760   1.008   6.644   7.399  1.8638 -0.6039 -0.8353
 4067TIP3    H233761   1.004   6.685   7.254 -3.2335  1.7303 -0.2882
 4068TIP3   OH233762   3.188   0.734   7.602 -0.4141  0.3171 -0.4909
 4068TIP3    H133763   3.112   0.771   7.559 -0.7014 -1.7228 -1.9211
 4068TIP3    H233764   3.152   0.668   7.662  0.1647 -0.1017 -0.5903
 4069TIP3   OH233765   5.944   5.473   8.345 -0.1581  0.2256 -0.0360
 4069TIP3    H133766   5.993   5.474   8.428  0.3667 -0.3735 -0.3295
 4069TIP3    H233767   5.894   5.392   8.348 -0.2432  0.2704 -0.2518
 4070TIP3   OH233768   0.909   4.083   1.470  0.2206 -0.1338  0.3173
 4070TIP3    H133769   0.944   4.018   1.410 -2.5667 -0.7427 -0.8079
 4070TIP3    H233770   0.880   4.155   1.414  2.0878  1.5817  1.4387
 4071TIP3   OH233771   3.982   3.128   0.093  0.2116  0.6967  0.0953
 4071TIP3    H133772   4.006   3.048   0.046 -1.4410 -0.5737  1.2813
 4071TIP3    H233773   4.061   3.151   0.142  0.4669 -0.6942  0.3824
 4072TIP3   OH233774   4.142   3.789   2.665  0.5467  0.2124 -0.1545
 4072TIP3    H133775   4.212   3.848   2.636  1.0951 -1.5448 -2.7992
 4072TIP3    H233776   4.094   3.768   2.585 -1.7561 -0.2805  1.2674
 4073TIP3   OH233777   3.643   4.570   8.519  0.1847 -0.0464  0.0875
 4073TIP3    H133778   3.684   4.537   8.598 -2.2129 -0.6865  1.1665
 4073TIP3    H233779   3.631   4.493   8.463  2.9850  0.5753 -1.5604
 4074TIP3   OH233780   4.742   6.291   0.205 -0.1066  0.0295  0.1135
 4074TIP3    H133781   4.692   6.250   0.134 -1.0247 -0.4645  1.0269
 4074TIP3    H233782   4.778   6.218   0.255  0.4535  0.3736  0.2243
 4075TIP3   OH233783   6.384   6.005   7.010 -0.3066  0.6703  0.1038
 4075TIP3    H133784   6.331   6.008   6.930  0.6737  1.0456 -0.5500
 4075TIP3    H233785   6.325   6.038   7.078 -1.1023  0.5079 -0.4882
 4076TIP3   OH233786   4.269   5.627   7.379 -0.7462 -0.8347 -0.2502
 4076TIP3    H133787   4.197   5.682   7.410  0.2781  0.4736 -0.1405
 4076TIP3    H233788   4.300   5.582   7.458  0.3574  0.7519  0.2808
 4077TIP3   OH233789   5.846   1.522   6.726 -0.3747 -0.1554 -0.1317
 4077TIP3    H133790   5.764   1.567   6.747 -0.5283 -0.0424 -0.9521
 4077TIP3    H233791   5.906   1.592   6.701 -0.7053 -0.3920 -1.7119
 4078TIP3   OH233792   6.014   0.739   0.767 -0.1699  0.3372  0.0136
 4078TIP3    H133793   5.921   0.727   0.785 -0.4008  2.9155  1.0621
 4078TIP3    H233794   6.020   0.749   0.672 -1.1173  1.0474  0.0135
 4079TIP3   OH233795   2.083   3.614   1.035  0.8293 -0.0105 -0.0170
 4079TIP3    H133796   2.018   3.579   0.974 -0.3588  2.1260 -0.0745
 4079TIP3    H233797   2.116   3.538   1.083  0.5582 -1.5250 -2.1253
 4080TIP3   OH233798   4.306   6.356   0.919 -0.2623 -0.3994 -0.4236
 4080TIP3    H133799   4.310   6.262   0.933  1.4653 -0.1927  0.7359
 4080TIP3    H233800   4.264   6.391   0.998  0.7991 -0.0572  0.0089
 4081TIP3   OH233801   4.005   2.020   1.490  0.7785 -0.0133  0.3177
 4081TIP3    H133802   4.083   1.974   1.458  0.3771  0.4533 -1.4234
 4081TIP3    H233803   4.008   2.105   1.446 -0.3561  0.2796  0.7781
 4082TIP3   OH233804   3.698   0.485   7.333 -0.2392 -0.0293  0.1839
 4082TIP3    H133805   3.695   0.442   7.419  0.8993  0.7939  0.6609
 4082TIP3    H233806   3.656   0.569   7.347 -0.0436  0.1085 -0.0525
 4083TIP3   OH233807   1.944   5.156   7.884  0.3719 -0.1994 -0.6640
 4083TIP3    H133808   1.867   5.190   7.840  0.1640 -0.4340 -0.4849
 4083TIP3    H233809   1.983   5.232   7.927 -0.0402 -0.1718 -0.3377
 4084TIP3   OH233810   4.760   3.288   1.129 -0.0415  0.6511 -0.4341
 4084TIP3    H133811   4.766   3.193   1.142 -1.6186  0.4100 -1.1545
 4084TIP3    H233812   4.801   3.303   1.044  0.2292  0.6203 -0.3097
 4085TIP3   OH233813   5.147   3.336   0.071  0.1839  0.4043 -0.2379
 4085TIP3    H133814   5.090   3.351  -0.003  1.2041 -0.0341 -1.1444
 4085TIP3    H233815   5.118   3.398   0.138  0.5697  2.3154 -1.7587
 4086TIP3   OH233816   1.713   6.015   2.298 -0.3093 -0.0967 -0.1343
 4086TIP3    H133817   1.776   6.031   2.227  0.1030 -0.1530  0.2180
 4086TIP3    H233818   1.744   5.936   2.341 -0.5017 -0.0032  0.1782
 4087TIP3   OH233819   2.696   2.897   6.794 -0.1746  0.3761 -0.3417
 4087TIP3    H133820   2.636   2.856   6.731  0.0980 -0.7044  0.0744
 4087TIP3    H233821   2.776   2.846   6.786 -0.1455  0.2142  0.8865
 4088TIP3   OH233822   4.913   3.462   1.384  0.2862 -0.1093 -0.0387
 4088TIP3    H133823   4.856   3.504   1.321  1.3258 -0.6033 -1.3633
 4088TIP3    H233824   4.986   3.522   1.395  0.2487 -0.1547  0.4716
 4089TIP3   OH233825   2.638   1.769   2.214  0.1949 -0.2719 -0.2579
 4089TIP3    H133826   2.544   1.765   2.228 -0.3656  2.9868 -1.9179
 4089TIP3    H233827   2.663   1.855   2.248  1.8753  0.3731 -2.8411
 4090TIP3   OH233828   0.848   1.456   0.991  0.2264  0.8677 -0.1297
 4090TIP3    H133829   0.941   1.473   1.005 -0.0631  1.6192  0.9906
 4090TIP3    H233830   0.803   1.518   1.048 -0.9319 -0.7058  0.7409
 4091TIP3   OH233831   0.067   0.036   8.283 -0.3603  0.2237 -0.2074
 4091TIP3    H133832   0.099   0.046   8.193  0.9875  1.1881  0.3388
 4091TIP3    H233833   0.141   0.063   8.338 -0.7979 -1.2968  1.2282
 4092TIP3   OH233834   4.407   6.521   1.933  0.0393  0.8199 -0.2523
 4092TIP3    H133835   4.470   6.585   1.967 -0.7623  1.9757 -0.8708
 4092TIP3    H233836   4.322   6.555   1.959 -0.3803 -0.4381  0.1015
 4093TIP3   OH233837   1.434   3.284   1.497 -0.0610 -0.6000  0.2847
 4093TIP3    H133838   1.413   3.271   1.404  1.3094 -1.9016  0.1244
 4093TIP3    H233839   1.450   3.196   1.530  1.8823  0.0474  1.1658
 4094TIP3   OH233840   6.275   0.291   2.389  0.3958  0.2183 -0.2355
 4094TIP3    H133841   6.302   0.380   2.369 -0.2625  1.1331  2.5223
 4094TIP3    H233842   6.350   0.253   2.435 -0.5697  0.5880  1.7190
 4095TIP3   OH233843   2.390   3.895   2.267 -0.1026  0.0618  0.1623
 4095TIP3    H133844   2.387   3.979   2.313  4.3026 -0.4463  1.8734
 4095TIP3    H233845   2.437   3.914   2.186 -2.3453 -0.1982 -1.2724
 4096TIP3   OH233846   1.621   5.811   6.202  0.6894  0.4249  0.1759
 4096TIP3    H133847   1.630   5.791   6.295 -0.6828  0.5098  0.3531
 4096TIP3    H233848   1.547   5.758   6.174  2.5200 -1.4147 -1.4617
 4097TIP3   OH233849   4.588   6.523   1.211  0.5058  0.1079  0.2066
 4097TIP3    H133850   4.517   6.461   1.196 -0.3630  0.0014  3.7562
 4097TIP3    H233851   4.557   6.605   1.175 -0.6445 -0.3457  0.1394
 4098TIP3   OH233852   6.068   0.389   2.204 -0.4553 -0.5437  0.4822
 4098TIP3    H133853   6.123   0.358   2.276  0.9469 -1.5242 -0.9533
 4098TIP3    H233854   5.988   0.420   2.247  0.3105 -1.1349  2.4471
 4099TIP3   OH233855   1.667   2.543   0.750 -0.2154  0.5290 -0.4643
 4099TIP3    H133856   1.590   2.545   0.693 -1.9172 -3.1224  1.4151
 4099TIP3    H233857   1.741   2.554   0.690 -2.0135  0.0086 -2.9255
 4100TIP3   OH233858   6.755   2.763   0.738 -0.0554 -0.4462  0.0016
 4100TIP3    H133859   6.777   2.833   0.800  0.3756  0.7474 -1.4472
 4100TIP3    H233860   6.834   2.752   0.686  0.7654 -3.7020  1.6435
 4101TIP3   OH233861   0.855   2.937   0.327 -0.2874 -0.4247  0.2741
 4101TIP3    H133862   0.895   2.959   0.242  0.8858  1.4671  1.2604
 4101TIP3    H233863   0.929   2.916   0.383 -1.0584 -1.6342  0.8610
 4102TIP3   OH233864   5.850   0.136   1.832 -0.3609  0.0336 -0.0375
 4102TIP3    H133865   5.798   0.159   1.909  0.2739 -0.4949  0.5633
 4102TIP3    H233866   5.841   0.211   1.774 -1.0108  0.3577  0.4627
 4103TIP3   OH233867   2.624   5.189   7.388  0.1072  0.0342  0.3696
 4103TIP3    H133868   2.568   5.264   7.369 -0.5614  0.1132  2.3778
 4103TIP3    H233869   2.707   5.227   7.417 -0.2544  0.0289  1.4532
 4104TIP3   OH233870   6.782   3.749   7.809 -0.2573 -0.6534  0.7934
 4104TIP3    H133871   6.757   3.826   7.860 -0.2409  0.1399 -0.3473
 4104TIP3    H233872   6.798   3.681   7.874 -0.4423  0.2545  1.8200
 4105TIP3   OH233873   0.601   2.726   7.038 -0.1827 -0.0048 -0.6129
 4105TIP3    H133874   0.694   2.708   7.025 -0.2891 -0.2118 -1.1139
 4105TIP3    H233875   0.568   2.743   6.950 -0.8904 -1.2339 -0.6009
 4106TIP3   OH233876   6.148   1.562   2.645  0.3853  0.4091 -0.1208
 4106TIP3    H133877   6.077   1.518   2.691  1.0879  0.0302  0.6164
 4106TIP3    H233878   6.106   1.637   2.603 -0.4744  0.1140  0.1873
 4107TIP3   OH233879   6.240   6.061   6.035 -0.4790 -0.1332 -0.4919
 4107TIP3    H133880   6.149   6.070   6.005 -1.5928 -3.3857  1.3795
 4107TIP3    H233881   6.242   6.108   6.118  0.2882  1.8605 -1.5703
 4108TIP3   OH233882   0.892   1.633   7.921 -0.3075 -0.5122 -0.0705
 4108TIP3    H133883   0.933   1.666   8.001 -1.6694  0.3070  0.3142
 4108TIP3    H233884   0.869   1.712   7.872 -0.9672 -0.9692 -0.5149
 4109TIP3   OH233885   3.119   5.883   7.583 -0.2372  0.6958  0.1123
 4109TIP3    H133886   3.178   5.925   7.646  0.0674  1.9407 -0.9468
 4109TIP3    H233887   3.031   5.898   7.618 -0.0116 -0.2720  1.1728
 4110TIP3   OH233888   3.250   4.106   2.122  0.3124 -0.0115 -0.0491
 4110TIP3    H133889   3.263   4.110   2.027  0.2837 -2.3429 -0.1952
 4110TIP3    H233890   3.158   4.132   2.134 -0.4797 -2.2056 -0.9631
 4111TIP3   OH233891   1.904   4.895   0.011 -0.1033  0.4310 -0.2721
 4111TIP3    H133892   1.993   4.861   0.019 -0.1859 -1.0509 -3.8143
 4111TIP3    H233893   1.848   4.819   0.021 -0.7289  0.7305 -1.3273
 4112TIP3   OH233894   5.923   3.768   7.756  0.3679 -0.1509  0.1550
 4112TIP3    H133895   5.831   3.753   7.781 -0.0602  0.7646 -0.7705
 4112TIP3    H233896   5.962   3.681   7.753 -0.5784 -0.5875  0.1887
 4113TIP3   OH233897   1.278   3.735   7.039  0.2389  0.5075 -0.5190
 4113TIP3    H133898   1.194   3.744   7.085 -0.6602 -1.2246 -1.6979
 4113TIP3    H233899   1.263   3.664   6.977  3.1153 -1.0766  0.4146
 4114TIP3   OH233900   1.861   1.685   8.131 -0.0010  0.0136 -0.4795
 4114TIP3    H133901   1.810   1.760   8.101 -0.5778 -0.4715 -0.7443
 4114TIP3    H233902   1.902   1.650   8.051 -0.1891 -0.2841 -0.4482
 4115TIP3   OH233903   2.345   4.910   7.488 -0.1658  0.3866 -0.5807
 4115TIP3    H133904   2.424   4.924   7.541 -0.7310  0.3741  0.2938
 4115TIP3    H233905   2.289   4.856   7.544 -0.7287  0.2553 -1.2621
 4116TIP3   OH233906   3.349   5.449   8.368  0.7353 -0.0148  0.3091
 4116TIP3    H133907   3.281   5.423   8.305  1.5374  1.6898 -1.3815
 4116TIP3    H233908   3.306   5.443   8.453 -2.5645  3.4987 -0.8163
 4117TIP3   OH233909   5.854   2.596   0.872 -0.7555  0.0299 -0.2601
 4117TIP3    H133910   5.937   2.582   0.828 -0.6554  1.3122 -0.5218
 4117TIP3    H233911   5.790   2.550   0.818 -0.1405 -1.7014  0.4095
 4118TIP3   OH233912   1.761   0.152   6.719 -0.0396  0.0347 -0.1896
 4118TIP3    H133913   1.824   0.112   6.658 -1.6084  0.0356 -1.9065
 4118TIP3    H233914   1.705   0.079   6.746 -1.1378  0.5178 -1.0718
 4119TIP3   OH233915   6.307   0.580   8.377  0.3388 -0.0912  0.2454
 4119TIP3    H133916   6.269   0.499   8.340  0.7312 -0.5011  0.7266
 4119TIP3    H233917   6.300   0.568   8.472 -2.1061  1.6203  0.3671
 4120TIP3   OH233918   2.591   1.902   7.120 -0.0719  1.0266 -0.2092
 4120TIP3    H133919   2.549   1.886   7.036 -0.8008  2.7318 -0.2190
 4120TIP3    H233920   2.615   1.995   7.118  0.1995  1.0205  1.3164
 4121TIP3   OH233921   2.669   5.449   1.160 -0.2932 -0.2890 -0.3088
 4121TIP3    H133922   2.707   5.387   1.098 -1.4510 -0.6522 -0.6813
 4121TIP3    H233923   2.581   5.465   1.127 -0.7971 -0.1700  1.0130
 4122TIP3   OH233924   5.861   3.408   6.737  0.2373 -0.2040  0.1399
 4122TIP3    H133925   5.786   3.401   6.797 -0.2788  0.4359 -0.4099
 4122TIP3    H233926   5.825   3.450   6.659  1.0450 -0.4372 -0.3715
 4123TIP3   OH233927   5.075   1.780   1.467 -0.0102 -0.0333  0.3285
 4123TIP3    H133928   5.162   1.798   1.433 -0.3178 -0.0577 -0.5044
 4123TIP3    H233929   5.016   1.814   1.399 -0.6300 -0.9115  0.4152
 4124TIP3   OH233930   2.824   6.190   7.362  0.4440 -0.5660  0.4325
 4124TIP3    H133931   2.904   6.161   7.319 -0.8550 -1.0436 -1.8590
 4124TIP3    H233932   2.771   6.110   7.370 -0.7126  0.0940 -0.2691
 4125TIP3   OH233933   5.285   2.880   0.638 -0.0491 -0.1425  0.2045
 4125TIP3    H133934   5.309   2.847   0.552 -1.3081 -1.0340  0.1731
 4125TIP3    H233935   5.199   2.920   0.625 -1.6697 -2.8930  1.5716
 4126TIP3   OH233936   1.886   5.689   6.809 -0.1289 -0.0223  0.3806
 4126TIP3    H133937   1.943   5.757   6.844 -1.3426 -0.1145  2.7158
 4126TIP3    H233938   1.906   5.686   6.715  0.7938  2.6940  0.4252
 4127TIP3   OH233939   2.277   1.733   6.999 -0.0246 -0.2137  0.1017
 4127TIP3    H133940   2.356   1.777   6.967 -0.1467 -0.2136 -0.2120
 4127TIP3    H233941   2.222   1.804   7.032 -0.3552 -0.0828 -0.6954
 4128TIP3   OH233942   4.293   3.221   0.577 -0.5562  0.3448 -0.1057
 4128TIP3    H133943   4.279   3.206   0.670 -0.4993 -0.1971 -0.1796
 4128TIP3    H233944   4.217   3.180   0.535 -0.7848  0.9380 -0.2756
 4129TIP3   OH233945   0.993   3.693   1.782  0.3163  0.6213  0.3246
 4129TIP3    H133946   0.959   3.734   1.861 -0.0781  0.7888  0.0734
 4129TIP3    H233947   1.087   3.714   1.782  0.5796 -0.4806  1.3995
 4130TIP3   OH233948   2.279   4.458   8.413 -0.0043  0.0428  0.2531
 4130TIP3    H133949   2.289   4.369   8.380  1.1241  0.0944  0.4398
 4130TIP3    H233950   2.297   4.514   8.338 -0.9629  0.1302  0.0696
 4131TIP3   OH233951   2.307   6.177   7.353 -0.5928  0.1571  0.0018
 4131TIP3    H133952   2.382   6.236   7.341 -2.3946  2.6620  0.3229
 4131TIP3    H233953   2.308   6.157   7.447 -0.5746  0.5341  0.0834
 4132TIP3   OH233954   5.066   1.261   7.063 -0.6275  0.3236  0.3240
 4132TIP3    H133955   5.107   1.223   6.984  0.5729 -0.1260  1.1272
 4132TIP3    H233956   5.073   1.355   7.051 -1.9995  0.3077 -0.8690
 4133TIP3   OH233957   0.596   6.709   2.274  0.0961 -0.1568 -0.7688
 4133TIP3    H133958   0.593   6.707   2.369 -1.0062  0.9701 -0.7473
 4133TIP3    H233959   0.636   6.626   2.249  2.1843  0.3149  0.7147
 4134TIP3   OH233960   2.721   3.196   8.418  0.0249 -0.5115  0.2811
 4134TIP3    H133961   2.631   3.183   8.388 -0.5719  1.6285  0.9579
 4134TIP3    H233962   2.714   3.260   8.488  2.1461  0.2609 -0.1224
 4135TIP3   OH233963   3.812   3.679   1.269  0.4515  0.3861 -0.3363
 4135TIP3    H133964   3.874   3.646   1.334  0.8193 -1.8018 -1.6679
 4135TIP3    H233965   3.860   3.673   1.186 -1.0787 -0.1421 -1.2256
 4136TIP3   OH233966   1.334   0.452   8.594 -0.5174  0.0914 -0.4011
 4136TIP3    H133967   1.287   0.516   8.541 -0.1108 -0.1254 -1.0473
 4136TIP3    H233968   1.402   0.419   8.535  0.6832  0.6709  0.6143
 4137TIP3   OH233969   0.402   2.022   8.431 -0.3526  0.0449  0.0167
 4137TIP3    H133970   0.456   1.959   8.479 -2.0184 -1.8259 -0.4201
 4137TIP3    H233971   0.379   2.088   8.497 -0.2610 -0.9219  1.0443
 4138TIP3   OH233972   1.680   5.127   1.050 -0.2239  0.3940 -0.2435
 4138TIP3    H133973   1.711   5.066   0.982  0.3108  1.1340 -0.6764
 4138TIP3    H233974   1.646   5.070   1.119  3.2094 -0.5578  0.8382
 4139TIP3   OH233975   5.078   2.364   0.201 -0.2385  0.4482  0.2718
 4139TIP3    H133976   5.026   2.435   0.240  0.7612  1.0330  0.5828
 4139TIP3    H233977   5.054   2.365   0.109 -0.6759  0.7956  0.3814
 4140TIP3   OH233978   6.088   1.355   8.037 -0.4984  0.0912  0.3674
 4140TIP3    H133979   6.155   1.384   8.099  0.2023  1.2999 -0.8961
 4140TIP3    H233980   6.027   1.303   8.090 -0.1954  1.4532  2.1567
 4141TIP3   OH233981   5.939   1.369   2.218 -0.4873  0.1086  0.1297
 4141TIP3    H133982   5.973   1.383   2.130 -1.7779  1.0780 -0.2652
 4141TIP3    H233983   6.003   1.411   2.276 -1.1651  2.3593 -0.6241
 4142TIP3   OH233984   3.341   5.632   2.132  0.0196 -0.4704 -0.1618
 4142TIP3    H133985   3.299   5.556   2.172 -0.0091  0.1911  1.1046
 4142TIP3    H233986   3.383   5.678   2.205 -2.0463  2.1030 -0.4333
 4143TIP3   OH233987   4.748   1.637   7.169 -0.1036 -0.0056 -0.2560
 4143TIP3    H133988   4.767   1.720   7.126  0.2653 -0.5250 -1.1178
 4143TIP3    H233989   4.784   1.570   7.110 -0.4435 -0.7796  0.3915
 4144TIP3   OH233990   4.658   3.795   7.264 -0.2672 -0.1069  0.2647
 4144TIP3    H133991   4.717   3.862   7.231 -0.0259 -0.7917 -0.7357
 4144TIP3    H233992   4.712   3.743   7.324 -0.0856 -0.1997  0.0233
 4145TIP3   OH233993   2.391   2.048   1.213 -0.1975  0.3012 -0.0518
 4145TIP3    H133994   2.341   2.129   1.217 -1.0554 -0.2145 -0.1459
 4145TIP3    H233995   2.331   1.984   1.175 -0.3584 -1.0050  2.2318
 4146TIP3   OH233996   3.485   5.154   6.873  0.0202  0.2425  0.0159
 4146TIP3    H133997   3.576   5.154   6.902  0.2858 -1.5159 -0.7344
 4146TIP3    H233998   3.467   5.246   6.852  2.4176  0.3273 -2.1890
 4147TIP3   OH233999   0.723   5.569   6.734 -0.0275  0.2229  0.9028
 4147TIP3    H134000   0.815   5.596   6.724 -0.2320  0.3730 -0.8867
 4147TIP3    H234001   0.698   5.603   6.820  1.3347  0.9453  1.0510
 4148TIP3   OH234002   1.825   5.871   8.498 -0.7001 -0.4666  0.3693
 4148TIP3    H134003   1.834   5.781   8.528 -0.6183 -1.3112 -1.9657
 4148TIP3    H234004   1.904   5.887   8.445 -2.1022 -0.1646 -1.7816
 4149TIP3   OH234005   5.441   1.269   7.192 -0.3070  0.3572  0.1189
 4149TIP3    H134006   5.504   1.312   7.134 -0.4954 -1.9504 -1.9709
 4149TIP3    H234007   5.495   1.216   7.250 -0.2085  0.9561  0.5822
 4150TIP3   OH234008   5.147   2.510   7.303  0.1638 -0.3904  0.7587
 4150TIP3    H134009   5.192   2.426   7.295 -0.1605 -0.7171  2.1322
 4150TIP3    H234010   5.209   2.574   7.267  0.0335 -1.2999 -1.1783
 4151TIP3   OH234011   3.233   5.579   1.287 -0.7433 -0.2343 -0.4066
 4151TIP3    H134012   3.188   5.495   1.295  0.3161 -0.7998 -0.2515
 4151TIP3    H234013   3.320   5.563   1.322 -0.6192  1.0139 -0.1009
 4152TIP3   OH234014   5.054   3.896   0.990  0.3360  0.0003 -0.0358
 4152TIP3    H134015   5.076   3.984   1.020  0.3125  0.3685 -1.0609
 4152TIP3    H234016   5.126   3.872   0.931 -0.6100  0.1382 -1.2963
 4153TIP3   OH234017   6.258   4.737   7.289  0.0387  0.0502 -0.1095
 4153TIP3    H134018   6.169   4.727   7.322 -0.1246  0.2493 -0.4786
 4153TIP3    H234019   6.314   4.707   7.360 -0.3585 -1.6540 -0.4561
 4154TIP3   OH234020   0.787   2.679   1.439 -0.2390 -0.2827  0.1883
 4154TIP3    H134021   0.840   2.758   1.441 -0.3356 -0.1839 -0.7847
 4154TIP3    H234022   0.844   2.611   1.402 -0.2428 -0.5998  0.7554
 4155TIP3   OH234023   2.106   2.418   8.089  0.1534 -0.2731  0.0998
 4155TIP3    H134024   2.097   2.467   8.007 -0.1915 -0.2258  0.1656
 4155TIP3    H234025   2.017   2.406   8.120  0.2336 -1.0112  0.0505
 4156TIP3   OH234026   2.781   1.010   1.365  0.3292  0.6752 -0.0919
 4156TIP3    H134027   2.875   1.004   1.383  0.3099  1.0566  0.1423
 4156TIP3    H234028   2.744   1.052   1.442 -0.2434 -0.7122  0.4040
 4157TIP3   OH234029   1.161   1.646   6.958 -0.4364 -0.4005 -0.1386
 4157TIP3    H134030   1.156   1.610   6.869  1.8183 -0.9153 -0.1268
 4157TIP3    H234031   1.094   1.600   7.007 -1.6488 -0.1913 -1.5276
 4158TIP3   OH234032   6.225   3.983   1.989  0.0480 -0.2247  0.4490
 4158TIP3    H134033   6.173   4.058   2.018  0.5862  0.1396  0.5094
 4158TIP3    H234034   6.236   3.929   2.067 -0.4631 -0.4485  0.3725
 4159TIP3   OH234035   2.036   1.228   0.064 -0.1515  0.1782  0.4350
 4159TIP3    H134036   1.959   1.192   0.020 -0.7065  1.7206  0.0884
 4159TIP3    H234037   2.024   1.204   0.156 -0.8089 -0.0134  0.3055
 4160TIP3   OH234038   6.096   5.816   2.215  0.1628 -0.6808  0.3780
 4160TIP3    H134039   6.090   5.759   2.291  0.0712  1.2023  1.8442
 4160TIP3    H234040   6.098   5.904   2.251 -0.5664  0.3079 -1.8443
 4161TIP3   OH234041   3.953   2.485   2.065  0.3511  0.1661 -0.2163
 4161TIP3    H134042   4.016   2.517   2.129 -0.3622  1.7394 -0.2666
 4161TIP3    H234043   3.897   2.425   2.115  1.9361 -1.4431 -0.2146
 4162TIP3   OH234044   1.173   0.793   7.326  0.3343 -0.3503 -0.0039
 4162TIP3    H134045   1.167   0.885   7.349  0.8912 -0.6502  1.4603
 4162TIP3    H234046   1.216   0.752   7.401 -2.2860 -2.2486  0.5803
 4163TIP3   OH234047   4.990   4.434   0.875  0.4171  0.5241 -0.0881
 4163TIP3    H134048   4.948   4.475   0.951 -3.4541 -0.3317 -1.5589
 4163TIP3    H234049   4.962   4.343   0.879  2.6295 -0.2553 -1.0055
 4164TIP3   OH234050   3.608   6.360   1.788  0.6165 -0.4135  0.0090
 4164TIP3    H134051   3.595   6.307   1.710  1.4383  0.7003 -0.9092
 4164TIP3    H234052   3.535   6.336   1.846 -0.1334 -1.0790 -1.1764
 4165TIP3   OH234053   3.072   2.984   7.605 -0.2188  0.1219  0.3679
 4165TIP3    H134054   3.146   2.988   7.544 -1.1398  0.5353 -0.7727
 4165TIP3    H234055   3.009   3.048   7.571 -1.9708 -1.6395  0.0745
 4166TIP3   OH234056   3.996   0.215   0.754  0.3905 -0.5044 -0.1107
 4166TIP3    H134057   4.018   0.186   0.665 -1.6013 -0.3311 -0.6982
 4166TIP3    H234058   3.936   0.288   0.741 -0.6665 -1.0655  1.3675
 4167TIP3   OH234059   4.865   2.332   1.992 -0.3693  0.0230 -0.3752
 4167TIP3    H134060   4.953   2.316   1.959  0.4117  1.3772  0.9272
 4167TIP3    H234061   4.840   2.417   1.955 -0.5307  0.3132  0.3708
 4168TIP3   OH234062   2.339   6.005   7.975  0.4229  0.0559  0.1464
 4168TIP3    H134063   2.244   5.996   7.973  0.2877  0.9476  1.4779
 4168TIP3    H234064   2.371   5.924   7.937 -0.8686  0.4130 -1.8897
 4169TIP3   OH234065   3.279   3.638   0.611 -0.0551  0.3242 -0.2219
 4169TIP3    H134066   3.203   3.619   0.556 -0.0228 -0.5142  0.0050
 4169TIP3    H234067   3.328   3.556   0.612  1.0008  0.9326 -0.5858
 4170TIP3   OH234068   3.557   5.402   0.480  0.3805 -0.0667  0.2599
 4170TIP3    H134069   3.475   5.411   0.530  0.3754 -0.0639  0.2513
 4170TIP3    H234070   3.536   5.439   0.394  1.0458  2.0566  0.9434
 4171TIP3   OH234071   6.424   5.472   1.992  0.7024  0.1439 -0.6478
 4171TIP3    H134072   6.345   5.515   2.026  0.5601 -0.9851  0.5430
 4171TIP3    H234073   6.461   5.535   1.930 -1.5191  0.3928 -1.8090
 4172TIP3   OH234074   0.145   4.055   7.893  0.5529  0.4770  0.1957
 4172TIP3    H134075   0.069   4.105   7.923 -0.2359 -0.3026 -0.4064
 4172TIP3    H234076   0.165   3.995   7.965 -2.1949 -2.3548 -1.1408
 4173TIP3   OH234077   4.526   4.312   1.352 -0.0266 -0.1590 -0.1117
 4173TIP3    H134078   4.502   4.232   1.305 -0.9560 -0.7066  1.2100
 4173TIP3    H234079   4.448   4.334   1.403 -0.3893  2.5635 -1.6782
 4174TIP3   OH234080   4.627   4.764   7.842  0.4590  0.0471  0.4200
 4174TIP3    H134081   4.659   4.675   7.850 -1.3204 -0.4913  2.3189
 4174TIP3    H234082   4.567   4.762   7.767  1.8003  0.1435 -0.6970
 4175TIP3   OH234083   6.775   3.082   0.055 -0.1369 -0.5615 -0.2113
 4175TIP3    H134084   6.720   3.160   0.047 -0.7804 -1.0289 -0.4243
 4175TIP3    H234085   6.863   3.111   0.030 -0.3695  0.0955 -0.2663
 4176TIP3   OH234086   3.680   0.254   1.949  0.6701  0.4050  0.2719
 4176TIP3    H134087   3.759   0.300   1.978  0.3685  1.4348 -0.4881
 4176TIP3    H234088   3.608   0.311   1.976  0.1887 -0.3847  0.6970
 4177TIP3   OH234089   0.056   4.887   0.053  0.0603  0.5185 -0.2579
 4177TIP3    H134090   0.033   4.979   0.069 -0.0309  0.9797 -2.5628
 4177TIP3    H234091   0.135   4.872   0.104  0.4903  2.1260 -0.4012
 4178TIP3   OH234092   4.094   2.113   0.941 -0.5195 -0.4715 -0.3833
 4178TIP3    H134093   4.100   2.018   0.947  1.2855 -0.6192 -2.9387
 4178TIP3    H234094   4.185   2.142   0.928 -0.9934  1.6543  0.5727
 4179TIP3   OH234095   1.242   6.415   0.991  0.8417  0.4638 -0.5928
 4179TIP3    H134096   1.196   6.341   0.950  1.1792  0.5526 -1.1475
 4179TIP3    H234097   1.221   6.490   0.934  1.1690  0.6283 -0.4973
 4180TIP3   OH234098   6.233   2.022   1.273  0.2456  0.2818 -0.3518
 4180TIP3    H134099   6.300   2.056   1.213  0.0099  1.6850  0.1536
 4180TIP3    H234100   6.266   1.935   1.297  1.7030  0.7813 -0.4109
 4181TIP3   OH234101   1.381   1.127   0.924  0.3410  0.1583 -0.2330
 4181TIP3    H134102   1.445   1.177   0.874 -1.5337  1.5120 -1.3959
 4181TIP3    H234103   1.297   1.151   0.886 -0.9046 -1.3458  1.4187
 4182TIP3   OH234104   2.839   0.966   0.245  0.4235 -0.2494 -0.2578
 4182TIP3    H134105   2.844   0.931   0.334 -0.9006 -1.8093 -0.7457
 4182TIP3    H234106   2.856   0.891   0.188  1.0715  0.6806 -1.3330
 4183TIP3   OH234107   3.508   0.766   7.927  0.4192 -0.5893  0.3590
 4183TIP3    H134108   3.579   0.703   7.909 -0.0342 -1.1837  0.6185
 4183TIP3    H234109   3.475   0.741   8.013  1.2422  0.9783  1.1732
 4184TIP3   OH234110   5.420   6.269   0.798  0.0408  0.4059  0.6550
 4184TIP3    H134111   5.376   6.316   0.728  1.2148  1.3320  0.4992
 4184TIP3    H234112   5.431   6.180   0.765 -0.5764  0.4940  0.2031
 4185TIP3   OH234113   5.765   4.572   0.777  0.1181  0.4459 -0.0496
 4185TIP3    H134114   5.703   4.500   0.781  2.2545 -1.4761  0.2098
 4185TIP3    H234115   5.837   4.546   0.835  1.1313  2.6220 -0.2255
 4186TIP3   OH234116   5.059   5.067   7.346 -0.1925 -0.1501 -0.4127
 4186TIP3    H134117   5.058   5.033   7.257 -1.7471 -0.0936 -0.4454
 4186TIP3    H234118   5.038   4.992   7.402 -0.0685 -0.0114 -0.1764
 4187TIP3   OH234119   3.467   0.190   0.607 -0.0632 -0.5643 -0.2367
 4187TIP3    H134120   3.519   0.222   0.680  0.0639  1.0161 -0.9758
 4187TIP3    H234121   3.514   0.221   0.529 -1.5686  0.0650 -0.9413
 4188TIP3   OH234122   0.138   6.864   1.718  0.4770  0.0538 -0.0327
 4188TIP3    H134123   0.094   6.897   1.640  1.1075  1.8461  0.3208
 4188TIP3    H234124   0.185   6.786   1.688 -0.1361  0.1058 -1.1857
 4189TIP3   OH234125   3.336   0.045   0.215  0.6576  0.1768  0.0406
 4189TIP3    H134126   3.317   0.010   0.128  0.3114  1.0472 -0.2520
 4189TIP3    H234127   3.371  -0.029   0.264 -0.9272 -0.8251 -0.2561
 4190TIP3   OH234128   6.113   0.552   7.979  0.5502 -0.2024 -0.3747
 4190TIP3    H134129   6.022   0.531   7.959  0.3431  1.1706 -1.0460
 4190TIP3    H234130   6.158   0.546   7.894  1.1115 -0.9737 -0.0316
 4191TIP3   OH234131   1.509   4.191   6.340 -0.1698 -0.4326  0.2852
 4191TIP3    H134132   1.459   4.271   6.325 -0.0627 -0.4773 -0.3258
 4191TIP3    H234133   1.593   4.207   6.297  0.1785 -0.5368  0.9090
 4192TIP3   OH234134   6.665   2.453   8.253  0.2249 -0.1078 -0.4513
 4192TIP3    H134135   6.757   2.475   8.239  0.5113  0.0031  1.3995
 4192TIP3    H234136   6.626   2.532   8.291  0.3481 -1.3260  2.5121
 4193TIP3   OH234137   5.645   6.353   1.415 -0.1592 -0.0605  0.4723
 4193TIP3    H134138   5.701   6.301   1.473 -1.8156 -1.1832  1.1730
 4193TIP3    H234139   5.556   6.325   1.437 -0.9940  1.4065 -0.8077
 4194TIP3   OH234140   5.977   0.290   8.112 -0.1801  0.5164  0.1046
 4194TIP3    H134141   5.931   0.346   8.050  0.2927  0.6821 -0.0975
 4194TIP3    H234142   5.945   0.202   8.092 -0.9815  0.7062  0.4729
 4195TIP3   OH234143   6.274   6.380   8.173 -0.0899 -0.3481  0.0163
 4195TIP3    H134144   6.235   6.295   8.155 -0.3508 -0.4058  0.8022
 4195TIP3    H234145   6.240   6.438   8.105 -2.3733 -0.1615  1.2116
 4196TIP3   OH234146   2.890   6.232   1.705 -0.2012 -0.1734 -0.0118
 4196TIP3    H134147   2.944   6.180   1.765  0.4003 -1.2754 -1.4492
 4196TIP3    H234148   2.825   6.170   1.672  0.5774 -0.0902 -1.8205
 4197TIP3   OH234149   4.892   0.998   1.664 -0.2184 -0.0206  0.2766
 4197TIP3    H134150   4.905   0.966   1.575 -0.7425  1.1431 -0.2304
 4197TIP3    H234151   4.980   0.997   1.703  0.0489 -0.2879 -0.3267
 4198TIP3   OH234152   6.135   3.152   1.689 -0.2117  0.6124 -0.7987
 4198TIP3    H134153   6.146   3.245   1.706 -1.2949  0.2518  2.6679
 4198TIP3    H234154   6.210   3.111   1.731 -0.4860 -0.1791 -1.0553
 4199TIP3   OH234155   1.808   2.106   8.634 -0.2720  0.4053 -0.1168
 4199TIP3    H134156   1.810   2.201   8.628 -2.8275  0.5275  0.0071
 4199TIP3    H234157   1.891   2.083   8.676 -0.5864  2.7724  2.0221
 4200TIP3   OH234158   2.551   3.894   2.034 -0.1745  0.2275 -0.6674
 4200TIP3    H134159   2.632   3.846   2.052  0.1882  1.1364  0.2367
 4200TIP3    H234160   2.579   3.983   2.015 -0.8700  0.1978 -1.8912
 4201TIP3   OH234161   4.395   2.942   8.065 -0.3313  0.0814  0.6048
 4201TIP3    H134162   4.375   3.036   8.075 -0.0359  0.2375 -0.1774
 4201TIP3    H234163   4.487   2.935   8.088 -0.3805 -0.0409  0.7682
 4202TIP3   OH234164   0.349   6.072   1.948  0.3411 -0.0512 -0.1224
 4202TIP3    H134165   0.422   6.127   1.976 -0.1400  0.8156 -0.5215
 4202TIP3    H234166   0.389   6.004   1.894  0.9276  0.0251  0.2149
 4203TIP3   OH234167   0.093   3.161   1.082  0.0468  0.5538  0.1054
 4203TIP3    H134168   0.006   3.161   1.042 -0.9618 -0.1614  2.1592
 4203TIP3    H234169   0.106   3.251   1.113 -0.2231  0.5281  0.2967
 4204TIP3   OH234170   1.235   3.536   2.390  0.0391  0.3583  0.0121
 4204TIP3    H134171   1.228   3.525   2.295 -0.2704  1.7104 -0.1441
 4204TIP3    H234172   1.199   3.456   2.426 -0.0174 -0.0952 -1.0115
 4205TIP3   OH234173   0.428   5.857   0.200 -0.2018  0.0117  0.2222
 4205TIP3    H134174   0.400   5.769   0.175  1.0010 -0.3826  0.1997
 4205TIP3    H234175   0.512   5.869   0.156 -0.2358  1.0845  0.4152
 4206TIP3   OH234176   3.854   3.379   7.010  0.2162  0.3671 -0.3262
 4206TIP3    H134177   3.941   3.398   7.043  0.4906  0.3774 -1.0305
 4206TIP3    H234178   3.837   3.447   6.944 -0.2140  0.2156 -0.3784
 4207TIP3   OH234179   1.308   0.691   7.864 -0.2839 -0.4462 -0.0976
 4207TIP3    H134180   1.389   0.736   7.887 -1.5885  0.9579  2.1273
 4207TIP3    H234181   1.240   0.756   7.880 -1.8429 -1.2745 -2.8041
 4208TIP3   OH234182   3.705   4.342   1.091 -0.3253  0.5509  0.0663
 4208TIP3    H134183   3.614   4.355   1.066  0.0118  2.3194 -0.3570
 4208TIP3    H234184   3.755   4.374   1.016  0.6519  1.3014  1.0184
 4209TIP3   OH234185   6.632   5.377   1.598 -0.4478 -0.4681  0.8011
 4209TIP3    H134186   6.589   5.419   1.524 -0.4059 -0.2536  0.9001
 4209TIP3    H234187   6.564   5.372   1.666 -0.0234  0.8330  1.3386
 4210TIP3   OH234188   4.213   0.833   0.478 -0.0368  0.0885 -0.4069
 4210TIP3    H134189   4.212   0.739   0.497  0.1295  0.2241  0.3243
 4210TIP3    H234190   4.240   0.839   0.387 -2.5686 -0.6937 -1.2914
 4211TIP3   OH234191   5.193   0.351   0.300 -0.4620  0.3774 -0.4120
 4211TIP3    H134192   5.205   0.386   0.388  0.6670 -0.7276 -0.1085
 4211TIP3    H234193   5.100   0.365   0.281 -0.9856 -0.3812  1.3951
 4212TIP3   OH234194   2.038   2.078   6.444 -0.2155  0.2151  0.9780
 4212TIP3    H134195   2.020   2.139   6.372 -0.6141  0.2109  1.0689
 4212TIP3    H234196   1.990   2.115   6.518  2.5528  1.8973  2.1124
 4213TIP3   OH234197   4.588   2.164   0.976  0.8297  0.1535 -0.0635
 4213TIP3    H134198   4.506   2.141   0.933  0.1262  1.7730  0.3392
 4213TIP3    H234199   4.578   2.256   1.001  1.1661 -0.6407  3.5832
 4214TIP3   OH234200   0.943   6.472   7.468 -0.3713 -0.1765  0.3658
 4214TIP3    H134201   0.908   6.412   7.533  0.5068 -0.7611  0.3086
 4214TIP3    H234202   1.036   6.452   7.464  0.4025  2.5299  1.8297
 4215TIP3   OH234203   6.329   3.907   7.674  0.8293 -0.4010  0.0053
 4215TIP3    H134204   6.338   4.002   7.671  2.9171 -0.5612 -0.1261
 4215TIP3    H234205   6.295   3.884   7.587  1.6708  0.1419 -0.4912
 4216TIP3   OH234206   6.090   4.456   0.391  0.4922  0.0055 -0.0796
 4216TIP3    H134207   6.173   4.503   0.401 -0.5212  2.7039 -2.7681
 4216TIP3    H234208   6.036   4.514   0.336 -3.0174 -1.8383  1.1177
 4217TIP3   OH234209   5.277   1.877   0.622  0.0219 -0.2302 -0.6495
 4217TIP3    H134210   5.298   1.969   0.608  0.0600 -0.4093 -1.8257
 4217TIP3    H234211   5.196   1.863   0.573 -0.4340 -0.6355  0.1899
 4218TIP3   OH234212   0.494   6.498   6.839 -0.1563  0.2985  0.0106
 4218TIP3    H134213   0.440   6.419   6.837 -0.1077  0.2757 -1.7033
 4218TIP3    H234214   0.540   6.494   6.923 -2.0054 -0.2050  1.0608
 4219TIP3   OH234215   0.624   2.776   0.346 -0.2374  0.1206 -0.0365
 4219TIP3    H134216   0.706   2.824   0.356  0.1925 -0.7229  0.6718
 4219TIP3    H234217   0.560   2.842   0.319  0.3911  1.0357  0.6547
 4220TIP3   OH234218   3.622   3.918   1.356  0.1261  0.2479  0.1469
 4220TIP3    H134219   3.698   3.881   1.402  0.2611 -0.8929 -0.9408
 4220TIP3    H234220   3.608   3.860   1.282 -0.8080  1.3809 -0.6079
 4221TIP3   OH234221   0.457   0.395   7.093 -0.1859  0.8017 -0.8900
 4221TIP3    H134222   0.386   0.451   7.125 -1.4918 -1.3137  0.0944
 4221TIP3    H234223   0.471   0.332   7.163  0.2406 -0.9860 -2.5064
 4222TIP3   OH234224   6.164   3.135   8.640 -0.2785 -0.0840  0.1295
 4222TIP3    H134225   6.092   3.073   8.653  1.3983 -1.9425  1.2539
 4222TIP3    H234226   6.137   3.213   8.688 -1.5252 -0.7365  0.5552
 4223TIP3   OH234227   6.639   0.635   8.609  0.3411  0.4164  0.0735
 4223TIP3    H134228   6.651   0.705   8.545 -0.4644  0.8469  0.3863
 4223TIP3    H234229   6.549   0.645   8.640  1.6285  2.5071  3.8654
 4224TIP3   OH234230   3.669   3.034   8.367 -0.3678 -0.1428 -0.1271
 4224TIP3    H134231   3.724   3.060   8.440 -0.9515  1.2791 -0.1490
 4224TIP3    H234232   3.579   3.040   8.401 -0.6270  0.1512 -0.8293
 4225TIP3   OH234233   4.211   6.424   0.403  0.1336 -0.4490  0.4332
 4225TIP3    H134234   4.268   6.380   0.465  0.2429 -0.5757  0.2419
 4225TIP3    H234235   4.263   6.497   0.370  0.8320 -1.5507 -1.0344
 4226TIP3   OH234236   3.864   2.031   8.343  0.3700 -0.0053 -0.5189
 4226TIP3    H134237   3.812   1.990   8.412  0.0626  1.1414 -0.0503
 4226TIP3    H234238   3.890   2.115   8.379 -0.8016  1.1520 -2.2138
 4227TIP3   OH234239   2.936   5.268   7.424 -0.1541 -0.3929  0.2225
 4227TIP3    H134240   3.007   5.319   7.462 -0.8615  1.5159 -0.8465
 4227TIP3    H234241   2.975   5.225   7.347 -0.5505  2.5038 -1.7529
 4228TIP3   OH234242   5.287   0.344   7.376  0.1504 -0.5870  0.4557
 4228TIP3    H134243   5.236   0.382   7.448 -0.7973 -0.8278 -0.0783
 4228TIP3    H234244   5.373   0.327   7.415 -0.3958 -0.8776  1.5904
 4229TIP3   OH234245   0.872   4.223   1.213  0.0853 -0.1925 -0.7542
 4229TIP3    H134246   0.855   4.180   1.129  1.0242  1.8639 -2.1104
 4229TIP3    H234247   0.864   4.317   1.193  1.3874  0.3957  1.2089
 4230TIP3   OH234248   6.492   1.377   0.312 -0.1879  0.2535  0.9322
 4230TIP3    H134249   6.435   1.402   0.385  0.0201 -3.3993  2.5707
 4230TIP3    H234250   6.580   1.378   0.349 -0.1924 -2.9502  1.3547
 4231TIP3   OH234251   0.603   0.635   0.884  0.0029  0.1565 -0.2550
 4231TIP3    H134252   0.697   0.634   0.870 -0.0747 -2.3752 -1.0714
 4231TIP3    H234253   0.568   0.686   0.810  0.6137 -0.9929 -1.3883
 4232TIP3   OH234254   5.903   6.473   7.844  0.7558  0.3073  0.1725
 4232TIP3    H134255   5.859   6.503   7.765  0.2931 -1.1231 -0.1365
 4232TIP3    H234256   5.864   6.524   7.915 -0.3389  0.1081 -0.2777
 4233TIP3   OH234257   0.084   5.568   7.803 -0.1781 -0.3506 -0.6243
 4233TIP3    H134258   0.173   5.602   7.794  0.2899 -1.3505 -0.0634
 4233TIP3    H234259   0.048   5.568   7.714  1.5936 -3.0182 -1.4811
 4234TIP3   OH234260   0.962   4.170   2.384 -0.3801 -0.0575 -0.4650
 4234TIP3    H134261   0.989   4.081   2.403  0.3798  0.3214  0.3002
 4234TIP3    H234262   1.034   4.225   2.416 -0.0754  0.7548 -2.3841
 4235TIP3   OH234263   2.252   0.760   0.646 -0.2641 -0.5082  0.5439
 4235TIP3    H134264   2.224   0.846   0.680  0.8521 -0.3687  1.1548
 4235TIP3    H234265   2.328   0.737   0.699  0.3430 -1.2073 -0.5964
 4236TIP3   OH234266   3.205   5.277   8.160 -0.4916 -0.2030  0.1902
 4236TIP3    H134267   3.263   5.327   8.103 -3.3703  2.3361 -0.7705
 4236TIP3    H234268   3.186   5.197   8.111 -0.3726  0.4657 -0.9888
 4237TIP3   OH234269   0.792   0.641   8.358  0.4537  0.2714 -0.4849
 4237TIP3    H134270   0.709   0.614   8.397  0.0309  2.3451  0.1523
 4237TIP3    H234271   0.784   0.617   8.265 -1.6439  2.0522 -0.8411
 4238TIP3   OH234272   2.713   5.181   0.557 -0.4961 -0.2208 -0.3126
 4238TIP3    H134273   2.668   5.202   0.475  1.1319  3.4380 -0.4835
 4238TIP3    H234274   2.649   5.204   0.625 -0.0246  2.2719 -0.5936
 4239TIP3   OH234275   3.047   4.418   8.327  0.0875 -0.1603  0.5278
 4239TIP3    H134276   2.995   4.471   8.386 -0.6706  0.6197 -0.7811
 4239TIP3    H234277   3.020   4.446   8.239 -0.2894 -2.6317 -0.2406
 4240TIP3   OH234278   6.011   3.562   1.096  0.1311 -0.3748 -0.2897
 4240TIP3    H134279   5.946   3.497   1.071 -0.8111  1.1572 -2.0152
 4240TIP3    H234280   6.074   3.513   1.149 -1.1560 -2.4103 -0.5306
 4241TIP3   OH234281   3.748   1.018   0.720 -0.4431 -0.2957  0.0161
 4241TIP3    H134282   3.794   1.079   0.777 -0.7302  0.5388 -0.6053
 4241TIP3    H234283   3.808   1.004   0.647 -0.9772  0.4737 -0.5942
 4242TIP3   OH234284   1.797   2.838   1.623  0.1976 -0.4269 -0.1597
 4242TIP3    H134285   1.729   2.803   1.565  0.3037 -0.9576  0.0307
 4242TIP3    H234286   1.802   2.776   1.695 -0.6120  0.7497  0.9410
 4243TIP3   OH234287   3.654   6.012   6.273  0.4431 -0.0031 -0.0979
 4243TIP3    H134288   3.595   5.999   6.198  1.0946  1.5734 -0.9499
 4243TIP3    H234289   3.608   6.074   6.329  0.2303 -0.7010  0.5189
 4244TIP3   OH234290   5.464   2.526   0.424  0.0527  0.2330  0.0358
 4244TIP3    H134291   5.429   2.613   0.405 -0.4860  0.1858  0.7843
 4244TIP3    H234292   5.478   2.486   0.338 -0.7174  0.6533 -0.2900
 4245TIP3   OH234293   6.871   5.524   1.525 -0.2440  0.0995  0.2055
 4245TIP3    H134294   6.798   5.463   1.517  0.7396 -0.9359 -1.5839
 4245TIP3    H234295   6.947   5.474   1.495  0.5504  2.2793 -1.6894
 4246TIP3   OH234296   2.237   0.057   7.027 -0.1003 -0.4902  0.0329
 4246TIP3    H134297   2.206   0.094   6.944  0.1141 -1.3571 -0.4469
 4246TIP3    H234298   2.320   0.102   7.044  1.4778 -2.4643 -1.8641
 4247TIP3   OH234299   2.583   0.200   1.431 -0.2920 -0.2685  0.2935
 4247TIP3    H134300   2.647   0.177   1.498 -0.4790 -1.5981  0.0438
 4247TIP3    H234301   2.621   0.168   1.349 -1.0182 -0.5656  0.0660
 4248TIP3   OH234302   6.848   1.418   2.018 -0.0487  0.1401  0.2542
 4248TIP3    H134303   6.833   1.494   1.962  1.1593  0.7626  0.7344
 4248TIP3    H234304   6.907   1.450   2.086 -0.7943 -0.8305  1.3841
 4249TIP3   OH234305   6.086   0.291   0.579  0.6344  0.2719 -0.5253
 4249TIP3    H134306   6.127   0.350   0.515  0.2388  0.3941 -0.6680
 4249TIP3    H234307   6.066   0.347   0.654  2.8490 -0.2169  0.5371
 4250TIP3   OH234308   0.906   4.507   1.755 -0.5197 -0.2251  0.2668
 4250TIP3    H134309   0.923   4.517   1.849 -1.5245  0.9179  0.3442
 4250TIP3    H234310   0.920   4.594   1.719  1.6250 -1.0219 -0.9800
 4251TIP3   OH234311   4.839   0.367   2.174  0.4847 -0.1075  0.5469
 4251TIP3    H134312   4.814   0.437   2.235  1.5633  0.8764 -0.1280
 4251TIP3    H234313   4.874   0.412   2.098 -0.5156 -1.3446 -0.6868
 4252TIP3   OH234314   1.706   0.003   1.038 -0.9523 -0.2017 -0.4997
 4252TIP3    H134315   1.766   0.047   0.978 -0.3792  0.6879  0.6809
 4252TIP3    H234316   1.750   0.006   1.122 -2.2333 -0.3928  0.2054
 4253TIP3   OH234317   3.839   2.504   1.833 -0.4300  0.4359  0.5950
 4253TIP3    H134318   3.888   2.552   1.767  0.9767 -1.5170  0.1308
 4253TIP3    H234319   3.901   2.489   1.903 -1.3654  0.8221  1.5297
 4254TIP3   OH234320   0.285   2.648   7.967 -0.2019 -0.6539  0.0586
 4254TIP3    H134321   0.282   2.559   7.931  0.4226 -1.0958  1.0672
 4254TIP3    H234322   0.374   2.657   8.001 -0.2856  0.3391  0.0245
 4255TIP3   OH234323   1.322   2.577   7.240  0.4304  0.1776  0.1587
 4255TIP3    H134324   1.256   2.616   7.182 -0.6772 -0.8724  0.6615
 4255TIP3    H234325   1.370   2.517   7.184  1.4363  1.4069 -0.3640
 4256TIP3   OH234326   4.624   1.491   7.752 -0.3013  0.1105 -0.0495
 4256TIP3    H134327   4.557   1.431   7.719 -0.8351  0.6003  0.1288
 4256TIP3    H234328   4.702   1.436   7.763 -1.1896 -0.9086  1.5724
 4257TIP3   OH234329   2.261   1.811   0.844  0.7244  0.5681  0.3781
 4257TIP3    H134330   2.184   1.864   0.864 -0.0455 -1.2009  2.5140
 4257TIP3    H234331   2.228   1.722   0.838  2.7750 -0.5221  3.2069
 4258TIP3   OH234332   6.261   4.895   8.501  0.3324 -0.1844 -0.2315
 4258TIP3    H134333   6.246   4.910   8.408  1.9533 -0.5486 -0.5895
 4258TIP3    H234334   6.357   4.897   8.510  0.1911  0.7483  1.5790
 4259TIP3   OH234335   0.134   3.058   1.740 -0.1724 -0.1596 -0.1269
 4259TIP3    H134336   0.099   3.102   1.662  1.2069 -0.0504 -0.7138
 4259TIP3    H234337   0.128   3.124   1.809 -1.1077 -0.1506 -0.1968
 4260TIP3   OH234338   6.340   6.484   2.045  0.3852  0.3818  0.2026
 4260TIP3    H134339   6.273   6.414   2.044  0.5798  0.0429  2.9649
 4260TIP3    H234340   6.423   6.437   2.055  0.5794  0.9297  1.3760
 4261TIP3   OH234341   3.397   0.723   8.199  0.0937 -0.0216  0.2807
 4261TIP3    H134342   3.309   0.692   8.220 -0.4717 -0.2095 -1.9997
 4261TIP3    H234343   3.418   0.786   8.267 -2.2219  0.7421  0.3819
 4262TIP3   OH234344   5.739   6.253   6.707  0.1020 -0.0141  0.4476
 4262TIP3    H134345   5.797   6.229   6.634 -0.8254 -1.9527  0.2866
 4262TIP3    H234346   5.651   6.250   6.669 -0.2162  1.5294  1.0267
 4263TIP3   OH234347   2.367   3.907   0.116 -0.7239  0.1017  0.1930
 4263TIP3    H134348   2.423   3.838   0.079  1.5549  1.3165  1.2362
 4263TIP3    H234349   2.375   3.897   0.210  1.5482  3.1158  0.4600
 4264TIP3   OH234350   0.855   2.402   1.762 -0.6788 -0.4662  0.2893
 4264TIP3    H134351   0.893   2.319   1.787  0.3271 -0.4504 -1.0718
 4264TIP3    H234352   0.928   2.464   1.761 -0.9653 -0.1012 -0.9193
 4265TIP3   OH234353   2.480   0.466   8.583  0.0820  0.1864  0.0240
 4265TIP3    H134354   2.473   0.384   8.533  0.8474 -0.4210  0.8707
 4265TIP3    H234355   2.574   0.482   8.589 -0.0695  1.4899 -0.6646
 4266TIP3   OH234356   3.012   4.109   1.941 -0.3198  0.2896  0.1446
 4266TIP3    H134357   2.979   4.106   2.030 -0.0043  0.7401  0.2751
 4266TIP3    H234358   2.958   4.173   1.896 -0.0263  0.5750  0.1960
 4267TIP3   OH234359   5.213   4.488   0.479  0.1356  0.4078 -0.3733
 4267TIP3    H134360   5.127   4.514   0.512 -0.3786  0.2899 -1.5693
 4267TIP3    H234361   5.250   4.568   0.441  1.0138  0.7075  1.0287
 4268TIP3   OH234362   4.651   6.223   1.500 -0.1316  0.0889 -0.4064
 4268TIP3    H134363   4.570   6.225   1.551 -0.2070  0.9699 -0.5455
 4268TIP3    H234364   4.624   6.248   1.411  0.2486  0.1348 -0.5091
 4269TIP3   OH234365   6.763   5.089   2.035 -0.0653  0.3314  0.1769
 4269TIP3    H134366   6.814   5.091   2.116  0.6928  0.1564 -0.2875
 4269TIP3    H234367   6.676   5.121   2.061  0.3095  0.7606  0.9541
 4270TIP3   OH234368   4.215   3.920   0.597  0.8068  0.2165 -0.2649
 4270TIP3    H134369   4.242   3.952   0.682 -0.1411  0.1443  0.0718
 4270TIP3    H234370   4.136   3.869   0.614  0.9845 -0.3642 -1.0929
 4271TIP3   OH234371   6.189   6.125   8.100  0.4046 -0.2174 -0.3914
 4271TIP3    H134372   6.164   6.096   8.012  1.7863 -0.0513 -0.8568
 4271TIP3    H234373   6.215   6.044   8.144  0.2487 -0.2272 -0.3163
 4272TIP3   OH234374   2.724   5.467   7.226 -0.1671 -0.4313  0.0882
 4272TIP3    H134375   2.730   5.558   7.196  0.1581 -0.7142 -0.7344
 4272TIP3    H234376   2.794   5.422   7.178 -0.7541 -1.2463 -0.0099
 4273TIP3   OH234377   2.818   2.830   1.452  0.9659 -0.2325  0.0794
 4273TIP3    H134378   2.751   2.847   1.386 -1.0122 -3.2578  1.0935
 4273TIP3    H234379   2.806   2.899   1.518 -0.8215 -0.3768 -0.0452
 4274TIP3   OH234380   3.082   0.663   7.135  0.1781 -0.2072 -0.5826
 4274TIP3    H134381   3.118   0.702   7.056  0.8746  3.0811  1.1795
 4274TIP3    H234382   3.110   0.722   7.206 -2.8344 -1.3324  1.7682
 4275TIP3   OH234383   1.922   5.547   7.740  0.3290  0.4712 -0.4086
 4275TIP3    H134384   1.835   5.507   7.744 -0.2780  1.7973  1.2192
 4275TIP3    H234385   1.974   5.488   7.687 -1.3325 -0.8307 -0.6571
 4276TIP3   OH234386   4.611   2.446   7.235  0.4406  0.1327  0.2410
 4276TIP3    H134387   4.552   2.415   7.303  0.3777  0.2526  0.2411
 4276TIP3    H234388   4.567   2.522   7.198  0.5950  0.2224  0.2424
 4277TIP3   OH234389   1.315   2.319   8.366 -0.0212 -0.3934  0.4533
 4277TIP3    H134390   1.341   2.364   8.286 -2.7118 -0.9421 -0.8616
 4277TIP3    H234391   1.366   2.238   8.367 -0.0803 -0.4583 -0.8431
 4278TIP3   OH234392   4.324   4.592   0.212 -0.2378  0.6028  0.3957
 4278TIP3    H134393   4.283   4.546   0.285 -1.7714  1.2782 -0.0079
 4278TIP3    H234394   4.316   4.685   0.233 -0.9470  0.8221 -0.7352
 4279TIP3   OH234395   6.377   2.103   7.375 -0.5276  0.0733  0.1247
 4279TIP3    H134396   6.333   2.045   7.437 -0.5978 -0.9034 -0.8021
 4279TIP3    H234397   6.337   2.189   7.389 -1.4643 -0.4166  0.5272
 4280TIP3   OH234398   6.703   4.698   8.644 -0.0195  0.3866  0.2729
 4280TIP3    H134399   6.779   4.743   8.681  0.8734 -1.6129  1.0351
 4280TIP3    H234400   6.630   4.757   8.659  1.1978  1.8890  0.5132
 4281TIP3   OH234401   4.331   4.028   0.817  0.0030  0.1831 -0.4678
 4281TIP3    H134402   4.368   4.097   0.763 -1.8335  1.9407  0.3864
 4281TIP3    H234403   4.389   4.023   0.893 -0.4787  1.6704  0.0334
 4282TIP3   OH234404   6.371   5.288   1.480 -0.0049 -0.0370 -0.3119
 4282TIP3    H134405   6.357   5.295   1.574 -0.8694  0.1013 -0.4406
 4282TIP3    H234406   6.307   5.348   1.442 -0.1218 -0.5945 -1.0124
 4283TIP3   OH234407   0.737   5.024   1.739  0.1363  0.3492 -0.0439
 4283TIP3    H134408   0.717   5.064   1.824 -0.3243  0.1642 -0.0655
 4283TIP3    H234409   0.805   5.080   1.702 -1.4134  1.9099 -0.6716
 4284TIP3   OH234410   2.281   3.556   8.513  0.7907 -0.1102 -0.2476
 4284TIP3    H134411   2.247   3.508   8.438 -1.0888  1.2588 -0.3284
 4284TIP3    H234412   2.341   3.494   8.555  0.8359 -1.3836 -2.0828
 4285TIP3   OH234413   5.618   1.357   0.706  0.2261 -0.2266  0.2488
 4285TIP3    H134414   5.682   1.371   0.777  0.8116  1.5249 -0.5816
 4285TIP3    H234415   5.546   1.416   0.726  0.8797  1.1152 -1.1374
 4286TIP3   OH234416   5.704   4.070   6.410  0.2479 -0.3719 -0.7160
 4286TIP3    H134417   5.646   4.120   6.351  0.1218 -0.5832 -0.7697
 4286TIP3    H234418   5.705   3.982   6.374 -1.8411 -1.1870  0.9940
 4287TIP3   OH234419   3.642   0.532   1.729  0.3793 -0.1308  0.1035
 4287TIP3    H134420   3.617   0.571   1.645  0.8340 -0.0135  0.0172
 4287TIP3    H234421   3.643   0.438   1.712 -1.1861 -0.2391  0.4392
 4288TIP3   OH234422   3.129   3.391   7.585  0.2479 -0.1337 -0.0159
 4288TIP3    H134423   3.056   3.415   7.529 -0.4191 -3.0243 -0.5315
 4288TIP3    H234424   3.203   3.377   7.526 -0.0555 -1.6811 -0.0870
 4289TIP3   OH234425   3.267   4.656   7.748  0.3866  0.6029 -0.3034
 4289TIP3    H134426   3.186   4.697   7.718  0.7781  2.2857  0.8347
 4289TIP3    H234427   3.243   4.611   7.829  0.4408  0.5038 -0.3418
 4290TIP3   OH234428   2.885   5.231   0.795 -0.4208 -0.3405 -0.1134
 4290TIP3    H134429   2.857   5.227   0.886  0.3454 -0.2308  0.1303
 4290TIP3    H234430   2.806   5.211   0.745 -0.7706 -0.7236  0.5823
 4291TIP3   OH234431   1.059   2.667   2.120 -0.4235  0.5065  0.3308
 4291TIP3    H134432   1.028   2.580   2.144 -0.2125 -0.3118 -2.1367
 4291TIP3    H234433   0.979   2.721   2.119 -0.7101  0.1026  0.8245
 4292TIP3   OH234434   2.049   6.274   8.533  0.3352 -0.2592  0.2023
 4292TIP3    H134435   2.101   6.240   8.461  0.7469 -2.5434  1.4859
 4292TIP3    H234436   1.958   6.263   8.505  0.4294 -2.9177  0.6756
 4293TIP3   OH234437   2.069   4.751   7.581  0.1098 -0.2503 -0.2865
 4293TIP3    H134438   2.087   4.781   7.670 -0.3859  0.7044 -0.4944
 4293TIP3    H234439   1.990   4.800   7.554  0.3552 -0.3837 -1.3065
 4294TIP3   OH234440   2.833   2.558   1.311 -0.0201  0.2903  0.4562
 4294TIP3    H134441   2.891   2.616   1.262 -0.7803  1.5478  0.9664
 4294TIP3    H234442   2.826   2.599   1.397 -0.6352 -0.5372  0.8162
 4295TIP3   OH234443   2.611   6.320   0.542 -0.1705 -0.0957 -0.0543
 4295TIP3    H134444   2.579   6.291   0.627  2.7076 -0.1713  1.0927
 4295TIP3    H234445   2.618   6.415   0.549 -1.3012  0.0632 -0.7651
 4296TIP3   OH234446   4.264   6.608   7.885  0.0129 -0.2555  0.4225
 4296TIP3    H134447   4.216   6.675   7.836 -0.9372 -1.6423 -0.6623
 4296TIP3    H234448   4.195   6.554   7.924  0.7181 -1.1488  0.4616
 4297TIP3   OH234449   5.716   1.212   1.429 -0.2318 -0.0887 -0.3305
 4297TIP3    H134450   5.741   1.211   1.336 -1.2324  1.1111 -0.6532
 4297TIP3    H234451   5.797   1.194   1.476  0.9849  2.2975 -1.3492
 4298TIP3   OH234452   1.589   3.385   0.084  0.0466  0.6559 -0.2972
 4298TIP3    H134453   1.513   3.405   0.139 -0.4699  1.1649 -1.1700
 4298TIP3    H234454   1.570   3.298   0.049  0.4712  0.2439  0.4639
 4299TIP3   OH234455   3.979   2.181   7.677 -0.4430  0.0324 -0.0820
 4299TIP3    H134456   3.936   2.102   7.644 -0.2208  0.4824 -1.4878
 4299TIP3    H234457   3.916   2.251   7.661 -0.0111  0.3762 -0.2843
 4300TIP3   OH234458   4.535   6.529   8.192  0.2860  0.2465  0.0336
 4300TIP3    H134459   4.524   6.498   8.282 -2.6682 -2.2466 -1.0106
 4300TIP3    H234460   4.561   6.620   8.202  0.5574 -0.0410  3.3979
 4301TIP3   OH234461   2.799   2.973   1.696 -0.1838  0.5392 -0.0471
 4301TIP3    H134462   2.784   2.939   1.784  2.7332 -2.7496 -0.6032
 4301TIP3    H234463   2.850   3.053   1.709 -1.0907  0.9414  1.2153
 4302TIP3   OH234464   1.340   5.397   6.804  0.2489 -0.3434 -0.0617
 4302TIP3    H134465   1.262   5.365   6.848  0.8830 -1.0446  0.5751
 4302TIP3    H234466   1.411   5.342   6.836  1.3691  1.5871  0.9748
 4303TIP3   OH234467   2.291   6.414   0.447 -0.4387  0.2088  0.7908
 4303TIP3    H134468   2.379   6.451   0.449  0.0582 -0.7935 -0.9487
 4303TIP3    H234469   2.266   6.417   0.355 -1.0892 -2.1037  0.8442
 4304TIP3   OH234470   2.537   6.001   0.547  0.3259  0.5730 -0.1620
 4304TIP3    H134471   2.597   6.035   0.481 -0.4291  0.2559 -1.0201
 4304TIP3    H234472   2.453   6.044   0.528 -0.1020 -0.1403  0.0845
 4305TIP3   OH234473   1.658   6.349   7.806  0.2819 -0.2629  0.2446
 4305TIP3    H134474   1.708   6.381   7.881  0.9882 -2.1244  0.6442
 4305TIP3    H234475   1.713   6.369   7.731  1.1136 -1.2167  0.5688
 4306TIP3   OH234476   2.990   1.976   0.142 -0.8265 -0.4469 -0.1599
 4306TIP3    H134477   3.005   1.936   0.228  1.3506 -0.6714 -0.5886
 4306TIP3    H234478   2.989   2.070   0.160 -2.0401 -0.5213  0.3011
 4307TIP3   OH234479   1.033   4.117   7.201  0.5603 -0.4397  0.0657
 4307TIP3    H134480   1.112   4.107   7.254  0.5073  0.0551  0.2433
 4307TIP3    H234481   0.962   4.118   7.264  0.5543  0.9544  0.0717
 4308TIP3   OH234482   1.591   2.206   8.067  0.2134  0.1601  0.2039
 4308TIP3    H134483   1.558   2.138   8.008 -0.4638 -1.2365  2.1210
 4308TIP3    H234484   1.665   2.166   8.111  0.9139  1.3022  0.1160
 4309TIP3   OH234485   6.747   5.501   0.475  0.2282 -0.4496 -0.5612
 4309TIP3    H134486   6.775   5.457   0.556  0.9904  0.1979 -0.4634
 4309TIP3    H234487   6.690   5.571   0.505  0.3007 -0.3718 -0.6078
 4310TIP3   OH234488   6.257   1.418   8.243 -0.6472  0.1901  0.3037
 4310TIP3    H134489   6.331   1.470   8.212 -1.3572  1.1221  0.1280
 4310TIP3    H234490   6.296   1.336   8.274  0.4231  0.5717 -0.0034
 4311TIP3   OH234491   0.917   3.844   8.152  0.4495  0.5946  0.1056
 4311TIP3    H134492   0.874   3.914   8.201  0.1403  0.1242  0.5234
 4311TIP3    H234493   0.853   3.773   8.151  0.3963  0.6489 -1.1190
 4312TIP3   OH234494   1.904   6.382   2.197  0.2002 -0.4184  0.3365
 4312TIP3    H134495   1.989   6.340   2.212  1.0398  1.3428  0.7670
 4312TIP3    H234496   1.901   6.397   2.102 -0.0939 -1.3707  0.1822
 4313TIP3   OH234497   1.164   4.514   7.189  0.3634 -0.3939  0.3972
 4313TIP3    H134498   1.128   4.592   7.231  1.2374 -0.7232  1.8130
 4313TIP3    H234499   1.166   4.448   7.258 -3.4048 -2.7961 -1.4545
 4314TIP3   OH234500   5.510   6.020   8.313  0.4469 -0.3148  0.2475
 4314TIP3    H134501   5.541   6.101   8.274  2.2602 -0.5346  1.1480
 4314TIP3    H234502   5.416   6.034   8.327  0.3931  0.9405 -1.1944
 4315TIP3   OH234503   1.607   2.412   8.511 -0.3456 -0.6170  0.3162
 4315TIP3    H134504   1.559   2.462   8.577 -0.3927  0.3218 -0.4121
 4315TIP3    H234505   1.697   2.409   8.544 -0.5456 -0.8915  0.8387
 4316TIP3   OH234506   0.569   1.364   1.217  0.1508  0.6584 -0.9301
 4316TIP3    H134507   0.528   1.277   1.216 -0.1440  0.7809 -0.0058
 4316TIP3    H234508   0.543   1.403   1.133 -2.5706  1.1533  0.0546
 4317TIP3   OH234509   3.212   2.215   8.586  0.4755  0.1725 -0.4244
 4317TIP3    H134510   3.169   2.227   8.671  0.7294  0.9837 -0.4073
 4317TIP3    H234511   3.232   2.304   8.556  0.1246 -0.0930 -1.4711
 4318TIP3   OH234512   3.345   5.935   7.173 -0.1211  0.0635 -0.3352
 4318TIP3    H134513   3.306   6.022   7.163  2.9731  1.5007 -0.8732
 4318TIP3    H234514   3.392   5.920   7.091  0.6518 -1.4875  0.3442
 4319TIP3   OH234515   0.106   3.224   8.592 -0.2635 -0.3147 -0.0126
 4319TIP3    H134516   0.164   3.178   8.531  1.9084  0.2237  1.5041
 4319TIP3    H234517   0.075   3.300   8.543  0.2500 -0.6519 -0.8974
 4320TIP3   OH234518   2.135   5.672   1.927  0.2041 -0.0414  0.2014
 4320TIP3    H134519   2.205   5.621   1.968  0.8216 -0.2648 -1.0681
 4320TIP3    H234520   2.080   5.606   1.884  0.6448  0.2849 -0.9080
 4321TIP3   OH234521   1.166   2.389   0.123 -0.1182 -0.8273 -0.1258
 4321TIP3    H134522   1.259   2.379   0.143 -0.6356 -2.0143  2.1171
 4321TIP3    H234523   1.128   2.304   0.145 -1.7481 -0.3549 -0.9585
 4322TIP3   OH234524   0.118   4.763   0.897 -0.2476  0.1231 -0.3853
 4322TIP3    H134525   0.127   4.857   0.881 -0.0797 -0.2163 -2.6251
 4322TIP3    H234526   0.193   4.740   0.951  0.7491  0.9769 -1.3631
 4323TIP3   OH234527   3.276   2.421   7.473 -0.1585  0.1347  0.0424
 4323TIP3    H134528   3.187   2.385   7.467  0.4991 -1.9915  1.8361
 4323TIP3    H234529   3.267   2.499   7.528 -0.9369  0.1263 -0.0615
 4324TIP3   OH234530   0.312   2.904   6.600 -0.2216 -0.1716 -0.5392
 4324TIP3    H134531   0.351   2.990   6.580 -0.1635 -0.0717 -0.0152
 4324TIP3    H234532   0.223   2.924   6.630 -0.0362 -0.2478  0.0796
 4325TIP3   OH234533   5.754   5.976   1.233  0.0326  0.1802 -0.3144
 4325TIP3    H134534   5.679   5.965   1.291  1.1972 -0.1238  1.1936
 4325TIP3    H234535   5.717   6.016   1.154 -2.0247 -1.6066 -0.3743
 4326TIP3   OH234536   0.295   2.343   2.936  0.2918 -0.4763 -0.2187
 4326TIP3    H134537   0.224   2.336   3.000  1.1614 -3.0433  0.5744
 4326TIP3    H234538   0.272   2.280   2.869  0.5239  0.6097 -1.3555
 4327TIP3   OH234539   1.669   1.434   0.085 -0.2739  0.1801  0.4916
 4327TIP3    H134540   1.625   1.455   0.003  1.2691 -0.0078 -0.4386
 4327TIP3    H234541   1.611   1.466   0.153 -0.7693  1.9652 -0.7152
 4328TIP3   OH234542   1.223   0.596   0.745 -1.4680 -0.2205 -0.3898
 4328TIP3    H134543   1.147   0.640   0.782 -2.3867 -0.2765 -2.1031
 4328TIP3    H234544   1.249   0.652   0.671  0.4977  0.0711  0.4621
 4329TIP3   OH234545   0.511   2.817   8.169 -0.0136  1.0993 -0.4921
 4329TIP3    H134546   0.500   2.755   8.096 -1.0434 -0.8075  1.1855
 4329TIP3    H234547   0.601   2.848   8.160  1.7990 -3.2172  0.4157
 4330TIP3   OH234548   3.576   5.410   5.872 -0.8837  0.1192  0.2457
 4330TIP3    H134549   3.502   5.432   5.815 -2.0357 -0.8072  1.3366
 4330TIP3    H234550   3.539   5.352   5.938  0.9027 -0.6478  0.6296
 4331TIP3   OH234551   6.673   0.004   8.333 -0.7395  0.3668 -0.1715
 4331TIP3    H134552   6.759   0.032   8.299 -0.4709 -0.0360  0.1682
 4331TIP3    H234553   6.679  -0.091   8.338 -1.5062  0.2693 -0.9283
 4332TIP3   OH234554   4.180   2.308   2.345  0.0668 -0.0919  0.0687
 4332TIP3    H134555   4.141   2.271   2.266  1.1368 -0.7327 -0.1857
 4332TIP3    H234556   4.174   2.403   2.333 -1.3737 -0.1698  0.0503
 4333TIP3   OH234557   4.141   6.485   1.500  0.1465  0.3283 -0.2458
 4333TIP3    H134558   4.170   6.402   1.461  0.5708  0.2934  0.1269
 4333TIP3    H234559   4.218   6.517   1.547  0.1224  1.1624 -0.7554
 4334TIP3   OH234560   4.830   5.363   6.846 -0.0453  0.4470 -0.0159
 4334TIP3    H134561   4.922   5.388   6.852 -0.3717  1.5183  1.0628
 4334TIP3    H234562   4.826   5.274   6.880  0.5737  0.4431  0.0456
 4335TIP3   OH234563   0.950   3.271   1.848  0.7636  0.2326  0.3374
 4335TIP3    H134564   0.951   3.267   1.943 -1.2434  0.3655  0.4205
 4335TIP3    H234565   0.899   3.350   1.828 -0.0710 -0.5593 -0.8189
 4336TIP3   OH234566   3.276   3.369   7.950 -0.3922 -0.0887 -0.6958
 4336TIP3    H134567   3.336   3.436   7.916  1.2053 -1.4014 -0.5741
 4336TIP3    H234568   3.305   3.288   7.909 -2.7994 -0.6628 -1.4834
 4337TIP3   OH234569   2.864   4.566   6.950 -0.0548  0.1543  0.1305
 4337TIP3    H134570   2.828   4.547   6.864  0.2238 -0.2342  0.1006
 4337TIP3    H234571   2.793   4.611   6.996 -0.2165  0.3289 -0.2862
 4338TIP3   OH234572   5.713   4.357   0.200  0.7343 -0.0519  0.6071
 4338TIP3    H134573   5.758   4.394   0.124 -0.4849 -0.1052 -0.1811
 4338TIP3    H234574   5.711   4.263   0.184 -0.2988  0.0173  0.2392
 4339TIP3   OH234575   4.571   5.799   1.878  0.4448 -0.2883 -0.0636
 4339TIP3    H134576   4.635   5.732   1.854  0.5175 -0.6515  1.0677
 4339TIP3    H234577   4.566   5.856   1.801 -1.1085 -2.6820 -1.8862
 4340TIP3   OH234578   4.026   2.691   1.754 -0.2865 -0.1808 -0.1596
 4340TIP3    H134579   4.048   2.783   1.746  0.5766 -0.4642 -1.2056
 4340TIP3    H234580   4.104   2.651   1.793 -0.9932 -0.3447  1.1694
 4341TIP3   OH234581   4.682   5.958   7.094  0.0775  0.5778  0.1969
 4341TIP3    H134582   4.686   5.866   7.120  3.6442 -0.3319 -2.6896
 4341TIP3    H234583   4.758   5.998   7.137  0.1142  1.4999 -0.6905
 4342TIP3   OH234584   4.321   3.152   8.381  0.4215 -0.0884 -0.4042
 4342TIP3    H134585   4.358   3.226   8.333  0.0401  0.6730  0.4415
 4342TIP3    H234586   4.228   3.172   8.388  0.2950 -0.7127 -0.2802
 4343TIP3   OH234587   5.503   1.436   2.402 -0.4532 -0.1950 -0.5843
 4343TIP3    H134588   5.456   1.515   2.375 -0.7314 -0.0561  0.2560
 4343TIP3    H234589   5.437   1.367   2.399 -0.3533 -0.2812 -0.7760
 4344TIP3   OH234590   4.494   6.436   0.170  0.1524  0.0242  0.1151
 4344TIP3    H134591   4.443   6.382   0.111 -1.8552  0.2016  1.5966
 4344TIP3    H234592   4.572   6.384   0.189  0.2369 -0.5485 -1.6588
 4345TIP3   OH234593   0.105   5.727   8.070 -0.1457  0.3829  0.3498
 4345TIP3    H134594   0.173   5.794   8.063 -0.9723  1.3088  0.9583
 4345TIP3    H234595   0.141   5.651   8.024  1.7507  0.4986  1.5217
 4346TIP3   OH234596   2.040   5.071   7.586 -0.1328 -0.0924  0.8766
 4346TIP3    H134597   1.969   5.028   7.538 -0.9747  0.2368  1.7818
 4346TIP3    H234598   2.028   5.042   7.677  2.3942 -2.0216  0.7072
 4347TIP3   OH234599   5.136   0.079   0.383  0.2846 -0.2991  0.1806
 4347TIP3    H134600   5.195   0.139   0.337  0.7863  1.1775  2.6049
 4347TIP3    H234601   5.049   0.117   0.372  0.4673  0.3217  0.8499
 4348TIP3   OH234602   0.406   2.992   7.518 -0.2426 -0.3109  0.0358
 4348TIP3    H134603   0.383   2.907   7.481  0.0172 -0.8730  1.1372
 4348TIP3    H234604   0.324   3.027   7.552 -0.3026 -0.2196 -0.1967
 4349TIP3   OH234605   3.789   1.884   8.606 -0.5861 -0.5765  0.2180
 4349TIP3    H134606   3.757   1.794   8.602 -2.0864 -0.0950  0.8371
 4349TIP3    H234607   3.712   1.936   8.631  0.2647  0.8696 -0.0659
 4350TIP3   OH234608   6.701   4.902   1.430  0.1111  0.1379  0.5403
 4350TIP3    H134609   6.671   4.899   1.521  1.3551 -1.1125  0.9501
 4350TIP3    H234610   6.701   4.811   1.402 -0.0196  0.4935 -0.6340
 4351TIP3   OH234611   3.053   3.187   1.146  0.5981 -0.1589 -0.0004
 4351TIP3    H134612   3.047   3.265   1.202 -2.0550 -0.9852  1.0560
 4351TIP3    H234613   3.144   3.160   1.152  0.9063  1.1048  2.1515
 4352TIP3   OH234614   5.150   0.893   1.724 -0.0129 -0.2154 -0.0539
 4352TIP3    H134615   5.204   0.942   1.787  2.1133 -1.6528 -0.6625
 4352TIP3    H234616   5.212   0.863   1.658 -1.5857 -1.9507 -0.8139
 4353TIP3   OH234617   6.007   2.229   0.462  0.3843  0.0999  0.1101
 4353TIP3    H134618   6.059   2.200   0.537  0.0140 -1.8756 -0.3466
 4353TIP3    H234619   5.921   2.250   0.499  0.8040  1.1849  0.5205
 4354TIP3   OH234620   4.582   1.957   7.069 -0.3547  0.5347 -0.1103
 4354TIP3    H134621   4.547   1.906   7.142  0.6314  0.5379  0.3817
 4354TIP3    H234622   4.677   1.940   7.071 -0.3502  0.2687 -1.5927
 4355TIP3   OH234623   6.527   2.159   8.214 -0.3465  0.3209 -0.7743
 4355TIP3    H134624   6.583   2.093   8.173 -0.0432 -0.0378  0.1894
 4355TIP3    H234625   6.455   2.109   8.253 -0.0868  0.5407  0.0111
 4356TIP3   OH234626   5.896   2.181   7.516  0.0692  0.4296  0.3038
 4356TIP3    H134627   5.948   2.210   7.442 -1.0426 -0.6700 -0.9611
 4356TIP3    H234628   5.819   2.139   7.477  0.9420 -3.0625  1.9158
 4357TIP3   OH234629   1.512   5.348   7.491 -0.2330  0.3659 -0.0545
 4357TIP3    H134630   1.598   5.341   7.451  0.5687  1.0908  1.4747
 4357TIP3    H234631   1.500   5.264   7.535 -0.4445  0.1581 -0.5006
 4358TIP3   OH234632   5.719   6.859   6.608  0.4398  0.0429  0.4483
 4358TIP3    H134633   5.701   6.820   6.523 -3.5790 -0.6395  1.3846
 4358TIP3    H234634   5.734   6.952   6.590  0.6748 -0.2582 -1.0319
 4359TIP3   OH234635   0.388   1.457   7.724  0.3711  0.1341 -1.3301
 4359TIP3    H134636   0.352   1.470   7.636  0.3424  1.2595 -1.1745
 4359TIP3    H234637   0.424   1.543   7.748  0.9842 -0.3357 -0.5127
 4360TIP3   OH234638   5.247   5.377   0.837 -0.8774 -0.9844 -0.2520
 4360TIP3    H134639   5.297   5.298   0.818  0.7247  0.1681 -1.0623
 4360TIP3    H234640   5.264   5.394   0.930 -0.8682 -1.3236 -0.1898
 4361TIP3   OH234641   5.427   4.159   8.211  0.2205 -0.3090  0.3642
 4361TIP3    H134642   5.480   4.233   8.181  0.5808 -0.6771  0.0790
 4361TIP3    H234643   5.379   4.193   8.286  1.2909 -0.1247  0.9842
 4362TIP3   OH234644   6.073   6.153   6.860  0.0399 -0.3603 -0.3497
 4362TIP3    H134645   5.992   6.136   6.813  1.1373 -2.4731 -1.5889
 4362TIP3    H234646   6.061   6.111   6.945 -0.0459 -0.9645 -0.6579
 4363TIP3   OH234647   2.284   5.870   8.291 -0.0689 -0.0862  0.1888
 4363TIP3    H134648   2.276   5.944   8.231 -0.8032 -0.0229  0.3582
 4363TIP3    H234649   2.375   5.875   8.323  0.0504  0.4146 -0.2119
 4364TIP3   OH234650   1.143   5.810   1.761  0.0345  1.1574  0.1728
 4364TIP3    H134651   1.130   5.851   1.847  1.5882  0.5963  0.7078
 4364TIP3    H234652   1.075   5.848   1.706 -0.5974  2.0061  1.4886
 4365TIP3   OH234653   4.903   5.444   1.984 -0.1632  0.5181 -0.1503
 4365TIP3    H134654   4.885   5.518   1.927  1.1416 -0.3828 -1.8695
 4365TIP3    H234655   4.979   5.401   1.943  0.4714 -0.5236  1.9733
 4366TIP3   OH234656   1.786   3.510   8.590 -0.2446  0.1531  0.0771
 4366TIP3    H134657   1.748   3.437   8.639 -2.2071 -1.5290 -3.5145
 4366TIP3    H234658   1.710   3.560   8.558  0.6129 -0.3563 -3.1758
 4367TIP3   OH234659   3.854   6.554   6.926 -0.3885 -0.0364 -0.0876
 4367TIP3    H134660   3.929   6.514   6.882 -0.2471 -2.1773  1.9015
 4367TIP3    H234661   3.892   6.604   6.998 -0.7529  1.3094 -0.8026
 4368TIP3   OH234662   0.083   4.141   7.560 -0.1021  0.0006  0.2750
 4368TIP3    H134663   0.139   4.206   7.517 -0.0333  0.4573  1.0320
 4368TIP3    H234664   0.011   4.193   7.597  1.0737 -0.0012  2.7858
 4369TIP3   OH234665   0.959   0.374   1.466 -0.5583 -0.4113  0.1393
 4369TIP3    H134666   1.007   0.374   1.383 -2.9521  1.4439 -1.3832
 4369TIP3    H234667   0.934   0.282   1.479 -0.0323 -0.7527 -1.1078
 4370TIP3   OH234668   3.524   6.242   8.627  0.1461 -0.1186  0.1177
 4370TIP3    H134669   3.475   6.288   8.695  0.1840 -2.4606  1.8993
 4370TIP3    H234670   3.464   6.235   8.553 -0.7310  0.5607  0.7555
 4371TIP3   OH234671   4.715   0.187   1.777  0.3123 -0.7475  0.2378
 4371TIP3    H134672   4.680   0.155   1.861  1.4082 -1.7859  0.3242
 4371TIP3    H234673   4.647   0.166   1.713  0.1497 -1.4123  0.6252
 4372TIP3   OH234674   4.483   2.858   1.673  0.0373  0.4568 -0.6842
 4372TIP3    H134675   4.458   2.934   1.726  1.4955 -0.0469  0.8102
 4372TIP3    H234676   4.507   2.791   1.737  2.2289 -0.0691 -1.9521
 4373TIP3   OH234677   1.065   0.325   6.407  0.5652  0.1896 -0.1953
 4373TIP3    H134678   1.132   0.385   6.375  0.7975 -0.3031 -0.6491
 4373TIP3    H234679   0.982   0.368   6.386  0.7202  0.0049 -1.2216
 4374TIP3   OH234680   5.558   4.168   7.078 -0.1058  0.7197  0.3894
 4374TIP3    H134681   5.499   4.149   7.151  3.1478 -0.1237  3.0810
 4374TIP3    H234682   5.517   4.241   7.031 -2.7682  0.7775  2.5869
 4375TIP3   OH234683   2.989   5.768   6.352  0.0710 -0.0060 -0.0160
 4375TIP3    H134684   2.923   5.716   6.398 -0.4080  1.0586  0.5338
 4375TIP3    H234685   3.047   5.703   6.312 -0.3838 -0.9574  0.8197
 4376TIP3   OH234686   5.642   5.359   0.666 -0.0280  0.3848  0.2776
 4376TIP3    H134687   5.628   5.317   0.582 -1.1234  1.0597  0.1056
 4376TIP3    H234688   5.737   5.374   0.670 -0.1210  1.6328 -1.4731
 4377TIP3   OH234689   3.283   1.637   6.481  0.0730 -0.0714  0.8300
 4377TIP3    H134690   3.370   1.675   6.494 -0.0497  1.3348 -1.8122
 4377TIP3    H234691   3.299   1.545   6.460  0.9226  0.1448  0.5061
 4378TIP3   OH234692   5.151   1.647   7.501  0.3758 -0.0506 -0.4366
 4378TIP3    H134693   5.229   1.670   7.450  0.3861  0.3620 -0.2372
 4378TIP3    H234694   5.078   1.664   7.442  0.4436 -0.6464 -0.7001
 4379TIP3   OH234695   1.988   6.684   2.147 -0.0227  0.3800 -0.1518
 4379TIP3    H134696   1.977   6.616   2.081 -0.1847  1.4101 -1.2251
 4379TIP3    H234697   1.943   6.761   2.110  1.7337  1.6175  0.1582
 4380TIP3   OH234698   1.841   6.385   6.425 -0.0778  0.4507  0.1342
 4380TIP3    H134699   1.783   6.399   6.350 -0.0020  0.1395  0.0178
 4380TIP3    H234700   1.927   6.371   6.386  0.1418  1.2357  0.3216
 4381TIP3   OH234701   3.412   1.141   7.735 -0.1951 -0.3494 -0.0691
 4381TIP3    H134702   3.416   1.113   7.827 -2.0842 -1.8826 -0.3965
 4381TIP3    H234703   3.374   1.229   7.739 -0.6389 -0.5608  0.6007
 4382TIP3   OH234704   5.445   2.989   0.355 -0.1676 -0.6136 -0.1903
 4382TIP3    H134705   5.470   3.030   0.438 -1.4441  0.1975 -0.1784
 4382TIP3    H234706   5.455   3.058   0.290  0.3199 -1.0954 -0.6374
 4383TIP3   OH234707   0.635   5.820   0.847  0.0449  0.1465 -0.1293
 4383TIP3    H134708   0.647   5.811   0.752  1.2125 -2.0544  0.1787
 4383TIP3    H234709   0.724   5.820   0.882 -0.4258 -1.1957  1.1176
 4384TIP3   OH234710   3.810   3.275   0.280  0.2400 -0.0692  0.4388
 4384TIP3    H134711   3.841   3.223   0.354 -0.8247 -1.0590  0.2245
 4384TIP3    H234712   3.836   3.225   0.203 -1.7041 -0.8892  0.2514
 4385TIP3   OH234713   3.513   1.489   2.585  0.6145  0.5224 -0.2625
 4385TIP3    H134714   3.429   1.482   2.541  0.9239  1.4142 -1.0181
 4385TIP3    H234715   3.577   1.496   2.515  1.3375 -0.1662  0.3021
 4386TIP3   OH234716   6.438   1.146   6.925 -0.4168  0.3968 -0.3582
 4386TIP3    H134717   6.506   1.169   6.988 -1.1037 -2.0599  1.4522
 4386TIP3    H234718   6.377   1.219   6.928  0.1105  0.8188  1.0619
 4387TIP3   OH234719   5.156   6.721   1.311 -0.1174  0.4102 -0.1902
 4387TIP3    H134720   5.089   6.745   1.248 -0.3966  1.5007  0.4966
 4387TIP3    H234721   5.161   6.795   1.372  0.5033 -0.3775  0.7700
 4388TIP3   OH234722   2.221   2.531   1.364  0.0671 -0.4712  0.1321
 4388TIP3    H134723   2.148   2.577   1.322  1.1465 -0.0711 -1.3793
 4388TIP3    H234724   2.210   2.549   1.457  0.7388  3.3982 -0.3951
 4389TIP3   OH234725   1.609   4.232   7.508 -0.1551  0.3036  0.7043
 4389TIP3    H134726   1.575   4.312   7.468  0.2382  0.1726  0.0962
 4389TIP3    H234727   1.547   4.164   7.480  0.7499  0.0070 -0.6775
 4390TIP3   OH234728   5.505   3.231   8.582 -0.0764  0.3771  0.2272
 4390TIP3    H134729   5.499   3.187   8.497  2.2910 -1.5686  0.9501
 4390TIP3    H234730   5.526   3.161   8.644  0.6125  2.0844  2.0275
 4391TIP3   OH234731   6.525   6.289   2.059  0.4072  0.1409 -0.5373
 4391TIP3    H134732   6.461   6.230   2.097  0.0122 -0.5461 -2.1647
 4391TIP3    H234733   6.569   6.237   1.991  2.7847  0.5593  0.5860
 4392TIP3   OH234734   2.716   6.457   1.863 -0.1023 -0.4216 -0.3048
 4392TIP3    H134735   2.680   6.462   1.774 -0.1854  0.0785 -0.2458
 4392TIP3    H234736   2.799   6.410   1.852  0.8287  1.2624 -0.9639
 4393TIP3   OH234737   3.913   4.086   1.430  0.2670  0.3940  0.2293
 4393TIP3    H134738   3.958   4.045   1.357 -0.0397  0.9006 -0.2556
 4393TIP3    H234739   3.827   4.044   1.432  0.4020  0.1290  0.5265
 4394TIP3   OH234740   0.049   3.708   6.431  0.0026  0.1399 -0.4368
 4394TIP3    H134741   0.085   3.674   6.349 -0.9803 -0.0578 -0.8057
 4394TIP3    H234742   0.023   3.629   6.479  1.7293  0.1865  0.6384
 4395TIP3   OH234743   4.326   4.396   7.288  0.6545  0.1227  0.3790
 4395TIP3    H134744   4.275   4.351   7.356 -2.2346  2.6920  0.1461
 4395TIP3    H234745   4.345   4.482   7.326 -0.7468  1.5029 -1.8123
 4396TIP3   OH234746   1.808   5.150   8.586  0.0955 -0.1525 -0.1245
 4396TIP3    H134747   1.723   5.151   8.630  1.1806 -0.1952  2.1359
 4396TIP3    H234748   1.843   5.063   8.604  1.3765  0.4864  0.6304
 4397TIP3   OH234749   2.841   5.105   1.426 -0.4053 -0.1233  0.2798
 4397TIP3    H134750   2.834   5.104   1.522  0.8506 -1.0826  0.3788
 4397TIP3    H234751   2.934   5.092   1.409 -0.3784  1.5384 -1.0623
 4398TIP3   OH234752   5.481   6.111   7.721  0.1517  0.7414  0.1495
 4398TIP3    H134753   5.445   6.026   7.695  3.0456 -0.9461  1.1774
 4398TIP3    H234754   5.480   6.162   7.640 -1.2439 -0.3913 -0.6106
 4399TIP3   OH234755   6.494   6.553   1.080 -0.4213  0.3450  0.5017
 4399TIP3    H134756   6.520   6.497   1.007 -1.5252  0.2161  0.1845
 4399TIP3    H234757   6.563   6.619   1.086  0.3696 -0.4347  0.2124
 4400TIP3   OH234758   1.816   4.875   7.140 -0.5783  0.7705  0.0198
 4400TIP3    H134759   1.888   4.905   7.084 -2.2574  1.8930 -1.6429
 4400TIP3    H234760   1.818   4.779   7.131  0.6224  0.7867 -0.0861
 4401TIP3   OH234761   5.848   5.648   7.911 -0.0199 -0.3952 -0.0133
 4401TIP3    H134762   5.867   5.642   8.005 -0.8687  1.1898  0.3076
 4401TIP3    H234763   5.933   5.661   7.870  0.4101 -1.5758  0.4777
 4402TIP3   OH234764   4.516   6.815   8.566 -0.3468  0.0770 -0.0125
 4402TIP3    H134765   4.594   6.760   8.561 -0.9110 -0.6040 -2.1514
 4402TIP3    H234766   4.454   6.763   8.618 -1.1772 -1.8488 -2.7110
 4403TIP3   OH234767   3.862   0.726   1.586  0.3735  0.5089 -0.6180
 4403TIP3    H134768   3.779   0.768   1.609 -0.3062  0.0540 -2.1402
 4403TIP3    H234769   3.851   0.635   1.611  0.5471  0.5137 -0.5201
 4404TIP3   OH234770   2.348   0.324   7.246 -0.3094  0.3371 -0.0460
 4404TIP3    H134771   2.385   0.237   7.234 -0.2445  0.2813  0.5442
 4404TIP3    H234772   2.299   0.341   7.166  1.2916  0.5657 -1.0188
 4405TIP3   OH234773   2.561   4.919   7.709  0.2176  0.1177 -0.1236
 4405TIP3    H134774   2.493   4.949   7.769 -0.8926 -1.7421 -0.3745
 4405TIP3    H234775   2.639   4.967   7.736 -0.8779  1.3796  0.9963
 4406TIP3   OH234776   6.634   0.708   1.377  0.6436  0.0587 -0.6320
 4406TIP3    H134777   6.611   0.666   1.459  0.4635  0.6726 -0.3654
 4406TIP3    H234778   6.716   0.754   1.396 -0.6158  2.1859 -0.0983
 4407TIP3   OH234779   5.942   4.405   8.307  0.2930 -0.0655 -0.0107
 4407TIP3    H134780   5.938   4.371   8.218  1.6398  0.9175 -0.4911
 4407TIP3    H234781   6.010   4.353   8.350 -1.5697 -1.7462  1.0500
 4408TIP3   OH234782   2.228   5.610   8.606  0.4951 -0.4574  0.5122
 4408TIP3    H134783   2.322   5.629   8.614  0.5309 -0.3247 -0.1247
 4408TIP3    H234784   2.225   5.531   8.551  0.2144 -0.0925 -0.0010
 4409TIP3   OH234785   6.166   6.608   0.339 -0.5244 -0.1310  0.0767
 4409TIP3    H134786   6.087   6.584   0.290 -0.6880 -2.6766  1.4139
 4409TIP3    H234787   6.164   6.551   0.417  2.9072 -0.7028 -0.1049
 4410TIP3   OH234788   5.337   6.355   1.837 -0.2859 -0.5815 -0.6036
 4410TIP3    H134789   5.335   6.260   1.844 -1.8282 -0.6381 -1.4651
 4410TIP3    H234790   5.385   6.373   1.757  0.5192 -0.5894 -0.1384
 4411TIP3   OH234791   1.888   6.179   6.682 -0.2478 -0.3442 -0.1545
 4411TIP3    H134792   1.959   6.122   6.652 -1.3339 -1.3046 -1.0178
 4411TIP3    H234793   1.869   6.235   6.606  0.1869  0.5626  0.3834
 4412TIP3   OH234794   5.032   1.107   7.495  0.0241 -0.0134 -0.1359
 4412TIP3    H134795   4.985   1.190   7.497 -0.1952 -0.1233 -0.5577
 4412TIP3    H234796   5.113   1.126   7.448 -0.3893 -0.2146 -0.9475
 4413TIP3   OH234797   0.144   6.259   0.977 -0.2282 -0.2153  0.3168
 4413TIP3    H134798   0.098   6.176   0.977  1.7277 -1.3844  1.5401
 4413TIP3    H234799   0.156   6.280   1.069  2.0406 -0.2420  0.0853
 4414TIP3   OH234800   2.688   2.843   2.026  0.0798 -0.3186  0.0054
 4414TIP3    H134801   2.776   2.863   1.995 -0.8174 -0.5377 -2.9836
 4414TIP3    H234802   2.700   2.813   2.116  3.1960 -1.6576 -0.7557
 4415TIP3   OH234803   4.949   3.587   6.376 -0.2589 -0.3045 -0.5933
 4415TIP3    H134804   4.854   3.602   6.382 -0.3179 -0.8877  0.1861
 4415TIP3    H234805   4.981   3.656   6.319 -1.0525  0.3749 -0.2367
 4416TIP3   OH234806   0.551   2.510   0.194 -0.3126  0.1408 -0.2191
 4416TIP3    H134807   0.593   2.560   0.265 -1.2294 -0.7920  1.0209
 4416TIP3    H234808   0.469   2.479   0.232 -2.3543  2.1285 -2.6262
 4417TIP3   OH234809   4.587   4.597   1.808  0.5523  0.5941 -0.4829
 4417TIP3    H134810   4.651   4.583   1.879 -1.1802 -0.0630  1.0131
 4417TIP3    H234811   4.513   4.640   1.851 -0.1746  1.0383 -2.1098
 4418TIP3   OH234812   1.851   5.267   1.867  0.1274  0.3623  0.4342
 4418TIP3    H134813   1.792   5.336   1.896 -0.6296 -0.2209  0.2906
 4418TIP3    H234814   1.797   5.189   1.861  1.1781 -0.4885  1.5410
 4419TIP3   OH234815   6.282   3.502   2.884 -0.3150 -0.3031  0.0930
 4419TIP3    H134816   6.218   3.431   2.881 -1.8037  0.9853 -0.1046
 4419TIP3    H234817   6.349   3.477   2.820  0.0610 -2.2643  1.1770
 4420TIP3   OH234818   4.977   4.886   0.217 -0.3890 -0.1491  0.0473
 4420TIP3    H134819   5.029   4.874   0.297 -0.8521 -0.6352  0.2820
 4420TIP3    H234820   5.038   4.865   0.146 -0.3495 -1.0618  0.3382
 4421TIP3   OH234821   2.403   2.954   1.804 -0.4211  0.3578  0.4026
 4421TIP3    H134822   2.359   3.037   1.820 -0.5664  0.4565 -0.4647
 4421TIP3    H234823   2.358   2.917   1.728 -0.3464 -0.5096  0.7634
 4422TIP3   OH234824   5.822   4.889   0.184  0.5053 -0.5106 -0.3205
 4422TIP3    H134825   5.865   4.896   0.270  0.9052  0.4922 -0.5842
 4422TIP3    H234826   5.778   4.804   0.186  1.7713 -1.1771  0.2979
 4423TIP3   OH234827   4.917   4.390   7.856  0.7470 -0.1194 -0.3123
 4423TIP3    H134828   4.883   4.398   7.767 -1.1036 -0.0156  0.3577
 4423TIP3    H234829   4.930   4.295   7.869 -0.5350 -0.2972 -0.1813
 4424TIP3   OH234830   3.221   0.628   1.553  0.2368  0.1176 -0.2012
 4424TIP3    H134831   3.276   0.582   1.617  0.9254  1.9894  0.6193
 4424TIP3    H234832   3.151   0.667   1.605 -1.4197 -1.4631 -1.1234
 4425TIP3   OH234833   5.718   0.138   7.411 -0.3864 -0.0843  0.4757
 4425TIP3    H134834   5.637   0.109   7.454 -0.4474  0.7681  0.9558
 4425TIP3    H234835   5.694   0.222   7.369  0.3463  0.3734  0.9579
 4426TIP3   OH234836   4.296   4.230   8.543  0.0799 -0.1740 -0.1120
 4426TIP3    H134837   4.253   4.178   8.475  0.0952 -1.4001  0.7903
 4426TIP3    H234838   4.248   4.313   8.543 -0.8612 -0.7029 -0.6090
 4427TIP3   OH234839   5.917   3.774   0.056 -0.4490 -0.1585 -0.0742
 4427TIP3    H134840   5.928   3.722   0.136 -0.7425  0.8412  0.6415
 4427TIP3    H234841   5.856   3.723   0.003  1.9845 -2.3213 -1.0288
 4428TIP3   OH234842   2.595   2.131   0.813  0.1592  0.2828  0.3681
 4428TIP3    H134843   2.524   2.164   0.869  0.2394  1.5451 -0.2465
 4428TIP3    H234844   2.550   2.080   0.745  0.1035 -1.9838  1.9615
 4429TIP3   OH234845   0.255   3.839   7.699  0.6192  0.0433  0.0528
 4429TIP3    H134846   0.268   3.781   7.774 -1.6954  0.6556  1.0061
 4429TIP3    H234847   0.215   3.918   7.736 -1.4791 -0.0042 -1.9064
 4430TIP3   OH234848   4.967   2.054   7.488 -0.0865 -0.0089  0.7116
 4430TIP3    H134849   4.942   2.003   7.565 -0.5823  1.4210  1.5256
 4430TIP3    H234850   4.924   2.139   7.500 -0.4622  0.1417 -1.3168
 4431TIP3   OH234851   4.080   5.972   0.064 -0.0618 -0.4823  0.2164
 4431TIP3    H134852   4.058   5.988   0.155  0.7657  0.9582  0.1964
 4431TIP3    H234853   3.999   5.988   0.015  0.1145  1.4027  0.4615
 4432TIP3   OH234854   5.277   4.333   7.896 -0.1964  0.0226 -0.3538
 4432TIP3    H134855   5.339   4.346   7.968  0.4725 -0.6531 -0.7965
 4432TIP3    H234856   5.291   4.243   7.867  0.6510  0.7084 -2.3190
 4433TIP3   OH234857   6.722   4.650   1.309  0.0151 -0.0164 -0.6796
 4433TIP3    H134858   6.794   4.588   1.301  0.1328 -0.0067  0.2692
 4433TIP3    H234859   6.686   4.656   1.220  0.7032 -0.5873 -1.0053
 4434TIP3   OH234860   1.261   0.315   0.180  0.1257 -0.4594  0.1346
 4434TIP3    H134861   1.285   0.362   0.101  0.2561  0.7560  0.8665
 4434TIP3    H234862   1.329   0.249   0.191  1.7026  1.1775  0.7201
 4435TIP3   OH234863   5.981   6.119   1.251  0.2025  0.2440  0.3346
 4435TIP3    H134864   5.911   6.054   1.260 -0.0688  0.7217  1.8057
 4435TIP3    H234865   5.943   6.186   1.193 -0.8764  0.8911  1.7428
 4436TIP3   OH234866   6.299   2.796   1.389  0.1887  0.6046 -0.6055
 4436TIP3    H134867   6.330   2.786   1.479  0.8249  2.0079 -0.6493
 4436TIP3    H234868   6.327   2.716   1.345  2.5083  1.1721 -0.2752
 4437TIP3   OH234869   0.426   4.037   0.966 -0.1411 -0.3774  0.1609
 4437TIP3    H134870   0.388   3.953   0.940  0.4173 -0.4565 -0.4185
 4437TIP3    H234871   0.497   4.052   0.904  1.0601 -0.4339  1.4734
 4438TIP3   OH234872   2.548   4.885   8.644  0.6621  0.3955  0.0846
 4438TIP3    H134873   2.462   4.923   8.657  0.4730  0.1181 -0.3416
 4438TIP3    H234874   2.572   4.851   8.731 -0.4928 -1.2314 -0.1934
 4439TIP3   OH234875   3.236   2.679   7.606 -1.0786 -0.7144  0.0470
 4439TIP3    H134876   3.187   2.679   7.688  0.5866  2.4341  1.2209
 4439TIP3    H234877   3.325   2.656   7.631  0.0250  2.6518 -0.2793
 4440TIP3   OH234878   4.754   1.621   0.484  0.3138 -0.5013  0.3293
 4440TIP3    H134879   4.807   1.601   0.407  2.2941  1.0568  1.2004
 4440TIP3    H234880   4.721   1.709   0.468 -1.0051 -0.9596  0.3873
 4441TIP3   OH234881   6.213   2.448   6.415  0.0035  0.0659 -0.1520
 4441TIP3    H134882   6.264   2.499   6.351  0.7343  0.6989  0.9089
 4441TIP3    H234883   6.264   2.452   6.495 -2.0068  1.2824  1.1466
 4442TIP3   OH234884   2.070   1.428   1.252 -0.0813  0.1579  0.2098
 4442TIP3    H134885   2.099   1.359   1.193 -1.6937  1.4700 -2.3122
 4442TIP3    H234886   2.151   1.475   1.275  0.5891 -0.1146 -1.4179
 4443TIP3   OH234887   1.156   4.772   0.497  0.2582 -0.5513  0.0797
 4443TIP3    H134888   1.198   4.772   0.583 -0.3678  0.8697  0.4138
 4443TIP3    H234889   1.069   4.810   0.513  0.2503  0.0427 -1.2374
 4444TIP3   OH234890   3.732   5.340   1.748 -0.1364 -0.7680 -0.7155
 4444TIP3    H134891   3.808   5.380   1.705 -0.6088  1.0945  0.0550
 4444TIP3    H234892   3.663   5.343   1.682 -0.6628  1.4486 -0.1809
 4445TIP3   OH234893   3.388   3.355   7.100  0.3341 -0.3192 -0.1819
 4445TIP3    H134894   3.456   3.346   7.166  1.1912 -0.8256 -1.1030
 4445TIP3    H234895   3.319   3.406   7.142  0.3508 -1.5845  1.4858
 4446TIP3   OH234896   2.399   1.675   7.864 -0.5271  0.0742  0.1987
 4446TIP3    H134897   2.304   1.672   7.880 -0.8707  0.0132 -1.6951
 4446TIP3    H234898   2.416   1.600   7.806  0.7652 -0.1585  0.8393
 4447TIP3   OH234899   2.308   0.654   0.018 -0.1921 -0.4864 -0.2229
 4447TIP3    H134900   2.339   0.741   0.040 -1.1505 -0.4761  1.2634
 4447TIP3    H234901   2.388   0.603   0.002  0.4365  0.3235  0.2522
 4448TIP3   OH234902   5.536   5.037   8.211  0.6107  0.0005 -0.2153
 4448TIP3    H134903   5.450   4.997   8.225 -0.9635  2.4063 -1.9703
 4448TIP3    H234904   5.560   5.010   8.122 -0.4791  2.6279 -1.4266
 4449TIP3   OH234905   6.326   0.711   2.146  0.3448 -0.2289  0.2440
 4449TIP3    H134906   6.355   0.755   2.227  0.3849 -0.0010  0.1087
 4449TIP3    H234907   6.395   0.647   2.128  0.1946 -0.4757  0.5446
 4450TIP3   OH234908   6.215   0.331   8.275 -0.4786 -0.4457  0.7433
 4450TIP3    H134909   6.195   0.249   8.320 -0.8314 -2.2064 -2.3892
 4450TIP3    H234910   6.140   0.346   8.217 -0.5764  2.3328  1.4270
 4451TIP3   OH234911   1.127   4.760   1.301  0.0976  0.3336 -0.4795
 4451TIP3    H134912   1.139   4.665   1.294 -0.1611  0.2500  0.1137
 4451TIP3    H234913   1.129   4.777   1.395 -1.0368  0.7535 -0.5197
 4452TIP3   OH234914   6.533   5.357   1.119 -0.0874  0.1389  0.2896
 4452TIP3    H134915   6.586   5.334   1.043  0.1622 -0.2005  0.5609
 4452TIP3    H234916   6.457   5.402   1.083 -0.1590 -0.3606 -0.1905
 4453TIP3   OH234917   2.625   2.690   1.131  0.0797 -0.5869  0.1728
 4453TIP3    H134918   2.665   2.662   1.213  2.2987  2.6831  0.4131
 4453TIP3    H234919   2.699   2.695   1.069 -0.3989  2.5555 -0.2989
 4454TIP3   OH234920   5.780   2.835   1.121 -0.0365 -0.4348 -0.0347
 4454TIP3    H134921   5.716   2.764   1.127 -1.5965  1.0128  1.8658
 4454TIP3    H234922   5.785   2.855   1.028 -2.4809 -0.5644 -0.2704
 4455TIP3   OH234923   5.974   2.656   1.273  0.3007  0.4769  0.3386
 4455TIP3    H134924   5.931   2.689   1.194 -1.1111 -1.6403  0.1438
 4455TIP3    H234925   5.962   2.726   1.338 -0.0743  1.5067 -0.7944
 4456TIP3   OH234926   5.119   3.568   0.758 -0.0943 -0.1218 -0.5448
 4456TIP3    H134927   5.109   3.547   0.851 -1.7684 -0.3866 -0.7523
 4456TIP3    H234928   5.065   3.646   0.746 -0.3299 -0.4126 -1.4088
 4457TIP3   OH234929   6.352   3.129   1.859 -0.2310 -0.4993 -0.1872
 4457TIP3    H134930   6.421   3.065   1.841  0.2698  0.3805 -1.5416
 4457TIP3    H234931   6.326   3.112   1.950  0.7524 -1.7915 -0.1273
 4458TIP3   OH234932   4.998   6.744   1.682 -0.3483 -0.4866 -0.1425
 4458TIP3    H134933   5.062   6.794   1.632  0.3280 -0.8040  0.4045
 4458TIP3    H234934   5.043   6.663   1.705 -0.1677  0.2012  2.1383
 4459TIP3   OH234935   0.156   4.138   1.540 -0.9865 -0.3652  0.3202
 4459TIP3    H134936   0.093   4.066   1.534 -0.5884 -0.6818 -0.1898
 4459TIP3    H234937   0.153   4.166   1.631 -1.2527 -0.9332  0.4896
 4460TIP3   OH234938   4.082   1.872   8.058  0.4482 -0.6560 -0.0648
 4460TIP3    H134939   4.022   1.947   8.058  0.4726 -0.6049 -1.8029
 4460TIP3    H234940   4.059   1.823   8.137 -1.9803 -0.6881 -0.7216
 4461TIP3   OH234941   0.979   2.849   7.570  0.5132  0.5009 -0.1267
 4461TIP3    H134942   0.889   2.861   7.601  1.2573 -1.1333  3.0673
 4461TIP3    H234943   0.982   2.758   7.541  0.9177  0.8403 -1.1883
 4462TIP3   OH234944   6.314   3.400   8.488  0.0337 -0.3617  0.0983
 4462TIP3    H134945   6.267   3.333   8.538 -0.6839  0.0353 -0.0261
 4462TIP3    H234946   6.271   3.401   8.402  1.8347 -1.6713 -0.8867
 4463TIP3   OH234947   3.940   3.798   7.583  0.0377  0.0548  0.1490
 4463TIP3    H134948   4.008   3.855   7.617  0.2403  0.4439 -0.8621
 4463TIP3    H234949   3.898   3.761   7.660  0.0202  1.4301  0.8268
 4464TIP3   OH234950   6.594   0.415   1.318  0.0624  0.4862  0.0598
 4464TIP3    H134951   6.605   0.503   1.354 -1.0892  0.7025 -0.0559
 4464TIP3    H234952   6.499   0.403   1.316  0.2081 -0.8531  0.3016
 4465TIP3   OH234953   4.734   5.006   7.257 -0.5964  0.0261  0.6734
 4465TIP3    H134954   4.829   5.016   7.267 -0.4390 -1.0602  0.4792
 4465TIP3    H234955   4.700   5.010   7.346 -0.9675  4.9300  0.5610
 4466TIP3   OH234956   3.248   0.048   1.136 -0.2243  0.1206  0.0905
 4466TIP3    H134957   3.342   0.035   1.142 -0.5293 -3.4944 -0.6971
 4466TIP3    H234958   3.230   0.051   1.042 -0.9621 -0.2512  0.2117
 4467TIP3   OH234959   4.718   6.554   7.653 -0.0427 -0.1536 -0.1970
 4467TIP3    H134960   4.732   6.638   7.609 -1.0863 -0.7008 -1.6811
 4467TIP3    H234961   4.625   6.534   7.637  0.4139 -2.0501 -0.7908
 4468TIP3   OH234962   4.887   2.614   1.463  0.1107  0.8634 -0.3040
 4468TIP3    H134963   4.962   2.557   1.445 -1.3024 -1.4243  0.5613
 4468TIP3    H234964   4.907   2.652   1.549 -0.2474 -0.7546  0.5302
 4469TIP3   OH234965   4.718   5.913   6.752  0.1711  0.3843  0.2337
 4469TIP3    H134966   4.669   5.981   6.706  0.5561 -0.5946 -1.7348
 4469TIP3    H234967   4.684   5.915   6.842 -0.9155  2.0961 -0.1762
 4470TIP3   OH234968   3.074   2.182   7.850 -0.4364  0.0533  0.1408
 4470TIP3    H134969   2.980   2.173   7.840 -0.4772 -0.3529  0.8076
 4470TIP3    H234970   3.103   2.097   7.885  0.3224 -0.1930 -1.0202
 4471TIP3   OH234971   5.061   0.448   1.655  0.1403 -0.1378  0.0108
 4471TIP3    H134972   4.987   0.408   1.610 -0.4245 -0.6109  1.3031
 4471TIP3    H234973   5.072   0.533   1.612 -1.6091  0.2361  0.2172
 4472TIP3   OH234974   6.137   4.403   1.637  0.0379  0.3303  0.0159
 4472TIP3    H134975   6.221   4.424   1.677 -0.1833 -0.4524  0.9191
 4472TIP3    H234976   6.154   4.322   1.589  0.0236  0.6823 -0.6035
 4473TIP3   OH234977   6.032   1.931   0.054  0.0421  0.3830  0.8482
 4473TIP3    H134978   6.009   2.015   0.094  0.0195 -0.1018  1.8767
 4473TIP3    H234979   5.949   1.886   0.043 -0.0260  0.7566 -0.3606
 4474TIP3   OH234980   4.916   6.819   7.849  0.3333 -0.3769 -0.5129
 4474TIP3    H134981   4.985   6.753   7.856  0.2845 -0.5776 -1.7412
 4474TIP3    H234982   4.836   6.772   7.872  0.5266 -0.2635  0.4396
 4475TIP3   OH234983   5.060   4.008   8.290  0.2794  0.3578 -0.2176
 4475TIP3    H134984   4.974   3.965   8.296 -0.6211  1.7627 -2.0582
 4475TIP3    H234985   5.070   4.054   8.374 -2.4048  2.9642 -1.1615
 4476TIP3   OH234986   3.034   0.379   7.098 -0.0040  0.0314 -0.1385
 4476TIP3    H134987   3.064   0.470   7.090  0.2825 -0.0621 -0.1489
 4476TIP3    H234988   3.036   0.345   7.008  0.6977 -0.2344 -0.0282
 4477TIP3   OH234989   5.378   0.888   8.517 -0.3039 -0.4121 -0.5685
 4477TIP3    H134990   5.434   0.965   8.509 -0.0426 -0.7243 -1.9253
 4477TIP3    H234991   5.346   0.871   8.429 -1.5941 -0.9595 -0.0292
 4478TIP3   OH234992   4.726   4.254   8.232 -0.1437  0.0367 -0.8084
 4478TIP3    H134993   4.731   4.349   8.228 -2.6213  0.2527 -0.3641
 4478TIP3    H234994   4.635   4.234   8.212  0.0383 -2.1732  0.2762
 4479TIP3   OH234995   4.872   4.680   7.293 -0.1001 -0.5612  0.1039
 4479TIP3    H134996   4.860   4.616   7.223  1.5217  0.3095 -1.0326
 4479TIP3    H234997   4.967   4.682   7.308 -0.2224  0.7646  0.9013
 4480TIP3   OH234998   1.473   1.667   1.032  0.5128 -0.4539  0.2734
 4480TIP3    H134999   1.554   1.696   1.074  0.0703 -0.6081  1.2732
 4480TIP3    H235000   1.471   1.573   1.046  1.3965 -0.8633 -2.0007
 4481TIP3   OH235001   2.148   0.898   8.605 -0.5258 -0.1175  0.5413
 4481TIP3    H135002   2.200   0.943   8.671  1.6412 -3.1216  1.1051
 4481TIP3    H235003   2.209   0.880   8.534 -1.2250 -2.1233  0.3744
 4482TIP3   OH235004   1.009   4.290   0.843 -0.1593  0.5675  0.2608
 4482TIP3    H135005   1.045   4.228   0.906 -2.4334  0.2299  1.3416
 4482TIP3    H235006   0.973   4.235   0.773  1.0301  0.8724 -0.6068
 4483TIP3   OH235007   0.310   2.145   7.110 -0.3023 -0.1729  0.2486
 4483TIP3    H135008   0.386   2.087   7.104 -0.1495 -0.0548  0.8995
 4483TIP3    H235009   0.235   2.086   7.117 -0.1952 -0.2926  0.3941
 4484TIP3   OH235010   0.245   1.818   8.642 -0.0046  0.2866  0.2514
 4484TIP3    H135011   0.334   1.823   8.608 -0.5045  0.3455 -1.1433
 4484TIP3    H235012   0.253   1.777   8.728  1.3086 -0.2330 -0.1018
 4485TIP3   OH235013   1.990   2.420   7.356  0.7865 -0.7510 -0.2994
 4485TIP3    H135014   2.039   2.339   7.370 -0.8295 -2.1828 -2.2524
 4485TIP3    H235015   1.908   2.392   7.315  0.5042  1.9356 -1.8339
 4486TIP3   OH235016   1.503   2.091   8.349 -0.9538  0.2818 -0.2468
 4486TIP3    H135017   1.581   2.118   8.300 -1.0636 -0.5707 -0.9160
 4486TIP3    H235018   1.520   2.000   8.374 -2.4884 -0.5792 -2.0596
 4487TIP3   OH235019   0.966   0.358   1.165 -0.4932 -0.4211  0.5534
 4487TIP3    H135020   0.878   0.353   1.128 -0.9535 -0.1932  1.5743
 4487TIP3    H235021   0.992   0.449   1.151  0.1069 -0.7913 -0.8750
 4488TIP3   OH235022   5.931   1.988   1.842  0.2018  0.0508 -0.1523
 4488TIP3    H135023   5.905   1.991   1.934 -0.2731 -1.4374 -0.2155
 4488TIP3    H235024   5.979   2.070   1.829 -0.1999  0.5529  1.2645
 4489TIP3   OH235025   3.312   6.852   2.450 -0.3553  0.0911 -0.3622
 4489TIP3    H135026   3.220   6.832   2.437 -0.4004  0.6213 -0.8976
 4489TIP3    H235027   3.312   6.922   2.516 -0.4106  0.8808 -1.1792
 4490TIP3   OH235028   5.888   0.311   1.218 -0.3865  0.6798  0.2883
 4490TIP3    H135029   5.884   0.280   1.309 -0.0162  0.7287  0.3248
 4490TIP3    H235030   5.906   0.232   1.167 -2.1592  0.3782  0.0737
 4491TIP3   OH235031   2.449   0.079   6.695 -0.2495 -0.0548 -0.0604
 4491TIP3    H135032   2.366   0.033   6.701  0.7737 -1.9179  0.8850
 4491TIP3    H235033   2.427   0.171   6.706 -2.3395 -0.3164 -1.5388
 4492TIP3   OH235034   3.576   2.046   0.014  0.3229  0.3671  0.2781
 4492TIP3    H135035   3.486   2.029   0.042  1.1478 -0.8482  2.4334
 4492TIP3    H235036   3.588   2.140   0.026 -0.8249  0.6565 -0.6633
 4493TIP3   OH235037   1.519   0.418   1.120  0.4166 -0.1632  0.1091
 4493TIP3    H135038   1.507   0.323   1.108 -0.0224  0.0632 -1.5149
 4493TIP3    H235039   1.597   0.426   1.174  1.1862 -1.4430 -0.7552
 4494TIP3   OH235040   0.009   6.242   6.473  0.6216 -0.4054 -0.4996
 4494TIP3    H135041   0.041   6.311   6.415 -1.6956 -1.2648 -3.0052
 4494TIP3    H235042   0.087   6.193   6.497  1.9769  1.4734 -0.8521
 4495TIP3   OH235043   1.984   5.021   0.331  0.3389 -0.3510  0.3448
 4495TIP3    H135044   2.074   5.029   0.362  0.0027  1.2340  1.0152
 4495TIP3    H235045   1.936   4.983   0.404  0.6913 -2.5619 -0.5132
 4496TIP3   OH235046   1.483   3.812   8.434  0.5111 -0.1094  0.0970
 4496TIP3    H135047   1.431   3.784   8.359 -0.2711 -1.5304  1.1113
 4496TIP3    H235048   1.494   3.733   8.487  1.7730  0.6597  1.0666
 4497TIP3   OH235049   4.164   0.889   8.058  0.2702 -0.2819 -0.6375
 4497TIP3    H135050   4.176   0.805   8.103 -0.4115 -0.1401 -0.1647
 4497TIP3    H235051   4.190   0.954   8.123  1.1858 -0.1306 -1.1429
 4498TIP3   OH235052   2.937   1.472   8.249 -0.1051 -0.5590  0.8993
 4498TIP3    H135053   2.867   1.495   8.310  0.1286  0.0677  0.9372
 4498TIP3    H235054   3.015   1.463   8.304 -0.2433 -1.7293  0.9221
 4499TIP3   OH235055   2.561   3.485   1.854 -0.0706 -0.5179 -0.5005
 4499TIP3    H135056   2.615   3.500   1.931 -0.1731 -1.2119 -0.2884
 4499TIP3    H235057   2.624   3.465   1.784 -0.0506 -2.2294 -0.0506
 4500TIP3   OH235058   4.941   5.826   7.990 -0.3310 -0.5314  0.6092
 4500TIP3    H135059   4.868   5.819   8.053  0.3940  0.2846  1.5769
 4500TIP3    H235060   4.921   5.905   7.940  0.9904  1.0593  2.4305
 4501TIP3   OH235061   0.095   4.562   0.142  0.5018  0.8152 -0.4284
 4501TIP3    H135062   0.067   4.618   0.215  1.5146  0.0767  0.5718
 4501TIP3    H235063   0.178   4.598   0.114  1.0192  0.0192  0.0295
 4502TIP3   OH235064   6.241   5.673   1.268 -0.1523 -0.4551 -0.3881
 4502TIP3    H135065   6.196   5.629   1.196  0.1514  0.0502 -0.8955
 4502TIP3    H235066   6.202   5.760   1.272 -2.6432 -1.5261  2.3291
 4503TIP3   OH235067   4.664   0.062   7.384 -0.1619 -0.2751  0.0004
 4503TIP3    H135068   4.720   0.030   7.455 -0.4916 -0.7074  0.0711
 4503TIP3    H235069   4.575   0.046   7.415 -0.3061 -0.6896 -0.6083
 4504TIP3   OH235070   1.652   4.135   7.968 -0.4120  0.1040 -0.2844
 4504TIP3    H135071   1.626   4.091   7.887 -0.9684  0.6806 -0.4256
 4504TIP3    H235072   1.590   4.102   8.033  0.8487 -1.3782  0.2308
 4505TIP3   OH235073   5.924   4.909   8.491 -0.2616  0.0672  0.4570
 4505TIP3    H135074   5.889   4.838   8.437  1.4479  1.2597 -2.4566
 4505TIP3    H235075   6.012   4.880   8.515 -0.1752  0.5168  0.7046
 4506TIP3   OH235076   0.222   0.922   0.206 -0.1617  0.0954 -0.3127
 4506TIP3    H135077   0.296   0.963   0.162  0.6676  0.3839  1.2670
 4506TIP3    H235078   0.193   0.853   0.146  0.4794  0.8889 -1.5777
 4507TIP3   OH235079   2.541   3.757   7.541 -0.2358 -0.8134 -0.1893
 4507TIP3    H135080   2.487   3.702   7.598 -0.3469 -1.3015 -0.7555
 4507TIP3    H235081   2.629   3.722   7.548  0.5561  1.3542  2.4934
 4508TIP3   OH235082   1.740   1.046   8.152  0.1829  0.2854  0.0212
 4508TIP3    H135083   1.768   0.959   8.121 -0.0340 -0.2883  1.3691
 4508TIP3    H235084   1.766   1.048   8.244 -0.8082  1.2281  0.3019
 4509TIP3   OH235085   4.648   3.935   1.844  0.4366 -0.1396  0.3816
 4509TIP3    H135086   4.660   3.841   1.834  1.9336  0.2693 -3.0982
 4509TIP3    H235087   4.595   3.962   1.769 -1.1020  1.6883  1.9987
 4510TIP3   OH235088   5.440   6.453   7.172 -0.1301  0.1585 -0.6678
 4510TIP3    H135089   5.398   6.476   7.254 -1.2965  0.1775 -1.2450
 4510TIP3    H235090   5.494   6.377   7.192  0.8057  1.0765  0.4299
 4511TIP3   OH235091   4.247   2.261   0.481  0.2484 -0.0402  0.5074
 4511TIP3    H135092   4.343   2.263   0.478  0.2958  0.7881  1.7986
 4511TIP3    H235093   4.226   2.180   0.527  0.2612 -0.8345 -0.8243
 4512TIP3   OH235094   1.582   1.022   0.584 -0.2991 -0.5033  0.2261
 4512TIP3    H135095   1.574   0.949   0.522  0.9940 -1.2906  0.9338
 4512TIP3    H235096   1.655   0.997   0.641 -0.3612  0.9800  1.0078
 4513TIP3   OH235097   0.849   0.385   1.730 -0.1044  0.1007  0.4243
 4513TIP3    H135098   0.926   0.362   1.782 -0.0332 -1.3261 -0.2535
 4513TIP3    H235099   0.884   0.414   1.646 -0.2791 -0.4946  0.1353
 4514TIP3   OH235100   5.501   5.012   0.364 -0.8056  0.2737 -0.2664
 4514TIP3    H135101   5.576   5.001   0.422  0.4669  1.4967 -1.5815
 4514TIP3    H235102   5.425   5.006   0.421  0.4122  2.9391  1.8530
 4515TIP3   OH235103   0.268   4.055   6.681 -0.1320 -1.1373 -0.0972
 4515TIP3    H135104   0.230   4.039   6.768 -0.2390  0.4161  0.1649
 4515TIP3    H235105   0.351   4.008   6.683  0.4567 -0.0913  1.3223
 4516TIP3   OH235106   3.690   1.460   2.367  0.2721  0.7842 -0.5031
 4516TIP3    H135107   3.692   1.517   2.290  0.9534  2.4861  0.7035
 4516TIP3    H235108   3.651   1.378   2.336  0.2567  1.5229 -2.5657
 4517TIP3   OH235109   2.599   5.342   0.250 -0.3834 -0.4667  0.4865
 4517TIP3    H135110   2.633   5.254   0.239 -0.3836 -0.5433  1.0717
 4517TIP3    H235111   2.506   5.329   0.267 -0.6424 -0.2817 -0.6849
 4518TIP3   OH235112   5.820   2.247   2.203  0.7257 -0.2333 -0.2988
 4518TIP3    H135113   5.862   2.221   2.285  1.2602 -0.6835 -0.7105
 4518TIP3    H235114   5.797   2.339   2.216 -0.1152 -0.5695  0.7348
 4519TIP3   OH235115   2.228   3.620   0.785 -0.4368  0.0879 -0.5590
 4519TIP3    H135116   2.248   3.539   0.739  1.8785  0.5745 -0.5206
 4519TIP3    H235117   2.142   3.606   0.823 -0.3591 -2.0932 -1.0983
 4520TIP3   OH235118   5.626   5.323   7.475  0.2425  0.3294 -0.3739
 4520TIP3    H135119   5.553   5.376   7.507  1.5544  1.6397  0.5971
 4520TIP3    H235120   5.662   5.374   7.402  0.8840  0.2659 -0.1045
 4521TIP3   OH235121   3.055   5.715   1.588  0.1974 -0.5338  0.1779
 4521TIP3    H135122   3.055   5.663   1.508  0.9707  0.3653 -0.4136
 4521TIP3    H235123   2.965   5.708   1.621 -0.2225 -0.6022 -0.9576
 4522TIP3   OH235124   5.938   1.470   6.994 -0.8119  0.5313 -0.3460
 4522TIP3    H135125   6.027   1.503   6.983  0.3518 -2.4732 -1.0362
 4522TIP3    H235126   5.897   1.483   6.909  0.2540 -1.2857 -1.2081
 4523TIP3   OH235127   0.861   1.230   1.721 -0.4586 -0.3889  0.0547
 4523TIP3    H135128   0.795   1.165   1.745 -0.5295 -0.1218  0.5848
 4523TIP3    H235129   0.936   1.210   1.776 -0.6747  0.3212  0.6171
 4524TIP3   OH235130   5.932   0.950   1.809 -0.0685  0.1241  0.4550
 4524TIP3    H135131   5.863   0.887   1.832  1.6803 -2.5344 -0.9512
 4524TIP3    H235132   6.009   0.918   1.855  1.1547  0.5304 -1.2355
 4525TIP3   OH235133   4.156   0.210   0.254  0.3012 -0.2706  0.4995
 4525TIP3    H135134   4.087   0.239   0.194  0.5114 -0.6773  0.0569
 4525TIP3    H235135   4.148   0.268   0.330  1.8319  2.1836 -1.0810
 4526TIP3   OH235136   1.847   3.122   0.711  0.1755 -0.0076  0.2770
 4526TIP3    H135137   1.767   3.171   0.693  0.2142 -0.6125 -1.7796
 4526TIP3    H235138   1.817   3.037   0.742 -0.0791 -0.6226 -1.5096
 4527TIP3   OH235139   1.182   6.359   7.336  0.6095 -0.0425  0.3154
 4527TIP3    H135140   1.249   6.308   7.381 -1.8255 -2.1507  1.8321
 4527TIP3    H235141   1.140   6.297   7.277 -0.8332  0.8570  0.3424
 4528TIP3   OH235142   6.734   6.017   1.583  0.1634 -0.0715  0.0405
 4528TIP3    H135143   6.808   6.073   1.559 -0.2638  0.2426 -0.6116
 4528TIP3    H235144   6.657   6.066   1.552 -0.3292 -0.2876  0.8935
 4529TIP3   OH235145   0.935   2.423   1.410  0.0827  0.4397  0.2090
 4529TIP3    H135146   0.918   2.464   1.324 -1.7294  1.3041  0.9257
 4529TIP3    H235147   0.937   2.329   1.392  0.8573  0.6571 -0.9464
 4530TIP3   OH235148   3.479   3.798   8.464  0.3894  0.4539 -0.6670
 4530TIP3    H135149   3.428   3.857   8.520  0.1671  1.4111 -1.8434
 4530TIP3    H235150   3.484   3.716   8.514 -0.7045  0.9390  0.2789
 4531TIP3   OH235151   2.921   0.758   0.852 -0.8792 -0.0169  0.2077
 4531TIP3    H135152   2.946   0.809   0.929  1.3736 -0.7835  0.0372
 4531TIP3    H235153   2.989   0.777   0.788  0.3936 -3.5624  0.3091
 4532TIP3   OH235154   0.926   4.562   0.842 -0.5050  0.2915  0.4191
 4532TIP3    H135155   0.849   4.518   0.806 -0.3438  0.1558  0.2378
 4532TIP3    H235156   0.994   4.494   0.843 -0.7853 -0.0226  1.9708
 4533TIP3   OH235157   5.440   4.851   1.341 -0.4108 -0.1806  0.1867
 4533TIP3    H135158   5.487   4.898   1.411  1.4427  0.4471 -1.3930
 4533TIP3    H235159   5.472   4.761   1.348  0.6593  0.1190 -0.5053
 4534TIP3   OH235160   6.614   4.288   7.476 -0.0567  0.1678  0.5183
 4534TIP3    H135161   6.663   4.357   7.430 -0.4617 -0.4940 -0.9614
 4534TIP3    H235162   6.532   4.330   7.502  0.0290  0.4622  0.3176
 4535TIP3   OH235163   5.338   2.754   0.372  0.0522  0.0330  0.1804
 4535TIP3    H135164   5.392   2.832   0.355 -1.8000  1.2349 -0.4534
 4535TIP3    H235165   5.264   2.763   0.312 -2.2236 -0.1806  2.8025
 4536TIP3   OH235166   5.985   1.527   1.627 -0.0692  0.6405 -0.2549
 4536TIP3    H135167   6.037   1.461   1.673  1.4093  2.2549  0.5178
 4536TIP3    H235168   6.044   1.562   1.560 -1.1902  0.4559 -1.3827
 4537TIP3   OH235169   5.277   2.328   6.358  0.8077 -0.2086 -0.4127
 4537TIP3    H135170   5.191   2.361   6.332  0.2967  0.3845  1.8536
 4537TIP3    H235171   5.258   2.265   6.428  2.1053 -1.7555 -1.3950
 4538TIP3   OH235172   4.995   4.115   7.903  0.6955 -0.0350  0.0234
 4538TIP3    H135173   5.082   4.115   7.944 -0.1289 -0.6077  1.8783
 4538TIP3    H235174   4.946   4.049   7.952 -0.7279  0.1190 -1.1509
 4539TIP3   OH235175   3.351   4.115   1.854 -0.2057  0.5831 -0.2913
 4539TIP3    H135176   3.390   4.027   1.852  1.4627  1.2998 -1.5700
 4539TIP3    H235177   3.283   4.112   1.786 -0.0654  0.3226 -0.4220
 4540TIP3   OH235178   2.425   0.236   7.492  0.0820  0.2832  0.2016
 4540TIP3    H135179   2.386   0.287   7.420 -0.5030 -1.9051 -1.1216
 4540TIP3    H235180   2.390   0.277   7.571 -1.3383  1.1667 -0.8250
 4541TIP3   OH235181   4.213   2.465   7.143  0.7231 -0.1827  0.6096
 4541TIP3    H135182   4.119   2.478   7.131  0.6024 -1.8802 -0.6396
 4541TIP3    H235183   4.253   2.520   7.076  0.4688 -1.4903 -0.6673
 4542TIP3   OH235184   3.863   1.815   2.016 -0.8138  0.0412  0.4403
 4542TIP3    H135185   3.876   1.845   1.926 -3.6924 -1.6049 -0.6379
 4542TIP3    H235186   3.942   1.765   2.036 -0.3139  0.0617 -1.3158
 4543TIP3   OH235187   4.908   0.456   0.201  0.7967 -0.0409  0.3018
 4543TIP3    H135188   4.873   0.427   0.116 -1.0586 -1.3631  1.4487
 4543TIP3    H235189   4.834   0.495   0.245  1.5705  0.0024  1.6021
 4544TIP3   OH235190   0.119   0.877   7.370  0.0255 -0.1865 -0.5628
 4544TIP3    H135191   0.095   0.970   7.365 -1.0499 -0.4119  0.1221
 4544TIP3    H235192   0.055   0.833   7.314 -0.7469 -0.7228  0.7201
 4545TIP3   OH235193   0.769   5.206   0.513 -0.1185 -0.2195 -1.0849
 4545TIP3    H135194   0.739   5.250   0.592  0.8746 -0.9964 -0.2342
 4545TIP3    H235195   0.746   5.114   0.526  1.0734 -0.5516 -1.1556
 4546TIP3   OH235196   3.349   2.169   1.476  0.6301  0.1233 -0.1063
 4546TIP3    H135197   3.339   2.187   1.570  1.4801 -0.1624  0.0473
 4546TIP3    H235198   3.376   2.253   1.439 -0.5564  0.4555 -0.2427
 4547TIP3   OH235199   2.718   3.684   1.431  0.5235 -0.1730 -0.5571
 4547TIP3    H135200   2.725   3.774   1.400 -1.1546 -0.0377 -0.6530
 4547TIP3    H235201   2.762   3.632   1.364 -0.7478  0.3742 -1.8828
 4548TIP3   OH235202   2.137   2.632   7.132 -0.0180  0.2865 -0.1271
 4548TIP3    H135203   2.058   2.613   7.082  0.3306 -0.8471 -0.2820
 4548TIP3    H235204   2.208   2.631   7.067  0.2659  0.1534  0.1782
 4549TIP3   OH235205   6.673   0.882   2.421  0.1503 -0.5106  0.3670
 4549TIP3    H135206   6.685   0.815   2.489  0.8759 -1.6665 -0.8556
 4549TIP3    H235207   6.578   0.885   2.408  0.1622 -2.4987 -0.6490
 4550TIP3   OH235208   6.208   5.239   7.812 -0.1820  0.2687 -0.1461
 4550TIP3    H135209   6.206   5.230   7.717  1.7036  1.7680 -0.3830
 4550TIP3    H235210   6.134   5.298   7.831 -0.6225 -0.1054 -0.6570
 4551TIP3   OH235211   3.303   0.440   0.851 -0.7826  0.8531  0.2980
 4551TIP3    H135212   3.308   0.535   0.846 -0.5563  0.9106  1.3665
 4551TIP3    H235213   3.266   0.422   0.937 -0.1074 -0.0407  0.4194
 4552TIP3   OH235214   6.472   1.040   0.949 -0.1259  0.1479 -0.1492
 4552TIP3    H135215   6.442   0.965   0.898 -0.9213  0.3374  0.0335
 4552TIP3    H235216   6.398   1.100   0.950  0.7750  1.3185 -0.9873
 4553TIP3   OH235217   2.000   0.007   7.424 -0.0123 -0.2293 -0.4792
 4553TIP3    H135218   2.077  -0.002   7.480 -1.0000  0.4988  1.0555
 4553TIP3    H235219   2.009  -0.064   7.359  1.3594 -0.8517  0.3475
 4554TIP3   OH235220   1.015   2.640   1.634  0.3680  0.4790  0.4777
 4554TIP3    H135221   0.953   2.623   1.564  1.1992  1.4921 -0.5413
 4554TIP3    H235222   0.983   2.720   1.676 -0.1483 -0.1446  1.3059
 4555TIP3   OH235223   2.849   1.127   1.720  0.1752  0.8341 -0.4442
 4555TIP3    H135224   2.879   1.215   1.698  2.8544  0.2102  0.4278
 4555TIP3    H235225   2.898   1.069   1.661  2.5146 -0.3767  2.4566
 4556TIP3   OH235226   4.561   4.311   0.638 -0.0283  0.6631  0.4760
 4556TIP3    H135227   4.466   4.307   0.648  0.0687 -0.3577  1.2228
 4556TIP3    H235228   4.582   4.236   0.582  0.4745 -0.1636  1.7264
 4557TIP3   OH235229   4.641   0.138   2.531  0.2847  0.8841 -0.3445
 4557TIP3    H135230   4.561   0.150   2.480 -0.1406  0.3070  0.1770
 4557TIP3    H235231   4.632   0.051   2.570  1.2376  0.7534 -0.4025
 4558TIP3   OH235232   5.120   3.400   1.637  0.2339 -0.1859  0.5182
 4558TIP3    H135233   5.180   3.468   1.667 -1.5522  0.7307  2.2479
 4558TIP3    H235234   5.099   3.349   1.715 -1.6475 -0.1136  0.1066
 4559TIP3   OH235235   6.014   2.712   0.038 -0.3820 -0.3086  0.3233
 4559TIP3    H135236   6.024   2.718   0.133  1.1898 -0.1925  0.1654
 4559TIP3    H235237   5.971   2.795   0.014  0.2931  0.1941  0.8074
 4560TIP3   OH235238   5.599   2.393   8.195  0.6063  0.2044 -0.3729
 4560TIP3    H135239   5.611   2.391   8.100 -1.0878  0.1530 -0.6172
 4560TIP3    H235240   5.513   2.353   8.209 -0.3230  2.4549  0.9635
 4561TIP3   OH235241   6.231   6.370   6.646 -0.1285 -0.4166  0.0260
 4561TIP3    H135242   6.273   6.400   6.565  0.2389 -3.1199 -0.8869
 4561TIP3    H235243   6.161   6.312   6.616 -0.9782 -0.2565  1.6454
 4562TIP3   OH235244   2.310   0.436   1.730 -0.4573  0.3964 -0.2748
 4562TIP3    H135245   2.398   0.425   1.765 -0.4566 -0.7233 -0.6030
 4562TIP3    H235246   2.265   0.492   1.794 -0.4379 -1.4974  1.4949
 4563TIP3   OH235247   5.503   5.386   7.177  0.7907  0.0511 -0.0351
 4563TIP3    H135248   5.572   5.447   7.203  0.4153 -0.1183  1.4807
 4563TIP3    H235249   5.431   5.405   7.238 -0.3630 -0.0319 -1.3285
 4564TIP3   OH235250   5.667   3.174   8.159  0.3407  0.2879  0.5135
 4564TIP3    H135251   5.706   3.102   8.109 -0.1344 -0.0775  0.6708
 4564TIP3    H235252   5.678   3.250   8.103  1.1178  0.1606  0.4687
 4565TIP3   OH235253   1.682   4.020   7.702  0.1327 -0.0404 -0.6874
 4565TIP3    H135254   1.599   3.974   7.713 -0.1289  0.6601  0.4456
 4565TIP3    H235255   1.663   4.087   7.636 -0.2920  0.3052 -0.2227
 4566TIP3   OH235256   5.224   5.388   8.521 -0.5217 -0.3217  0.1730
 4566TIP3    H135257   5.191   5.300   8.539 -1.3129  0.0637  0.6737
 4566TIP3    H235258   5.145   5.443   8.518  0.0606  0.6027  1.1807
 4567TIP3   OH235259   2.000   1.026   1.362  0.0669 -0.0472  0.5657
 4567TIP3    H135260   1.952   1.096   1.318 -1.2631 -0.9178  0.5708
 4567TIP3    H235261   2.001   0.954   1.299 -1.6650 -1.2317  1.7821
 4568TIP3   OH235262   2.183   2.602   6.657 -0.3493  0.0255 -0.7234
 4568TIP3    H135263   2.222   2.686   6.684 -0.3911  0.0193 -0.6455
 4568TIP3    H235264   2.090   2.611   6.677 -0.0846 -0.7277  1.0346
 4569TIP3   OH235265   6.774   4.645   0.314 -0.3728  0.0513  0.0077
 4569TIP3    H135266   6.698   4.644   0.372 -1.0343  2.5677 -0.6791
 4569TIP3    H235267   6.761   4.570   0.256 -2.5381  0.5707 -0.2721
 4570TIP3   OH235268   2.878   4.981   7.550  0.4540 -0.6732  0.1046
 4570TIP3    H135269   2.845   5.030   7.626  1.0750 -1.0595  0.6271
 4570TIP3    H235270   2.909   5.048   7.490  0.0007 -0.3667  0.2044
 4571TIP3   OH235271   4.732   6.620   2.471 -0.2781 -0.4592  0.1340
 4571TIP3    H135272   4.652   6.570   2.482 -0.7902  0.4486  0.6614
 4571TIP3    H235273   4.797   6.556   2.443 -2.2089 -0.6444 -5.1400
 4572TIP3   OH235274   1.647   4.000   6.833 -1.0058 -0.0326  0.0646
 4572TIP3    H135275   1.598   3.919   6.844 -2.6172  0.8492 -0.3514
 4572TIP3    H235276   1.688   4.016   6.919  0.3913 -1.9083 -0.2040
 4573TIP3   OH235277   5.576   1.159   1.134  0.2153 -0.3130  0.6084
 4573TIP3    H135278   5.578   1.115   1.049 -1.3282  1.8722 -0.6700
 4573TIP3    H235279   5.664   1.193   1.146  0.9454 -2.1650  0.7958
 4574TIP3   OH235280   3.657   0.786   0.821 -0.6008 -0.0663  0.1140
 4574TIP3    H135281   3.682   0.856   0.760 -0.2270 -1.3542 -1.2703
 4574TIP3    H235282   3.689   0.816   0.906 -0.8064  1.6189 -0.3614
 4575TIP3   OH235283   4.624   3.061   7.156 -0.2038 -0.0086 -0.1768
 4575TIP3    H135284   4.622   3.034   7.064  2.5904 -1.4368  0.0835
 4575TIP3    H235285   4.667   2.988   7.201 -1.6256  0.5872  2.3383
 4576TIP3   OH235286   2.146   5.475   2.552  0.2386 -0.0696 -0.0966
 4576TIP3    H135287   2.093   5.535   2.500 -0.6854  2.1379  3.1289
 4576TIP3    H235288   2.224   5.525   2.575 -0.1014 -0.3790  1.8946
 4577TIP3   OH235289   6.681   0.074   1.001  0.2188 -0.6430 -0.3065
 4577TIP3    H135290   6.696  -0.021   1.010  2.0294 -0.3910 -0.2893
 4577TIP3    H235291   6.586   0.082   0.991 -0.1960 -2.3157  1.5243
 4578TIP3   OH235292   0.517   5.191   1.677  0.2336  0.1560 -0.3527
 4578TIP3    H135293   0.456   5.122   1.652  1.7738 -0.4532 -2.8320
 4578TIP3    H235294   0.576   5.150   1.740 -0.2546 -0.0746 -0.0415
 4579TIP3   OH235295   0.013   5.584   7.487 -0.1285  0.7056  0.2190
 4579TIP3    H135296  -0.046   5.584   7.412 -0.4007 -1.7647  0.3388
 4579TIP3    H235297   0.096   5.552   7.452 -0.1238 -0.0112  0.8598
 4580TIP3   OH235298   3.004   6.819   1.202  0.5157 -0.0656 -1.1508
 4580TIP3    H135299   3.086   6.861   1.179  1.3281  0.0267  1.6552
 4580TIP3    H235300   3.029   6.736   1.243 -0.4974  1.2422  2.4893
 4581TIP3   OH235301   0.543   6.861   8.048 -0.3055  0.6735  0.1667
 4581TIP3    H135302   0.481   6.927   8.080  0.6957  1.1186  1.2565
 4581TIP3    H235303   0.491   6.805   7.991 -1.5659  1.4077  0.5623
 4582TIP3   OH235304   5.348   5.176   1.575 -0.2503 -0.2648 -0.2217
 4582TIP3    H135305   5.350   5.183   1.671 -0.6516  0.6800 -0.2799
 4582TIP3    H235306   5.327   5.084   1.559 -2.5697  0.0632  0.6190
 4583TIP3   OH235307   5.124   1.619   7.186 -0.5772 -0.2327  0.1547
 4583TIP3    H135308   5.167   1.572   7.114 -1.2905 -0.6431 -0.0101
 4583TIP3    H235309   5.159   1.578   7.265  0.5107  0.4837  0.0644
 4584TIP3   OH235310   6.781   6.106   1.119 -0.5171 -0.2493 -0.3476
 4584TIP3    H135311   6.843   6.090   1.191 -1.8844 -0.5701  0.8110
 4584TIP3    H235312   6.753   6.019   1.092  0.1860 -0.1396 -1.4804
 4585TIP3   OH235313   5.790   5.073   0.810 -0.0910  0.3225  0.4805
 4585TIP3    H135314   5.841   5.132   0.755 -0.8527 -0.1197 -0.7452
 4585TIP3    H235315   5.745   5.130   0.872 -0.4394  0.9846 -0.3726
 4586TIP3   OH235316   2.936   4.769   7.336 -0.2253 -0.3077 -0.1577
 4586TIP3    H135317   2.938   4.824   7.258 -0.0143  1.4621  1.0247
 4586TIP3    H235318   2.844   4.769   7.363 -0.1503 -0.1605  0.0985
 4587TIP3   OH235319   2.679   4.834   7.442  0.6177  0.3413  0.2448
 4587TIP3    H135320   2.741   4.898   7.476  1.6325 -0.8134  0.6320
 4587TIP3    H235321   2.615   4.886   7.393  2.0284  1.5524 -0.3861
 4588TIP3   OH235322   1.230   3.364   0.525  0.6139 -0.1499 -0.4417
 4588TIP3    H135323   1.148   3.335   0.564  0.7372  0.6416  0.4467
 4588TIP3    H235324   1.233   3.322   0.439 -0.1661 -1.0968 -0.0154
 4589TIP3   OH235325   2.730   6.160   6.850  0.0746 -0.7874  0.1306
 4589TIP3    H135326   2.704   6.199   6.767 -0.7641  0.1074  0.7895
 4589TIP3    H235327   2.811   6.113   6.830 -0.4000 -1.0546 -1.3052
 4590TIP3   OH235328   2.344   5.544   2.297 -0.1041 -0.2790 -0.2232
 4590TIP3    H135329   2.331   5.624   2.347  0.0261  0.2969 -1.0759
 4590TIP3    H235330   2.381   5.481   2.359 -2.0176 -0.3166  0.9647
 4591TIP3   OH235331   4.538   3.662   0.427  0.0579 -0.4807 -0.0987
 4591TIP3    H135332   4.496   3.743   0.397 -0.0786  0.0067  1.3368
 4591TIP3    H235333   4.627   3.667   0.392  0.5030  1.0105  1.1186
 4592TIP3   OH235334   5.725   5.915   6.705  0.2116 -0.1430  0.1985
 4592TIP3    H135335   5.647   5.961   6.673 -0.9920 -2.3688 -0.2711
 4592TIP3    H235336   5.798   5.971   6.678 -0.9505 -0.0052 -3.1994
 4593TIP3   OH235337   1.131   1.734   2.110  0.0459 -0.0296  0.3887
 4593TIP3    H135338   1.097   1.760   2.196  2.7081  0.9388  1.2198
 4593TIP3    H235339   1.106   1.806   2.052  1.3481  1.0944  1.1725
 4594TIP3   OH235340   2.380   6.715   1.761 -1.1684 -0.5666 -0.5649
 4594TIP3    H135341   2.307   6.728   1.821 -0.2184  0.4297  0.4201
 4594TIP3    H235342   2.405   6.804   1.735  1.3878 -0.6707  1.2309
 4595TIP3   OH235343   4.427   4.081   7.871 -0.2410  0.0664  0.1978
 4595TIP3    H135344   4.419   4.175   7.855 -0.5356  0.1428  0.7804
 4595TIP3    H235345   4.478   4.048   7.797 -1.4149  0.4441 -0.8131
 4596TIP3   OH235346   0.277   1.070   8.396  0.2223 -0.3594  0.5603
 4596TIP3    H135347   0.273   1.117   8.313 -1.2309 -3.3160 -1.2150
 4596TIP3    H235348   0.368   1.080   8.425  1.0095  0.0387 -1.8251
 4597TIP3   OH235349   3.148   6.666   0.410  0.3447  0.7448 -0.3506
 4597TIP3    H135350   3.126   6.758   0.400  0.3866  0.7278 -0.5962
 4597TIP3    H235351   3.140   6.629   0.322  1.5044  0.7710 -0.4903
 4598TIP3   OH235352   5.063   0.587   0.708  0.2331  0.1360  0.0192
 4598TIP3    H135353   5.107   0.669   0.730  0.1338  0.3774 -0.6648
 4598TIP3    H235354   5.008   0.568   0.785 -0.1998  1.0291 -0.0622
 4599TIP3   OH235355   2.651   3.414   7.032  0.6514 -0.5962 -0.3478
 4599TIP3    H135356   2.615   3.451   6.951  0.6719  1.1984  0.4187
 4599TIP3    H235357   2.689   3.330   7.005  0.3477 -0.2083 -2.1204
 4600TIP3   OH235358   3.300   3.839   7.396  0.3217 -0.0806  0.4650
 4600TIP3    H135359   3.366   3.903   7.370  1.0340 -0.9401  0.0713
 4600TIP3    H235360   3.314   3.765   7.336  0.0943 -0.9474  1.4465
 4601TIP3   OH235361   6.768   3.011   7.719 -0.1442  0.4397 -0.4238
 4601TIP3    H135362   6.760   3.027   7.813  1.0289  0.7215 -0.3582
 4601TIP3    H235363   6.759   2.916   7.711  2.7721 -0.0122  0.3738
 4602TIP3   OH235364   1.589   6.083   6.408  0.3857  0.6454 -0.0139
 4602TIP3    H135365   1.640   6.041   6.339  0.0850  0.4760 -0.1373
 4602TIP3    H235366   1.537   6.149   6.363 -1.0935 -0.6007 -0.2386
 4603TIP3   OH235367   3.095   3.631   0.404 -0.2026  0.1157  0.3371
 4603TIP3    H135368   3.166   3.678   0.361 -0.8602 -0.7804 -1.8486
 4603TIP3    H235369   3.015   3.662   0.361 -0.7866 -1.7140  0.0244
 4604TIP3   OH235370   1.425   1.696   7.680 -0.2408 -0.5555 -0.7560
 4604TIP3    H135371   1.344   1.646   7.689 -1.3128  1.4017  2.5155
 4604TIP3    H235372   1.408   1.757   7.608 -2.4210  0.8186  0.7841
 4605TIP3   OH235373   3.975   6.204   7.428  0.2121  0.6223 -0.2072
 4605TIP3    H135374   3.972   6.285   7.376  3.3495  2.1725  1.6922
 4605TIP3    H235375   4.068   6.181   7.430 -0.4541 -2.4068  0.3414
 4606TIP3   OH235376   0.448   0.430   7.667 -0.9190  0.6998  0.1859
 4606TIP3    H135377   0.504   0.492   7.621 -1.1408  0.9493  0.2451
 4606TIP3    H235378   0.375   0.483   7.699 -0.1351  0.8017  1.9376
 4607TIP3   OH235379   0.133   0.756   0.824 -0.4407  0.1570  0.0972
 4607TIP3    H135380   0.180   0.746   0.906 -0.4445  0.0061  0.0810
 4607TIP3    H235381   0.201   0.756   0.757 -0.5699 -2.2316 -0.1247
 4608TIP3   OH235382   6.237   4.601   8.237 -0.6733  0.2914 -0.8082
 4608TIP3    H135383   6.332   4.592   8.236 -0.7446 -0.6053 -0.3121
 4608TIP3    H235384   6.205   4.524   8.190 -1.2299 -0.8243  1.3049
 4609TIP3   OH235385   0.942   2.397   0.916  0.0747  0.0130  0.0061
 4609TIP3    H135386   0.868   2.409   0.856  1.5018  0.0392 -1.8629
 4609TIP3    H235387   0.922   2.317   0.964 -2.5368  1.5778  1.7845
 4610TIP3   OH235388   6.394   5.454   0.595 -0.8258 -0.4893 -0.2862
 4610TIP3    H135389   6.412   5.538   0.553 -1.4583  0.1179  0.6116
 4610TIP3    H235390   6.300   5.440   0.581 -0.8664 -0.6917  0.1814
 4611TIP3   OH235391   4.163   5.005   7.804 -0.3288  0.0682  0.4024
 4611TIP3    H135392   4.254   5.023   7.783 -0.3479  1.1951  1.2457
 4611TIP3    H235393   4.163   4.914   7.834  0.0734 -0.8165 -2.0109
 4612TIP3   OH235394   6.633   0.928   7.479 -0.1406 -0.1186 -0.2366
 4612TIP3    H135395   6.628   0.881   7.562  0.7969  0.1467 -0.0186
 4612TIP3    H235396   6.659   0.861   7.415 -1.5631 -0.4760 -0.4677
 4613TIP3   OH235397   0.561   1.141   0.338 -0.4058 -0.0220 -0.2647
 4613TIP3    H135398   0.469   1.161   0.355 -0.8153 -0.8718 -1.3855
 4613TIP3    H235399   0.602   1.140   0.425 -1.1976  1.4915  0.1563
 4614TIP3   OH235400   0.032   6.500   1.064  0.3930 -0.2251 -0.1837
 4614TIP3    H135401   0.079   6.531   1.141  0.5064 -0.9385  0.0380
 4614TIP3    H235402   0.090   6.435   1.025 -0.1876 -0.7557 -0.1834
 4615TIP3   OH235403   3.035   1.792   1.533  0.0207  0.5467 -0.5626
 4615TIP3    H135404   3.065   1.787   1.624  0.2580 -1.6347 -0.6942
 4615TIP3    H235405   3.056   1.881   1.506 -0.5175  1.4312  1.6566
 4616TIP3   OH235406   3.122   2.552   8.244 -0.5081 -0.5025  0.2050
 4616TIP3    H135407   3.037   2.557   8.289 -0.3417 -1.1667  0.6152
 4616TIP3    H235408   3.106   2.493   8.170 -1.2044  1.8485 -1.6459
 4617TIP3   OH235409   2.740   2.197   8.221  0.1274 -0.3095 -0.2638
 4617TIP3    H135410   2.716   2.284   8.190  3.5986  0.9864  0.1941
 4617TIP3    H235411   2.736   2.142   8.143 -0.6668  0.5886 -0.8836
 4618TIP3   OH235412   1.271   4.467   7.884  0.0269 -0.0916  0.0789
 4618TIP3    H135413   1.199   4.405   7.872  2.2457 -2.3789 -3.0009
 4618TIP3    H235414   1.313   4.439   7.965 -0.6272 -0.8619  0.1662
 4619TIP3   OH235415   2.146   4.348   6.802  0.2981  0.1628  0.3468
 4619TIP3    H135416   2.059   4.323   6.770 -0.7105  2.3038  1.2599
 4619TIP3    H235417   2.129   4.404   6.877  2.3867  2.2538 -0.6217
 4620TIP3   OH235418   4.476   4.345   7.802 -0.4980 -0.0409 -0.0467
 4620TIP3    H135419   4.557   4.389   7.830 -1.0632  1.1126 -0.1697
 4620TIP3    H235420   4.505   4.285   7.732  0.5804 -1.3194  1.4221
 4621TIP3   OH235421   0.288   0.184   6.419  0.2194  0.3164 -0.2513
 4621TIP3    H135422   0.197   0.156   6.410  0.6445 -0.6157 -2.2341
 4621TIP3    H235423   0.283   0.272   6.456 -1.4362 -0.0552  0.4876
 4622TIP3   OH235424   4.527   4.864   2.443 -0.4485  0.1364  0.3251
 4622TIP3    H135425   4.456   4.928   2.447  0.7604  1.4992  0.9863
 4622TIP3    H235426   4.592   4.896   2.505 -0.1660 -2.2604  1.3838
 4623TIP3   OH235427   3.965   2.808   8.324  0.3018  0.7004 -0.0652
 4623TIP3    H135428   4.052   2.798   8.286  1.7792  1.1913  2.8715
 4623TIP3    H235429   3.971   2.888   8.376 -2.1535  1.0949 -0.2607
 4624TIP3   OH235430   2.128   1.186   0.572 -0.1627  0.6311 -0.1836
 4624TIP3    H135431   2.113   1.093   0.591  0.2349  0.2012 -1.8539
 4624TIP3    H235432   2.117   1.194   0.478  0.9572  2.0642 -0.2322
 4625TIP3   OH235433   6.130   5.730   1.959 -0.4358 -0.1253 -0.2088
 4625TIP3    H135434   6.114   5.766   2.046  0.0669  1.8434 -0.8737
 4625TIP3    H235435   6.085   5.646   1.959 -1.7187  0.5002  1.4520
 4626TIP3   OH235436   0.999   3.394   1.472 -0.1117 -0.4495  0.1634
 4626TIP3    H135437   1.064   3.381   1.541  0.6255 -0.3899 -0.5133
 4626TIP3    H235438   0.944   3.316   1.476 -0.9011  0.1417  1.6822
 4627TIP3   OH235439   4.000   1.679   0.487  0.6329 -0.0207  0.1002
 4627TIP3    H135440   4.087   1.720   0.483 -0.0163  1.3173 -1.4088
 4627TIP3    H235441   3.974   1.669   0.395 -2.3182  3.1127  0.3766
 4628TIP3   OH235442   4.349   2.244   1.374 -0.0737 -0.0773  0.4374
 4628TIP3    H135443   4.323   2.254   1.466  0.0220  1.4735  0.3279
 4628TIP3    H235444   4.427   2.189   1.377  0.2023  0.3457  1.3434
 4629TIP3   OH235445   1.766   4.398   7.981  0.5642 -0.5077 -0.2458
 4629TIP3    H135446   1.702   4.418   7.913 -1.2353 -2.7721  0.6371
 4629TIP3    H235447   1.761   4.303   7.991  1.2298 -0.3467  2.5531
 4630TIP3   OH235448   0.331   5.403   7.504  0.1654 -0.1936  0.3353
 4630TIP3    H135449   0.408   5.424   7.450 -0.8062 -0.3307 -1.1660
 4630TIP3    H235450   0.352   5.438   7.590  2.3388 -1.1109  0.2465
 4631TIP3   OH235451   1.002   1.387   7.369  0.0334  0.5067  0.7506
 4631TIP3    H135452   1.011   1.302   7.325  2.4855  0.6590  0.8604
 4631TIP3    H235453   0.917   1.381   7.414  0.3540 -2.0983  1.1899
 4632TIP3   OH235454   5.652   2.608   7.601 -0.5864 -0.3455 -0.3220
 4632TIP3    H135455   5.599   2.533   7.630  0.2714 -0.5812  0.7352
 4632TIP3    H235456   5.717   2.618   7.670 -0.1425  0.8348 -0.8943
 4633TIP3   OH235457   4.397   0.106   0.351 -0.1086 -0.4759 -0.0377
 4633TIP3    H135458   4.397   0.011   0.363 -0.5281 -0.5783 -0.8365
 4633TIP3    H235459   4.307   0.128   0.326  0.4042 -0.0983 -1.6475
 4634TIP3   OH235460   5.106   1.075   2.424 -0.1323 -0.2851 -0.1874
 4634TIP3    H135461   5.029   1.130   2.412  1.1352  1.9602  1.1287
 4634TIP3    H235462   5.072   0.986   2.436 -2.3908  0.4442 -0.8587
 4635TIP3   OH235463   6.536   1.173   1.376 -0.4182 -0.0235 -0.1658
 4635TIP3    H135464   6.535   1.105   1.443 -0.1207 -1.7531 -1.8197
 4635TIP3    H235465   6.628   1.180   1.350 -0.3589  1.4123  0.3045
 4636TIP3   OH235466   1.928   4.050   7.869 -0.4013 -0.7849 -0.2742
 4636TIP3    H135467   1.836   4.053   7.842 -1.0574 -0.9260  1.7858
 4636TIP3    H235468   1.925   4.050   7.965  1.8027  0.8395 -0.1287
 4637TIP3   OH235469   0.079   1.944   7.070 -0.0905  0.4239 -0.1310
 4637TIP3    H135470   0.124   1.865   7.102 -2.3070 -1.3099 -1.0489
 4637TIP3    H235471   0.049   1.988   7.149 -0.0092 -0.3859  0.3625
 4638TIP3   OH235472   6.788   3.032   8.339 -0.1101 -0.3585 -0.7752
 4638TIP3    H135473   6.759   2.978   8.265 -0.2808 -1.0610 -0.2089
 4638TIP3    H235474   6.716   3.028   8.402 -0.3610  0.9972 -0.9515
 4639TIP3   OH235475   5.772   3.141   7.271 -0.6526 -0.1488 -0.1003
 4639TIP3    H135476   5.825   3.062   7.284  1.5762  1.1341 -0.7479
 4639TIP3    H235477   5.793   3.169   7.182 -0.2875  1.9027  0.5688
 4640TIP3   OH235478   5.888   0.487   2.787 -0.2161 -0.6365 -0.9614
 4640TIP3    H135479   5.812   0.442   2.825 -0.4759 -0.4526 -1.2577
 4640TIP3    H235480   5.863   0.579   2.784  0.7259 -0.2959  0.6337
 4641TIP3   OH235481   2.751   6.868   7.037  0.1383  0.2955 -0.1292
 4641TIP3    H135482   2.803   6.788   7.036  1.7623  1.2455  1.6025
 4641TIP3    H235483   2.759   6.903   6.948 -0.9670 -1.6244 -1.0430
 4642TIP3   OH235484   6.391   3.715   7.846  0.0371  0.0356 -0.4503
 4642TIP3    H135485   6.368   3.792   7.793  0.7972  0.2607 -0.4613
 4642TIP3    H235486   6.359   3.736   7.934 -1.7183 -0.5634 -0.9021
 4643TIP3   OH235487   4.352   5.168   0.448 -0.3536 -0.0603  0.0253
 4643TIP3    H135488   4.419   5.191   0.513 -0.9014 -1.7659  1.2798
 4643TIP3    H235489   4.273   5.152   0.500 -1.0473 -0.5739 -1.1576
 4644TIP3   OH235490   4.294   4.722   7.272 -0.4319  0.2987 -0.0747
 4644TIP3    H135491   4.258   4.690   7.189 -1.1031  0.1650  0.2684
 4644TIP3    H235492   4.364   4.782   7.245 -1.8516  1.7151 -0.7857
 4645TIP3   OH235493   3.069   1.812   0.355  0.2206  0.0912  0.0186
 4645TIP3    H135494   3.162   1.806   0.377  0.3001  1.0648 -0.0018
 4645TIP3    H235495   3.025   1.755   0.418  0.7056  0.6320  0.8553
 4646TIP3   OH235496   0.702   2.393   8.129  0.4153  0.5183  0.0062
 4646TIP3    H135497   0.649   2.328   8.175 -1.4152  1.6569 -0.4067
 4646TIP3    H235498   0.765   2.341   8.079 -0.9042 -0.9461 -0.2109
 4647TIP3   OH235499   4.746   0.742   7.352  0.2150  0.1229  0.5441
 4647TIP3    H135500   4.788   0.668   7.308  2.0885  1.7875 -0.6783
 4647TIP3    H235501   4.812   0.772   7.415 -1.1626 -0.2068  2.1958
 4648TIP3   OH235502   5.318   0.003   8.636 -0.6625  0.1242  0.3665
 4648TIP3    H135503   5.287   0.089   8.664 -0.3390 -0.6650  3.4673
 4648TIP3    H235504   5.413   0.009   8.640 -0.5137  0.2503 -1.7804
 4649TIP3   OH235505   0.129   4.013   6.927  0.5885  0.2717 -0.1780
 4649TIP3    H135506   0.114   4.107   6.938  1.7495  0.4843 -0.3482
 4649TIP3    H235507   0.043   3.978   6.901 -0.0540  1.1450  0.6905
 4650TIP3   OH235508   2.948   0.072   0.603  0.5551  0.1951 -0.2483
 4650TIP3    H135509   2.984   0.090   0.516 -2.0562  2.3259 -1.0400
 4650TIP3    H235510   2.926  -0.021   0.601  1.4873 -0.0282 -1.4604
 4651TIP3   OH235511   2.765   6.791   1.436 -0.2227 -0.3040  0.2651
 4651TIP3    H135512   2.859   6.776   1.428 -0.0101  0.5542  1.0980
 4651TIP3    H235513   2.756   6.859   1.502 -1.4430 -0.4858  0.3177
 4652TIP3   OH235514   0.157   0.621   1.785  0.0328  0.0370  0.6247
 4652TIP3    H135515   0.137   0.532   1.754  0.5795  0.4642 -1.0775
 4652TIP3    H235516   0.094   0.636   1.856 -1.3574 -1.0279 -0.3110
 4653TIP3   OH235517   5.104   6.490   1.790 -0.5481  0.3596  0.2840
 4653TIP3    H135518   5.192   6.453   1.801  0.2040  1.3887 -1.6629
 4653TIP3    H235519   5.045   6.423   1.824  0.9634 -0.5537  1.2352
 4654TIP3   OH235520   0.125   1.028   7.836 -0.0690 -0.2922 -0.0846
 4654TIP3    H135521   0.214   0.999   7.857  0.2408 -0.8166 -1.9939
 4654TIP3    H235522   0.137   1.115   7.797 -0.6253  0.5867  1.5782
 4655TIP3   OH235523   3.406   3.007   7.544  0.1860  0.0406 -0.6472
 4655TIP3    H135524   3.444   3.082   7.497  1.8351 -0.7495 -0.6462
 4655TIP3    H235525   3.437   2.931   7.496 -1.4915 -0.6730 -0.6597
 4656TIP3   OH235526   0.091   2.224   8.238  0.4353  0.0646  0.2382
 4656TIP3    H135527   0.061   2.196   8.152  1.9222 -0.8611 -0.0232
 4656TIP3    H235528   0.137   2.307   8.223  0.6591 -0.0765  0.1413
 4657TIP3   OH235529   0.827   3.287   0.941  0.0041 -0.3650  0.7604
 4657TIP3    H135530   0.856   3.267   1.030 -1.4957 -1.4989  1.0303
 4657TIP3    H235531   0.833   3.203   0.895  1.3165  0.3268 -0.4002
 4658TIP3   OH235532   4.067   0.696   8.395  0.0564  0.4008 -0.0232
 4658TIP3    H135533   4.142   0.683   8.337  0.9423  1.0020  0.9603
 4658TIP3    H235534   4.087   0.645   8.473 -0.7913  0.1854  0.0712
 4659TIP3   OH235535   4.358   3.204   8.061 -0.3750  0.1335  0.0520
 4659TIP3    H135536   4.412   3.261   8.117 -0.0334  2.4643 -2.4473
 4659TIP3    H235537   4.280   3.256   8.042 -0.0569 -0.1565 -2.3245
 4660TIP3   OH235538   4.292   3.842   8.591  0.2640  0.2251  0.2277
 4660TIP3    H135539   4.347   3.826   8.515  0.6376 -0.2351  0.5883
 4660TIP3    H235540   4.332   3.791   8.661  0.5657  1.4740  1.0141
 4661TIP3   OH235541   3.242   6.774   1.391  0.0856 -0.3387 -0.5211
 4661TIP3    H135542   3.190   6.699   1.363 -0.3076  0.2479 -1.3974
 4661TIP3    H235543   3.293   6.798   1.314  0.4737  0.0701 -0.1394
 4662TIP3   OH235544   1.266   0.651   0.342  0.5713 -0.0208  0.0292
 4662TIP3    H135545   1.343   0.598   0.322  0.8712  0.2594  0.4344
 4662TIP3    H235546   1.214   0.648   0.262  1.1148 -0.0228 -0.3298
 4663TIP3   OH235547   0.801   0.268   8.210  0.1155 -0.6316 -0.1893
 4663TIP3    H135548   0.731   0.323   8.247 -0.3955 -0.9290 -0.6983
 4663TIP3    H235549   0.861   0.329   8.168 -1.0849 -0.5236 -1.8270
 4664TIP3   OH235550   4.425   4.620   8.138  0.4136  0.0538 -0.3092
 4664TIP3    H135551   4.493   4.677   8.103 -0.4542  1.2477 -0.0996
 4664TIP3    H235552   4.417   4.646   8.230 -2.8949  2.6564 -1.1455
 4665TIP3   OH235553   1.219   2.259   6.859  0.1292  0.9514 -0.6502
 4665TIP3    H135554   1.309   2.285   6.879 -0.0187  1.0569 -0.1224
 4665TIP3    H235555   1.216   2.166   6.880 -0.5093  1.4287  1.5615
 4666TIP3   OH235556   4.704   5.332   8.507 -0.5370  0.3664  0.5882
 4666TIP3    H135557   4.665   5.412   8.472  1.5559  1.3901  0.4395
 4666TIP3    H235558   4.644   5.263   8.480 -1.9390  1.7628 -0.0748
 4667TIP3   OH235559   6.610   5.484   1.332 -0.2574 -0.0227  0.2216
 4667TIP3    H135560   6.670   5.522   1.268  0.0734 -0.6688  0.1392
 4667TIP3    H235561   6.563   5.416   1.283 -0.5199 -0.0340  0.4829
 4668TIP3   OH235562   1.122   0.273   7.927  0.0233 -0.1309  0.5814
 4668TIP3    H135563   1.095   0.194   7.973 -2.8650  1.7109  2.3772
 4668TIP3    H235564   1.192   0.310   7.982  0.6517 -0.8572  0.2896
 4669TIP3   OH235565   3.577   0.412   0.083 -0.3429  0.0052  0.1615
 4669TIP3    H135566   3.599   0.443  -0.005 -0.6630 -0.1695  0.0199
 4669TIP3    H235567   3.638   0.339   0.099 -1.0663 -0.7376 -0.3878
 4670TIP3   OH235568   5.433   3.257   0.226 -0.1254 -0.2099 -0.0817
 4670TIP3    H135569   5.413   3.335   0.175  3.3156  1.0498  0.2318
 4670TIP3    H235570   5.384   3.269   0.308 -0.0335  1.4322 -0.2250
 4671TIP3   OH235571   1.269   1.278   0.324  0.4534  0.5320 -0.1958
 4671TIP3    H135572   1.215   1.287   0.246  1.5850  1.5906 -0.8890
 4671TIP3    H235573   1.343   1.224   0.296 -0.8821 -2.1993  1.1295
 4672TIP3   OH235574   3.018   5.626   7.099 -0.1543 -0.7018 -0.2658
 4672TIP3    H135575   3.000   5.534   7.083 -0.5906 -0.8039  0.7563
 4672TIP3    H235576   3.006   5.637   7.193  0.8348  0.1918 -0.2230
 4673TIP3   OH235577   0.395   3.409   0.127  0.8596  0.2554  0.2063
 4673TIP3    H135578   0.386   3.371   0.214  1.2883 -0.1756  0.0684
 4673TIP3    H235579   0.331   3.360   0.074  0.8165  0.3058  0.2118
 4674TIP3   OH235580   5.187   3.747   8.290  0.1812 -0.2468  0.0459
 4674TIP3    H135581   5.155   3.834   8.268  0.4503  0.2412  1.4873
 4674TIP3    H235582   5.282   3.760   8.302  0.2789 -0.8229 -0.0922
 4675TIP3   OH235583   3.535   1.925   1.187 -0.1788  0.0798 -0.1943
 4675TIP3    H135584   3.618   1.962   1.217 -0.0254  0.1378 -0.6802
 4675TIP3    H235585   3.549   1.830   1.190  0.2802  0.1042 -1.2964
 4676TIP3   OH235586   5.490   2.361   7.384 -0.5806  0.0295  0.1049
 4676TIP3    H135587   5.456   2.329   7.301 -1.9247 -1.0579  1.0246
 4676TIP3    H235588   5.414   2.397   7.429 -0.1982 -0.8150  1.4903
 4677TIP3   OH235589   1.190   3.041   6.392  0.2712 -0.3896 -0.2500
 4677TIP3    H135590   1.130   2.995   6.451 -1.0347  0.0449 -1.1877
 4677TIP3    H235591   1.247   3.091   6.451 -0.9946  0.0309  0.6772
 4678TIP3   OH235592   0.442   5.725   7.557 -0.2739 -0.3291  0.0893
 4678TIP3    H135593   0.487   5.644   7.578  1.9230  0.5807 -0.8702
 4678TIP3    H235594   0.407   5.711   7.469 -0.7746 -0.5617  0.3183
 4679TIP3   OH235595   6.754   2.425   7.825  0.3805  1.3262 -0.4119
 4679TIP3    H135596   6.818   2.427   7.753 -0.3334 -1.6586 -1.2567
 4679TIP3    H235597   6.679   2.378   7.789 -0.0511 -0.2171  2.2396
 4680TIP3   OH235598   4.387   4.889   0.020  0.1452 -0.4849  0.1274
 4680TIP3    H135599   4.347   4.810   0.059 -3.8140  1.2456  0.0595
 4680TIP3    H235600   4.452   4.917   0.085 -1.3678 -1.5188  2.2374
 4681TIP3   OH235601   0.002   1.135   7.370 -0.2236  0.0379  0.6133
 4681TIP3    H135602  -0.020   1.222   7.339 -0.3946 -0.2244 -0.0131
 4681TIP3    H235603  -0.065   1.114   7.435 -0.5583  0.1069  0.2879
 4682TIP3   OH235604   3.995   0.595   7.682 -0.6194  0.3963  0.4110
 4682TIP3    H135605   3.977   0.501   7.678 -0.5260  0.3430  1.1746
 4682TIP3    H235606   4.070   0.602   7.741 -0.4808  0.9349  0.1713
 4683TIP3   OH235607   1.607   6.550   1.739  0.0809 -0.3481 -0.0999
 4683TIP3    H135608   1.585   6.620   1.678 -2.6607 -0.7683  0.2894
 4683TIP3    H235609   1.581   6.584   1.824  3.1328 -0.0789  0.8356
 4684TIP3   OH235610   0.341   0.029   2.251  0.1890 -0.2888 -0.1100
 4684TIP3    H135611   0.307   0.020   2.162  1.0554  0.9209 -0.5833
 4684TIP3    H235612   0.406  -0.041   2.259  0.1364 -0.3765 -0.4267
 4685TIP3   OH235613   4.322   5.970   0.346 -0.1625  0.2172 -0.3805
 4685TIP3    H135614   4.278   5.889   0.368  1.6619 -1.4883 -2.4968
 4685TIP3    H235615   4.290   6.034   0.410 -0.7546 -2.4281  2.1483
 4686TIP3   OH235616   1.601   4.080   0.026  0.1024  0.0624 -0.3692
 4686TIP3    H135617   1.506   4.084   0.035  0.0943 -0.3435 -0.2496
 4686TIP3    H235618   1.618   4.114  -0.062  0.0576  2.6015  0.5071
 4687TIP3   OH235619   1.960   5.954   1.803  0.4352  0.2928  0.2447
 4687TIP3    H135620   1.890   5.891   1.790 -0.8637  1.9290 -1.0633
 4687TIP3    H235621   1.925   6.016   1.866  1.4683  0.0771  1.0571
 4688TIP3   OH235622   0.809   6.793   0.525  0.5155 -0.1634 -0.2178
 4688TIP3    H135623   0.880   6.814   0.464 -0.1025  1.9775 -0.2820
 4688TIP3    H235624   0.753   6.871   0.524 -2.3023 -2.0331 -0.7897
 4689TIP3   OH235625   6.177   4.296   6.913 -0.1876  0.2449 -0.0633
 4689TIP3    H135626   6.103   4.298   6.854 -1.1806  0.2967  1.1450
 4689TIP3    H235627   6.250   4.332   6.862 -1.0096  0.3135 -1.2219
 4690TIP3   OH235628   3.929   4.861   7.049  0.0450 -0.5311 -0.3110
 4690TIP3    H135629   3.995   4.824   6.990  1.1624  1.0840 -0.1469
 4690TIP3    H235630   3.977   4.927   7.099 -1.4193 -0.2467  0.7650
 4691TIP3   OH235631   5.957   1.727   2.510  0.1940  0.4118  0.0671
 4691TIP3    H135632   5.894   1.793   2.537  0.3774  0.5344  0.1982
 4691TIP3    H235633   5.911   1.644   2.520  0.5108  0.3935  1.4852
 4692TIP3   OH235634   2.989   2.421   7.452  0.2307 -0.3543 -0.8632
 4692TIP3    H135635   2.967   2.500   7.500  1.5638 -0.8510  0.6491
 4692TIP3    H235636   2.935   2.352   7.492 -0.3432 -0.3736 -1.6433
 4693TIP3   OH235637   0.287   5.819   7.800 -0.8688  0.2584  0.2096
 4693TIP3    H135638   0.359   5.814   7.863 -0.9170  0.0336  0.2481
 4693TIP3    H235639   0.329   5.801   7.715 -0.1663  3.7618 -0.3305
 4694TIP3   OH235640   3.997   6.800   6.723  0.0618 -0.4409 -0.4052
 4694TIP3    H135641   3.977   6.707   6.738 -3.9931  0.4602  1.1644
 4694TIP3    H235642   4.007   6.837   6.811 -1.0848  1.0235 -0.8557
 4695TIP3   OH235643   5.355   2.363   7.992 -0.0547 -0.1810  0.0334
 4695TIP3    H135644   5.341   2.276   8.029  1.1348 -0.5764 -0.4118
 4695TIP3    H235645   5.442   2.359   7.953 -0.4212  0.8773 -0.9556
 4696TIP3   OH235646   1.304   6.577   7.542 -0.4152 -0.2542 -0.5694
 4696TIP3    H135647   1.366   6.644   7.572  1.2511 -2.3786  0.9960
 4696TIP3    H235648   1.347   6.536   7.467 -1.1315 -0.0608 -1.1028
 4697TIP3   OH235649   3.221   5.262   7.024 -0.4172  0.0737 -0.5833
 4697TIP3    H135650   3.290   5.196   7.018 -1.1188 -0.6233 -1.0611
 4697TIP3    H235651   3.268   5.345   7.034  0.4782 -0.5896  1.1725
 4698TIP3   OH235652   0.184   5.535   8.429 -0.1941 -0.4730 -0.7370
 4698TIP3    H135653   0.274   5.540   8.460 -0.3985  0.7643 -0.2997
 4698TIP3    H235654   0.167   5.621   8.391 -1.5188 -0.3417  0.1129
 4699TIP3   OH235655   2.462   0.825   1.585 -0.0793 -0.1795 -0.2028
 4699TIP3    H135656   2.496   0.914   1.588 -1.5050  0.4355 -1.2563
 4699TIP3    H235657   2.395   0.822   1.654 -0.7016 -0.1286 -0.7966
 4700TIP3   OH235658   3.929   4.373   8.529 -0.3877 -0.3657  0.4065
 4700TIP3    H135659   3.886   4.426   8.596 -0.6705 -0.8267  0.5904
 4700TIP3    H235660   3.890   4.287   8.537  1.0610 -1.0057  1.0605
 4701TIP3   OH235661   0.218   0.314   2.082  0.4061  0.4867  0.0319
 4701TIP3    H135662   0.291   0.373   2.094 -1.0291  2.3902 -0.1665
 4701TIP3    H235663   0.153   0.343   2.146 -0.3724 -0.8446 -0.1144
 4702TIP3   OH235664   0.716   1.905   8.090  0.1680 -0.2359  0.0625
 4702TIP3    H135665   0.753   1.993   8.097 -0.9125  0.2169  0.2848
 4702TIP3    H235666   0.740   1.875   8.002  0.9789  0.0660  0.1756
 4703TIP3   OH235667   4.992   0.133   8.036  0.1740  0.0493 -0.4276
 4703TIP3    H135668   4.942   0.092   7.965  0.2303  0.6240 -0.8046
 4703TIP3    H235669   5.073   0.082   8.041 -1.0681 -1.9050  1.2494
 4704TIP3   OH235670   4.950   3.432   8.363  0.2689 -0.0519 -0.2871
 4704TIP3    H135671   4.914   3.452   8.277  0.9559  2.6853 -0.0371
 4704TIP3    H235672   5.018   3.367   8.346 -1.2368 -1.4074 -1.4253
 4705TIP3   OH235673   3.939   1.419   0.605 -0.3058  0.2971 -0.2542
 4705TIP3    H135674   3.922   1.496   0.551 -3.1685  0.1556  0.3200
 4705TIP3    H235675   3.981   1.455   0.684  0.4115  0.9528 -0.9068
 4706TIP3   OH235676   5.476   5.412   8.603  0.1558 -0.1731 -0.2069
 4706TIP3    H135677   5.465   5.348   8.673 -0.8646  1.3669  1.1002
 4706TIP3    H235678   5.387   5.438   8.579  0.5161 -0.1660 -1.6051
 4707TIP3   OH235679   3.837   2.192   0.844  0.2591  0.0988  0.4032
 4707TIP3    H135680   3.830   2.284   0.870  1.9841  0.3376  0.1640
 4707TIP3    H235681   3.923   2.164   0.878  0.2582 -1.0845 -0.5030
 4708TIP3   OH235682   0.606   3.183   2.114 -0.7000  0.2521 -0.1046
 4708TIP3    H135683   0.573   3.231   2.190 -1.8573  1.8741 -1.5374
 4708TIP3    H235684   0.567   3.096   2.122  1.0476 -0.4022  2.3072
 4709TIP3   OH235685   6.428   0.215   7.771 -0.2458 -0.6228  0.3390
 4709TIP3    H135686   6.378   0.210   7.853  0.4838 -0.5981  0.7951
 4709TIP3    H235687   6.408   0.133   7.726  0.9069 -1.5661  1.4680
 4710TIP3   OH235688   3.866   5.249   0.607 -0.7177  0.8104 -0.7136
 4710TIP3    H135689   3.841   5.204   0.688  1.4311  1.0269  0.1302
 4710TIP3    H235690   3.814   5.330   0.607  2.2080  2.9759  2.7763
 4711TIP3   OH235691   1.244   5.435   7.958 -0.3737 -0.9831  1.1038
 4711TIP3    H135692   1.258   5.470   8.046  0.2850 -0.6936  0.8883
 4711TIP3    H235693   1.310   5.367   7.948 -0.8629 -1.4604  1.0663
 4712TIP3   OH235694   5.224   5.944   8.056  0.1307  0.5782 -0.0906
 4712TIP3    H135695   5.255   5.869   8.106 -2.1041 -1.0425 -0.9686
 4712TIP3    H235696   5.297   5.965   7.997  1.5491  0.4485  1.5237
 4713TIP3   OH235697   0.575   4.106   1.198  0.4614 -0.3991 -0.7604
 4713TIP3    H135698   0.500   4.133   1.144  1.0644  2.2336 -0.4414
 4713TIP3    H235699   0.651   4.119   1.141  1.5364  5.9058  1.3342
 4714TIP3   OH235700   0.064   5.841   1.712  0.5978  0.5967 -0.3937
 4714TIP3    H135701   0.079   5.880   1.798 -1.8661 -0.6818  0.7225
 4714TIP3    H235702   0.012   5.906   1.665 -2.2752 -0.5706  0.9485
 4715TIP3   OH235703   3.760   3.113   0.832 -0.0965 -0.1106  1.0839
 4715TIP3    H135704   3.677   3.115   0.881  0.2320  0.0048  1.6413
 4715TIP3    H235705   3.827   3.099   0.899  0.3240 -0.3418  0.6155
 4716TIP3   OH235706   5.102   2.493   8.082  0.2593  0.3473  0.3447
 4716TIP3    H135707   5.149   2.554   8.025  1.1060  0.1546  0.8287
 4716TIP3    H235708   5.154   2.413   8.081  0.7710  0.6145  2.0577
 4717TIP3   OH235709   3.335   4.863   7.361 -0.3303  0.3264  0.2908
 4717TIP3    H135710   3.338   4.898   7.272  1.7645  0.4038  0.3460
 4717TIP3    H235711   3.354   4.770   7.351  0.0766  0.3679  0.6795
 4718TIP3   OH235712   5.561   1.167   7.486 -0.7220  0.0622 -0.3392
 4718TIP3    H135713   5.554   1.213   7.570 -1.0502  0.6363 -0.6779
 4718TIP3    H235714   5.652   1.178   7.460 -0.6643  0.0384 -0.1549
 4719TIP3   OH235715   2.546   1.620   0.708  0.8807 -0.5132 -0.2836
 4719TIP3    H135716   2.479   1.601   0.643 -0.1630 -2.7019  1.2916
 4719TIP3    H235717   2.549   1.715   0.713 -2.0189 -0.3202 -0.5318
 4720TIP3   OH235718   1.941   1.761   7.210 -0.1213  0.5589  0.1337
 4720TIP3    H135719   1.846   1.774   7.212 -0.3690 -1.0860  1.5879
 4720TIP3    H235720   1.971   1.811   7.134 -2.1455  1.1002 -0.3596
 4721TIP3   OH235721   6.304   5.020   1.172 -0.2464 -0.4626 -0.4231
 4721TIP3    H135722   6.332   5.037   1.082 -2.2651 -1.1085 -1.2295
 4721TIP3    H235723   6.373   5.058   1.226 -0.3203  2.5003 -2.1779
 4722TIP3   OH235724   4.833   6.842   7.598 -0.2034  0.6212 -0.2315
 4722TIP3    H135725   4.853   6.931   7.569 -2.1633  0.8865 -0.9143
 4722TIP3    H235726   4.878   6.835   7.683  0.0054  2.2643 -0.1555
 4723TIP3   OH235727   5.374   5.570   6.486  0.4907 -0.5582 -0.1355
 4723TIP3    H135728   5.283   5.550   6.509  0.3626  0.3500  0.1866
 4723TIP3    H235729   5.422   5.563   6.569  0.2842  1.2898  0.1848
 4724TIP3   OH235730   3.105   6.157   1.155  0.0070  0.2656  0.4074
 4724TIP3    H135731   3.097   6.173   1.249  0.8902  1.5113  0.3010
 4724TIP3    H235732   3.109   6.062   1.147 -1.6184  0.0582  1.4745
 4725TIP3   OH235733   3.361   2.855   1.773 -0.1134  0.3574  0.2458
 4725TIP3    H135734   3.417   2.843   1.849 -0.4451  0.5485  0.5233
 4725TIP3    H235735   3.348   2.950   1.767  1.5240  0.5353 -1.2281
 4726TIP3   OH235736   2.598   1.197   0.473 -0.1350  0.3554 -0.6087
 4726TIP3    H135737   2.559   1.235   0.552 -0.4072  1.3540 -1.2153
 4726TIP3    H235738   2.527   1.193   0.410  0.0526 -0.5550 -0.7776
 4727TIP3   OH235739   5.854   6.581   1.143 -0.1612  0.6778  0.4498
 4727TIP3    H135740   5.776   6.593   1.089 -0.9305  0.0948  1.3777
 4727TIP3    H235741   5.856   6.487   1.161  1.4710  0.4762 -0.5554
 4728TIP3   OH235742   0.374   2.897   1.065  0.1204 -0.3871 -0.3438
 4728TIP3    H135743   0.360   2.937   0.979 -0.9402 -1.0013 -0.4817
 4728TIP3    H235744   0.318   2.948   1.124  0.7838 -0.0179 -0.0319
 4729TIP3   OH235745   0.020   3.932   0.131  0.9286  0.2481  0.1390
 4729TIP3    H135746   0.032   3.858   0.191  1.1775 -0.3444 -0.6245
 4729TIP3    H235747  -0.052   3.982   0.169  1.0023 -0.1814  0.8665
 4730TIP3   OH235748   0.495   5.828   1.808 -0.2976 -0.0668 -0.0967
 4730TIP3    H135749   0.485   5.743   1.851  0.3713 -0.3520 -0.4876
 4730TIP3    H235750   0.457   5.815   1.721 -1.2614  0.3865  0.2377
 4731TIP3   OH235751   1.659   4.047   0.712  0.3543 -0.1259 -0.3944
 4731TIP3    H135752   1.592   3.994   0.755 -0.6259  1.9429  0.8015
 4731TIP3    H235753   1.666   4.010   0.624 -0.4299 -2.0301  0.2899
 4732TIP3   OH235754   0.925   2.465   6.978  0.2307 -0.1257 -0.6021
 4732TIP3    H135755   0.888   2.382   7.010  0.1259  0.3950  0.6697
 4732TIP3    H235756   0.952   2.445   6.888 -2.2056 -0.8056 -1.2724
 4733TIP3   OH235757   4.291   1.975   1.182  0.4549  0.1386  0.2040
 4733TIP3    H135758   4.294   1.971   1.277  1.0518 -0.2821  0.1724
 4733TIP3    H235759   4.318   2.065   1.161 -0.4809  0.4897  0.4524
 4734TIP3   OH235760   0.241   6.658   7.136  0.5219 -0.0262  0.1791
 4734TIP3    H135761   0.324   6.611   7.129  0.4910 -0.0506 -0.0202
 4734TIP3    H235762   0.230   6.674   7.230  0.4249 -0.6076  0.2689
 4735TIP3   OH235763   5.263   6.607   0.997 -0.8914 -0.4301  0.1483
 4735TIP3    H135764   5.283   6.546   0.927  0.6317  1.6077 -1.3308
 4735TIP3    H235765   5.345   6.616   1.045 -1.2743 -0.0355  0.7447
 4736TIP3   OH235766   0.140   3.584   0.851  0.1761  0.4279  0.6054
 4736TIP3    H135767   0.079   3.522   0.812  1.1524 -0.7490  0.8744
 4736TIP3    H235768   0.222   3.571   0.803  0.3490  1.6751  0.5219
 4737TIP3   OH235769   1.634   3.459   2.280  0.1927 -0.3863 -0.1985
 4737TIP3    H135770   1.728   3.471   2.294  0.1020  1.0596 -0.6948
 4737TIP3    H235771   1.593   3.531   2.327 -0.8151 -1.9072  1.3978
 4738TIP3   OH235772   4.152   3.422   2.124 -0.4950 -0.7161 -0.0530
 4738TIP3    H135773   4.149   3.347   2.182  0.6892 -1.4516 -0.9136
 4738TIP3    H235774   4.107   3.392   2.044  0.7040 -0.8114 -0.7102
 4739TIP3   OH235775   3.007   6.575   8.460 -0.1102 -0.3743  0.0999
 4739TIP3    H135776   3.099   6.584   8.485 -0.3964 -0.2389  1.1745
 4739TIP3    H235777   3.009   6.559   8.366  0.9711  0.4621 -0.0422
 4740TIP3   OH235778   0.774   4.805   6.958  0.2418 -0.4907 -0.1883
 4740TIP3    H135779   0.830   4.729   6.976 -0.2187 -0.9055 -0.5004
 4740TIP3    H235780   0.830   4.864   6.908  0.4894 -0.7818 -0.2581
 4741TIP3   OH235781   2.349   3.759   6.194 -0.1888 -0.4794 -1.2882
 4741TIP3    H135782   2.254   3.744   6.190 -0.3614 -0.4481  1.2003
 4741TIP3    H235783   2.359   3.851   6.168 -1.3014  0.5760  1.6073
 4742TIP3   OH235784   3.479   6.289   7.137  0.3152 -0.6254  0.1574
 4742TIP3    H135785   3.485   6.384   7.150  1.6726 -0.7411  0.5487
 4742TIP3    H235786   3.551   6.254   7.190 -0.2938 -1.8905  0.1670
 4743TIP3   OH235787   1.567   6.192   0.015 -0.5119 -0.0082  0.9339
 4743TIP3    H135788   1.654   6.213   0.048 -0.7804  0.2206  1.5157
 4743TIP3    H235789   1.583   6.145  -0.067  0.3398 -3.7978  3.0280
 4744TIP3   OH235790   4.289   5.334   7.886  0.0020  0.2329  0.4560
 4744TIP3    H135791   4.349   5.341   7.960 -0.9551  0.1626  1.2580
 4744TIP3    H235792   4.318   5.256   7.839  0.1116 -0.1903  1.2194
 4745TIP3   OH235793   2.493   1.867   7.571  0.0253 -0.4475 -0.2467
 4745TIP3    H135794   2.572   1.921   7.575  0.7428 -1.4566 -0.3634
 4745TIP3    H235795   2.426   1.919   7.617  1.3837 -0.6310  2.1051
 4746TIP3   OH235796   2.026   1.490   7.296 -0.2698  0.2564  0.1172
 4746TIP3    H135797   2.026   1.466   7.203  0.1019 -0.7694  0.3771
 4746TIP3    H235798   2.011   1.585   7.295 -0.9067  0.1655 -0.9607
 4747TIP3   OH235799   3.444   1.892   1.462 -0.5849 -0.3161  0.0814
 4747TIP3    H135800   3.423   1.981   1.491  1.0158  0.0169  0.2889
 4747TIP3    H235801   3.501   1.904   1.386  0.8356 -1.1143  0.9704
 4748TIP3   OH235802   6.766   1.925   7.456  0.1169 -0.0466 -0.3223
 4748TIP3    H135803   6.777   1.980   7.533 -1.0360  0.9687 -0.8375
 4748TIP3    H235804   6.770   1.835   7.489  2.0301  0.3211  0.5452
 4749TIP3   OH235805   6.365   4.885   7.060  0.0760  0.0704 -0.3996
 4749TIP3    H135806   6.437   4.861   7.002 -1.1564 -1.3517 -1.4351
 4749TIP3    H235807   6.347   4.805   7.109  0.0536  0.8021  0.8106
 4750TIP3   OH235808   0.959   0.098   1.517 -0.4494  0.3016  0.0215
 4750TIP3    H135809   0.952   0.043   1.595 -1.7454 -0.7492 -0.7969
 4750TIP3    H235810   1.037   0.065   1.472  0.1061  0.6869  0.6784
 4751TIP3   OH235811   3.500   4.800   7.765 -0.2221 -0.5488 -0.0076
 4751TIP3    H135812   3.417   4.753   7.761 -0.1829 -0.6069 -0.1317
 4751TIP3    H235813   3.533   4.800   7.675  0.2159 -1.0847  0.1430
 4752TIP3   OH235814   5.295   0.904   6.493  0.5784  0.0560 -0.4499
 4752TIP3    H135815   5.209   0.887   6.532  0.0438  0.2940 -1.5167
 4752TIP3    H235816   5.345   0.824   6.511  1.0412  0.8719  2.4770
 4753TIP3   OH235817   5.138   4.647   0.735 -0.9595  0.8166  0.0015
 4753TIP3    H135818   5.104   4.568   0.776  2.6806 -1.3008 -0.6186
 4753TIP3    H235819   5.125   4.716   0.800 -4.0868 -0.2369  0.6407
 4754TIP3   OH235820   3.355   0.834   1.750  0.4664  0.1430 -0.2117
 4754TIP3    H135821   3.273   0.788   1.771  0.4726 -0.2816 -1.0846
 4754TIP3    H235822   3.331   0.926   1.746  0.2395  0.1232  0.5203
 4755TIP3   OH235823   1.575   0.510   0.454  0.4628  0.3115  0.3753
 4755TIP3    H135824   1.566   0.462   0.372  0.2118  1.1700 -0.1140
 4755TIP3    H235825   1.657   0.479   0.492  0.6318 -0.0136 -0.2561
 4756TIP3   OH235826   4.279   1.466   7.291  0.3045  0.0971 -0.0586
 4756TIP3    H135827   4.372   1.450   7.311  0.0255 -0.9387  0.4940
 4756TIP3    H235828   4.253   1.391   7.237 -0.5287 -0.3001  0.8640
 4757TIP3   OH235829   5.501   3.967   0.490 -0.0281 -0.3189  0.3310
 4757TIP3    H135830   5.580   3.947   0.540  0.4367  1.4138  0.3593
 4757TIP3    H235831   5.532   3.971   0.399 -0.2082 -0.2524  0.2734
 4758TIP3   OH235832   1.552   3.122   1.919  0.5362  0.0450 -0.1715
 4758TIP3    H135833   1.554   3.106   2.013 -0.7295  0.8870  0.0235
 4758TIP3    H235834   1.574   3.037   1.880 -0.2466 -0.6690  0.8723
 4759TIP3   OH235835   5.200   4.271   0.325  0.2648 -0.7533  0.0243
 4759TIP3    H135836   5.283   4.229   0.302 -0.0750 -1.2839 -0.2530
 4759TIP3    H235837   5.226   4.352   0.367  0.9246 -0.5085 -0.8088
 4760TIP3   OH235838   3.237   2.109   0.477  1.0377  0.0608  0.7783
 4760TIP3    H135839   3.218   2.025   0.434  0.5161  0.8039 -0.4953
 4760TIP3    H235840   3.325   2.132   0.448  1.3837 -0.2699  1.5328
 4761TIP3   OH235841   6.157   2.030   6.913  0.5873  0.2670 -0.4798
 4761TIP3    H135842   6.227   2.013   6.976  1.3157  0.5747 -1.1914
 4761TIP3    H235843   6.171   2.120   6.885 -0.3065  0.4528 -0.3861
 4762TIP3   OH235844   4.617   4.762   7.220 -0.0427 -0.0049 -0.1200
 4762TIP3    H135845   4.687   4.711   7.262 -0.8522 -1.1164 -0.0586
 4762TIP3    H235846   4.640   4.853   7.237  2.0891 -0.2470 -1.2132
 4763TIP3   OH235847   6.389   6.849   8.245 -0.2670 -0.3211  0.5092
 4763TIP3    H135848   6.406   6.769   8.196  0.9150  0.2669 -0.0763
 4763TIP3    H235849   6.468   6.864   8.297  0.5415  1.6918 -1.1662
 4764TIP3   OH235850   5.276   0.889   8.265 -0.3960  0.2278 -0.7436
 4764TIP3    H135851   5.321   0.955   8.213 -0.5253 -0.5635 -1.8916
 4764TIP3    H235852   5.247   0.823   8.201 -1.6078 -0.1782  0.1844
 4765TIP3   OH235853   0.685   5.214   7.405  0.6334  0.0415 -0.2786
 4765TIP3    H135854   0.761   5.160   7.386  0.6068  0.4523 -1.6379
 4765TIP3    H235855   0.619   5.152   7.435  1.0761 -0.4857 -0.3814
 4766TIP3   OH235856   5.023   5.084   0.790 -0.0013  0.3972  0.0595
 4766TIP3    H135857   5.080   5.070   0.865 -0.3647 -0.3041  0.2098
 4766TIP3    H235858   5.008   5.178   0.788 -0.2421  0.3836  1.0461
 4767TIP3   OH235859   6.414   4.785   0.750 -0.5102 -0.0756  0.2912
 4767TIP3    H135860   6.434   4.701   0.791  0.9155  0.1109  0.0200
 4767TIP3    H235861   6.499   4.820   0.723 -1.2332  0.6942 -1.0997
 4768TIP3   OH235862   2.554   0.278   8.415 -0.4853 -0.0685 -0.0522
 4768TIP3    H135863   2.603   0.225   8.352 -1.2190 -0.3316 -0.4153
 4768TIP3    H235864   2.511   0.345   8.362  0.4555  0.9416  0.4063
 4769TIP3   OH235865   4.885   4.576   1.105  0.0357  0.0025 -0.0310
 4769TIP3    H135866   4.858   4.665   1.081 -0.2457  0.0434  0.4290
 4769TIP3    H235867   4.813   4.542   1.157  0.4893 -0.2054  0.4717
 4770TIP3   OH235868   5.411   5.851   6.839 -0.1057 -0.1312 -0.5521
 4770TIP3    H135869   5.438   5.869   6.749 -1.6691  1.5008 -0.7536
 4770TIP3    H235870   5.321   5.819   6.832 -0.3868  0.3896  0.4493
 4771TIP3   OH235871   1.196   3.916   0.675  0.2253  0.2332  0.1176
 4771TIP3    H135872   1.191   3.829   0.715  0.1861  0.7026  1.1687
 4771TIP3    H235873   1.115   3.959   0.701  0.1966  0.5459 -0.4896
 4772TIP3   OH235874   2.359   5.533   2.034  0.3689  0.2342 -0.4074
 4772TIP3    H135875   2.450   5.503   2.045 -0.1259 -1.9097 -1.6182
 4772TIP3    H235876   2.326   5.543   2.123  1.1188 -1.2517  0.0721
 4773TIP3   OH235877   2.230   2.813   0.174 -0.1498 -0.0153  0.7164
 4773TIP3    H135878   2.323   2.792   0.183 -0.4507 -0.7900  2.5600
 4773TIP3    H235879   2.192   2.790   0.259 -2.2736 -1.0358 -0.4163
 4774TIP3   OH235880   1.647   0.929   1.821 -0.1295  0.0499  0.3600
 4774TIP3    H135881   1.624   0.880   1.742 -0.6374  3.1737 -1.5936
 4774TIP3    H235882   1.726   0.886   1.854  0.7717 -0.7067 -2.5078
 4775TIP3   OH235883   1.761   4.840   2.095 -0.0757 -0.1168  0.3616
 4775TIP3    H135884   1.852   4.813   2.107  0.6836  1.8625 -0.4869
 4775TIP3    H235885   1.721   4.768   2.048  0.9647 -1.1627  1.0126
 4776TIP3   OH235886   4.473   5.234   7.492 -0.2845  0.3827  0.1672
 4776TIP3    H135887   4.556   5.240   7.445 -0.5863 -0.4363 -0.4819
 4776TIP3    H235888   4.479   5.302   7.560  0.8600  0.4101  0.0499
 4777TIP3   OH235889   5.767   2.599   8.608 -0.0779  0.1956  0.1500
 4777TIP3    H135890   5.722   2.665   8.555 -0.5321 -2.3485 -2.9346
 4777TIP3    H235891   5.860   2.611   8.588 -0.2735 -1.0426 -1.7973
 4778TIP3   OH235892   5.581   0.398   6.455  0.2395 -0.2914  0.0978
 4778TIP3    H135893   5.500   0.379   6.502 -0.0841  0.9069  0.0497
 4778TIP3    H235894   5.650   0.378   6.518 -0.1312 -0.3373  0.4935
 4779TIP3   OH235895   6.640   2.604   0.136 -0.2035 -0.0432  0.2436
 4779TIP3    H135896   6.707   2.543   0.167 -0.6517 -0.2140  0.8983
 4779TIP3    H235897   6.583   2.550   0.080 -0.7356 -0.2963  1.0103
 4780TIP3   OH235898   0.635   3.669   7.625 -0.6027  0.1369  0.3492
 4780TIP3    H135899   0.612   3.621   7.545 -0.5190 -1.2893  1.1535
 4780TIP3    H235900   0.731   3.666   7.628 -0.5251  1.3980 -0.1928
 4781TIP3   OH235901   0.277   2.592   1.811  1.0444 -0.0527 -0.0104
 4781TIP3    H135902   0.281   2.685   1.788 -1.4377  0.2158  0.4172
 4781TIP3    H235903   0.350   2.553   1.762  3.1552  2.2891  1.0150
 4782TIP3   OH235904   1.972   3.889   1.370  0.8286  0.4569  0.4312
 4782TIP3    H135905   1.899   3.941   1.336  1.0917  1.9036  1.9730
 4782TIP3    H235906   2.037   3.890   1.300 -0.6269 -0.9914 -1.0363
 4783TIP3   OH235907   1.609   4.643   7.585  0.0438  0.8719  0.0562
 4783TIP3    H135908   1.545   4.614   7.521 -0.3612  0.3364  0.6911
 4783TIP3    H235909   1.568   4.719   7.626 -1.0789 -0.5987  1.8068
 4784TIP3   OH235910   0.847   3.993   7.395 -0.2569  0.0753 -0.7024
 4784TIP3    H135911   0.762   4.036   7.395 -1.2897 -1.5903  2.9260
 4784TIP3    H235912   0.832   3.910   7.350 -0.4358 -0.0250 -0.4575
 4785TIP3   OH235913   4.913   1.683   0.001  0.1115  0.1393 -0.0299
 4785TIP3    H135914   4.936   1.775  -0.011 -1.7360  0.6244 -0.1614
 4785TIP3    H235915   4.847   1.665  -0.066  0.6087 -1.3636 -0.1655
 4786TIP3   OH235916   4.971   0.147   2.024 -0.7352 -0.4469  0.3532
 4786TIP3    H135917   4.894   0.138   1.967 -0.7150  0.2354  0.2130
 4786TIP3    H235918   4.947   0.216   2.086  0.0808  0.3837 -0.2301
 4787TIP3   OH235919   3.121   6.445   7.306  0.0994  0.1788  0.6048
 4787TIP3    H135920   3.105   6.372   7.366 -3.0739 -0.5139 -0.8622
 4787TIP3    H235921   3.089   6.414   7.221  4.6551  0.9874 -1.7328
 4788TIP3   OH235922   4.457   4.352   2.479  0.0652 -0.0872 -0.0975
 4788TIP3    H135923   4.510   4.413   2.429  0.8602 -1.8033 -1.4301
 4788TIP3    H235924   4.487   4.362   2.570 -0.6604  2.2968 -0.0620
 4789TIP3   OH235925   0.718   4.648   7.438  0.4399 -0.1444  0.0375
 4789TIP3    H135926   0.781   4.583   7.405 -0.1333 -0.5945 -0.1890
 4789TIP3    H235927   0.649   4.595   7.479  0.3372  0.3563  0.5163
 4790TIP3   OH235928   1.640   0.558   0.853 -0.2233 -0.3958 -1.0851
 4790TIP3    H135929   1.681   0.472   0.863  0.0946 -0.1927 -0.6271
 4790TIP3    H235930   1.592   0.571   0.934 -0.9777 -0.5076 -1.5010
 4791TIP3   OH235931   5.819   0.490   1.417 -0.0392 -0.9090 -0.3328
 4791TIP3    H135932   5.839   0.455   1.330 -1.6782  0.2106 -1.1898
 4791TIP3    H235933   5.742   0.544   1.405  1.1242  1.2964  1.3499
 4792TIP3   OH235934   4.432   4.815   8.354  0.3876 -0.3099 -0.4126
 4792TIP3    H135935   4.527   4.822   8.364  0.2390  0.8462  0.4086
 4792TIP3    H235936   4.398   4.820   8.443 -0.5737  2.0763 -0.8295
 4793TIP3   OH235937   1.952   3.651   1.806  0.1305 -0.8394  0.4400
 4793TIP3    H135938   1.876   3.610   1.767 -0.0234 -0.4089  0.2818
 4793TIP3    H235939   1.926   3.667   1.897  0.4544 -1.7527  0.7046
 4794TIP3   OH235940   2.207   3.162   0.546 -0.2093 -1.1288 -0.2250
 4794TIP3    H135941   2.142   3.210   0.495 -1.1330 -1.5538  0.5207
 4794TIP3    H235942   2.243   3.227   0.607 -0.1560 -0.9685 -0.4256
 4795TIP3   OH235943   4.825   2.415   8.037  0.1569  0.4804  0.3402
 4795TIP3    H135944   4.863   2.453   7.958 -1.4324  1.5584  0.0504
 4795TIP3    H235945   4.882   2.444   8.108  0.5267  1.1058 -0.2042
 4796TIP3   OH235946   2.947   3.535   7.854  0.3651 -0.0461 -0.2512
 4796TIP3    H135947   2.987   3.551   7.939  0.0024  0.3066 -0.1466
 4796TIP3    H235948   2.965   3.443   7.836  1.8850  0.2964 -0.5619
 4797TIP3   OH235949   6.056   0.129   7.450 -0.0685 -0.5808 -0.0337
 4797TIP3    H135950   6.147   0.151   7.431  1.1059 -4.2546  0.5287
 4797TIP3    H235951   6.050   0.133   7.546 -0.5403 -0.2300 -0.0762
 4798TIP3   OH235952   3.005   2.177   8.330  0.3957  0.6900  1.0718
 4798TIP3    H135953   2.934   2.200   8.270  1.4665  1.1666 -0.0329
 4798TIP3    H235954   2.988   2.230   8.408 -1.6411 -0.7627  1.7138
 4799TIP3   OH235955   0.150   6.133   6.957  0.8987 -0.6199  0.1953
 4799TIP3    H135956   0.143   6.108   7.049 -0.9749  1.9460  0.8597
 4799TIP3    H235957   0.074   6.091   6.915  0.2159  0.3775  0.4104
 4800TIP3   OH235958   0.649   6.804   7.295 -0.1449 -0.4180 -0.7691
 4800TIP3    H135959   0.576   6.851   7.254 -0.7791 -0.5454  0.1975
 4800TIP3    H235960   0.648   6.833   7.386  1.9096  0.6956 -1.0222
 4801TIP3   OH235961   2.077   3.259   8.512 -0.1829 -0.5469 -0.4471
 4801TIP3    H135962   2.023   3.191   8.552  0.5706  0.0341  1.7059
 4801TIP3    H235963   2.039   3.341   8.544 -0.3878  0.0485 -2.1058
 4802TIP3   OH235964   1.018   0.565   6.051  0.7393 -0.2935  0.2205
 4802TIP3    H135965   0.931   0.598   6.070  1.4858  1.5855  0.5815
 4802TIP3    H235966   1.006   0.507   5.976 -0.7932  0.0063  0.2111
 4803TIP3   OH235967   2.567   2.862   1.338 -0.4415 -0.1665  0.0375
 4803TIP3    H135968   2.535   2.839   1.251  0.8575 -1.0189 -0.2454
 4803TIP3    H235969   2.517   2.807   1.398 -0.2795 -0.6898 -0.3027
 4804TIP3   OH235970   3.832   1.839   0.293  0.6041  0.0855 -0.1626
 4804TIP3    H135971   3.819   1.907   0.228  2.0770  0.0061 -0.5803
 4804TIP3    H235972   3.926   1.820   0.290  0.2289 -2.0133 -0.1196
 4805TIP3   OH235973   0.530   1.390   7.417 -0.1911  0.6513  0.7252
 4805TIP3    H135974   0.546   1.447   7.492  1.0094  0.5307  0.5794
 4805TIP3    H235975   0.613   1.390   7.369 -0.4670 -0.4696  0.2212
 4806TIP3   OH235976   1.139   0.929   6.704  0.5356 -0.0733  0.1814
 4806TIP3    H135977   1.109   0.904   6.791  0.4817  1.1437  0.5284
 4806TIP3    H235978   1.062   0.970   6.664  0.5492 -0.6601 -0.4630
 4807TIP3   OH235979   3.463   1.631   1.201 -0.4133 -0.7107  0.4438
 4807TIP3    H135980   3.372   1.635   1.230 -0.7304 -2.2660 -0.2502
 4807TIP3    H235981   3.458   1.607   1.108  0.6393  2.2322 -0.4811
 4808TIP3   OH235982   0.461   6.039   8.172 -0.2225  0.2428  0.4180
 4808TIP3    H135983   0.426   6.045   8.261 -1.7682 -2.2354  0.0681
 4808TIP3    H235984   0.446   5.948   8.147  2.1003  0.3476 -1.6355
 4809TIP3   OH235985   3.715   5.500   8.246 -0.0277 -0.3548  0.3492
 4809TIP3    H135986   3.803   5.534   8.232  0.1432  0.0899  2.2176
 4809TIP3    H235987   3.716   5.415   8.202  0.9659  0.1188 -0.6019
 4810TIP3   OH235988   1.022   6.574   1.727 -0.1269 -0.6288  0.1068
 4810TIP3    H135989   0.930   6.551   1.717 -0.6968  0.7255  1.7797
 4810TIP3    H235990   1.038   6.642   1.662  0.1331 -1.9223 -1.2204
 4811TIP3   OH235991   0.219   0.539   0.269  0.2594  0.2236  0.0077
 4811TIP3    H135992   0.214   0.533   0.364 -0.4888  0.9428  0.0294
 4811TIP3    H235993   0.306   0.575   0.251  0.4580 -0.0547  0.4080
 4812TIP3   OH235994   2.186   3.399   2.372  0.2151  0.2135 -0.1394
 4812TIP3    H135995   2.163   3.356   2.454 -0.6782 -0.4428 -0.7094
 4812TIP3    H235996   2.102   3.427   2.336  0.6620  1.1760 -0.4711
 4813TIP3   OH235997   4.027   0.867   6.803  0.5354  0.2559 -0.0147
 4813TIP3    H135998   4.001   0.910   6.885  1.1237  1.3677 -0.3944
 4813TIP3    H235999   4.103   0.916   6.773  0.3191 -0.1262 -1.2530
 4814TIP3   OH236000   4.340   2.272   1.663  0.4504 -0.4002 -0.2464
 4814TIP3    H136001   4.417   2.286   1.718  0.4072 -0.4199 -0.1813
 4814TIP3    H236002   4.307   2.186   1.689 -0.7006  0.4022  1.0802
 4815TIP3   OH236003   0.608   2.372   2.234 -0.0641  0.0649 -0.0697
 4815TIP3    H136004   0.544   2.301   2.226  0.9112 -1.2089  2.4321
 4815TIP3    H236005   0.644   2.380   2.146 -1.9721 -0.7976 -1.0009
 4816TIP3   OH236006   1.854   3.316   1.027  0.1571 -0.1455  0.2312
 4816TIP3    H136007   1.871   3.295   1.119  1.0410 -1.5319 -0.2221
 4816TIP3    H236008   1.906   3.253   0.978 -1.0798 -0.0692 -1.2463
 4817TIP3   OH236009   2.438   3.272   2.315 -0.1087 -0.0033 -0.4296
 4817TIP3    H136010   2.410   3.205   2.253 -0.4251  1.2616 -1.7084
 4817TIP3    H236011   2.356   3.304   2.355 -0.1743  1.0456 -1.3631
 4818TIP3   OH236012   6.411   4.588   7.867  0.1920 -0.0712  0.6671
 4818TIP3    H136013   6.338   4.579   7.805 -0.1231  0.8485  0.8856
 4818TIP3    H236014   6.382   4.656   7.928  1.1568  0.1733  0.8654
 4819TIP3   OH236015   0.347   4.478   7.694  0.6369  0.1941  0.6311
 4819TIP3    H136016   0.289   4.553   7.679  2.4180  1.5355  0.1005
 4819TIP3    H236017   0.313   4.439   7.775 -1.1951  0.6939  0.1734
 4820TIP3   OH236018   4.849   2.235   8.481 -0.4138  0.1194  0.1905
 4820TIP3    H136019   4.912   2.212   8.413 -2.3462  0.0773 -1.6960
 4820TIP3    H236020   4.884   2.314   8.521  0.7395  0.1907 -0.9058
 4821TIP3   OH236021   1.557   5.924   0.349 -0.1922  0.2383 -0.8072
 4821TIP3    H136022   1.552   5.998   0.288 -2.2060  0.3727 -0.5442
 4821TIP3    H236023   1.513   5.955   0.428  1.4043 -0.3249  0.3467
 4822TIP3   OH236024   5.747   0.927   0.047 -0.2040 -0.1525 -0.7935
 4822TIP3    H136025   5.810   0.983   0.001  1.4943 -2.1400 -1.0179
 4822TIP3    H236026   5.723   0.977   0.124 -0.0534  1.5772 -1.8154
 4823TIP3   OH236027   5.369   3.436   7.881 -0.5466 -0.1989  0.4538
 4823TIP3    H136028   5.294   3.493   7.867 -0.4636 -0.0625  0.5642
 4823TIP3    H236029   5.374   3.426   7.976  0.0543  0.4341  0.4922
 4824TIP3   OH236030   6.028   3.102   7.576 -0.3717 -0.3544 -0.0597
 4824TIP3    H136031   5.971   3.027   7.592  0.0351 -1.1511 -2.0026
 4824TIP3    H236032   6.116   3.069   7.595 -0.4030  0.4468  1.5795
 4825TIP3   OH236033   0.812   6.138   7.457 -0.2143  0.2362  0.5628
 4825TIP3    H136034   0.896   6.161   7.498  1.5391 -2.6501 -0.9794
 4825TIP3    H236035   0.753   6.210   7.478  1.7070  0.8940  4.4823
 4826TIP3   OH236036   6.415   4.488   8.499  0.2385  0.1506 -0.3915
 4826TIP3    H136037   6.331   4.533   8.483  0.8445  1.4049 -0.1609
 4826TIP3    H236038   6.470   4.515   8.425  1.2147  1.3284  0.7365
 4827TIP3   OH236039   4.805   1.628   2.672  0.0594  0.2226  0.0324
 4827TIP3    H136040   4.861   1.586   2.607 -0.0976  1.4499 -0.9226
 4827TIP3    H236041   4.865   1.660   2.739  0.4912  1.2037 -0.7985
 4828TIP3   OH236042   4.048   3.586   7.423  0.2046  0.2931 -0.0116
 4828TIP3    H136043   4.131   3.603   7.468 -0.0640 -0.0762  0.6422
 4828TIP3    H236044   3.983   3.634   7.476 -0.1113 -0.1180 -0.0263
 4829TIP3   OH236045   2.920   4.702   0.251  0.3816 -0.3356 -0.1909
 4829TIP3    H136046   2.826   4.702   0.267  0.3725 -2.0823 -0.1372
 4829TIP3    H236047   2.934   4.637   0.182  1.4787  0.4621 -0.7649
 4830TIP3   OH236048   2.063   0.076   7.872  0.3193 -0.1332  0.3172
 4830TIP3    H136049   2.052  -0.008   7.915  0.9305 -0.6835 -0.5613
 4830TIP3    H236050   2.138   0.064   7.814 -0.8568  0.3687 -1.3889
 4831TIP3   OH236051   5.301   4.195   1.441 -0.7689 -0.0329  0.0808
 4831TIP3    H136052   5.302   4.167   1.532 -1.0453  2.4920  0.9439
 4831TIP3    H236053   5.216   4.238   1.429 -0.5922  0.0050 -1.2614
 4832TIP3   OH236054   4.546   1.141   1.162 -0.0272 -0.1064 -1.0230
 4832TIP3    H136055   4.452   1.145   1.176 -0.0052 -1.1574 -0.4736
 4832TIP3    H236056   4.583   1.201   1.227 -0.2853 -0.1248 -0.8576
 4833TIP3   OH236057   0.692   3.635   1.170  0.0534  0.1618  0.0632
 4833TIP3    H136058   0.701   3.726   1.199 -1.6346  0.3051  0.2900
 4833TIP3    H236059   0.751   3.627   1.096  1.0408  1.1253  0.7153
 4834TIP3   OH236060   0.717   2.989   1.460 -0.1825  0.1669  0.2770
 4834TIP3    H136061   0.784   3.051   1.489  1.0563 -1.5507  1.2819
 4834TIP3    H236062   0.645   3.000   1.522 -1.0224  2.2147 -0.9659
 4835TIP3   OH236063   6.184   1.763   8.262  0.5484  0.3138  0.4508
 4835TIP3    H136064   6.173   1.751   8.168 -2.5579 -1.8866  0.9093
 4835TIP3    H236065   6.131   1.839   8.283 -0.3052 -0.3001  0.5924
 4836TIP3   OH236066   5.270   6.450   7.385  0.5457  0.1878  0.3463
 4836TIP3    H136067   5.272   6.536   7.426 -1.3746  0.1868  0.5440
 4836TIP3    H236068   5.183   6.416   7.406  1.3809 -1.9511  0.5493
 4837TIP3   OH236069   0.369   1.443   0.102 -0.1657  0.3273 -0.4086
 4837TIP3    H136070   0.312   1.413   0.172 -1.8737  1.9876 -1.0096
 4837TIP3    H236071   0.316   1.436   0.022  1.7441 -1.6061 -1.6408
 4838TIP3   OH236072   0.431   1.780   0.826  0.0447 -0.1092  0.0674
 4838TIP3    H136073   0.517   1.778   0.869 -0.5664  1.2055  1.4821
 4838TIP3    H236074   0.443   1.837   0.750  0.7404 -1.0822 -0.5708
 4839TIP3   OH236075   0.967   5.140   1.627 -0.5515  0.5859  0.1115
 4839TIP3    H136076   1.014   5.189   1.694 -1.6049 -0.4295  1.6510
 4839TIP3    H236077   1.002   5.173   1.544  0.8296  1.8319  1.1430
 4840TIP3   OH236078   1.772   5.842   0.792  0.3755 -0.9470 -0.4811
 4840TIP3    H136079   1.728   5.894   0.859 -1.1798 -0.4891 -1.8073
 4840TIP3    H236080   1.827   5.905   0.745  0.1435 -0.9243 -0.7228
 4841TIP3   OH236081   3.491   3.718   1.219  0.0700 -0.2521  0.3504
 4841TIP3    H136082   3.505   3.675   1.303  0.5485  0.8064  0.8360
 4841TIP3    H236083   3.473   3.647   1.158  0.8711 -1.1318  1.1137
 4842TIP3   OH236084   1.404   3.766   7.303  0.3325  0.1746 -0.5225
 4842TIP3    H136085   1.371   3.743   7.216  0.5954 -0.9957 -0.3260
 4842TIP3    H236086   1.492   3.728   7.306  0.5430  0.6817  0.0619
 4843TIP3   OH236087   3.934   0.548   6.810  0.0776  0.5066  0.1567
 4843TIP3    H136088   3.879   0.484   6.855 -0.6706  0.1681 -1.1877
 4843TIP3    H236089   4.008   0.497   6.775 -0.7144  0.2618 -1.2445
 4844TIP3   OH236090   2.995   5.968   7.345  0.3530 -0.1389 -0.2395
 4844TIP3    H136091   3.027   5.902   7.405 -1.1752 -2.3530 -1.7095
 4844TIP3    H236092   3.014   5.932   7.258  0.5304  1.9277 -1.1117
 4845TIP3   OH236093   3.636   0.515   8.224 -0.2588  0.2524  0.2184
 4845TIP3    H136094   3.595   0.428   8.228  0.8739 -0.2840  0.3577
 4845TIP3    H236095   3.566   0.572   8.191 -0.9256 -0.7651 -0.1950
 4846TIP3   OH236096   3.572   0.364   0.815 -0.2580  0.8049  0.4289
 4846TIP3    H136097   3.606   0.302   0.879  0.5602  0.3075 -0.4673
 4846TIP3    H236098   3.481   0.378   0.841 -0.2385 -0.2068  1.0740
 4847TIP3   OH236099   3.932   6.869   8.313 -0.3094  0.1867  0.1753
 4847TIP3    H136100   3.943   6.953   8.357  0.6164 -0.2870  0.8868
 4847TIP3    H236101   3.960   6.804   8.377  1.3419 -0.5232 -1.1783
 4848TIP3   OH236102   6.092   4.304   6.647 -0.5990  0.0985 -0.1541
 4848TIP3    H136103   6.133   4.226   6.610  0.6916  1.4486 -1.7668
 4848TIP3    H236104   6.005   4.306   6.609 -0.3968 -0.2056 -0.6449
 4849TIP3   OH236105   3.604   6.584   7.110  0.0363  1.1155 -0.6892
 4849TIP3    H136106   3.582   6.667   7.069  0.9401  1.1226 -1.1766
 4849TIP3    H236107   3.664   6.542   7.049  0.2610  0.4820 -0.0459
 4850TIP3   OH236108   6.188   0.965   6.904 -0.4640 -0.0491  0.5145
 4850TIP3    H136109   6.166   0.913   6.982  0.9561  0.0358  1.0094
 4850TIP3    H236110   6.108   1.013   6.884 -0.9392 -0.2631  1.7705
 4851TIP3   OH236111   3.585   2.650   0.239  0.1732 -0.3224  0.2249
 4851TIP3    H136112   3.499   2.672   0.204  0.5465  0.1664 -0.4307
 4851TIP3    H236113   3.568   2.596   0.316 -0.7595  0.8773  0.8907
 4852TIP3   OH236114   5.911   1.430   7.626  1.0079 -0.1704  0.3651
 4852TIP3    H136115   5.981   1.476   7.579  1.7180 -0.5321  1.0340
 4852TIP3    H236116   5.861   1.500   7.669  0.7255  0.1141 -0.4124
 4853TIP3   OH236117   2.221   5.352   8.485  0.5219  0.2284  0.1667
 4853TIP3    H136118   2.258   5.324   8.401 -0.9247 -0.5454 -0.2443
 4853TIP3    H236119   2.136   5.308   8.490  0.9370 -0.4647  2.4479
 4854TIP3   OH236120   5.704   0.817   7.522 -0.2369  0.2731  0.0249
 4854TIP3    H136121   5.715   0.910   7.544  2.6490  0.0924 -0.2543
 4854TIP3    H236122   5.791   0.788   7.495 -1.1473 -2.4306 -0.3535
 4855TIP3   OH236123   0.496   6.627   2.507 -0.2512 -0.2517 -0.1603
 4855TIP3    H136124   0.481   6.549   2.453  0.4888 -2.1653  2.1810
 4855TIP3    H236125   0.408   6.661   2.525 -0.5657 -0.2649 -1.5423
 4856TIP3   OH236126   6.479   2.493   8.591  0.4255  0.4313  0.1297
 4856TIP3    H136127   6.459   2.401   8.573  0.1251  0.0884  1.9894
 4856TIP3    H236128   6.403   2.541   8.557  0.3749 -0.0489 -0.4458
 4857TIP3   OH236129   5.579   0.659   8.208  0.4192 -0.8272 -0.3089
 4857TIP3    H136130   5.522   0.700   8.273 -0.5476 -2.1585 -0.2637
 4857TIP3    H236131   5.665   0.654   8.250 -0.3889 -2.5312  1.3145
 4858TIP3   OH236132   3.297   3.098   7.019 -0.0934 -0.0247  0.8465
 4858TIP3    H136133   3.303   3.073   7.111  0.6914  0.9992  1.0798
 4858TIP3    H236134   3.315   3.192   7.017 -1.5913  0.2832 -0.1839
 4859TIP3   OH236135   2.134   5.734   0.406  0.1420 -0.5408 -0.2794
 4859TIP3    H136136   2.109   5.707   0.318 -1.0150  0.3195 -0.2515
 4859TIP3    H236137   2.167   5.823   0.395 -0.8374 -0.0934  0.2425
 4860TIP3   OH236138   4.269   1.043   7.645  0.1620 -0.3128  0.2279
 4860TIP3    H136139   4.240   1.006   7.561  0.3693 -0.0208  0.0223
 4860TIP3    H236140   4.262   0.970   7.707 -0.1309 -0.4931 -0.0116
 4861TIP3   OH236141   2.701   0.977   7.028  0.2524 -0.3275  0.5945
 4861TIP3    H136142   2.703   0.937   7.115  2.1571 -1.0722  0.2641
 4861TIP3    H236143   2.724   1.068   7.043 -2.3054  0.2900  1.1520
 4862TIP3   OH236144   4.364   0.298   7.686  0.1104 -0.3278 -0.1080
 4862TIP3    H136145   4.315   0.250   7.753 -0.6022  1.8740  1.0518
 4862TIP3    H236146   4.455   0.290   7.712 -0.1622  0.6142  1.2890
 4863TIP3   OH236147   0.401   2.116   1.080  0.1279  0.4929  0.0337
 4863TIP3    H136148   0.384   2.082   0.992 -0.1921  2.4971 -0.7541
 4863TIP3    H236149   0.457   2.051   1.121  0.2225 -0.5353 -1.6315
 4864TIP3   OH236150   4.641   4.116   0.305  0.2158 -0.1810  0.1327
 4864TIP3    H136151   4.594   4.192   0.271 -0.4130 -0.4320  0.4132
 4864TIP3    H236152   4.628   4.049   0.238  0.6681 -0.0745 -0.0594
 4865TIP3   OH236153   4.924   1.457   6.405  0.3649  0.4605 -0.6153
 4865TIP3    H136154   4.921   1.533   6.463  0.6088  0.5506 -0.7216
 4865TIP3    H236155   5.011   1.460   6.366  0.1808  0.4387 -1.0366
 4866TIP3   OH236156   2.754   1.653   1.520  0.3911 -0.0399  0.0057
 4866TIP3    H136157   2.848   1.668   1.529  0.6364 -0.8895 -0.9221
 4866TIP3    H236158   2.731   1.598   1.595  1.1796 -1.9896 -1.0982
 4867TIP3   OH236159   4.099   4.173   0.537  0.3944  0.7289 -0.3303
 4867TIP3    H136160   4.041   4.158   0.612 -1.1955  2.1234 -1.1988
 4867TIP3    H236161   4.141   4.088   0.522 -0.0613  0.1392  1.4464
 4868TIP3   OH236162   1.330   5.454   0.392 -0.0489 -0.0898 -0.2352
 4868TIP3    H136163   1.254   5.501   0.358  0.1444  1.1824  0.9978
 4868TIP3    H236164   1.399   5.521   0.397  0.4911 -0.6974  0.7443
 4869TIP3   OH236165   5.812   1.388   0.892 -0.1683  0.2794  0.2033
 4869TIP3    H136166   5.891   1.436   0.870  1.0710 -1.4144  0.7949
 4869TIP3    H236167   5.801   1.400   0.987 -1.1060  1.1691  0.0026
 4870TIP3   OH236168   5.680   5.013   8.638 -0.2564 -0.0059  0.0904
 4870TIP3    H136169   5.718   4.971   8.715 -0.4200 -0.6963 -0.1990
 4870TIP3    H236170   5.716   4.964   8.563  1.1006  1.5816 -0.3830
 4871TIP3   OH236171   0.338   2.867   0.524 -0.2168 -0.0872  0.4004
 4871TIP3    H136172   0.407   2.800   0.529 -2.2928 -2.4606 -0.5414
 4871TIP3    H236173   0.382   2.948   0.551  2.5666 -1.6977  1.1937
 4872TIP3   OH236174   3.813   0.777   8.561  0.4622  0.2592 -0.6166
 4872TIP3    H136175   3.835   0.775   8.654  0.0508 -0.8314 -0.5340
 4872TIP3    H236176   3.864   0.851   8.527 -0.8323  1.9240  0.8276
 4873TIP3   OH236177   5.721   2.950   7.935  0.2961  0.2046  0.0343
 4873TIP3    H136178   5.685   3.034   7.910  0.0974  0.1840  0.2474
 4873TIP3    H236179   5.810   2.950   7.899 -0.1995 -0.0902 -1.2291
 4874TIP3   OH236180   0.899   0.929   7.204 -0.6184  0.0377  0.3739
 4874TIP3    H136181   0.926   0.852   7.254 -0.9126  1.6915  3.3252
 4874TIP3    H236182   0.971   0.946   7.144  0.4529 -1.2188  1.2661
 4875TIP3   OH236183   3.485   2.815   8.039 -0.5702  0.1805 -0.1297
 4875TIP3    H136184   3.448   2.840   7.954 -2.3288 -0.2310  0.4749
 4875TIP3    H236185   3.496   2.720   8.034 -0.1877  0.2179 -0.0642
 4876TIP3   OH236186   5.814   3.361   1.135 -0.2349  0.0801 -0.1010
 4876TIP3    H136187   5.800   3.267   1.146 -0.4881  0.0825 -0.3971
 4876TIP3    H236188   5.731   3.393   1.099 -0.0667  0.3783 -0.2217
 4877TIP3   OH236189   0.936   6.155   6.886 -0.1182  0.1237 -0.2576
 4877TIP3    H136190   0.989   6.084   6.851 -2.3490 -1.2330 -1.1277
 4877TIP3    H236191   0.937   6.221   6.817  0.2311 -0.0025 -0.3780
 4878TIP3   OH236192   0.069   4.378   1.417 -0.0241  0.2759  0.1092
 4878TIP3    H136193   0.148   4.336   1.453 -0.9345 -1.1676  0.4841
 4878TIP3    H236194   0.103   4.450   1.363  1.4982  0.5172  1.3155
 4879TIP3   OH236195   0.346   6.216   1.631 -1.0642  0.3358 -0.3608
 4879TIP3    H136196   0.364   6.279   1.562 -1.9889  0.1593 -0.7714
 4879TIP3    H236197   0.328   6.270   1.709  1.0881  0.5223  0.0668
 4880TIP3   OH236198   3.883   2.064   8.067 -0.3555 -0.6616  0.0200
 4880TIP3    H136199   3.792   2.071   8.038 -1.3726 -3.0152  2.2635
 4880TIP3    H236200   3.878   2.047   8.161  2.2890 -2.6416 -0.0649
 4881TIP3   OH236201   0.240   5.236   6.611 -0.0747  0.0264  0.1593
 4881TIP3    H136202   0.281   5.256   6.695  1.0555 -1.1456 -0.0796
 4881TIP3    H236203   0.300   5.174   6.569 -0.2928  1.0584 -1.7916
 4882TIP3   OH236204   6.371   6.348   7.852 -0.1242 -0.3784 -0.0001
 4882TIP3    H136205   6.385   6.295   7.931 -0.0262 -0.5862 -0.1540
 4882TIP3    H236206   6.275   6.353   7.844 -0.1442  0.2293  0.5145
 4883TIP3   OH236207   1.322   6.186   6.307  0.3743 -0.2064  0.0737
 4883TIP3    H136208   1.265   6.189   6.230 -1.9625  0.2861  1.7135
 4883TIP3    H236209   1.267   6.151   6.377  2.4551 -0.8014  1.5204
 4884TIP3   OH236210   5.372   1.447   6.370  0.0630  0.4280 -0.8989
 4884TIP3    H136211   5.450   1.476   6.417  0.5810  0.0720 -1.5205
 4884TIP3    H236212   5.388   1.355   6.350 -1.8531 -0.5687  1.6490
 4885TIP3   OH236213   1.599   6.141   0.733 -0.0318  0.2670  0.0015
 4885TIP3    H136214   1.568   6.165   0.820  1.3627 -1.6244  1.1233
 4885TIP3    H236215   1.694   6.134   0.743  0.1639  0.0790 -1.7031
 4886TIP3   OH236216   3.977   5.807   7.183 -0.0650  0.4450  0.1336
 4886TIP3    H136217   3.934   5.883   7.223  0.8686  0.5178  1.0304
 4886TIP3    H236218   3.969   5.737   7.248  0.1320  0.1215 -0.1842
 4887TIP3   OH236219   5.184   1.872   6.877  0.3542 -0.0337 -0.4064
 4887TIP3    H136220   5.154   1.884   6.786 -0.2768  2.4481  0.0606
 4887TIP3    H236221   5.265   1.822   6.869 -0.2905 -0.8945 -2.2294
 4888TIP3   OH236222   3.827   6.121   8.609  0.5856  0.3120 -0.0900
 4888TIP3    H136223   3.732   6.121   8.621  0.6577 -0.5731  0.5691
 4888TIP3    H236224   3.845   6.202   8.562 -0.5897  0.1041 -0.9520
 4889TIP3   OH236225   5.774   5.755   1.527 -0.5840 -0.6056  0.1295
 4889TIP3    H136226   5.837   5.687   1.550 -0.1712 -0.1514  0.3758
 4889TIP3    H236227   5.690   5.709   1.518 -0.5584 -0.9842  1.5012
 4890TIP3   OH236228   5.243   0.279   6.799  0.4192  0.2239 -0.6556
 4890TIP3    H136229   5.173   0.325   6.847  1.3248 -0.1663  1.1346
 4890TIP3    H236230   5.196   0.229   6.732 -1.4105 -2.0474  2.0624
 4891TIP3   OH236231   5.230   6.425   0.680 -0.2689 -0.1138  0.5638
 4891TIP3    H136232   5.173   6.502   0.687 -1.0515 -0.8037  2.3188
 4891TIP3    H236233   5.205   6.386   0.596 -1.2112  0.5310  0.5201
 4892TIP3   OH236234   3.201   5.551   7.714 -0.1730 -0.1140 -0.3212
 4892TIP3    H136235   3.127   5.539   7.773 -0.7320 -0.7576 -1.1348
 4892TIP3    H236236   3.255   5.617   7.757 -0.3806 -0.8216  1.0890
 4893TIP3   OH236237   1.825   6.396   8.016  0.0810 -0.2612  0.1087
 4893TIP3    H136238   1.865   6.316   8.050 -1.0208 -0.8501  0.0640
 4893TIP3    H236239   1.776   6.432   8.090 -2.1976 -1.4661 -0.7111
 4894TIP3   OH236240   6.571   4.154   2.544  0.0334  0.3217  0.2453
 4894TIP3    H136241   6.505   4.138   2.477  1.9538  1.0159 -1.9520
 4894TIP3    H236242   6.579   4.071   2.590 -1.5173 -0.1103 -0.1987
 4895TIP3   OH236243   3.245   5.182   2.074  0.0482  0.1944 -0.3001
 4895TIP3    H136244   3.197   5.100   2.062  0.3503  0.0107 -0.2627
 4895TIP3    H236245   3.336   5.160   2.051  0.4191  0.1276  1.1419
 4896TIP3   OH236246   4.496   3.986   6.460 -0.0994  0.5149  0.1059
 4896TIP3    H136247   4.443   3.920   6.415 -0.1494 -0.3831  1.4129
 4896TIP3    H236248   4.571   4.000   6.402 -0.7461  0.2931 -0.8052
 4897TIP3   OH236249   1.189   1.471   1.568  0.4041 -0.3798 -0.0659
 4897TIP3    H136250   1.279   1.438   1.572  0.5188  0.0331  1.4200
 4897TIP3    H236251   1.169   1.476   1.475  2.5191  1.1546 -0.5056
 4898TIP3   OH236252   1.696   2.797   7.134  0.1782  0.2964 -0.5989
 4898TIP3    H136253   1.729   2.807   7.045 -2.8952 -0.1689 -1.9236
 4898TIP3    H236254   1.671   2.886   7.160  0.0325  0.2697 -0.6485
 4899TIP3   OH236255   3.530   1.192   0.684 -0.5925 -0.7218 -0.1478
 4899TIP3    H136256   3.553   1.274   0.640 -1.1721 -0.7172 -0.4477
 4899TIP3    H236257   3.611   1.141   0.685 -0.3722 -0.3742 -0.4632
 4900TIP3   OH236258   1.887   6.490   1.950  0.3619  0.4176 -0.2226
 4900TIP3    H136259   1.853   6.470   1.863  0.9063  0.4268 -0.4390
 4900TIP3    H236260   1.824   6.552   1.986 -0.5839 -0.5952 -0.0857
 4901TIP3   OH236261   3.792   4.790   1.868  0.2042  0.7564 -0.7858
 4901TIP3    H136262   3.809   4.695   1.867 -0.7412  0.5732 -2.0734
 4901TIP3    H236263   3.732   4.802   1.942  0.7634  0.4480 -0.2658
 4902TIP3   OH236264   3.410   0.341   8.159  0.0186 -0.0269  0.2445
 4902TIP3    H136265   3.332   0.382   8.195  1.1896  1.6213  1.0527
 4902TIP3    H236266   3.418   0.378   8.071  0.1545  0.2040  0.3521
 4903TIP3   OH236267   6.298   1.962   0.239 -0.1858 -0.2536  0.3346
 4903TIP3    H136268   6.211   1.928   0.259 -0.0275 -0.1603  1.2143
 4903TIP3    H236269   6.356   1.886   0.248 -0.2779 -0.5278 -1.1443
 4904TIP3   OH236270   2.949   5.577   7.353 -0.3794 -0.2540 -0.0154
 4904TIP3    H136271   2.908   5.490   7.357 -0.9509  0.0444  2.6620
 4904TIP3    H236272   3.016   5.575   7.421  0.3937  1.0362 -0.7147
 4905TIP3   OH236273   2.885   1.964   0.590  0.3548 -0.1197  0.0137
 4905TIP3    H136274   2.895   2.056   0.565 -0.4788  0.5115  1.7981
 4905TIP3    H236275   2.793   1.945   0.574  0.7242 -0.9661 -1.2434
 4906TIP3   OH236276   4.337   4.356   6.837 -1.0017 -0.0188  0.0281
 4906TIP3    H136277   4.370   4.311   6.760 -0.0289  0.9915 -0.1891
 4906TIP3    H236278   4.345   4.449   6.815 -0.1632  0.3004  1.5431
 4907TIP3   OH236279   1.427   4.798   7.210  0.9664  0.0165 -0.2190
 4907TIP3    H136280   1.417   4.803   7.115  2.2259 -1.0426 -0.4329
 4907TIP3    H236281   1.508   4.748   7.223  0.2761 -0.7581  1.4104
 4908TIP3   OH236282   5.191   2.516   0.517 -0.6405  0.8657 -0.5886
 4908TIP3    H136283   5.265   2.488   0.463 -0.9383  0.3838 -0.7552
 4908TIP3    H236284   5.128   2.552   0.455 -1.4341 -0.6483 -0.7243
 4909TIP3   OH236285   2.444   1.005   8.476  0.3628  0.1455 -0.2308
 4909TIP3    H136286   2.513   1.031   8.415  0.1317  1.2503 -0.0439
 4909TIP3    H236287   2.483   1.016   8.563 -0.2190  1.3521 -0.1024
 4910TIP3   OH236288   5.682   4.656   1.737 -0.2093  0.1659  0.0513
 4910TIP3    H136289   5.686   4.570   1.695 -1.0018  1.1977 -2.3272
 4910TIP3    H236290   5.744   4.709   1.688 -2.5360  1.9226 -1.2090
 4911TIP3   OH236291   4.815   5.365   1.293  0.3268 -0.2907 -0.2638
 4911TIP3    H136292   4.897   5.318   1.277  0.7097  0.4354 -0.4976
 4911TIP3    H236293   4.829   5.410   1.377 -0.7119 -2.0134  0.9023
 4912TIP3   OH236294   3.973   2.141   1.225 -0.8748 -0.2070  0.7884
 4912TIP3    H136295   4.039   2.206   1.252 -1.3413 -0.1674  1.9151
 4912TIP3    H236296   4.008   2.103   1.145  3.1877 -3.8754  3.8122
 4913TIP3   OH236297   6.003   4.603   1.002  0.6183  0.1743  0.6815
 4913TIP3    H136298   5.934   4.577   1.063 -0.5526 -0.1816 -0.7612
 4913TIP3    H236299   5.967   4.677   0.955  1.1509 -0.1162 -0.2042
 4914TIP3   OH236300   2.963   1.592   7.169 -0.1872  0.2669  0.1547
 4914TIP3    H136301   2.913   1.549   7.100 -0.7076  1.5317 -0.2953
 4914TIP3    H236302   3.007   1.664   7.125 -0.4650  1.0562  1.1190
 4915TIP3   OH236303   1.285   3.671   1.069 -0.2714  0.0633  0.7087
 4915TIP3    H136304   1.372   3.631   1.066 -0.3752 -0.2269  1.6134
 4915TIP3    H236305   1.261   3.672   1.161 -1.0920  0.4537  0.5034
 4916TIP3   OH236306   0.896   3.812   0.332 -0.0747  0.3765 -0.0446
 4916TIP3    H136307   0.819   3.809   0.276  0.7776  1.6078 -1.3530
 4916TIP3    H236308   0.898   3.902   0.366  0.5143  0.2148  0.3734
 4917TIP3   OH236309   0.186   1.878   1.371 -0.2434 -0.3288  0.1742
 4917TIP3    H136310   0.262   1.838   1.412  1.0794  0.7077 -1.1427
 4917TIP3    H236311   0.195   1.971   1.390 -0.8927 -0.1311 -0.4342
 4918TIP3   OH236312   0.187   0.181   7.312 -0.3042  0.0986 -0.2763
 4918TIP3    H136313   0.165   0.155   7.222  1.5306 -1.8703 -0.2431
 4918TIP3    H236314   0.196   0.098   7.359  1.3308  0.9900  1.0791
 4919TIP3   OH236315   6.374   0.142   7.173  0.8333 -0.5325  0.3308
 4919TIP3    H136316   6.463   0.161   7.143  0.5356 -2.2957 -1.9610
 4919TIP3    H236317   6.356   0.054   7.139 -2.0479  0.0667  0.0534
 4920TIP3   OH236318   3.999   4.222   8.308 -0.0258  0.1220  0.1780
 4920TIP3    H136319   3.985   4.286   8.377  0.2371  0.8217 -0.4103
 4920TIP3    H236320   3.944   4.251   8.236  2.4246  1.5154 -1.2627
 4921TIP3   OH236321   6.620   3.666   7.573 -0.0586  0.1045 -0.4900
 4921TIP3    H136322   6.602   3.646   7.665 -1.4226  0.4230 -0.6569
 4921TIP3    H236323   6.625   3.761   7.570 -1.6482  0.2119 -0.9687
 4922TIP3   OH236324   0.940   0.997   1.033  0.3747  0.0479 -0.1374
 4922TIP3    H136325   0.989   1.008   1.114  2.9462 -2.5216 -1.1886
 4922TIP3    H236326   0.872   1.065   1.037  0.6317  0.3169  3.8899
 4923TIP3   OH236327   5.311   0.775   7.659 -0.0240  0.6004  0.6660
 4923TIP3    H136328   5.369   0.793   7.733 -2.2055  2.3725  2.0955
 4923TIP3    H236329   5.319   0.851   7.603  0.5427 -0.0923 -0.2149
 4924TIP3   OH236330   1.312   5.918   6.777  0.2146  0.2774  0.0673
 4924TIP3    H136331   1.369   5.930   6.701 -0.4898  0.7202 -0.4043
 4924TIP3    H236332   1.224   5.939   6.745 -0.1360  0.1891  0.9309
 4925TIP3   OH236333   6.661   2.926   1.013 -0.1562 -0.4470  0.7576
 4925TIP3    H136334   6.578   2.929   1.061 -0.3311  0.9422  0.4229
 4925TIP3    H236335   6.675   3.016   0.983  2.0895 -0.3527  1.8385
 4926TIP3   OH236336   1.292   4.980   2.560  1.0510 -0.5010 -0.3758
 4926TIP3    H136337   1.382   5.003   2.582  0.8052  0.1966 -0.0724
 4926TIP3    H236338   1.279   5.014   2.472  0.1920  2.0653  0.6472
 4927TIP3   OH236339   3.502   5.458   0.846  0.0736  0.0994  0.2979
 4927TIP3    H136340   3.471   5.544   0.817  0.0397 -0.2023 -0.5881
 4927TIP3    H236341   3.503   5.405   0.767  1.4424 -0.3199  0.5647
 4928TIP3   OH236342   0.822   2.741   2.345  0.2008  0.4886  0.5644
 4928TIP3    H136343   0.853   2.812   2.402 -0.4686  0.5612  0.8432
 4928TIP3    H236344   0.840   2.773   2.256  1.0270  0.4771  0.7147
 4929TIP3   OH236345   3.402   6.624   7.831 -0.3246  0.0702 -0.2111
 4929TIP3    H136346   3.489   6.597   7.861 -0.5283  2.1735  2.6597
 4929TIP3    H236347   3.419   6.697   7.771 -0.0662  0.5369  0.4138
 4930TIP3   OH236348   2.363   4.567   7.923  0.4838  0.0021 -0.0860
 4930TIP3    H136349   2.450   4.588   7.887 -0.1823 -0.0411 -1.8169
 4930TIP3    H236350   2.340   4.485   7.881 -0.1769 -0.2854  0.8135
 4931TIP3   OH236351   1.630   1.386   1.287 -0.1762 -0.9332 -0.7749
 4931TIP3    H136352   1.620   1.468   1.335  0.4838 -1.0341 -0.4540
 4931TIP3    H236353   1.556   1.384   1.227 -0.3383 -0.2252 -0.6063
 4932TIP3   OH236354   1.273   4.780   8.644  0.1542  0.2401  0.6262
 4932TIP3    H136355   1.274   4.737   8.730 -0.2900  0.6452  0.8393
 4932TIP3    H236356   1.205   4.733   8.595 -1.2931  1.5178  1.3076
 4933TIP3   OH236357   0.750   0.092   8.455 -0.7867  0.6699  0.3713
 4933TIP3    H136358   0.801   0.093   8.374  0.6202  3.7385  1.1761
 4933TIP3    H236359   0.704   0.176   8.456 -0.9429  0.6153  2.6508
 4934TIP3   OH236360   1.287   6.152   7.705 -0.5295 -0.1046  0.1472
 4934TIP3    H136361   1.317   6.242   7.708 -1.2712  0.1431  0.6233
 4934TIP3    H236362   1.335   6.112   7.633  0.3368  0.4709  0.3910
 4935TIP3   OH236363   3.431   2.229   0.721 -0.2974  0.0539 -0.1513
 4935TIP3    H136364   3.363   2.165   0.701 -0.0864 -0.1264 -0.2982
 4935TIP3    H236365   3.436   2.230   0.816  0.8878 -1.4286 -0.1535
 4936TIP3   OH236366   3.018   3.947   6.929 -0.2886 -0.0242  0.3859
 4936TIP3    H136367   3.014   4.027   6.981 -2.0121 -0.0870  0.4153
 4936TIP3    H236368   3.039   3.878   6.992  1.1965  0.3734  0.3619
 4937TIP3   OH236369   2.944   6.056   6.411  0.3729  0.1950 -0.3338
 4937TIP3    H136370   2.976   5.966   6.404 -1.9983 -0.9531  1.9054
 4937TIP3    H236371   2.998   6.095   6.480 -0.5474 -0.5341  0.8303
 4938TIP3   OH236372   1.827   5.043   2.291  0.1285  0.1781  0.3081
 4938TIP3    H136373   1.793   5.014   2.206  2.0021 -1.3469  0.0237
 4938TIP3    H236374   1.791   5.132   2.302 -1.0974 -0.0356 -1.5083
 4939TIP3   OH236375   3.347   2.682   2.173  0.0594  0.0528 -0.5382
 4939TIP3    H136376   3.307   2.718   2.252 -0.4448 -0.4627 -0.5507
 4939TIP3    H236377   3.408   2.750   2.144  1.4316 -0.3804  1.1582
 4940TIP3   OH236378   5.132   2.943   1.463 -0.1611  0.6064 -0.1466
 4940TIP3    H136379   5.117   2.955   1.370  1.9667  0.3177 -0.5894
 4940TIP3    H236380   5.207   2.883   1.468  0.4817  1.4810  1.7042
 4941TIP3   OH236381   6.127   2.173   0.724 -0.3967 -0.5808 -0.5550
 4941TIP3    H136382   6.047   2.210   0.762  0.5130 -0.0575  0.9524
 4941TIP3    H236383   6.187   2.248   0.718  0.4047 -1.2059 -0.4858
 4942TIP3   OH236384   6.302   0.179   8.529 -0.7477 -0.0581 -0.4778
 4942TIP3    H136385   6.386   0.200   8.489 -0.3701 -0.3352  0.1586
 4942TIP3    H236386   6.292   0.242   8.601 -0.9312 -0.2359 -0.3450
 4943TIP3   OH236387   2.069   4.253   6.262 -0.3098  0.1648  0.0233
 4943TIP3    H136388   1.975   4.244   6.250 -0.3301  1.4330 -0.9595
 4943TIP3    H236389   2.085   4.222   6.352 -1.4636 -1.2018 -0.2020
 4944TIP3   OH236390   6.639   0.157   7.083 -0.1771 -0.2150 -0.7916
 4944TIP3    H136391   6.657   0.102   7.007  1.3191  0.2667 -0.8143
 4944TIP3    H236392   6.690   0.237   7.068  0.6356 -0.3537  0.9696
 4945TIP3   OH236393   3.447   4.806   6.610  0.4615  0.0774 -0.3531
 4945TIP3    H136394   3.368   4.786   6.660 -0.2481  2.1067 -0.5863
 4945TIP3    H236395   3.423   4.791   6.519 -0.8694  3.8241 -0.7977
 4946TIP3   OH236396   0.916   6.521   0.434  0.4650 -0.1180 -0.1888
 4946TIP3    H136397   0.841   6.556   0.483 -0.1181 -0.1364 -1.0470
 4946TIP3    H236398   0.877   6.456   0.375  1.4590 -1.8801  1.0128
 4947TIP3   OH236399   1.458   6.086   1.282  0.3756 -0.2248  0.8532
 4947TIP3    H136400   1.385   6.118   1.229  0.7528 -0.6356  0.0638
 4947TIP3    H236401   1.487   6.162   1.333  0.7551  0.5012 -0.4050
 4948TIP3   OH236402   3.781   2.419   7.870 -0.3521 -0.5900  0.3245
 4948TIP3    H136403   3.745   2.431   7.958  2.2125 -0.3420  1.4306
 4948TIP3    H236404   3.751   2.332   7.844  0.5012 -1.5299  2.3243
 4949TIP3   OH236405   0.759   0.747   7.495 -0.4997 -0.5710  0.1251
 4949TIP3    H136406   0.745   0.712   7.407  0.5635  0.1470 -0.3600
 4949TIP3    H236407   0.841   0.707   7.524 -1.0577 -1.1301  0.9765
 4950TIP3   OH236408   5.443   2.204   2.718 -0.2554 -0.1526  0.0133
 4950TIP3    H136409   5.404   2.290   2.735  0.9871  0.3363  0.5457
 4950TIP3    H236410   5.386   2.142   2.763 -1.7801  0.2506 -1.2556
 4951TIP3   OH236411   4.505   5.084   0.184  0.2372  0.0076  0.0423
 4951TIP3    H136412   4.479   5.143   0.255 -2.5810 -0.7601 -0.2083
 4951TIP3    H236413   4.600   5.093   0.178  0.3766  1.3726  2.7622
 4952TIP3   OH236414   0.229   1.229   7.669  0.1536  0.2250 -0.0402
 4952TIP3    H136415   0.291   1.298   7.691  1.6661 -1.3379  0.8176
 4952TIP3    H236416   0.258   1.196   7.584 -0.8700  0.9481 -0.6886
 4953TIP3   OH236417   1.010   1.282   8.022  0.1722  0.0121 -0.7555
 4953TIP3    H136418   0.940   1.244   7.969  0.5421 -0.0409 -1.2134
 4953TIP3    H236419   0.966   1.347   8.077 -0.6118 -1.6806  0.6895
 4954TIP3   OH236420   6.078   5.652   0.097  0.0334  0.0374  0.1453
 4954TIP3    H136421   6.041   5.714   0.033 -0.2117  0.3124  0.5469
 4954TIP3    H236422   6.023   5.663   0.175  1.3511  0.9245  0.9949
 4955TIP3   OH236423   4.762   3.749   7.701 -0.2118 -0.6676 -0.2374
 4955TIP3    H136424   4.752   3.801   7.621 -1.3605  0.5539  0.6488
 4955TIP3    H236425   4.672   3.726   7.725  0.1114 -0.9452  0.7365
 4956TIP3   OH236426   1.454   5.267   1.803 -0.1396  0.0701  0.2850
 4956TIP3    H136427   1.416   5.229   1.724  1.5053  0.7330 -0.8850
 4956TIP3    H236428   1.394   5.242   1.873 -1.3810 -0.9688 -1.0869
 4957TIP3   OH236429   1.901   5.906   0.552 -0.3709 -0.1254 -0.8087
 4957TIP3    H136430   1.865   5.934   0.468 -2.1459  0.6487  0.1512
 4957TIP3    H236431   1.957   5.978   0.580 -2.5119  1.2533  0.2220
 4958TIP3   OH236432   5.164   3.446   1.968 -0.1174  0.2371  0.4127
 4958TIP3    H136433   5.134   3.469   2.056  1.0033 -0.7349  1.0791
 4958TIP3    H236434   5.223   3.372   1.982  0.5975  0.4952 -1.0981
 4959TIP3   OH236435   6.636   1.973   8.051 -0.2156 -0.0859  0.4167
 4959TIP3    H136436   6.618   2.014   7.966  2.3200 -0.9805 -0.6721
 4959TIP3    H236437   6.598   1.885   8.044 -1.4579  0.4028  0.8800
 4960TIP3   OH236438   2.963   3.167   7.407 -0.0339  0.0209  0.1783
 4960TIP3    H136439   2.953   3.258   7.435  0.3609  0.5625 -1.3205
 4960TIP3    H236440   2.895   3.155   7.340  0.3534 -0.5659 -0.1238
 4961TIP3   OH236441   1.731   0.297   0.866  0.0128 -0.0603  0.6203
 4961TIP3    H136442   1.804   0.235   0.865 -0.3609 -0.5491 -1.5366
 4961TIP3    H236443   1.656   0.247   0.833 -0.5779  1.2129 -0.0669
 4962TIP3   OH236444   3.977   5.515   8.184 -0.4246 -0.0150  0.1659
 4962TIP3    H136445   4.027   5.446   8.228 -1.9280 -1.7896 -0.7596
 4962TIP3    H236446   4.009   5.513   8.094 -0.5195  0.4568  0.1231
 4963TIP3   OH236447   3.081   6.833   7.789 -0.4407 -0.4058  0.5096
 4963TIP3    H136448   3.129   6.842   7.872  0.3095 -0.8630  0.1302
 4963TIP3    H236449   3.116   6.754   7.749 -0.3168  0.1839 -0.5654
 4964TIP3   OH236450   4.292   4.211   6.574 -0.1594  0.1352 -0.0946
 4964TIP3    H136451   4.317   4.124   6.542  2.1573  0.3432  0.9465
 4964TIP3    H236452   4.353   4.271   6.530 -0.7142  1.0564  0.3589
 4965TIP3   OH236453   3.342   3.920   7.138 -0.5010 -0.2211  0.3459
 4965TIP3    H136454   3.265   3.976   7.131 -0.1020  0.2038 -0.9348
 4965TIP3    H236455   3.415   3.977   7.116  0.1607 -0.6938  1.2438
 4966TIP3   OH236456   4.461   1.329   0.907 -0.5178 -0.1462  0.2562
 4966TIP3    H136457   4.394   1.386   0.870  1.5335  1.0370 -2.0022
 4966TIP3    H236458   4.488   1.373   0.988 -1.6911 -0.0755  0.6208
 4967TIP3   OH236459   4.120   1.409   7.536 -0.2221 -0.0147  0.1301
 4967TIP3    H136460   4.120   1.454   7.620 -1.0253  0.2467 -0.0053
 4967TIP3    H236461   4.210   1.417   7.505 -0.1348  0.6763  0.5482
 4968TIP3   OH236462   2.264   6.672   0.977  0.0732 -0.5719  0.3976
 4968TIP3    H136463   2.326   6.601   0.959 -0.2614 -0.3995 -1.7386
 4968TIP3    H236464   2.239   6.704   0.890 -0.9090  1.1952  1.2805
 4969TIP3   OH236465   0.059   2.901   0.561 -0.3240  0.3376  0.0224
 4969TIP3    H136466   0.151   2.907   0.533 -0.6425  0.9093 -0.9538
 4969TIP3    H236467   0.027   2.991   0.555 -0.3892  0.5276  2.4379
 4970TIP3   OH236468   6.544   5.644   8.437  0.0289  0.3882  0.7405
 4970TIP3    H136469   6.575   5.705   8.371 -0.0614  0.1482  0.4727
 4970TIP3    H236470   6.448   5.652   8.435 -0.1620 -1.5095 -1.0362
 4971TIP3   OH236471   1.728   1.452   8.249 -0.7030  0.3414  0.1325
 4971TIP3    H136472   1.771   1.531   8.215 -1.3661  0.9562  0.7015
 4971TIP3    H236473   1.697   1.407   8.171  0.0937  0.3928 -0.2283
 4972TIP3   OH236474   5.147   6.734   8.168  0.5504  0.2203  0.1506
 4972TIP3    H136475   5.212   6.804   8.180 -0.0591  1.2436 -2.0335
 4972TIP3    H236476   5.196   6.662   8.128  0.5786  0.5559 -0.4245
 4973TIP3   OH236477   4.735   3.638   0.633 -0.0704  0.0928  0.5421
 4973TIP3    H136478   4.650   3.663   0.597  0.4839 -0.1178 -0.9595
 4973TIP3    H236479   4.771   3.721   0.667 -0.0796  0.5675 -0.5469
 4974TIP3   OH236480   4.284   2.644   1.875  0.4649 -0.4559  0.6764
 4974TIP3    H136481   4.377   2.648   1.855  0.2896  1.1139  0.0006
 4974TIP3    H236482   4.275   2.569   1.935  1.9931 -1.2084  0.0148
 4975TIP3   OH236483   6.037   1.312   0.664 -0.0953  0.2746 -0.4101
 4975TIP3    H136484   5.982   1.331   0.588 -1.8044 -1.1544  0.3621
 4975TIP3    H236485   6.033   1.216   0.672  0.9659  0.3085  0.8291
 4976TIP3   OH236486   3.477   4.912   0.135 -0.2843 -0.1120 -0.0133
 4976TIP3    H136487   3.445   5.000   0.112 -1.2658 -0.8846 -1.8286
 4976TIP3    H236488   3.545   4.894   0.070 -0.1607 -0.7464  0.2843
 4977TIP3   OH236489   2.564   6.428   8.218  0.5578  0.4833  0.1765
 4977TIP3    H136490   2.485   6.382   8.247 -0.0505 -0.5400 -2.7441
 4977TIP3    H236491   2.632   6.361   8.218  1.0886  1.0044  1.2653
 4978TIP3   OH236492   0.928   4.519   0.127 -0.1684 -0.1542 -0.0786
 4978TIP3    H136493   0.905   4.426   0.123  1.3994 -0.6301  0.9532
 4978TIP3    H236494   0.978   4.535   0.047 -1.4835  0.1442 -0.8703
 4979TIP3   OH236495   4.846   3.978   7.203  0.1081  0.7306 -0.2368
 4979TIP3    H136496   4.897   4.032   7.142  1.1682 -0.8696 -0.8389
 4979TIP3    H236497   4.829   4.036   7.277  1.6375  1.7476 -0.6113
 4980TIP3   OH236498   6.417   4.992   6.786  0.5615 -0.6868  0.3414
 4980TIP3    H136499   6.333   4.948   6.800  0.6509 -0.5027  1.6321
 4980TIP3    H236500   6.427   5.048   6.863  0.8798  0.9268 -0.8232
 4981TIP3   OH236501   5.532   3.859   2.092  0.1434  0.1725  0.3147
 4981TIP3    H136502   5.496   3.944   2.064 -1.9645 -0.7046  0.1558
 4981TIP3    H236503   5.611   3.848   2.040 -1.3635  0.5431 -2.2202
 4982TIP3   OH236504   3.201   6.366   1.687 -0.0396  0.4179  0.6143
 4982TIP3    H136505   3.221   6.303   1.618 -1.8796 -0.4227  0.7571
 4982TIP3    H236506   3.264   6.347   1.756  3.3598  2.7809 -1.5516
 4983TIP3   OH236507   5.160   5.588   1.251  0.2419  0.1748 -0.2413
 4983TIP3    H136508   5.230   5.644   1.286  0.2752 -1.4030  2.5237
 4983TIP3    H236509   5.080   5.640   1.261  0.6497  0.8857 -0.6355
 4984TIP3   OH236510   4.901   1.077   1.250  0.0693 -0.0432  0.0614
 4984TIP3    H136511   4.857   1.130   1.316 -0.3666  1.6581 -1.5009
 4984TIP3    H236512   4.858   1.102   1.168  1.1779 -1.4226 -0.9710
 4985TIP3   OH236513   2.412   0.306   0.502  0.3997  0.1790 -0.1085
 4985TIP3    H136514   2.359   0.366   0.449 -0.1943  0.2015  0.5038
 4985TIP3    H236515   2.407   0.222   0.455 -1.6385 -0.2845  0.8366
 4986TIP3   OH236516   2.042   5.668   0.663 -0.4599  0.4062  0.4626
 4986TIP3    H136517   2.112   5.708   0.612 -0.2968  1.6852  1.6087
 4986TIP3    H236518   1.961   5.705   0.626 -0.4604 -0.1025 -0.0523
 4987TIP3   OH236519   1.403   0.224   1.370  0.3898 -0.2748  0.1203
 4987TIP3    H136520   1.316   0.240   1.333  0.4727 -0.2954 -0.0837
 4987TIP3    H236521   1.453   0.185   1.299  0.7623  0.3429  0.0341
 4988TIP3   OH236522   1.544   3.400   2.567  0.0766 -0.2977  0.3368
 4988TIP3    H136523   1.628   3.412   2.611  1.4520 -1.1892 -1.8715
 4988TIP3    H236524   1.549   3.458   2.491 -1.0084 -0.8536 -0.1781
 4989TIP3   OH236525   4.378   2.516   8.099  0.1810  0.5633 -0.1419
 4989TIP3    H136526   4.458   2.548   8.142 -1.0457  2.9830  0.5074
 4989TIP3    H236527   4.308   2.538   8.160 -1.1795  0.1197 -1.4935
 4990TIP3   OH236528   0.386   0.226   1.680 -0.1349 -0.4640  0.0069
 4990TIP3    H136529   0.294   0.246   1.694  0.6087  2.7890  1.1283
 4990TIP3    H236530   0.386   0.147   1.625 -3.5234 -0.7057  0.1789
 4991TIP3   OH236531   6.003   5.714   7.673  0.6181 -0.0004 -0.3012
 4991TIP3    H136532   5.938   5.784   7.686 -0.7593 -1.1291 -0.8162
 4991TIP3    H236533   6.082   5.760   7.645 -0.8490  1.2759 -2.7672
 4992TIP3   OH236534   6.332   0.985   0.540 -0.4226 -0.5844 -0.1988
 4992TIP3    H136535   6.361   1.076   0.552  1.2397 -0.9743 -0.9875
 4992TIP3    H236536   6.355   0.942   0.622 -0.0044 -0.5783 -0.3102
 4993TIP3   OH236537   0.410   0.219   8.205 -0.4988  0.0035 -0.4828
 4993TIP3    H136538   0.373   0.193   8.289  2.3710  0.8563  1.1722
 4993TIP3    H236539   0.337   0.260   8.158 -2.6121 -2.0984  0.8053
 4994TIP3   OH236540   1.015   6.687   1.087 -0.1669 -0.6734 -0.4239
 4994TIP3    H136541   1.011   6.601   1.129  0.8693 -0.5367 -0.0060
 4994TIP3    H236542   0.927   6.722   1.095  0.1952 -0.1534  2.7557
 4995TIP3   OH236543   6.820   3.836   8.070  0.2387  0.3362 -0.5166
 4995TIP3    H136544   6.734   3.803   8.095  0.5320 -1.1559 -1.3985
 4995TIP3    H236545   6.817   3.929   8.093 -1.1535  0.0466  0.6164
 4996TIP3   OH236546   1.953   0.477   1.796  0.4008  0.5322  0.1329
 4996TIP3    H136547   1.973   0.559   1.752  0.9245 -0.6347 -1.9387
 4996TIP3    H236548   1.865   0.489   1.832  0.4052  1.9262 -0.2676
 4997TIP3   OH236549   6.764   4.511   1.063 -0.0147  0.2182 -0.3962
 4997TIP3    H136550   6.764   4.415   1.062 -0.6515  0.2180 -0.7965
 4997TIP3    H236551   6.709   4.536   0.989  0.7479  0.9053 -0.7468
 4998TIP3   OH236552   4.380   0.457   8.011  0.6163  0.1630 -0.0330
 4998TIP3    H136553   4.412   0.367   8.021 -0.3362 -0.0771  1.2506
 4998TIP3    H236554   4.455   0.506   7.979  0.8180 -1.3231 -2.0019
 4999TIP3   OH236555   4.545   5.334   1.088 -0.1236 -0.0648 -0.4534
 4999TIP3    H136556   4.500   5.391   1.151  1.1947  0.7934 -0.2546
 4999TIP3    H236557   4.507   5.247   1.104  0.4747  0.0267  1.8542
 5000TIP3   OH236558   2.686   0.493   8.094 -0.0901 -0.2756 -0.5824
 5000TIP3    H136559   2.682   0.565   8.031 -0.8799  0.8916  0.7404
 5000TIP3    H236560   2.671   0.414   8.041 -0.9688  0.6734 -1.8066
 5001TIP3   OH236561   5.833   1.756   0.164 -0.1740  0.5537 -0.4615
 5001TIP3    H136562   5.787   1.672   0.165 -0.4028  0.6750 -0.6308
 5001TIP3    H236563   5.791   1.805   0.094  2.3562 -0.5367 -2.9805
 5002TIP3   OH236564   4.671   0.363   7.299  0.4310  0.5138 -0.6800
 5002TIP3    H136565   4.660   0.268   7.288 -0.1282  0.6793 -1.6047
 5002TIP3    H236566   4.765   0.373   7.317  0.2860 -0.3126  0.7695
 5003TIP3   OH236567   4.736   5.101   1.380  0.1754 -0.2538 -0.0846
 5003TIP3    H136568   4.718   5.185   1.337  2.1594 -0.0173 -0.5552
 5003TIP3    H236569   4.653   5.053   1.374 -0.2154  0.5651 -2.3552
 5004TIP3   OH236570   4.989   0.189   7.480  0.6575  0.0704 -0.3381
 5004TIP3    H136571   4.973   0.283   7.475 -1.9337 -0.2905 -0.0247
 5004TIP3    H236572   4.983   0.159   7.389  1.7152  0.1948 -0.4682
 5005TIP3   OH236573   2.210   4.906   6.819 -0.5303  0.3973 -0.3397
 5005TIP3    H136574   2.278   4.958   6.861  0.1358 -1.7942  1.5482
 5005TIP3    H236575   2.243   4.890   6.730  0.7580  0.5544  0.0867
 5006TIP3   OH236576   1.073   3.296   7.700 -0.1785 -0.1016 -0.2257
 5006TIP3    H136577   0.993   3.298   7.647 -0.4958 -1.7611  0.1178
 5006TIP3    H236578   1.042   3.278   7.789  0.3947  2.0893  0.4876
 5007TIP3   OH236579   6.171   0.214   1.471 -0.4918  0.2916  0.6986
 5007TIP3    H136580   6.077   0.217   1.451  0.0836  1.3628 -2.1634
 5007TIP3    H236581   6.186   0.291   1.526 -0.8306  1.8852 -1.3361
 5008TIP3   OH236582   6.476   0.646   8.005 -0.3180  0.3455 -0.0269
 5008TIP3    H136583   6.435   0.694   7.933  0.3627  1.4858  0.3175
 5008TIP3    H236584   6.551   0.603   7.965 -0.4614  0.2349 -0.1789
 5009TIP3   OH236585   3.586   4.211   8.113  0.1703  0.0345  0.3277
 5009TIP3    H136586   3.522   4.167   8.170 -1.1529  0.2294 -0.9399
 5009TIP3    H236587   3.534   4.243   8.040  1.7285  0.3365 -0.6903
 5010TIP3   OH236588   5.837   2.362   0.124 -0.0424  0.5076 -0.2038
 5010TIP3    H136589   5.827   2.456   0.109  0.4778  0.5407 -0.3724
 5010TIP3    H236590   5.773   2.322   0.066 -1.0044  0.7923  0.6443
 5011TIP3   OH236591   0.667   2.426   1.551 -0.2007 -0.2426 -0.2625
 5011TIP3    H136592   0.752   2.463   1.574 -1.1117  2.3484 -0.7216
 5011TIP3    H236593   0.625   2.409   1.636 -0.0301  0.5227 -0.0142
 5012TIP3   OH236594   4.381   4.761   1.438 -0.6505  0.2578  0.1632
 5012TIP3    H136595   4.466   4.724   1.463 -0.2442  0.2852 -1.1210
 5012TIP3    H236596   4.349   4.803   1.518  0.5333  0.2143  0.6778
 5013TIP3   OH236597   2.923   2.906   8.256  0.1275  0.1751 -0.0969
 5013TIP3    H136598   2.941   2.888   8.163  0.0225  1.1926 -0.3320
 5013TIP3    H236599   2.901   2.821   8.293 -0.8965 -0.0973 -1.2462
 5014TIP3   OH236600   6.605   3.304   8.438  0.0780 -0.0474  0.2573
 5014TIP3    H136601   6.603   3.212   8.464 -0.7410 -0.6434 -1.7892
 5014TIP3    H236602   6.564   3.350   8.511  2.9319 -0.8771  2.6149
 5015TIP3   OH236603   6.808   5.166   1.444 -0.3358  0.0802 -0.1955
 5015TIP3    H136604   6.742   5.105   1.411  0.4028 -0.7561 -0.1706
 5015TIP3    H236605   6.767   5.207   1.520 -1.2134  0.3617 -0.8030
 5016TIP3   OH236606   0.798   2.377   2.692  0.6472 -0.0457 -0.2644
 5016TIP3    H136607   0.713   2.371   2.737  0.5082 -0.4714 -0.5750
 5016TIP3    H236608   0.792   2.457   2.641 -0.1073 -0.7640 -1.3593
 5017TIP3   OH236609   5.981   4.157   2.048 -0.0577  0.0484  0.4499
 5017TIP3    H136610   5.966   4.064   2.065 -0.0677  0.4278  2.9832
 5017TIP3    H236611   5.894   4.193   2.029 -0.0946 -0.3914 -0.2311
 5018TIP3   OH236612   0.762   2.196   7.365  0.2685  0.0534  0.5093
 5018TIP3    H136613   0.857   2.203   7.365  0.2298  1.1440  2.0700
 5018TIP3    H236614   0.731   2.286   7.371 -0.8645 -0.2798 -0.0449
 5019TIP3   OH236615   5.181   5.909   0.206 -0.1663  0.1585 -0.4912
 5019TIP3    H136616   5.169   5.953   0.291  1.4022  2.6165 -1.4376
 5019TIP3    H236617   5.138   5.967   0.143  1.3799 -0.0066 -1.7318
 5020TIP3   OH236618   0.019   5.094   0.522 -0.0980 -0.7182 -0.2384
 5020TIP3    H136619  -0.045   5.107   0.451  0.5135 -0.4474 -0.7532
 5020TIP3    H236620   0.045   5.002   0.514  0.6928 -0.4506 -1.0113
 5021TIP3   OH236621   3.910   3.547   0.250 -0.0188  0.2441  0.4231
 5021TIP3    H136622   3.946   3.529   0.337 -0.6588 -0.9184  0.4738
 5021TIP3    H236623   3.863   3.466   0.227  0.0663  0.5667 -0.9582
 5022TIP3   OH236624   1.242   5.155   0.069 -0.6328  0.4430  0.0286
 5022TIP3    H136625   1.168   5.216   0.073 -0.4626  0.6546 -0.0146
 5022TIP3    H236626   1.277   5.154   0.159  0.2981  1.5838 -0.2929
 5023TIP3   OH236627   1.136   4.437   1.304 -0.0921 -0.2914  0.5446
 5023TIP3    H136628   1.121   4.366   1.241 -2.5128  0.5582  0.0620
 5023TIP3    H236629   1.167   4.392   1.383 -2.9070 -2.1658  0.7305
 5024TIP3   OH236630   0.296   3.096   1.269 -0.1816  0.3675 -0.4502
 5024TIP3    H136631   0.338   3.172   1.310 -0.2224 -0.2353  0.7618
 5024TIP3    H236632   0.253   3.132   1.191 -0.8474  1.7496  0.4983
 5025TIP3   OH236633   0.296   5.820   7.132 -0.4981  0.4159  0.0033
 5025TIP3    H136634   0.218   5.768   7.148 -0.2836  0.1966  0.3537
 5025TIP3    H236635   0.292   5.891   7.196  0.1807 -0.2635  0.8358
 5026TIP3   OH236636   1.178   5.179   2.254  0.6541  0.7080 -0.2422
 5026TIP3    H136637   1.095   5.173   2.205  1.2216  1.6363 -1.3669
 5026TIP3    H236638   1.169   5.257   2.308  0.1301 -0.1741  0.9766
 5027TIP3   OH236639   6.854   2.290   0.512 -0.1582 -0.3456 -0.2953
 5027TIP3    H136640   6.783   2.304   0.449 -0.5365  0.2728  0.2453
 5027TIP3    H236641   6.829   2.210   0.558  0.6186 -1.3552 -1.5648
 5028TIP3   OH236642   0.631   1.988   1.120 -0.0347 -0.0282  0.1466
 5028TIP3    H136643   0.700   1.992   1.054 -0.1965 -0.6030 -0.0698
 5028TIP3    H236644   0.610   1.895   1.125 -0.2329  0.0498  0.7947
 5029TIP3   OH236645   2.772   0.780   0.465 -0.0679 -0.2483  0.4835
 5029TIP3    H136646   2.753   0.708   0.525 -1.0695 -0.4800 -0.0928
 5029TIP3    H236647   2.764   0.859   0.519  0.3515 -0.5216  0.9577
 5030TIP3   OH236648   0.873   0.572   0.821 -0.0181  0.4229 -0.0807
 5030TIP3    H136649   0.930   0.619   0.882 -0.7421  1.7371 -0.3698
 5030TIP3    H236650   0.905   0.598   0.734  1.3826 -1.8886 -0.3472
 5031TIP3   OH236651   0.297   1.354   0.367  0.3230 -0.6408  0.2128
 5031TIP3    H136652   0.233   1.288   0.340 -0.2999 -0.0574  0.2080
 5031TIP3    H236653   0.244   1.421   0.410  0.5367  1.1425 -2.0796
 5032TIP3   OH236654   1.861   0.719   0.750 -0.1142 -0.4567 -0.2616
 5032TIP3    H136655   1.794   0.676   0.802 -0.2855  0.3247  0.1745
 5032TIP3    H236656   1.937   0.662   0.757 -0.9937 -1.8756 -1.5707
 5033TIP3   OH236657   3.935   1.889   0.683  0.1808 -0.2255  0.3608
 5033TIP3    H136658   3.896   1.839   0.612 -0.8452  0.3402  0.5068
 5033TIP3    H236659   3.863   1.942   0.718  0.8782  0.1909  1.2178
 5034TIP3   OH236660   5.167   2.938   8.307 -0.4177  0.0395 -0.3259
 5034TIP3    H136661   5.145   2.878   8.379  1.7266 -0.5090 -0.0710
 5034TIP3    H236662   5.231   2.890   8.254  0.7741  1.7981 -0.5628
 5035TIP3   OH236663   0.789   1.711   0.872 -0.1283  0.0659 -0.2747
 5035TIP3    H136664   0.774   1.684   0.962 -0.2939 -1.4015 -0.7228
 5035TIP3    H236665   0.793   1.807   0.876 -0.4130  0.0332  1.2357
 5036TIP3   OH236666   5.100   0.738   7.868  0.3699 -0.4736  0.4748
 5036TIP3    H136667   5.116   0.832   7.858 -0.5818 -0.1415  1.8704
 5036TIP3    H236668   5.143   0.699   7.792  2.0628  0.9378  0.6365
 5037TIP3   OH236669   1.138   3.981   1.637  0.0155  0.1833  0.0031
 5037TIP3    H136670   1.052   3.998   1.675 -0.1202  1.0088 -0.6711
 5037TIP3    H236671   1.186   4.063   1.647  0.7489 -0.2857  0.4182
 5038TIP3   OH236672   0.916   3.492   8.119  0.0223  0.1638  0.8485
 5038TIP3    H136673   0.890   3.530   8.035  2.5952  1.0747  0.3858
 5038TIP3    H236674   0.843   3.512   8.178 -1.1769  0.8101 -0.7820
 5039TIP3   OH236675   3.900   0.923   0.457  0.2864 -0.2868  0.1515
 5039TIP3    H136676   3.904   1.018   0.464 -1.3674 -0.2215  0.5756
 5039TIP3    H236677   3.983   0.893   0.496  1.6096  0.9926 -1.5392
 5040TIP3   OH236678   0.066   1.007   1.147  0.0638  0.0119 -0.0742
 5040TIP3    H136679   0.132   0.985   1.081  2.3883  0.9018  1.8223
 5040TIP3    H236680  -0.015   1.016   1.097  1.4706 -0.4880 -2.6267
 5041TIP3   OH236681   4.131   2.359   1.263 -0.2497  0.1020 -0.1724
 5041TIP3    H136682   4.147   2.443   1.220  0.6265 -0.4660 -1.0117
 5041TIP3    H236683   4.203   2.351   1.326  0.0388 -0.2958 -0.5457
 5042TIP3   OH236684   5.341   4.586   1.526 -0.5086 -0.2454 -0.0978
 5042TIP3    H136685   5.417   4.568   1.470 -1.1022  0.2175 -1.0842
 5042TIP3    H236686   5.368   4.558   1.613 -0.2197 -2.8309 -0.9347
 5043TIP3   OH236687   6.717   4.130   0.231  0.0845 -0.0280  0.8144
 5043TIP3    H136688   6.763   4.213   0.234 -1.2808  0.7919 -0.1192
 5043TIP3    H236689   6.628   4.152   0.205 -0.1665 -1.8340 -0.0333
 5044TIP3   OH236690   1.330   4.223   8.298  0.3302  0.1348  0.0205
 5044TIP3    H136691   1.375   4.185   8.223  1.3430  0.0405  0.6522
 5044TIP3    H236692   1.251   4.264   8.261 -0.2974 -1.7053 -0.7984
 5045TIP3   OH236693   0.326   0.905   7.541 -0.2102  0.2284 -0.1396
 5045TIP3    H136694   0.244   0.907   7.490  0.8401 -3.0250 -2.2558
 5045TIP3    H236695   0.347   0.998   7.555 -3.2229  1.2043 -1.1834
 5046TIP3   OH236696   5.931   1.249   7.164 -0.0541  0.2721  0.4736
 5046TIP3    H136697   5.930   1.180   7.099  2.9974  0.2589  0.3012
 5046TIP3    H236698   5.943   1.330   7.114  0.4621  0.4673  0.8990
 5047TIP3   OH236699   0.753   6.718   1.576 -0.1180  0.3505  0.1331
 5047TIP3    H136700   0.734   6.805   1.609  0.2129  0.7665 -0.7294
 5047TIP3    H236701   0.710   6.658   1.637  1.2716  1.0201  1.8712
 5048TIP3   OH236702   6.342   1.095   7.491 -0.0840 -0.6819  0.2943
 5048TIP3    H136703   6.297   1.104   7.575 -0.8952  0.0110 -0.1919
 5048TIP3    H236704   6.428   1.059   7.513  0.7087  1.8191  1.7025
 5049TIP3   OH236705   3.124   3.689   8.101 -0.3919  0.0253  0.6243
 5049TIP3    H136706   3.062   3.711   8.171 -1.5603  1.0296 -0.6843
 5049TIP3    H236707   3.140   3.772   8.056  2.2641 -0.1233  1.1675
 5050TIP3   OH236708   3.936   0.105   2.201  0.0522 -0.1963 -0.0390
 5050TIP3    H136709   3.942   0.187   2.151 -1.7576  0.1698  0.2569
 5050TIP3    H236710   3.933   0.134   2.293 -2.8729 -0.3511 -0.0031
 5051TIP3   OH236711   6.693   4.714   6.907  0.4037  0.1371  0.3083
 5051TIP3    H136712   6.698   4.793   6.961  1.2635  0.7107 -0.5903
 5051TIP3    H236713   6.762   4.724   6.842 -1.0199 -0.2263 -1.3244
 5052TIP3   OH236714   6.574   4.245   6.933  0.1081 -0.1768  0.2424
 5052TIP3    H136715   6.588   4.202   6.848  1.3499 -2.1249  1.3493
 5052TIP3    H236716   6.616   4.187   6.996 -0.0469  1.6415  2.1261
 5053TIP3   OH236717   1.700   5.417   7.131 -0.0770 -0.1442 -0.2087
 5053TIP3    H136718   1.715   5.412   7.225 -1.5442  0.3649  0.0814
 5053TIP3    H236719   1.786   5.399   7.092  0.4864 -0.6831  1.2035
 5054TIP3   OH236720   3.124   6.754   6.976  0.7789  0.2465 -0.7282
 5054TIP3    H136721   3.100   6.814   6.906 -0.4687  0.7570  0.0987
 5054TIP3    H236722   3.043   6.707   6.996  1.4134 -0.7432 -0.4392
 5055TIP3   OH236723   2.225   5.281   7.575 -0.7794  0.3205  0.0562
 5055TIP3    H136724   2.167   5.206   7.590 -2.0539  1.0997 -0.7219
 5055TIP3    H236725   2.305   5.244   7.540 -2.1838 -0.5818 -2.4551
 5056TIP3   OH236726   4.958   0.800   0.208  0.6234 -0.2368 -0.2754
 5056TIP3    H136727   5.010   0.856   0.151  0.4208  0.4541  0.2030
 5056TIP3    H236728   4.868   0.813   0.178  0.6360 -0.8377 -0.5999
 5057TIP3   OH236729   1.333   6.249   8.065  0.3223 -0.6087  0.0225
 5057TIP3    H136730   1.296   6.171   8.023 -2.0729  0.5076 -0.1065
 5057TIP3    H236731   1.263   6.315   8.060  1.9274  1.2842  0.9287
 5058TIP3   OH236732   5.590   2.209   7.132 -0.1698 -0.1079  0.8470
 5058TIP3    H136733   5.596   2.174   7.043  0.0851  2.2030 -0.1226
 5058TIP3    H236734   5.655   2.279   7.135 -1.1398  0.7929  2.3840
 5059TIP3   OH236735   5.066   3.596   2.262 -0.0070  0.8113  0.3100
 5059TIP3    H136736   5.068   3.503   2.282 -1.1031  0.9366  1.1048
 5059TIP3    H236737   5.154   3.616   2.228  0.5322 -0.3071  1.0082
 5060TIP3   OH236738   6.210   3.877   1.288  0.2002 -0.0111  0.0671
 5060TIP3    H136739   6.275   3.809   1.267 -0.4389  0.0881 -2.4976
 5060TIP3    H236740   6.127   3.830   1.291 -0.1590  0.5193 -1.0681
 5061TIP3   OH236741   5.146   4.575   7.441  0.1515  0.0401  0.1656
 5061TIP3    H136742   5.209   4.588   7.369 -0.3485  3.0123  0.1486
 5061TIP3    H236743   5.199   4.582   7.520 -0.0327  2.2128  0.1434
 5062TIP3   OH236744   3.857   3.552   6.805  0.1533 -0.0503  0.3093
 5062TIP3    H136745   3.842   3.495   6.730 -0.3811 -0.3266  0.6239
 5062TIP3    H236746   3.860   3.640   6.768 -0.1758 -0.1770 -0.0281
 5063TIP3   OH236747   2.531   1.328   8.162 -0.2188  0.1934  1.0813
 5063TIP3    H136748   2.471   1.266   8.120  1.2547 -1.3560  1.1847
 5063TIP3    H236749   2.560   1.385   8.091  1.0160 -1.3919  0.2558
 5064TIP3   OH236750   2.849   6.694   0.655  0.1960 -0.0199 -0.2177
 5064TIP3    H136751   2.823   6.694   0.747 -0.4155  2.5522 -0.3329
 5064TIP3    H236752   2.872   6.602   0.637  1.4852 -0.4058  2.7877
 5065TIP3   OH236753   6.701   2.374   1.489 -0.3807  0.7852 -0.4868
 5065TIP3    H136754   6.628   2.372   1.428 -0.5539  0.4621 -0.2770
 5065TIP3    H236755   6.707   2.284   1.522 -1.2547  1.2611  1.0897
 5066TIP3   OH236756   6.664   3.546   2.408 -0.4322 -0.3004 -0.9116
 5066TIP3    H136757   6.647   3.635   2.437 -2.4448 -0.7275 -0.5951
 5066TIP3    H236758   6.644   3.492   2.485  0.7593 -1.0238 -1.0944
 5067TIP3   OH236759   5.886   0.183   8.399  0.1519 -0.0621  0.0274
 5067TIP3    H136760   5.933   0.233   8.332  0.8602  1.8375  1.8302
 5067TIP3    H236761   5.950   0.119   8.430  0.1525 -0.2812 -0.4249
 5068TIP3   OH236762   2.470   2.771   8.508  0.1630  0.0899  0.2286
 5068TIP3    H136763   2.413   2.845   8.529 -2.3383 -1.4861 -0.5966
 5068TIP3    H236764   2.462   2.712   8.583 -0.5229 -0.8184 -0.5308
 5069TIP3   OH236765   0.047   4.387   6.683 -0.0009 -0.2469  0.1664
 5069TIP3    H136766   0.012   4.343   6.605 -4.0109  2.5375  0.0796
 5069TIP3    H236767   0.097   4.461   6.647  0.8946 -0.7715  0.3041
 5070TIP3   OH236768   6.475   4.041   0.791 -0.1680 -0.2943  0.3049
 5070TIP3    H136769   6.390   4.005   0.819 -0.0108 -0.9123  0.0096
 5070TIP3    H236770   6.528   4.040   0.871  0.0487 -1.3766  0.1674
 5071TIP3   OH236771   4.249   5.844   7.079  0.1695  0.4557  0.4350
 5071TIP3    H136772   4.200   5.807   7.152 -0.6768  0.4838 -0.0957
 5071TIP3    H236773   4.232   5.938   7.084  0.0964  0.4570  0.2062
 5072TIP3   OH236774   5.838   1.711   1.036 -0.2764 -0.1652  0.0418
 5072TIP3    H136775   5.829   1.631   1.087 -0.1642 -0.3792 -0.2693
 5072TIP3    H236776   5.924   1.705   0.996 -0.9477 -0.7493 -1.4027
 5073TIP3   OH236777   5.421   4.396   6.970  0.5179  0.1507 -0.0243
 5073TIP3    H136778   5.353   4.458   6.996  0.9582  0.4414  0.4540
 5073TIP3    H236779   5.415   4.393   6.874 -1.8789 -1.7829  0.0980
 5074TIP3   OH236780   0.041   3.172   0.546  0.1937  0.2641 -0.6750
 5074TIP3    H136781   0.005   3.240   0.603  2.3424  0.7176  0.2390
 5074TIP3    H236782   0.034   3.209   0.457 -0.7736  0.6795 -0.4330
 5075TIP3   OH236783   3.210   2.203   2.626 -0.3251  0.1009  0.1486
 5075TIP3    H136784   3.139   2.224   2.687 -1.0731 -0.6094 -0.4477
 5075TIP3    H236785   3.197   2.110   2.606  1.3037 -0.2752  0.7008
 5076TIP3   OH236786   2.160   6.555   7.960 -0.0346  0.1445  0.9189
 5076TIP3    H136787   2.096   6.626   7.959  0.4129  0.5395  0.1809
 5076TIP3    H236788   2.235   6.592   8.006  0.5744  0.4867 -0.3256
 5077TIP3   OH236789   5.095   4.017   7.347 -0.3740 -0.2669 -0.2902
 5077TIP3    H136790   5.014   4.006   7.297 -1.0529 -0.9862  0.9097
 5077TIP3    H236791   5.105   4.111   7.357 -2.0255 -0.1821  0.9980
 5078TIP3   OH236792   1.809   3.840   7.496 -0.3387 -0.1647  0.5567
 5078TIP3    H136793   1.885   3.896   7.508  3.7216 -5.0760  1.1806
 5078TIP3    H236794   1.757   3.853   7.575  2.0083  0.5991  2.0867
 5079TIP3   OH236795   2.139   2.821   8.111 -0.0358  0.2301  0.0621
 5079TIP3    H136796   2.057   2.807   8.158 -0.5415  0.7378 -0.6629
 5079TIP3    H236797   2.168   2.907   8.140  0.0463  0.2179  0.0154
 5080TIP3   OH236798   5.661   0.407   7.332  0.4023 -0.1029  0.7815
 5080TIP3    H136799   5.598   0.479   7.341 -0.0490 -0.3552 -0.2098
 5080TIP3    H236800   5.703   0.423   7.248  0.5164 -0.8256  0.6973
 5081TIP3   OH236801   4.496   2.893   7.509  0.2896  0.1654  0.2728
 5081TIP3    H136802   4.466   2.914   7.598 -1.8096 -0.7106 -0.1693
 5081TIP3    H236803   4.508   2.798   7.509  1.9612  0.3482  0.0585
 5082TIP3   OH236804   2.190   6.859   7.608  0.5798  0.3803 -0.1400
 5082TIP3    H136805   2.236   6.936   7.574  0.6963 -0.0727 -1.0285
 5082TIP3    H236806   2.253   6.818   7.667  2.3034 -1.4988 -3.0222
 5083TIP3   OH236807   0.639   2.175   0.686 -0.6722  0.2284  0.0617
 5083TIP3    H136808   0.695   2.247   0.715 -2.0889  1.3668  0.0817
 5083TIP3    H236809   0.558   2.217   0.657 -0.3046 -1.0223 -3.2539
 5084TIP3   OH236810   2.864   0.560   0.630 -0.2336 -0.3575  0.0640
 5084TIP3    H136811   2.875   0.591   0.720  1.0043 -0.7989  0.0938
 5084TIP3    H236812   2.779   0.515   0.630  0.1893 -1.2281  1.2871
 5085TIP3   OH236813   5.013   0.371   6.939  0.5696  0.3682  0.0162
 5085TIP3    H136814   4.957   0.438   6.899  0.6010  0.7508  0.5944
 5085TIP3    H236815   4.987   0.289   6.897 -0.2462  0.5835  0.0834
 5086TIP3   OH236816   3.151   5.200   0.026 -0.7829 -0.7971 -0.2001
 5086TIP3    H136817   3.190   5.213  -0.059 -1.9907  0.8019 -0.5552
 5086TIP3    H236818   3.123   5.108   0.026  1.0836 -1.3924 -0.6813
 5087TIP3   OH236819   5.102   6.530   6.576  0.0448  0.8701 -0.4805
 5087TIP3    H136820   5.196   6.528   6.594  0.2926  0.1080 -1.6909
 5087TIP3    H236821   5.096   6.510   6.482 -1.5185 -4.8166  0.4359
 5088TIP3   OH236822   1.921   2.859   0.491 -0.1749 -0.5732  0.0590
 5088TIP3    H136823   1.827   2.873   0.480  0.0670  2.6856  1.1239
 5088TIP3    H236824   1.942   2.896   0.577  2.1521 -0.8082 -0.3232
 5089TIP3   OH236825   3.142   4.172   8.206 -0.3184  0.4016  0.2711
 5089TIP3    H136826   3.087   4.100   8.176 -0.7152  1.3290 -1.3195
 5089TIP3    H236827   3.098   4.204   8.285 -0.9303 -0.1654  0.1659
 5090TIP3   OH236828   3.933   2.628   8.107 -0.2269 -0.0674 -0.0961
 5090TIP3    H136829   3.927   2.669   8.193 -0.8842 -0.8160  0.2297
 5090TIP3    H236830   3.944   2.535   8.126  1.4802 -0.0486 -0.8109
 5091TIP3   OH236831   1.290   6.150   1.727 -0.1015 -0.2163  0.3253
 5091TIP3    H136832   1.303   6.237   1.764 -0.4584  0.0639 -0.2038
 5091TIP3    H236833   1.199   6.150   1.697  0.0455 -0.6019 -0.1169
 5092TIP3   OH236834   1.264   2.977   8.445  0.0062 -0.5651 -0.1100
 5092TIP3    H136835   1.331   2.958   8.378 -1.4655 -0.6375 -1.6153
 5092TIP3    H236836   1.295   3.057   8.487  0.3132  0.2323 -1.7939
 5093TIP3   OH236837   6.715   3.186   0.904 -0.3259 -0.4240  0.0036
 5093TIP3    H136838   6.624   3.201   0.880 -0.1696  2.5137  0.9105
 5093TIP3    H236839   6.766   3.230   0.836  0.3429 -0.1725  0.6492
 5094TIP3   OH236840   0.470   6.777   1.023  0.3006 -0.4703  0.6152
 5094TIP3    H136841   0.408   6.833   0.976 -0.4166 -0.0188  2.0640
 5094TIP3    H236842   0.446   6.688   0.996 -1.0976 -0.3175  1.2775
 5095TIP3   OH236843   6.336   0.374   0.986 -0.0048 -0.1231  0.7145
 5095TIP3    H136844   6.276   0.423   0.930  1.0155 -0.2300 -0.5127
 5095TIP3    H236845   6.327   0.414   1.072 -1.6746 -0.0066  0.5154
 5096TIP3   OH236846   4.807   6.628   6.921 -0.7896 -0.1511 -0.0182
 5096TIP3    H136847   4.863   6.573   6.975 -2.0596  0.5885  2.1963
 5096TIP3    H236848   4.867   6.680   6.868  0.5199 -0.8728  0.7082
 5097TIP3   OH236849   4.684   0.553   7.719  0.3592 -0.2814 -0.8222
 5097TIP3    H136850   4.636   0.555   7.636 -0.1559 -0.0756 -0.5196
 5097TIP3    H236851   4.736   0.633   7.719  2.0008 -1.2869 -1.9050
 5098TIP3   OH236852   3.457   2.789   1.216  0.0434 -0.3079  0.1822
 5098TIP3    H136853   3.505   2.757   1.292  1.6500 -0.1594 -0.7075
 5098TIP3    H236854   3.382   2.837   1.252  0.4423 -0.7505  1.6355
 5099TIP3   OH236855   4.205   1.479   7.873  0.0903 -0.1697 -0.4698
 5099TIP3    H136856   4.174   1.545   7.811 -3.3107 -1.2490 -0.1241
 5099TIP3    H236857   4.254   1.417   7.820  0.1260  0.6837 -1.4638
 5100TIP3   OH236858   3.483   3.046   1.368  0.3760  0.2888 -0.0214
 5100TIP3    H136859   3.562   3.004   1.403 -0.6086  0.4827  2.6858
 5100TIP3    H236860   3.516   3.112   1.308  2.3139  0.5454  1.2173
 5101TIP3   OH236861   5.802   0.356   1.671  0.1407  0.1736  0.2752
 5101TIP3    H136862   5.801   0.426   1.606  0.0045  2.4741  2.5735
 5101TIP3    H236863   5.709   0.335   1.684  0.1574 -0.1616 -0.1543
 5102TIP3   OH236864   4.333   2.148   0.796 -0.1069 -1.0989  0.4152
 5102TIP3    H136865   4.307   2.117   0.709 -5.8329  1.5289  0.7010
 5102TIP3    H236866   4.353   2.241   0.783  1.2085 -1.1780  1.6739
 5103TIP3   OH236867   0.796   0.306   0.897 -0.1253  0.1272 -0.8127
 5103TIP3    H136868   0.828   0.390   0.865  2.7007  0.1835  1.7126
 5103TIP3    H236869   0.843   0.241   0.844  1.2641  0.2177  0.2489
 5104TIP3   OH236870   0.916   0.758   7.905  0.1035  0.0055  0.3013
 5104TIP3    H136871   0.869   0.817   7.964  0.1801 -1.2724  1.6941
 5104TIP3    H236872   0.978   0.815   7.859  0.4986  0.9513  1.9409
 5105TIP3   OH236873   2.339   2.640   6.973 -0.1534  0.4345  0.2251
 5105TIP3    H136874   2.390   2.568   6.937 -0.0380 -0.1108  1.4268
 5105TIP3    H236875   2.331   2.702   6.901  2.9206  0.9485  0.1578
 5106TIP3   OH236876   6.111   3.435   8.300  0.5417 -0.1334  0.7993
 5106TIP3    H136877   6.062   3.412   8.222  1.6491  0.4937 -0.1196
 5106TIP3    H236878   6.047   3.477   8.357 -0.0708  0.3532 -0.2095
 5107TIP3   OH236879   4.001   4.099   7.268 -0.7576  0.5714  0.1247
 5107TIP3    H136880   4.025   4.075   7.179  0.0981  0.9272  0.2539
 5107TIP3    H236881   3.988   4.194   7.265 -1.6606  0.4614  0.1758
 5108TIP3   OH236882   3.338   0.544   7.447 -0.5085  0.3028  0.1232
 5108TIP3    H136883   3.326   0.500   7.363  0.8745 -1.0760  0.5793
 5108TIP3    H236884   3.261   0.599   7.458  0.0170  1.7617 -2.7575
 5109TIP3   OH236885   2.008   1.197   0.327 -0.0338 -0.2786 -0.1211
 5109TIP3    H136886   1.961   1.280   0.333  0.6483  0.2200 -1.3877
 5109TIP3    H236887   1.939   1.130   0.333 -0.4939  0.3075  1.9295
 5110TIP3   OH236888   3.828   1.478   8.019 -0.3886 -0.1136  0.2907
 5110TIP3    H136889   3.791   1.538   7.954 -1.1358 -0.5282  0.3270
 5110TIP3    H236890   3.775   1.399   8.012 -0.0412 -0.4097  0.9357
 5111TIP3   OH236891   6.029   5.051   0.119  0.1256 -0.7359 -0.8071
 5111TIP3    H136892   6.076   4.997   0.182  0.3419 -0.8635 -1.0769
 5111TIP3    H236893   5.946   5.006   0.104  0.2241 -0.8910 -0.8836
 5112TIP3   OH236894   3.891   6.852   0.272 -0.2245 -0.0335  0.2772
 5112TIP3    H136895   3.964   6.848   0.210 -1.4137 -0.0401 -1.1859
 5112TIP3    H236896   3.900   6.773   0.325 -0.0759 -0.8824 -0.9619
 5113TIP3   OH236897   1.837   6.838   1.816  0.2469 -0.2886  0.1310
 5113TIP3    H136898   1.915   6.783   1.810 -0.2542 -0.9525 -0.4595
 5113TIP3    H236899   1.777   6.788   1.871 -0.3709 -0.5466 -0.7529
 5114TIP3   OH236900   5.237   6.572   1.554 -0.0605  1.0188 -0.4359
 5114TIP3    H136901   5.176   6.509   1.593 -0.4069  2.1645  0.9316
 5114TIP3    H236902   5.197   6.594   1.469 -1.1420  1.1340  0.0844
 5115TIP3   OH236903   5.724   0.176   2.072  0.1089 -0.4866  0.0592
 5115TIP3    H136904   5.739   0.175   2.167 -0.9623  2.7879  0.4164
 5115TIP3    H236905   5.629   0.176   2.063  0.1704  0.5655 -0.8887
 5116TIP3   OH236906   3.142   5.643   1.016 -1.0392 -0.6003  0.7269
 5116TIP3    H136907   3.081   5.569   1.015 -1.9178 -0.0518  3.5658
 5116TIP3    H236908   3.187   5.636   1.100 -0.4440  1.5433  0.6519
 5117TIP3   OH236909   1.708   0.501   7.570 -0.5204  0.0258  0.6986
 5117TIP3    H136910   1.770   0.468   7.635  1.3522  0.9200 -0.5491
 5117TIP3    H236911   1.628   0.451   7.585  0.6998 -1.6482  1.9428
 5118TIP3   OH236912   2.143   4.708   0.961  0.1816 -0.6536 -1.1704
 5118TIP3    H136913   2.231   4.685   0.930  1.9403 -0.6317  3.1386
 5118TIP3    H236914   2.127   4.795   0.925  2.1933 -0.4127 -1.5948
 5119TIP3   OH236915   6.636   3.312   0.455 -0.6171 -0.3606  0.0210
 5119TIP3    H136916   6.649   3.350   0.541 -1.0635  0.6953 -0.3694
 5119TIP3    H236917   6.612   3.385   0.399 -1.7202 -1.2480 -0.7079
 5120TIP3   OH236918   0.683   2.537   2.453  0.1589 -0.2042 -0.0703
 5120TIP3    H136919   0.742   2.597   2.408  0.9883  0.1789  1.4375
 5120TIP3    H236920   0.659   2.472   2.387  0.8537  0.6433 -1.1922
 5121TIP3   OH236921   1.535   4.454   7.349  0.6823 -0.2828 -0.0823
 5121TIP3    H136922   1.469   4.426   7.286  2.0629 -0.7462 -1.3680
 5121TIP3    H236923   1.582   4.525   7.306  0.8649  0.2142  0.9093
 5122TIP3   OH236924   0.316   3.567   0.643 -0.4756  0.3902  0.4348
 5122TIP3    H136925   0.251   3.537   0.579  0.2740 -0.6245  0.1256
 5122TIP3    H236926   0.369   3.490   0.662 -0.5207  0.7322  2.1235
 5123TIP3   OH236927   1.154   4.616   0.273  0.5626  0.0329  0.0302
 5123TIP3    H136928   1.066   4.636   0.242 -0.0888 -1.6586  0.6372
 5123TIP3    H236929   1.172   4.684   0.338 -0.5065  0.1101  0.2685
 5124TIP3   OH236930   5.275   1.385   1.802  0.0750 -0.1769 -0.9171
 5124TIP3    H136931   5.277   1.466   1.752 -0.8174 -0.2702 -1.1227
 5124TIP3    H236932   5.293   1.412   1.892 -0.6846  0.3284 -0.9046
 5125TIP3   OH236933   6.590   6.728   7.069  0.4726 -0.0157 -0.5915
 5125TIP3    H136934   6.497   6.748   7.064  0.8529  2.0488 -0.1730
 5125TIP3    H236935   6.628   6.769   6.991  1.5493  2.7160  1.2210
 5126TIP3   OH236936   1.299   6.096   0.128 -0.2882 -0.2108  0.3579
 5126TIP3    H136937   1.369   6.161   0.116 -1.3143  0.9800  0.5357
 5126TIP3    H236938   1.295   6.049   0.045 -1.8494  2.3672 -1.1784
 5127TIP3   OH236939   4.837   6.529   1.332  0.1599  0.0134  0.0243
 5127TIP3    H136940   4.751   6.530   1.292 -0.0235  1.3999  0.4065
 5127TIP3    H236941   4.820   6.531   1.427  0.5922  0.9100  0.0955
 5128TIP3   OH236942   4.966   1.997   1.913  0.6136  0.9887  0.4431
 5128TIP3    H136943   4.956   1.982   2.007  0.3462  0.9056  0.4010
 5128TIP3    H236944   5.027   2.071   1.907  1.1731  0.5546  0.6678
 5129TIP3   OH236945   1.583   4.944   7.856 -0.3747 -0.0742  0.7628
 5129TIP3    H136946   1.507   4.892   7.829  0.4283 -2.2540  2.4561
 5129TIP3    H236947   1.652   4.880   7.873  1.3022  1.7136  1.0602
 5130TIP3   OH236948   4.816   3.435   7.247  0.4406 -0.3406 -0.4561
 5130TIP3    H136949   4.818   3.497   7.319  1.5889 -0.8135 -0.0443
 5130TIP3    H236950   4.843   3.486   7.171  0.9382 -0.2267 -0.2081
 5131TIP3   OH236951   1.137   5.038   7.627 -0.3410 -0.0288 -0.5015
 5131TIP3    H136952   1.121   5.121   7.581  1.7942  1.0756  0.5852
 5131TIP3    H236953   1.146   5.064   7.719 -1.0279 -1.6877  0.0577
 5132TIP3   OH236954   2.205   0.481   8.091  0.2785 -0.4677  0.5212
 5132TIP3    H136955   2.213   0.393   8.054  1.9658 -0.0703 -0.1581
 5132TIP3    H236956   2.274   0.486   8.157 -0.3144  0.0846  1.1121
 5133TIP3   OH236957   6.571   5.193   6.964  0.2247  0.3048  0.4959
 5133TIP3    H136958   6.589   5.219   6.874  0.8562 -2.6077 -0.3165
 5133TIP3    H236959   6.645   5.225   7.014  0.3276  1.1482 -0.1779
 5134TIP3   OH236960   6.264   6.152   8.519 -0.2178 -0.2217 -0.3609
 5134TIP3    H136961   6.283   6.090   8.449 -0.2133 -0.1882 -0.3892
 5134TIP3    H236962   6.202   6.106   8.576  1.4405 -1.1138  0.8256
 5135TIP3   OH236963   0.718   0.548   1.387 -0.6821 -0.0853  0.4853
 5135TIP3    H136964   0.799   0.501   1.367 -0.2875  0.3978  0.9246
 5135TIP3    H236965   0.674   0.495   1.453 -0.7068 -0.3273  0.2755
 5136TIP3   OH236966   0.132   5.903   2.483 -0.4619  0.4118 -0.2086
 5136TIP3    H136967   0.125   5.959   2.561 -2.0877 -0.8927  0.6243
 5136TIP3    H236968   0.172   5.822   2.516  1.2804  0.7708 -1.2855
 5137TIP3   OH236969   5.932   1.006   7.504  0.1292  0.0478 -0.1816
 5137TIP3    H136970   5.876   1.082   7.486 -1.8485 -1.7771 -2.3169
 5137TIP3    H236971   5.994   1.004   7.432  0.6610  0.0588  0.2748
 5138TIP3   OH236972   1.189   1.994   7.974 -0.0974  0.3119 -0.1423
 5138TIP3    H136973   1.163   2.053   8.045  0.7965  0.3375  0.1804
 5138TIP3    H236974   1.251   1.933   8.014 -0.0797 -0.0812 -0.7505
 5139TIP3   OH236975   4.602   0.098   8.367  0.1730 -0.3761  0.4429
 5139TIP3    H136976   4.608   0.043   8.445  1.9820  1.8205  2.0065
 5139TIP3    H236977   4.510   0.096   8.343 -0.1187 -2.5957  1.5030
 5140TIP3   OH236978   5.553   3.910   7.548 -0.0651 -0.6258 -0.2602
 5140TIP3    H136979   5.554   3.841   7.482  0.4629  0.4402 -1.4199
 5140TIP3    H236980   5.620   3.884   7.611 -0.6666 -1.7282 -0.0541
 5141TIP3   OH236981   0.571   2.909   7.247 -0.0641 -0.2522 -0.4996
 5141TIP3    H136982   0.558   2.833   7.190 -2.4692 -0.8999  0.7769
 5141TIP3    H236983   0.560   2.874   7.335 -1.3636  1.5794  0.1104
 5142TIP3   OH236984   3.046   2.561   6.686  0.3004  0.6607 -0.3165
 5142TIP3    H136985   3.141   2.571   6.680  0.3177  0.1895 -0.9360
 5142TIP3    H236986   3.019   2.537   6.597 -0.3308  0.2642 -0.0213
 5143TIP3   OH236987   0.474   0.012   7.770  0.3279  0.2322 -0.1627
 5143TIP3    H136988   0.402   0.064   7.734 -1.2719 -0.9124  1.1690
 5143TIP3    H236989   0.520   0.072   7.828 -1.5860  0.2497  1.4833
 5144TIP3   OH236990   1.680   0.334   6.491  0.0324  0.0253  0.6878
 5144TIP3    H136991   1.715   0.377   6.569 -0.6913 -0.2286  1.1616
 5144TIP3    H236992   1.609   0.390   6.462  0.4221  0.2194  0.0864
 5145TIP3   OH236993   3.494   2.632   8.609  0.1763  0.5444 -0.0219
 5145TIP3    H136994   3.550   2.663   8.538 -0.0076  1.0134  0.0309
 5145TIP3    H236995   3.547   2.568   8.656  0.0879 -0.2256 -0.9439
 5146TIP3   OH236996   5.083   5.576   7.922 -0.0041 -0.2513  0.4122
 5146TIP3    H136997   5.165   5.607   7.883  1.2141 -1.2548  2.0801
 5146TIP3    H236998   5.032   5.655   7.937  0.8985  0.4485 -0.1147
 5147TIP3   OH236999   3.319   4.612   1.188  0.5332 -0.9365 -0.3737
 5147TIP3    H137000   3.243   4.652   1.232  0.5468 -1.5853  0.2628
 5147TIP3    H237001   3.375   4.583   1.260  1.7595  0.2083 -0.8338
 5148TIP3   OH237002   0.903   1.399   7.754  0.7144 -0.5956  0.3081
 5148TIP3    H137003   0.862   1.454   7.821  0.1164 -0.1491 -0.4199
 5148TIP3    H237004   0.993   1.431   7.748  0.6341 -0.3287  0.5611
 5149TIP3   OH237005   1.508   5.142   8.597 -0.2173 -0.2471 -0.4103
 5149TIP3    H137006   1.533   5.093   8.519  0.8187 -1.7274  0.8011
 5149TIP3    H237007   1.412   5.138   8.598 -0.1833 -3.1030  0.1000
 5150TIP3   OH237008   2.332   3.479   7.411 -0.3132 -0.2917  0.4293
 5150TIP3    H137009   2.336   3.560   7.360 -2.0148 -0.3097  0.2143
 5150TIP3    H237010   2.409   3.430   7.384 -0.4598  0.2934 -1.1363
 5151TIP3   OH237011   0.519   6.581   7.242 -0.1524  0.1785 -0.1470
 5151TIP3    H137012   0.508   6.527   7.320 -3.4937  0.2446 -0.3877
 5151TIP3    H237013   0.585   6.646   7.266 -0.3150 -0.4457  2.2359
 5152TIP3   OH237014   5.262   2.606   0.765  0.4155  0.1933  0.1552
 5152TIP3    H137015   5.290   2.695   0.742  0.7631 -0.3478 -1.6532
 5152TIP3    H237016   5.222   2.572   0.684  0.7008 -1.4561  0.6804
 5153TIP3   OH237017   0.388   2.573   2.719 -0.0603 -0.3437 -0.8779
 5153TIP3    H137018   0.314   2.551   2.775  0.0496  1.0135 -0.1549
 5153TIP3    H237019   0.461   2.521   2.753 -0.0322  0.3464  0.1565
 5154TIP3   OH237020   0.151   2.498   0.501  0.1562 -0.4511  0.2332
 5154TIP3    H137021   0.086   2.568   0.491  0.8958  0.2813  0.4353
 5154TIP3    H237022   0.100   2.417   0.498 -0.6981  0.0894 -0.1691
 5155TIP3   OH237023   6.671   0.357   0.050 -0.0448  0.7364 -0.2289
 5155TIP3    H137024   6.680   0.449   0.025 -0.2173  0.7849 -0.1120
 5155TIP3    H237025   6.714   0.350   0.135 -0.4982  0.8249  0.0137
 5156TIP3   OH237026   4.946   1.669   7.900  0.2904 -0.7097  0.2399
 5156TIP3    H137027   4.986   1.730   7.963 -1.2129  1.1893 -0.5554
 5156TIP3    H237028   5.006   1.669   7.825  0.6369 -0.7398  0.5138
 5157TIP3   OH237029   5.175   5.039   1.011  0.1165  0.2937  0.7210
 5157TIP3    H137030   5.140   5.049   1.099  0.4446 -2.3058  1.2296
 5157TIP3    H237031   5.265   5.010   1.024  0.6363  1.2562 -0.5079
 5158TIP3   OH237032   3.917   2.514   1.401  0.0781 -0.8286  0.4388
 5158TIP3    H137033   3.966   2.497   1.320 -1.2117 -2.0463 -0.1214
 5158TIP3    H237034   3.981   2.498   1.470  1.0487 -0.3376 -0.3047
 5159TIP3   OH237035   2.341   6.285   6.186  0.4206 -0.1757 -0.2071
 5159TIP3    H137036   2.424   6.331   6.197  1.6642 -2.2581 -0.1926
 5159TIP3    H237037   2.353   6.203   6.234 -2.0413 -0.1278  0.6145
 5160TIP3   OH237038   1.594   2.580   0.068 -0.1004 -0.0379  0.2003
 5160TIP3    H137039   1.556   2.655   0.115 -1.9116  0.1837 -1.4839
 5160TIP3    H237040   1.648   2.619   0.000  1.0009 -0.3311  0.8865
 5161TIP3   OH237041   6.871   5.154   0.122  0.1132 -0.6274  0.5906
 5161TIP3    H137042   6.814   5.143   0.198 -0.2539 -1.1009  0.2509
 5161TIP3    H237043   6.921   5.233   0.142 -2.9593  1.8282 -0.4997
 5162TIP3   OH237044   1.733   4.051   1.329 -0.3321  0.4088  0.7650
 5162TIP3    H137045   1.771   4.068   1.416  0.8529  3.3680 -0.1944
 5162TIP3    H237046   1.639   4.043   1.345 -0.0103 -0.5003  2.4569
 5163TIP3   OH237047   5.818   4.345   6.466 -0.2068 -0.2067  0.4803
 5163TIP3    H137048   5.731   4.382   6.455 -1.5631 -3.6803 -1.9066
 5163TIP3    H237049   5.804   4.259   6.505  2.2275 -0.6900  0.4883
 5164TIP3   OH237050   2.668   6.536   7.157  0.2272  0.7760  0.3319
 5164TIP3    H137051   2.721   6.516   7.235 -3.5285 -1.7029  2.5322
 5164TIP3    H237052   2.613   6.609   7.184  1.1692  2.1849 -1.3330
 5165TIP3   OH237053   3.293   6.736   8.245 -0.4435 -0.4621 -0.3462
 5165TIP3    H137054   3.342   6.697   8.173  1.3367  1.5589 -0.3248
 5165TIP3    H237055   3.293   6.669   8.314  3.8468 -0.0846  0.2998
 5166TIP3   OH237056   6.772   4.022   8.275  0.0369  0.2031  0.0709
 5166TIP3    H137057   6.706   4.089   8.292 -0.7421 -0.7930  1.1095
 5166TIP3    H237058   6.805   3.998   8.362  0.5345 -0.5433 -0.3165
 5167TIP3   OH237059   3.728   4.168   6.913 -0.2709 -0.0456  0.0852
 5167TIP3    H137060   3.779   4.107   6.859 -1.3731 -1.5954  0.7445
 5167TIP3    H237061   3.788   4.192   6.983  0.0945 -0.5795 -0.0314
 5168TIP3   OH237062   6.516   2.885   0.590  0.1835 -0.2138 -0.3733
 5168TIP3    H137063   6.589   2.840   0.633  0.7914  0.8574 -0.2269
 5168TIP3    H237064   6.535   2.879   0.497  0.3745 -0.0832 -0.3430
 5169TIP3   OH237065   3.166   4.462   0.998  0.1746 -0.3624  0.4968
 5169TIP3    H137066   3.253   4.498   1.016  0.8078 -1.1533 -0.8557
 5169TIP3    H237067   3.115   4.482   1.077  1.2104  1.2217  0.8191
 5170TIP3   OH237068   6.717   3.094   0.324  0.1924  0.2935 -0.0317
 5170TIP3    H137069   6.784   3.125   0.263 -0.8699  0.4313 -1.1557
 5170TIP3    H237070   6.694   3.171   0.376  2.7403 -0.3119  2.2235
 5171TIP3   OH237071   0.622   5.425   7.570  0.5865 -0.1335 -1.0492
 5171TIP3    H137072   0.677   5.393   7.641 -2.6512 -4.1415  0.0485
 5171TIP3    H237073   0.644   5.369   7.495 -0.4023 -0.3055 -1.2333
 5172TIP3   OH237074   1.257   2.840   1.970 -0.4235  0.0403  0.0055
 5172TIP3    H137075   1.312   2.859   2.046  1.6230 -1.2694 -1.0692
 5172TIP3    H237076   1.186   2.786   2.004  1.2156 -1.6860  0.8100
 5173TIP3   OH237077   2.836   3.409   0.286 -0.0182 -0.1821 -0.6340
 5173TIP3    H137078   2.772   3.343   0.313 -2.2401  1.1343 -2.3260
 5173TIP3    H237079   2.813   3.487   0.336  0.0136  0.4018 -1.5024
 5174TIP3   OH237080   2.033   0.956   8.215  0.6226  0.1993  0.0750
 5174TIP3    H137081   1.983   0.963   8.297 -0.5602 -0.9241 -0.5174
 5174TIP3    H237082   2.085   0.876   8.226  0.4215  0.0189 -0.2994
 5175TIP3   OH237083   6.687   5.654   2.519 -0.2494  0.1745 -0.5137
 5175TIP3    H137084   6.631   5.577   2.507  0.1073 -0.0037 -1.0627
 5175TIP3    H237085   6.776   5.621   2.505  0.0154  0.4202  0.5198
 5176TIP3   OH237086   6.285   6.301   6.925  0.3749  0.5672 -0.3163
 5176TIP3    H137087   6.284   6.397   6.922 -1.6036  0.6492  1.1901
 5176TIP3    H237088   6.205   6.275   6.880 -0.8152 -0.1813  2.0558
 5177TIP3   OH237089   3.713   1.673   7.239 -0.1348 -0.3609 -0.0750
 5177TIP3    H137090   3.795   1.720   7.256  0.8697 -0.9482 -2.6515
 5177TIP3    H237091   3.689   1.700   7.150 -1.6899 -1.6594 -0.0916
 5178TIP3   OH237092   0.648   1.052   1.770 -0.2959  0.5952 -0.1860
 5178TIP3    H137093   0.703   0.975   1.756 -2.2743 -1.1072  0.9196
 5178TIP3    H237094   0.564   1.030   1.729 -1.4390  1.4572  1.5636
 5179TIP3   OH237095   3.014   3.727   7.323  0.3806  0.2802  0.5140
 5179TIP3    H137096   3.097   3.764   7.352  0.1260  0.4896  0.9817
 5179TIP3    H237097   2.963   3.802   7.292  0.1730  0.2192  0.7058
 5180TIP3   OH237098   2.428   6.218   0.100 -0.3979  0.3930  0.1278
 5180TIP3    H137099   2.460   6.139   0.056 -1.4942  0.2243 -0.3942
 5180TIP3    H237100   2.480   6.223   0.181  1.3858  0.5008 -0.9682
 5181TIP3   OH237101   0.133   0.353   8.595 -0.4355 -0.2261 -0.4884
 5181TIP3    H137102   0.151   0.431   8.648  2.3799 -0.1823 -1.3394
 5181TIP3    H237103   0.054   0.374   8.546 -0.4927  1.5336  0.2933
 5182TIP3   OH237104   4.337   4.743   0.966  0.1738  0.0467 -0.1425
 5182TIP3    H137105   4.285   4.667   0.939  0.9636 -0.8252  0.7187
 5182TIP3    H237106   4.404   4.707   1.025  0.1729  1.4961  0.7966
 5183TIP3   OH237107   6.435   1.111   8.204  0.3737  0.3989  0.0879
 5183TIP3    H137108   6.493   1.056   8.256  0.9106  1.0018  0.1458
 5183TIP3    H237109   6.348   1.074   8.218  0.9008 -1.4808 -1.2546
 5184TIP3   OH237110   2.486   6.075   8.218 -0.0813 -0.0089  0.2320
 5184TIP3    H137111   2.566   6.033   8.248 -0.2979 -0.6853 -0.1334
 5184TIP3    H237112   2.477   6.049   8.126 -0.6570  0.1552  0.2337
 5185TIP3   OH237113   4.909   0.573   8.069  0.4669 -0.3466  0.2436
 5185TIP3    H137114   4.865   0.629   8.004  0.3765 -1.4540 -0.6801
 5185TIP3    H237115   4.842   0.509   8.094  0.2144  0.5822  2.1361
 5186TIP3   OH237116   0.059   5.295   7.380 -0.7455 -0.3926  0.1148
 5186TIP3    H137117   0.126   5.267   7.318 -1.1843  1.3648 -1.2346
 5186TIP3    H237118   0.091   5.265   7.465  1.0990 -0.7426 -0.6485
 5187TIP3   OH237119   5.652   4.053   1.078 -0.2505 -0.4059  0.2049
 5187TIP3    H137120   5.610   4.113   1.141  1.6505  1.7299 -0.4162
 5187TIP3    H237121   5.624   4.086   0.993  1.0763 -0.1934 -0.1557
 5188TIP3   OH237122   1.418   2.946   7.926 -0.0123  0.3220  0.1314
 5188TIP3    H137123   1.441   2.868   7.976 -0.6328  1.0230  1.5885
 5188TIP3    H237124   1.476   2.945   7.850 -0.9348 -2.2756 -0.6277
 5189TIP3   OH237125   0.865   2.601   8.207  0.1209  0.5671 -0.0089
 5189TIP3    H137126   0.807   2.527   8.194  2.5085 -1.8926  2.1491
 5189TIP3    H237127   0.920   2.603   8.129 -0.2954  0.4206 -0.3106
 5190TIP3   OH237128   4.185   1.605   2.492 -0.9081 -0.2793  0.0910
 5190TIP3    H137129   4.166   1.673   2.426 -2.1106  0.2135  0.9094
 5190TIP3    H237130   4.100   1.585   2.531 -0.4053 -1.4978  0.6219
 5191TIP3   OH237131   1.225   6.544   0.017 -0.0872 -0.2226  0.1139
 5191TIP3    H137132   1.266   6.619  -0.027  0.7980 -1.1356 -0.6611
 5191TIP3    H237133   1.273   6.468  -0.014 -1.0950 -1.1549  0.7370
 5192TIP3   OH237134   5.332   4.134   0.639 -0.1514  0.4568  0.1457
 5192TIP3    H137135   5.407   4.083   0.607 -0.4154  0.9957 -1.4112
 5192TIP3    H237136   5.311   4.193   0.567 -1.5773  0.8727  0.8727
 5193TIP3   OH237137   5.099   5.297   1.403  0.2156  0.7283 -0.0931
 5193TIP3    H137138   5.094   5.301   1.499 -2.2312  1.3284 -0.1635
 5193TIP3    H237139   5.125   5.385   1.377  2.4020  0.1579  0.0229
 5194TIP3   OH237140   2.519   1.284   0.159  1.1369  0.5859  0.3519
 5194TIP3    H137141   2.574   1.358   0.132  1.5275  0.3011  0.3592
 5194TIP3    H237142   2.461   1.269   0.084  1.7705  0.2273 -0.0838
 5195TIP3   OH237143   4.689   2.671   6.941  0.1996  0.6972 -0.1346
 5195TIP3    H137144   4.659   2.671   6.850 -0.6473 -1.1151  0.1053
 5195TIP3    H237145   4.772   2.719   6.939  0.4845  0.2081 -1.9664
 5196TIP3   OH237146   6.117   5.456   0.614  0.1279 -0.1602 -0.2965
 5196TIP3    H137147   6.028   5.486   0.596  1.0482  0.7378 -4.2630
 5196TIP3    H237148   6.107   5.393   0.686 -3.9094 -1.2070 -1.5414
 5197TIP3   OH237149   0.057   5.880   6.490  0.5062 -0.7959  0.1521
 5197TIP3    H137150   0.101   5.965   6.490  0.8412 -0.9457 -1.6967
 5197TIP3    H237151  -0.016   5.891   6.430  0.6805 -1.8872 -0.2729
 5198TIP3   OH237152   3.496   2.475   0.995 -0.3951 -0.3427 -0.3308
 5198TIP3    H137153   3.577   2.495   1.042 -0.6463  0.7930 -0.3501
 5198TIP3    H237154   3.467   2.391   1.032 -1.5145  1.2977  2.9264
 5199TIP3   OH237155   1.056   5.238   7.465 -0.0615 -0.0319 -0.0136
 5199TIP3    H137156   1.090   5.221   7.377  2.0700 -1.8443  1.0890
 5199TIP3    H237157   1.075   5.331   7.479 -0.1517  0.2150 -1.3148
 5200TIP3   OH237158   4.309   0.557   7.653 -0.4061  0.3069  0.3138
 5200TIP3    H137159   4.314   0.461   7.662  0.7498  0.3671  0.5304
 5200TIP3    H237160   4.377   0.578   7.588 -0.9224  0.9491 -0.0291
 5201TIP3   OH237161   1.391   1.340   6.861 -0.6259 -0.1646 -0.4438
 5201TIP3    H137162   1.472   1.290   6.859 -0.1963  0.2382  2.3797
 5201TIP3    H237163   1.395   1.396   6.783  2.1842  0.3761 -0.0200
 5202TIP3   OH237164   0.764   1.674   1.156 -0.1116  0.0619  0.1650
 5202TIP3    H137165   0.719   1.626   1.226 -0.6184  1.7625  1.0672
 5202TIP3    H237166   0.843   1.708   1.198  0.9894 -1.1589 -0.8499
 5203TIP3   OH237167   4.339   2.384   1.990 -0.0917 -0.4885  0.0017
 5203TIP3    H137168   4.375   2.391   2.078  1.7580 -1.3660 -0.6330
 5203TIP3    H237169   4.252   2.345   2.001 -1.0466  1.8906  1.6197
 5204TIP3   OH237170   3.593   5.587   6.310 -0.0140  0.0510 -0.0813
 5204TIP3    H137171   3.506   5.566   6.277 -0.2931  0.8173  0.1449
 5204TIP3    H237172   3.652   5.561   6.239 -0.6729  2.6193 -1.7210
 5205TIP3   OH237173   2.611   2.115   0.250  0.5790  0.0783 -0.1799
 5205TIP3    H137174   2.596   2.157   0.335 -1.6491 -2.2348  0.7381
 5205TIP3    H237175   2.617   2.021   0.271 -2.3107 -0.8224 -2.6784
 5206TIP3   OH237176   6.135   0.886   7.981 -0.7139  0.1110 -0.2038
 5206TIP3    H137177   6.097   0.817   8.035 -0.5719 -0.4283 -0.7828
 5206TIP3    H237178   6.206   0.844   7.934  1.7864  1.4723  2.0811
 5207TIP3   OH237179   0.774   5.327   6.425  0.5962 -0.2587  0.4217
 5207TIP3    H137180   0.708   5.389   6.392  2.4510 -0.2905 -4.0263
 5207TIP3    H237181   0.744   5.242   6.394  1.8951 -0.4742 -0.3102
 5208TIP3   OH237182   2.762   0.093   1.623  0.4784  0.4683 -0.4473
 5208TIP3    H137183   2.766   0.187   1.642  1.1780  0.2710  0.4668
 5208TIP3    H237184   2.779   0.051   1.707 -0.8730 -0.4988 -0.6156
 5209TIP3   OH237185   4.531   3.839   0.790  0.7233  0.1780  0.1573
 5209TIP3    H137186   4.545   3.912   0.730 -0.8007  0.3828  0.0159
 5209TIP3    H237187   4.561   3.871   0.875  1.1869  0.5221 -0.1270
 5210TIP3   OH237188   3.739   6.139   7.055  0.3529  0.0531 -0.2918
 5210TIP3    H137189   3.786   6.216   7.025  0.5233  0.1642  0.2539
 5210TIP3    H237190   3.664   6.131   6.996  0.9361 -0.0033 -1.0371
 5211TIP3   OH237191   0.375   2.387   7.198  0.6004 -0.0298  1.2004
 5211TIP3    H137192   0.285   2.389   7.230 -0.6771  1.4190 -2.0668
 5211TIP3    H237193   0.379   2.308   7.143  0.9976  0.3920  0.6066
 5212TIP3   OH237194   1.601   4.014   6.578  0.4115  0.1984 -0.5025
 5212TIP3    H137195   1.638   4.025   6.666 -0.1613 -1.0202 -0.0896
 5212TIP3    H237196   1.630   4.092   6.531  2.1735  0.0588  0.2587
 5213TIP3   OH237197   5.404   4.100   2.034 -0.3867 -0.2386 -0.7697
 5213TIP3    H137198   5.356   4.166   1.985 -1.1237 -0.7042 -0.6918
 5213TIP3    H237199   5.337   4.053   2.083  0.1929 -0.6532 -0.3598
 5214TIP3   OH237200   6.133   1.596   0.212 -0.0523 -0.3605  0.4012
 5214TIP3    H137201   6.076   1.537   0.262 -1.3013  0.5920  0.1270
 5214TIP3    H237202   6.115   1.683   0.248 -0.0197  0.1714 -0.8239
 5215TIP3   OH237203   5.024   3.291   2.210  0.0814 -0.6749  0.0251
 5215TIP3    H137204   5.053   3.247   2.130  0.2998 -1.1886  0.3854
 5215TIP3    H237205   5.030   3.224   2.278 -0.4760 -0.3495  0.4014
 5216TIP3   OH237206   2.567   4.092   8.327 -0.0725 -0.3340 -0.1843
 5216TIP3    H137207   2.502   4.113   8.393  0.8088 -0.8532  0.8742
 5216TIP3    H237208   2.541   4.143   8.250 -0.4540  1.2050  0.9247
 5217TIP3   OH237209   3.782   1.888   1.631  0.1303  0.6273  0.1043
 5217TIP3    H137210   3.865   1.916   1.670  0.7481 -0.3141 -0.5117
 5217TIP3    H237211   3.731   1.853   1.704  0.5122  0.6667  0.3885
 5218TIP3   OH237212   3.019   5.780   0.002  0.1000  0.1993 -0.4422
 5218TIP3    H137213   3.080   5.734   0.060  0.2715  0.1345 -0.6710
 5218TIP3    H237214   3.076   5.827  -0.059 -0.0400  1.4737  0.3545
 5219TIP3   OH237215   5.342   4.851   8.230  0.4756  0.2146 -0.3827
 5219TIP3    H137216   5.396   4.786   8.184 -0.9984  0.7771 -3.1166
 5219TIP3    H237217   5.261   4.804   8.250 -0.0275  0.7817 -1.0556
 5220TIP3   OH237218   0.552   5.043   0.267  0.5575  0.1559 -0.0383
 5220TIP3    H137219   0.603   5.124   0.274  1.5111 -0.5460  1.9546
 5220TIP3    H237220   0.463   5.070   0.286  0.9829  0.6495  1.3794
 5221TIP3   OH237221   1.648   0.511   8.027  1.0001 -0.2736  0.3014
 5221TIP3    H137222   1.571   0.461   8.000  0.6577  0.6497 -0.4733
 5221TIP3    H237223   1.676   0.469   8.108 -0.4159 -0.5345  0.6894
 5222TIP3   OH237224   5.331   2.518   7.775 -0.2805 -0.3741 -0.2441
 5222TIP3    H137225   5.306   2.451   7.839  0.0697 -0.1802  0.0999
 5222TIP3    H237226   5.329   2.473   7.691 -0.7041 -0.6443 -0.0934
 5223TIP3   OH237227   3.153   1.359   1.973  0.4957  0.1144  0.0476
 5223TIP3    H137228   3.083   1.314   2.021 -0.1343 -0.4689 -1.3786
 5223TIP3    H237229   3.110   1.395   1.896  1.5173  0.9362 -0.1541
 5224TIP3   OH237230   0.788   3.340   7.600 -0.4023  0.6393  0.2454
 5224TIP3    H137231   0.693   3.327   7.600 -0.3663 -0.1125 -2.4714
 5224TIP3    H237232   0.800   3.425   7.556  0.1834  1.3219  1.6498
 5225TIP3   OH237233   0.113   3.225   8.259  0.1250 -0.5387  0.1040
 5225TIP3    H137234   0.160   3.183   8.187  1.0234  0.3475  0.1462
 5225TIP3    H237235   0.036   3.170   8.273  0.5537 -1.3838 -0.7407
 5226TIP3   OH237236   3.102   6.520   0.166  0.5637  0.2329 -0.4589
 5226TIP3    H137237   3.175   6.480   0.120  0.5998  0.0878 -0.2754
 5226TIP3    H237238   3.025   6.499   0.112  0.9570  2.6850 -2.1642
 5227TIP3   OH237239   3.661   6.562   0.751 -0.2326  0.4827  0.6701
 5227TIP3    H137240   3.571   6.545   0.725  0.4460 -0.7706 -1.0681
 5227TIP3    H237241   3.677   6.503   0.824 -0.4878 -0.1498  0.2241
 5228TIP3   OH237242   2.961   2.957   6.620  0.5533  0.2723 -0.3019
 5228TIP3    H137243   2.978   2.897   6.692  0.3864 -0.5658 -0.9420
 5228TIP3    H237244   2.888   3.010   6.651 -0.8959 -1.4357 -0.5861
 5229TIP3   OH237245   0.294   2.138   1.473 -0.2539  0.4568  0.1955
 5229TIP3    H137246   0.311   2.150   1.567 -0.5348  2.8075  0.0013
 5229TIP3    H237247   0.380   2.139   1.432 -0.1902  0.4105  0.3294
 5230TIP3   OH237248   2.114   3.961   0.847  0.1852 -0.3762  0.3087
 5230TIP3    H137249   2.063   3.882   0.861 -0.4655 -0.4023 -1.8705
 5230TIP3    H237250   2.059   4.015   0.790  1.4683  0.7725  0.1120
 5231TIP3   OH237251   1.961   2.589   1.005 -0.5560 -0.2184  0.0031
 5231TIP3    H137252   1.978   2.534   1.082  2.3533 -1.7753 -1.5675
 5231TIP3    H237253   1.979   2.678   1.035 -0.1018 -0.7197  1.3010
 5232TIP3   OH237254   2.453   5.799   0.278 -0.6901  0.6133  0.5547
 5232TIP3    H137255   2.546   5.800   0.297 -0.6418  0.9711  0.3208
 5232TIP3    H237256   2.418   5.727   0.330 -0.2989  0.5345  0.7107
 5233TIP3   OH237257   4.929   4.627   1.777 -0.2086 -1.0570 -0.2945
 5233TIP3    H137258   4.939   4.678   1.697 -1.2670 -0.0150  0.1960
 5233TIP3    H237259   4.924   4.536   1.748  2.7614 -1.0523 -1.1187
 5234TIP3   OH237260   0.287   3.202   6.795 -0.3855 -0.0433 -0.0765
 5234TIP3    H137261   0.368   3.230   6.753 -0.8344  2.2598  0.4765
 5234TIP3    H237262   0.228   3.182   6.723 -0.0358  0.4323 -0.4996
 5235TIP3   OH237263   5.334   0.838   1.075 -0.2873  0.3111 -1.1569
 5235TIP3    H137264   5.389   0.906   1.037  1.1166  0.2272  0.5848
 5235TIP3    H237265   5.365   0.829   1.165 -2.2324 -0.7585 -0.5209
 5236TIP3   OH237266   6.063   0.018   0.162  0.1359 -0.1514  0.8636
 5236TIP3    H137267   6.021  -0.024   0.237 -0.7152 -0.4387  0.2431
 5236TIP3    H237268   5.990   0.058   0.114  0.5614 -0.6638 -0.2397
 5237TIP3   OH237269   4.125   1.356   8.096 -0.3518 -0.0940 -0.1678
 5237TIP3    H137270   4.179   1.380   8.021  1.1490 -0.9005  0.6128
 5237TIP3    H237271   4.046   1.410   8.088  0.1456  0.4215 -1.8549
 5238TIP3   OH237272   5.195   5.816   7.455  0.4671 -0.1176 -0.2685
 5238TIP3    H137273   5.115   5.771   7.430  0.3721 -0.6939  1.0120
 5238TIP3    H237274   5.260   5.784   7.392 -0.2659  0.2774 -1.2491
 5239TIP3   OH237275   1.047   2.133   7.340 -0.3512  0.2943  0.3816
 5239TIP3    H137276   1.065   2.048   7.299 -0.9051  1.0668 -1.5487
 5239TIP3    H237277   1.018   2.111   7.429 -0.3015 -1.5216 -0.0162
 5240TIP3   OH237278   0.978   1.528   6.503  0.1167  0.5743 -0.1577
 5240TIP3    H137279   1.054   1.564   6.549  1.6627 -0.7288 -1.5675
 5240TIP3    H237280   0.913   1.599   6.505  1.6220  2.0112  0.4454
 5241TIP3   OH237281   5.011   4.295   1.390  0.0355  0.2805 -0.8241
 5241TIP3    H137282   5.026   4.256   1.304 -0.8757 -0.2354 -0.7614
 5241TIP3    H237283   4.958   4.230   1.437 -0.8876  1.2797 -0.4590
 5242TIP3   OH237284   4.311   0.891   1.172 -0.0239  0.1185  0.2690
 5242TIP3    H137285   4.235   0.857   1.220 -1.0850  0.6414 -0.9726
 5242TIP3    H237286   4.273   0.939   1.098  1.4674  1.9176  0.5958
 5243TIP3   OH237287   2.641   2.583   6.344  0.1312 -0.2370 -0.3525
 5243TIP3    H137288   2.683   2.664   6.315  1.4799 -0.0694  1.8495
 5243TIP3    H237289   2.704   2.514   6.321 -0.3747 -0.5131 -0.9398
 5244TIP3   OH237290   1.478   4.589   6.683  0.0864  0.1693 -0.0715
 5244TIP3    H137291   1.387   4.578   6.656  0.0927 -2.0262  0.6393
 5244TIP3    H237292   1.528   4.587   6.601 -0.1501 -3.5688 -0.3109
 5245TIP3   OH237293   0.072   2.931   2.152  0.4593 -0.3693  0.2043
 5245TIP3    H137294   0.134   2.858   2.159  1.7252  0.4758 -1.5359
 5245TIP3    H237295   0.086   2.982   2.232  1.8562 -0.3197 -0.0509
 5246TIP3   OH237296   5.095   0.305   1.053 -0.0011  0.3570  0.5493
 5246TIP3    H137297   5.066   0.220   1.021 -3.0379  1.1842  0.8080
 5246TIP3    H237298   5.176   0.287   1.101  0.3154 -2.0946 -0.7792
 5247TIP3   OH237299   6.184   4.907   0.355  0.2528 -0.1702  0.2335
 5247TIP3    H137300   6.109   4.858   0.388 -1.9346  1.5827 -1.7996
 5247TIP3    H237301   6.261   4.858   0.386 -1.6702 -1.7936  2.7835
 5248TIP3   OH237302   4.860   6.098   0.994 -0.8029 -0.3820 -0.2018
 5248TIP3    H137303   4.824   6.024   1.043 -1.2366  0.3786  0.6484
 5248TIP3    H237304   4.806   6.172   1.018  1.4322  0.8764  1.3718
 5249TIP3   OH237305   3.871   4.678   0.482  0.1416 -0.3816  0.3656
 5249TIP3    H137306   3.935   4.731   0.529 -0.9988  0.2845  1.2104
 5249TIP3    H237307   3.901   4.587   0.493  1.8911  0.0118 -0.7574
 5250TIP3   OH237308   5.948   2.668   1.841 -0.5064  0.8354 -0.0561
 5250TIP3    H137309   5.943   2.647   1.934 -0.0914  1.3395  0.0863
 5250TIP3    H237310   6.039   2.691   1.827 -0.4757  0.3366 -0.6873
 5251TIP3   OH237311   2.288   4.672   1.435  0.3885  0.2535 -0.2274
 5251TIP3    H137312   2.264   4.633   1.519  0.8444 -3.2722 -1.5691
 5251TIP3    H237313   2.369   4.627   1.409  0.8464  1.9763 -2.1099
 5252TIP3   OH237314   0.855   5.416   0.303  0.6247 -0.5770  0.1750
 5252TIP3    H137315   0.862   5.361   0.381 -1.4164  0.4005  1.1229
 5252TIP3    H237316   0.777   5.384   0.258 -0.8635  1.7301  0.9741
 5253TIP3   OH237317   4.091   0.327   8.643  0.9569  0.0884 -0.0620
 5253TIP3    H137318   4.120   0.418   8.648  0.3408  0.2561  0.6059
 5253TIP3    H237319   4.170   0.278   8.618  0.8976  0.9832 -2.2079
 5254TIP3   OH237320   2.868   3.063   0.944 -0.0419  0.2645  0.1155
 5254TIP3    H137321   2.938   3.123   0.969  0.6715 -0.0598 -1.0349
 5254TIP3    H237322   2.789   3.101   0.983  0.1523  2.6952 -1.6567
 5255TIP3   OH237323   2.676   1.588   7.058  0.2475  0.7752 -0.3883
 5255TIP3    H137324   2.661   1.496   7.080 -1.5426  0.6710 -1.7556
 5255TIP3    H237325   2.640   1.636   7.132 -1.6027  0.3618 -0.9415
 5256TIP3   OH237326   4.380   0.232   6.617 -0.1350 -0.3348 -0.8456
 5256TIP3    H137327   4.292   0.266   6.603  0.6086  1.6278 -1.1392
 5256TIP3    H237328   4.404   0.261   6.705  0.2498 -0.7512 -0.8088
 5257TIP3   OH237329   0.196   4.197   7.237 -0.0275 -0.1700 -0.3989
 5257TIP3    H137330   0.241   4.245   7.168 -0.0760 -0.6104 -0.7405
 5257TIP3    H237331   0.259   4.192   7.308 -1.0246  3.0750  0.8797
 5258TIP3   OH237332   1.327   5.205   1.563  0.1241  0.1873  0.7877
 5258TIP3    H137333   1.323   5.213   1.468  2.0912  0.3744  0.6738
 5258TIP3    H237334   1.289   5.119   1.582  0.5708 -0.2536 -0.2637
 5259TIP3   OH237335   3.305   1.715   7.755  0.5547 -0.8501 -0.1530
 5259TIP3    H137336   3.225   1.761   7.728  0.7573  0.6882  1.6821
 5259TIP3    H237337   3.352   1.778   7.809  1.7154 -2.6660  1.0520
 5260TIP3   OH237338   1.184   0.564   6.295  0.2527 -0.4102 -0.6915
 5260TIP3    H137339   1.129   0.581   6.219  1.8861  0.1889 -1.8087
 5260TIP3    H237340   1.242   0.640   6.299  0.8630 -0.9224  0.5416
 5261TIP3   OH237341   5.051   5.943   6.268  0.0199 -0.1578  0.4676
 5261TIP3    H137342   5.019   6.021   6.313  1.4719  0.0463  1.2068
 5261TIP3    H237343   5.136   5.969   6.233 -0.4083 -0.7830 -1.1178
 5262TIP3   OH237344   0.109   1.442   8.536  0.1089 -0.4437  0.4325
 5262TIP3    H137345   0.151   1.502   8.475  0.9922  0.3171  1.7218
 5262TIP3    H237346   0.016   1.465   8.533  0.3551  0.6061  0.4655
 5263TIP3   OH237347   0.769   0.610   7.243 -0.0091  0.0328  0.0851
 5263TIP3    H137348   0.850   0.592   7.196 -0.0280  0.3227 -0.0578
 5263TIP3    H237349   0.735   0.523   7.266  1.6528 -0.1134  2.3921
 5264TIP3   OH237350   5.245   2.808   8.560 -0.4036  0.3190 -0.2465
 5264TIP3    H137351   5.293   2.891   8.560 -0.0835  0.2096 -2.3771
 5264TIP3    H237352   5.307   2.745   8.522 -0.6383 -0.9205  1.3328
 5265TIP3   OH237353   4.175   0.703   7.271  0.5608 -0.4520 -0.6062
 5265TIP3    H137354   4.125   0.653   7.336  1.6331  0.1123  0.6918
 5265TIP3    H237355   4.252   0.649   7.253  0.9678  0.0316 -0.3392
 5266TIP3   OH237356   1.006   0.629   1.201 -0.0237  0.3159 -0.5695
 5266TIP3    H137357   0.971   0.675   1.277 -0.5521  1.4073 -1.4508
 5266TIP3    H237358   1.009   0.695   1.132  0.5352 -0.6300 -1.4776
 5267TIP3   OH237359   4.258   4.050   0.136  0.0747 -0.5292  0.0912
 5267TIP3    H137360   4.230   3.967   0.098  0.9272 -1.1854  0.8443
 5267TIP3    H237361   4.301   4.096   0.065 -1.2222 -0.3160 -0.5796
 5268TIP3   OH237362   3.567   4.880   7.515  0.0178  0.2434 -0.3327
 5268TIP3    H137363   3.628   4.818   7.476  0.9688  0.8443  0.1796
 5268TIP3    H237364   3.491   4.879   7.456 -0.6376 -2.4800  0.3999
 5269TIP3   OH237365   0.086   5.048   2.255  0.3052 -0.1662  0.1236
 5269TIP3    H137366   0.066   5.130   2.300  1.3271  0.1090  0.0969
 5269TIP3    H237367   0.105   4.986   2.325 -1.5027 -0.7005  0.1972
 5270TIP3   OH237368   0.951   1.592   1.815  0.3045  0.5696  0.0602
 5270TIP3    H137369   0.985   1.504   1.802 -2.6408 -0.4055 -2.2952
 5270TIP3    H237370   1.001   1.647   1.755 -0.0557 -0.1726 -0.9378
 5271TIP3   OH237371   0.565   6.617   6.454 -0.2692  0.2460 -0.1106
 5271TIP3    H137372   0.482   6.594   6.497  0.8424 -1.1190  1.4111
 5271TIP3    H237373   0.605   6.534   6.431  0.8835  0.8695 -0.4388
 5272TIP3   OH237374   1.529   3.745   6.927  0.1354 -0.4301 -0.5318
 5272TIP3    H137375   1.448   3.755   6.977  0.6974  2.9258 -0.1152
 5272TIP3    H237376   1.507   3.680   6.860 -2.3871 -0.7826  0.5218
 5273TIP3   OH237377   5.348   2.385   0.889 -0.6710  0.1728 -0.1562
 5273TIP3    H137378   5.259   2.350   0.899 -0.9827  1.1353  0.6669
 5273TIP3    H237379   5.336   2.467   0.841 -0.2268  0.3114 -0.0382
 5274TIP3   OH237380   0.971   2.596   0.625  0.1140  0.0405 -0.0092
 5274TIP3    H137381   0.956   2.570   0.535  1.8194 -2.7233  0.4104
 5274TIP3    H237382   0.907   2.547   0.676  0.3254  0.2216  0.4432
 5275TIP3   OH237383   0.844   1.601   2.061 -0.1458 -0.0747  0.7014
 5275TIP3    H137384   0.929   1.620   2.101  0.4673  2.0982 -1.3884
 5275TIP3    H237385   0.861   1.600   1.967 -2.4001  0.2470  0.2286
 5276TIP3   OH237386   1.431   4.854   1.480 -0.0234 -0.0784 -0.2545
 5276TIP3    H137387   1.510   4.816   1.519 -0.4484 -0.8962 -0.1743
 5276TIP3    H237388   1.359   4.807   1.521 -0.5368  0.2673 -0.7494
 5277TIP3   OH237389   2.056   5.822   2.166 -0.0849  0.6012  0.2332
 5277TIP3    H137390   2.020   5.763   2.100  0.0078 -1.2540  1.7528
 5277TIP3    H237391   1.997   5.897   2.166 -0.0057  0.7327 -2.0075
 5278TIP3   OH237392   3.537   4.714   0.567  0.1559  0.1083  0.1789
 5278TIP3    H137393   3.481   4.772   0.619 -0.7712 -2.1144  1.8073
 5278TIP3    H237394   3.518   4.738   0.476 -1.0653  1.5251  0.7529
 5279TIP3   OH237395   2.821   6.458   7.393 -0.6936  0.0062  0.3957
 5279TIP3    H137396   2.905   6.503   7.384  0.9325 -1.8511  4.1905
 5279TIP3    H237397   2.840   6.366   7.372 -1.7427 -0.4503  1.3066
 5280TIP3   OH237398   2.881   6.650   6.998  0.8968  0.6574  0.3964
 5280TIP3    H137399   2.846   6.577   7.049 -1.7743  1.5447  0.0027
 5280TIP3    H237400   2.837   6.642   6.913  1.6083  1.9457 -0.1129
 5281TIP3   OH237401   2.925   3.592   0.748  0.1840 -0.0799  0.5331
 5281TIP3    H137402   2.905   3.503   0.778 -0.5655  0.3250  1.2948
 5281TIP3    H237403   2.845   3.622   0.706  0.2441  0.4349  0.7769
 5282TIP3   OH237404   0.793   4.500   0.554 -0.0750  0.1562  0.3291
 5282TIP3    H137405   0.782   4.579   0.502  0.8057 -0.7639 -1.3448
 5282TIP3    H237406   0.888   4.485   0.555 -0.1362 -0.2981  1.5469
 5283TIP3   OH237407   4.256   1.163   1.824  0.3261  0.4934  0.6022
 5283TIP3    H137408   4.291   1.078   1.799 -0.6309 -0.9337  3.6185
 5283TIP3    H237409   4.325   1.202   1.878  0.8766  1.8486 -0.9877
 5284TIP3   OH237410   2.211   2.175   8.024  0.4778  0.2926 -0.7110
 5284TIP3    H137411   2.187   2.267   8.038  0.5445  0.1579  0.3597
 5284TIP3    H237412   2.287   2.161   8.081  0.2741 -0.5096 -0.6234
 5285TIP3   OH237413   6.421   0.014   1.793  0.2856 -0.3163  0.5578
 5285TIP3    H137414   6.417   0.051   1.881  1.0400 -2.2916  1.4784
 5285TIP3    H237415   6.513   0.021   1.768  0.1446 -0.1127  0.1025
 5286TIP3   OH237416   6.016   1.731   2.232  0.2038  0.2979  0.8358
 5286TIP3    H137417   5.988   1.737   2.324  1.4173  0.4163  1.2159
 5286TIP3    H237418   6.054   1.643   2.225 -0.8303 -0.1155  0.1527
 5287TIP3   OH237419   3.223   3.018   0.518  0.0842  0.6677 -0.0284
 5287TIP3    H137420   3.138   2.978   0.500  1.1193 -1.5051 -0.4094
 5287TIP3    H237421   3.227   3.094   0.460  0.3344 -1.9530 -3.7960
 5288TIP3   OH237422   6.796   0.271   2.460 -0.1552  0.4614  0.5138
 5288TIP3    H137423   6.860   0.317   2.405  0.7361 -1.0242  0.2483
 5288TIP3    H237424   6.846   0.201   2.502 -1.6797 -1.0024 -0.0010
 5289TIP3   OH237425   0.448   0.544   8.294  0.3284 -0.0417  0.8633
 5289TIP3    H137426   0.363   0.571   8.257 -0.6846 -1.6639  1.9138
 5289TIP3    H237427   0.493   0.501   8.221 -0.0992  0.0724  0.5265
 5290TIP3   OH237428   6.276   4.330   8.134  0.4480 -0.5016  0.1091
 5290TIP3    H137429   6.226   4.272   8.193 -0.0234 -0.4606 -0.2387
 5290TIP3    H237430   6.226   4.328   8.053 -0.3375  1.4619  0.4885
 5291TIP3   OH237431   2.655   3.777   0.962 -0.5090 -0.1022  0.0268
 5291TIP3    H137432   2.690   3.691   0.986 -2.2103 -0.5397  1.0716
 5291TIP3    H237433   2.702   3.839   1.019 -2.1768 -0.7998  2.2958
 5292TIP3   OH237434   2.293   4.185   8.316 -0.2200 -0.3710  0.4285
 5292TIP3    H137435   2.227   4.121   8.341  0.3283 -0.9255  0.4764
 5292TIP3    H237436   2.320   4.158   8.228 -0.4620  0.1890  0.1770
 5293TIP3   OH237437   2.588   6.136   7.097 -0.1989 -0.3845 -0.0032
 5293TIP3    H137438   2.521   6.092   7.045 -0.5649 -0.2046  0.3136
 5293TIP3    H237439   2.669   6.123   7.048 -0.7972  1.2372 -1.4962
 5294TIP3   OH237440   5.027   5.962   0.780  0.0295  0.1133  0.0466
 5294TIP3    H137441   5.036   6.056   0.763  1.1411 -0.0044 -0.1007
 5294TIP3    H237442   4.942   5.953   0.823 -0.3446  1.1144 -0.4505
 5295TIP3   OH237443   3.636   2.177   7.862  0.8318 -0.0893 -0.0495
 5295TIP3    H137444   3.604   2.183   7.952 -1.3404 -1.6247 -0.6326
 5295TIP3    H237445   3.569   2.219   7.809  1.1169 -0.9107 -1.1169
 5296TIP3   OH237446   3.486   6.774   7.621  0.6071  0.6531  0.1933
 5296TIP3    H137447   3.475   6.723   7.541  2.4309 -0.0352  0.3228
 5296TIP3    H237448   3.425   6.847   7.612 -0.0951 -0.0791 -1.2584
 5297TIP3   OH237449   4.811   5.720   2.143  0.0353  1.0936  0.1392
 5297TIP3    H137450   4.731   5.770   2.161 -0.7913 -0.6494  1.5879
 5297TIP3    H237451   4.872   5.746   2.212  0.3796  1.6773 -0.3769
 5298TIP3   OH237452   3.345   0.499   1.782 -0.0191  0.3864 -0.1724
 5298TIP3    H137453   3.384   0.445   1.850  0.0938  0.1498 -0.4261
 5298TIP3    H237454   3.408   0.570   1.769 -0.7734  1.3438  1.1055
 5299TIP3   OH237455   1.686   3.755   7.832 -0.1573 -0.2843 -0.9572
 5299TIP3    H137456   1.743   3.814   7.882  0.1301  0.7599 -2.4708
 5299TIP3    H237457   1.741   3.680   7.812 -1.0061 -2.0704  2.5031
 5300TIP3   OH237458   4.093   1.871   0.258  0.1401 -0.0173  0.0746
 5300TIP3    H137459   4.093   1.965   0.240  1.9522 -0.3354 -1.9097
 5300TIP3    H237460   4.158   1.835   0.198 -0.8351 -2.6197  0.4675
 5301TIP3   OH237461   4.303   6.369   7.437 -0.1576  0.2364 -0.0821
 5301TIP3    H137462   4.334   6.391   7.349 -0.9586  0.5183 -0.3011
 5301TIP3    H237463   4.227   6.426   7.450  0.0687  0.3394  0.8707
 5302TIP3   OH237464   3.363   4.267   6.357 -0.2163 -0.0459 -0.8036
 5302TIP3    H137465   3.446   4.247   6.315  0.4386  1.0566 -0.0852
 5302TIP3    H237466   3.305   4.196   6.331  1.2259 -1.3827 -0.4946
 5303TIP3   OH237467   0.630   6.171   1.592 -0.3804 -0.5084 -0.2916
 5303TIP3    H137468   0.666   6.138   1.509 -0.6709  2.1230 -1.5477
 5303TIP3    H237469   0.541   6.137   1.594 -0.7816  0.3602 -1.7060
 5304TIP3   OH237470   6.061   3.374   0.129  0.3352 -0.3996 -0.1164
 5304TIP3    H137471   6.058   3.457   0.176  1.1929 -0.5644  0.2483
 5304TIP3    H237472   6.004   3.316   0.179  0.0002 -0.1317 -0.1833
 5305TIP3   OH237473   6.047   3.810   8.409  0.1052 -0.4392 -0.4733
 5305TIP3    H137474   6.004   3.885   8.450 -0.8237 -1.4466  0.4755
 5305TIP3    H237475   6.083   3.760   8.483 -0.2012 -1.4574 -0.9863
 5306TIP3   OH237476   0.732   5.211   8.587  0.1206 -0.1048  0.4564
 5306TIP3    H137477   0.640   5.200   8.562  0.5025 -1.4914 -0.4774
 5306TIP3    H237478   0.757   5.295   8.548 -0.7859  0.3726  0.8667
 5307TIP3   OH237479   1.291   5.508   8.199  0.1147 -0.3800 -0.3593
 5307TIP3    H137480   1.334   5.434   8.243 -0.0623 -0.0104  0.4557
 5307TIP3    H237481   1.229   5.542   8.264  0.7088  0.9370 -0.4501
 5308TIP3   OH237482   3.689   3.652   7.076  0.1134  0.4676 -0.0807
 5308TIP3    H137483   3.761   3.716   7.079 -0.7242  1.4107  1.6016
 5308TIP3    H237484   3.685   3.617   7.165 -0.3883 -0.8956 -0.6128
 5309TIP3   OH237485   1.373   0.857   8.346  0.0349  0.6733 -0.4261
 5309TIP3    H137486   1.444   0.856   8.410  1.1201  0.3489 -1.5878
 5309TIP3    H237487   1.355   0.764   8.328 -1.4605  0.7239  0.6614
 5310TIP3   OH237488   6.658   2.840   8.088  0.4772 -0.1543  0.2106
 5310TIP3    H137489   6.604   2.798   8.022  0.6445  0.0979 -0.0914
 5310TIP3    H237490   6.742   2.794   8.083  0.7946  0.4825 -0.4074
 5311TIP3   OH237491   0.877   3.162   1.592 -0.0935  0.4705 -0.6631
 5311TIP3    H137492   0.886   3.198   1.680  0.4292 -0.3264 -0.3698
 5311TIP3    H237493   0.963   3.123   1.574 -1.2632 -2.7661  0.0424
 5312TIP3   OH237494   5.378   3.645   0.717  0.0821 -0.0382  0.0753
 5312TIP3    H137495   5.301   3.592   0.738 -0.0176  0.1957  0.3010
 5312TIP3    H237496   5.347   3.707   0.652 -0.3587  1.1747  1.4041
 5313TIP3   OH237497   5.204   6.364   0.154 -0.0854 -0.5089  0.7458
 5313TIP3    H137498   5.198   6.344   0.060 -1.2194  0.1666  0.6558
 5313TIP3    H237499   5.113   6.376   0.182  0.3043  0.3804  1.6893
 5314TIP3   OH237500   3.805   6.613   0.093  0.2825 -1.1976  0.5337
 5314TIP3    H137501   3.763   6.545   0.040  2.5561 -1.6198 -0.8756
 5314TIP3    H237502   3.737   6.680   0.105 -0.6382 -1.5651 -2.0694
 5315TIP3   OH237503   0.832   4.349   7.290  0.2933 -0.1430 -0.2726
 5315TIP3    H137504   0.881   4.355   7.372  1.2831  0.0597 -0.8634
 5315TIP3    H237505   0.754   4.299   7.312  1.6380 -2.1056  0.3240
 5316TIP3   OH237506   6.123   3.440   6.597 -0.0416 -0.1245 -0.0085
 5316TIP3    H137507   6.197   3.449   6.536  0.2782 -1.3534  0.1530
 5316TIP3    H237508   6.065   3.378   6.553 -0.4247 -0.0354  0.3749
 5317TIP3   OH237509   3.840   0.134   7.435 -0.2468 -0.6570  0.0852
 5317TIP3    H137510   3.914   0.077   7.453 -0.3596 -1.3174 -1.4557
 5317TIP3    H237511   3.763   0.077   7.437 -0.3837 -0.5555 -1.2777
 5318TIP3   OH237512   2.962   3.805   8.323  0.2509 -0.3468 -0.3725
 5318TIP3    H137513   2.930   3.864   8.255  0.9905 -1.1674 -1.4468
 5318TIP3    H237514   2.965   3.860   8.402  0.4286  0.9084 -1.2279
 5319TIP3   OH237515   4.674   4.871   2.030 -0.8329  0.0059  0.2092
 5319TIP3    H137516   4.675   4.905   2.119 -0.5594 -0.3432  0.3368
 5319TIP3    H237517   4.619   4.934   1.982  2.3899  2.7140 -0.3687
 5320TIP3   OH237518   1.718   4.522   1.117  0.6790  0.6485 -0.2782
 5320TIP3    H137519   1.623   4.511   1.124  0.7778  0.1820  0.5507
 5320TIP3    H237520   1.754   4.448   1.166  1.4490  1.7827  0.9660
 5321TIP3   OH237521   6.126   6.235   7.342  0.2499  0.1134  0.1079
 5321TIP3    H137522   6.055   6.196   7.291  2.6655 -1.3571 -2.4023
 5321TIP3    H237523   6.128   6.327   7.315 -2.4531  1.0303  2.4937
 5322TIP3   OH237524   6.265   2.987   8.420 -0.3271 -0.2939  0.1047
 5322TIP3    H137525   6.231   3.053   8.480 -0.1393  0.5196 -0.6729
 5322TIP3    H237526   6.315   2.927   8.476 -0.9594 -0.1057  0.8920
 5323TIP3   OH237527   4.870   3.888   1.246 -0.0274 -0.4107 -0.1298
 5323TIP3    H137528   4.946   3.921   1.294  0.8256 -0.3373 -1.4869
 5323TIP3    H237529   4.873   3.933   1.162 -1.4261 -0.6139 -0.3179
 5324TIP3   OH237530   3.955   1.157   8.120  0.1151 -0.1275  0.8766
 5324TIP3    H137531   3.999   1.127   8.041 -0.1562 -0.8643  0.9966
 5324TIP3    H237532   4.012   1.226   8.155 -0.8897  1.8675 -1.1930
 5325TIP3   OH237533   0.219   1.606   8.335 -0.7097 -0.2226 -0.0828
 5325TIP3    H137534   0.136   1.605   8.287  0.4043  0.7223 -2.1755
 5325TIP3    H237535   0.270   1.674   8.291  1.4911 -1.3792  0.5929
 5326TIP3   OH237536   4.943   1.442   8.288  0.3544  0.1265  0.7187
 5326TIP3    H137537   4.990   1.524   8.302  2.2400 -1.1935  2.8329
 5326TIP3    H237538   4.930   1.438   8.193  1.6999  2.0812  0.3944
 5327TIP3   OH237539   5.871   2.315   1.946 -0.5510  0.4337 -0.5542
 5327TIP3    H137540   5.859   2.277   2.033 -0.2863  1.1761 -0.1841
 5327TIP3    H237541   5.820   2.396   1.948  0.2745  0.9748 -0.7318
 5328TIP3   OH237542   5.519   3.228   0.516 -0.1173  0.7285  0.4664
 5328TIP3    H137543   5.581   3.285   0.469  1.7151  0.1925  2.0826
 5328TIP3    H237544   5.435   3.272   0.508  0.9660  2.9591  0.4831
 5329TIP3   OH237545   2.402   6.452   1.310  0.4914 -0.2511 -0.0122
 5329TIP3    H137546   2.450   6.522   1.265  1.1708 -0.8599 -0.2585
 5329TIP3    H237547   2.344   6.498   1.370 -0.3524  0.5860 -1.4142
 5330TIP3   OH237548   2.343   2.448   8.195  0.4708  0.5000 -0.0624
 5330TIP3    H137549   2.317   2.453   8.288  2.9922  2.8235  0.6403
 5330TIP3    H237550   2.260   2.449   8.148 -0.9128 -1.1107  2.1418
 5331TIP3   OH237551   4.172   2.833   7.880 -0.3427  0.3451 -0.4222
 5331TIP3    H137552   4.194   2.752   7.834 -1.6745 -0.0455 -0.4169
 5331TIP3    H237553   4.209   2.821   7.968 -2.5710 -1.3712  0.3876
 5332TIP3   OH237554   2.214   1.196   1.192  0.1003 -0.0277 -0.4583
 5332TIP3    H137555   2.211   1.101   1.203 -0.1888 -0.0283 -0.5336
 5332TIP3    H237556   2.301   1.221   1.221  0.2581 -0.3447 -0.6550
 5333TIP3   OH237557   0.291   1.073   0.526 -0.4506 -0.1509  0.1972
 5333TIP3    H137558   0.211   1.026   0.502 -0.1899 -1.1841  1.2817
 5333TIP3    H237559   0.360   1.008   0.522 -0.3860 -0.4723  3.6724
 5334TIP3   OH237560   5.042   2.203   1.542 -0.6245  0.6874  0.1676
 5334TIP3    H137561   4.969   2.198   1.604 -0.9292  0.3916 -0.2099
 5334TIP3    H237562   5.119   2.176   1.593 -0.9201  0.1757  0.3495
 5335TIP3   OH237563   2.296   0.295   7.737  0.0286  0.3602  0.5448
 5335TIP3    H137564   2.342   0.322   7.817 -0.6158  0.9728  0.7196
 5335TIP3    H237565   2.217   0.349   7.736  0.6323  1.2783 -1.1880
 5336TIP3   OH237566   1.810   2.398   7.936 -0.1726 -0.0355 -0.4796
 5336TIP3    H137567   1.715   2.388   7.939 -0.1074 -0.4750  0.2978
 5336TIP3    H237568   1.842   2.314   7.903 -0.0092 -0.1900  0.0608
 5337TIP3   OH237569   2.245   6.199   8.368 -0.4379  0.1426  0.9562
 5337TIP3    H137570   2.251   6.241   8.282 -1.9990 -4.1779 -1.6113
 5337TIP3    H237571   2.335   6.174   8.389 -0.1906 -0.0043 -0.2042
 5338TIP3   OH237572   4.765   3.204   1.991  0.0932  0.2826 -0.1730
 5338TIP3    H137573   4.670   3.199   2.007  0.3244  0.2455  1.3403
 5338TIP3    H237574   4.788   3.294   2.013  0.6343 -0.1099  0.9524
 5339TIP3   OH237575   6.654   6.536   1.953  0.0744  0.3330 -0.1417
 5339TIP3    H137576   6.651   6.625   1.919 -0.1697  0.2059 -0.4527
 5339TIP3    H237577   6.697   6.485   1.884  0.8430  0.3381  0.3211
 5340TIP3   OH237578   6.772   4.293   1.615 -0.2891 -0.4196  0.3866
 5340TIP3    H137579   6.838   4.286   1.546  0.2599 -0.3876  0.9083
 5340TIP3    H237580   6.774   4.385   1.641 -1.5359 -0.0914 -0.5665
 5341TIP3   OH237581   4.829   4.427   2.226 -0.3213 -0.3608  0.0157
 5341TIP3    H137582   4.762   4.454   2.289 -0.0890 -1.7385  0.8886
 5341TIP3    H237583   4.820   4.490   2.154 -2.7882 -0.6887 -0.0738
 5342TIP3   OH237584   6.277   4.520   0.980 -0.1753 -1.0506  0.0109
 5342TIP3    H137585   6.194   4.557   1.009  0.0680  0.5556 -1.1590
 5342TIP3    H237586   6.341   4.549   1.045 -0.1281 -0.0662 -0.4560
 5343TIP3   OH237587   2.397   3.336   1.994  0.1162 -0.5814  0.1690
 5343TIP3    H137588   2.454   3.269   2.031  1.0535  0.9763  1.6701
 5343TIP3    H237589   2.441   3.363   1.913  2.2786  1.4287  1.8768
 5344TIP3   OH237590   6.421   3.026   7.868 -0.1321  0.1981  0.1123
 5344TIP3    H137591   6.410   3.116   7.837  1.0504  0.4704  0.4060
 5344TIP3    H237592   6.384   3.026   7.957 -1.0488  0.1226 -0.2622
 5345TIP3   OH237593   5.646   1.411   2.011 -0.6155  0.1409  0.4492
 5345TIP3    H137594   5.688   1.465   2.079  1.7504 -0.1849 -0.6496
 5345TIP3    H237595   5.714   1.400   1.945 -2.1168 -1.4852 -0.8929
 5346TIP3   OH237596   1.501   2.472   7.854  0.4142  0.4571  0.3449
 5346TIP3    H137597   1.466   2.494   7.768 -2.3324  1.7031  1.6497
 5346TIP3    H237598   1.443   2.403   7.887  1.1573  0.2953  1.3802
 5347TIP3   OH237599   3.568   2.751   1.475  0.1463 -0.0370 -0.3583
 5347TIP3    H137600   3.630   2.791   1.535  0.4677 -1.8527  0.6060
 5347TIP3    H237601   3.484   2.754   1.521  0.4521 -1.7073  0.3605
 5348TIP3   OH237602   4.677   6.225   2.101  0.8408  0.6785  0.0869
 5348TIP3    H137603   4.645   6.250   2.014  2.3885  0.6348 -0.5181
 5348TIP3    H237604   4.772   6.227   2.093  1.0101 -0.5471  1.4294
 5349TIP3   OH237605   5.235   2.658   1.049  0.2781  0.1150 -0.2213
 5349TIP3    H137606   5.173   2.585   1.047  0.8545 -0.3700 -1.2027
 5349TIP3    H237607   5.250   2.679   0.957  0.9711  0.7468  0.0249
 5350TIP3   OH237608   0.547   2.360   2.799 -0.1990 -0.0290  0.4741
 5350TIP3    H137609   0.524   2.306   2.724  0.7656 -0.4360  0.4561
 5350TIP3    H237610   0.477   2.344   2.862 -0.2370 -0.8509  0.2426
 5351TIP3   OH237611   4.731   3.286   8.438  0.2912 -0.0970  0.0429
 5351TIP3    H137612   4.796   3.356   8.434 -0.5961  0.7192 -0.6960
 5351TIP3    H237613   4.776   3.209   8.403  0.1801  1.0417 -2.9805
 5352TIP3   OH237614   4.658   1.204   0.003 -0.2257 -0.2636 -0.1935
 5352TIP3    H137615   4.586   1.189   0.064  0.8212 -0.9120  0.9318
 5352TIP3    H237616   4.736   1.210   0.058  1.1389 -3.2129 -1.5239
 5353TIP3   OH237617   3.531   5.972   1.140 -0.0041  0.3379  0.2153
 5353TIP3    H137618   3.537   5.880   1.113  0.1813  0.4503 -0.1390
 5353TIP3    H237619   3.518   5.969   1.234  1.9396 -0.0351  0.5184
 5354TIP3   OH237620   2.283   1.934   0.040 -0.2877 -0.1802  0.0990
 5354TIP3    H137621   2.347   1.867   0.016 -0.4133  0.0053 -0.8117
 5354TIP3    H237622   2.224   1.939  -0.036  0.2206  1.5592 -0.2356
 5355TIP3   OH237623   3.942   4.783   0.854 -0.3862  0.0188 -0.2276
 5355TIP3    H137624   3.912   4.873   0.839  0.4774  0.1981 -0.9539
 5355TIP3    H237625   3.874   4.728   0.816  0.3189  0.4217 -2.1478
 5356TIP3   OH237626   4.048   6.505   8.000 -0.4097 -0.1375 -0.2079
 5356TIP3    H137627   3.984   6.459   7.946  0.0178 -2.3654  1.0245
 5356TIP3    H237628   3.997   6.548   8.068 -0.7215 -0.1140 -0.4565
 5357TIP3   OH237629   2.417   1.151   7.985 -0.3130  0.3219 -0.1132
 5357TIP3    H137630   2.509   1.131   8.005 -0.0824 -0.1749 -1.5473
 5357TIP3    H237631   2.376   1.065   7.975 -0.6906  0.5448 -0.5026
 5358TIP3   OH237632   2.984   1.729   0.661  0.1261  0.6737 -0.2042
 5358TIP3    H137633   3.067   1.740   0.709 -0.0026  0.0249  0.1884
 5358TIP3    H237634   2.958   1.817   0.636 -0.5961  1.2107  2.2639
 5359TIP3   OH237635   3.541   4.394   0.280 -0.6307  0.2331  0.0386
 5359TIP3    H137636   3.518   4.355   0.365 -0.0023 -0.1014  0.0624
 5359TIP3    H237637   3.555   4.487   0.300  1.4823 -0.1799  0.7215
 5360TIP3   OH237638   2.027   6.404   2.555  0.6748  0.0902  0.6451
 5360TIP3    H137639   2.067   6.470   2.499  0.3335 -0.2050  0.0372
 5360TIP3    H237640   2.089   6.331   2.553  0.3473 -0.1818  0.0915
 5361TIP3   OH237641   0.686   2.091   6.776 -0.2065 -0.4854 -0.3365
 5361TIP3    H137642   0.710   2.047   6.694 -0.0669  0.0514 -0.5841
 5361TIP3    H237643   0.598   2.124   6.760 -0.0583 -0.1074 -0.3839
 5362TIP3   OH237644   3.153   1.272   1.716  0.3600 -0.5959  0.4646
 5362TIP3    H137645   3.087   1.341   1.708 -0.9837 -2.0266 -1.4323
 5362TIP3    H237646   3.185   1.281   1.806 -1.3620  1.0565  0.9903
 5363TIP3   OH237647   6.446   5.160   0.081 -0.1615  0.4593  0.3285
 5363TIP3    H137648   6.373   5.156   0.019  0.8680 -2.1938 -0.8904
 5363TIP3    H237649   6.408   5.130   0.164 -0.7124  0.1929 -0.0097
 5364TIP3   OH237650   2.586   1.764   8.376  0.1277  0.5198 -0.0294
 5364TIP3    H137651   2.581   1.859   8.376  1.0517  0.5819 -0.5998
 5364TIP3    H237652   2.634   1.742   8.296  3.2017 -0.2105  1.8535
 5365TIP3   OH237653   5.762   1.265   6.742 -0.2857  0.0945  0.5875
 5365TIP3    H137654   5.677   1.270   6.697 -0.4655  0.6120  0.9805
 5365TIP3    H237655   5.807   1.346   6.719 -0.1404  0.0939  0.8629
 5366TIP3   OH237656   5.894   2.407   7.683  0.6199  0.0470  0.5393
 5366TIP3    H137657   5.851   2.340   7.630 -0.7579  0.8455  0.6071
 5366TIP3    H237658   5.983   2.412   7.649  1.2506 -2.8467  1.4913
 5367TIP3   OH237659   2.084   6.243   1.910 -0.1916  0.7545  0.3398
 5367TIP3    H137660   2.111   6.334   1.913  0.5325  0.5573  0.0060
 5367TIP3    H237661   2.117   6.205   1.992  0.0593  0.6460  0.1895
 5368TIP3   OH237662   5.295   2.451   8.396  0.1374  0.2192 -0.4529
 5368TIP3    H137663   5.276   2.357   8.403  1.2866  0.0367  0.8334
 5368TIP3    H237664   5.340   2.471   8.478 -0.3583  1.9727 -0.5847
 5369TIP3   OH237665   2.998   3.928   7.918  0.4070  0.3011 -0.0650
 5369TIP3    H137666   2.999   3.841   7.878  2.7657 -1.2076  2.8606
 5369TIP3    H237667   3.042   3.984   7.855 -1.4050 -0.4811 -2.1406
 5370TIP3   OH237668   2.177   1.405   7.515 -0.6445  0.2118  0.0814
 5370TIP3    H137669   2.117   1.331   7.522 -0.4200 -0.2438 -2.1975
 5370TIP3    H237670   2.152   1.450   7.434  1.9830  0.0522 -0.9078
 5371TIP3   OH237671   6.658   3.298   8.187 -0.0879  0.1655  0.3874
 5371TIP3    H137672   6.645   3.290   8.282 -0.8151 -1.1325  0.1979
 5371TIP3    H237673   6.707   3.380   8.177 -0.1804  0.4383  1.8627
 5372TIP3   OH237674   4.431   1.116   2.200  0.6941  0.0484  0.4287
 5372TIP3    H137675   4.345   1.158   2.191  0.5950 -0.4755 -1.7690
 5372TIP3    H237676   4.413   1.035   2.246 -0.3704 -0.9130 -1.5440
 5373TIP3   OH237677   0.144   0.994   8.089  0.4572  0.4891  0.2592
 5373TIP3    H137678   0.121   1.019   8.000  0.0351  0.1935  0.2858
 5373TIP3    H237679   0.169   1.077   8.131 -0.9692  0.8972  0.3559
 5374TIP3   OH237680   3.453   5.035   8.233 -0.3466 -0.3585 -0.0066
 5374TIP3    H137681   3.543   5.015   8.206 -0.9794 -0.4307 -2.3441
 5374TIP3    H237682   3.462   5.096   8.305  1.5914 -0.2295 -0.3108
 5375TIP3   OH237683   2.961   0.120   6.004  0.0496 -0.2926 -0.2059
 5375TIP3    H137684   2.958   0.041   5.950  0.4408 -0.1836 -0.3971
 5375TIP3    H237685   2.902   0.102   6.077  0.2035 -0.7980 -0.2002
 5376TIP3   OH237686   4.856   1.995   2.367  0.0358  0.1363  0.5576
 5376TIP3    H137687   4.895   1.943   2.297  0.2485  0.4573  0.4347
 5376TIP3    H237688   4.813   1.931   2.424  0.5668 -0.2050  0.5837
 5377TIP3   OH237689   3.658   4.849   1.090 -0.0266  0.5863 -0.9962
 5377TIP3    H137690   3.703   4.925   1.052 -2.1127  1.1076 -2.5937
 5377TIP3    H237691   3.722   4.778   1.084  0.2886  1.0084 -4.2042
 5378TIP3   OH237692   3.882   3.872   7.920  0.4503 -0.5769  0.0736
 5378TIP3    H137693   3.804   3.827   7.951 -0.2186  0.1885 -0.4488
 5378TIP3    H237694   3.953   3.809   7.934 -0.3556 -1.5568 -0.0766
 5379TIP3   OH237695   3.699   4.252   7.217 -0.1555 -0.4102 -0.4406
 5379TIP3    H137696   3.794   4.256   7.218 -0.1420 -0.7190 -0.2789
 5379TIP3    H237697   3.671   4.343   7.208  0.1458 -0.2400  0.2449
 5380TIP3   OH237698   5.622   4.801   1.011 -0.0664 -0.0425 -0.2188
 5380TIP3    H137699   5.620   4.705   1.016 -1.2361 -0.0206 -0.0191
 5380TIP3    H237700   5.698   4.826   1.064  0.5871 -0.8825 -0.7440
 5381TIP3   OH237701   6.784   1.735   6.917 -0.8978 -0.0575 -0.1958
 5381TIP3    H137702   6.850   1.804   6.917  0.5857 -1.4127  0.1471
 5381TIP3    H237703   6.770   1.716   6.824 -1.1700  0.5410 -0.2853
 5382TIP3   OH237704   2.977   5.217   0.467 -0.1779 -0.4387  0.3945
 5382TIP3    H137705   2.899   5.239   0.519  0.1994  0.3408  0.6440
 5382TIP3    H237706   3.050   5.223   0.529  0.1142 -0.9524  0.1092
 5383TIP3   OH237707   2.850   3.577   0.044  0.9306  0.2298  0.0860
 5383TIP3    H137708   2.915   3.517   0.007 -1.0994 -0.7077 -2.2314
 5383TIP3    H237709   2.806   3.526   0.112  2.6874  0.9478  1.8304
 5384TIP3   OH237710   2.624   4.395   8.286  0.3509 -0.0660  0.3045
 5384TIP3    H137711   2.687   4.325   8.274 -0.2473 -0.8761  1.7252
 5384TIP3    H237712   2.662   4.451   8.354 -0.5663 -0.7322  1.3965
 5385TIP3   OH237713   0.342   4.753   1.023 -0.1360 -0.2150 -0.1659
 5385TIP3    H137714   0.370   4.842   1.043  0.8004 -0.1968 -1.4160
 5385TIP3    H237715   0.423   4.706   1.004 -0.6155 -1.3414  0.4564
 5386TIP3   OH237716   5.531   2.074   8.429  1.2134  0.1499  0.2832
 5386TIP3    H137717   5.490   2.004   8.481  1.5509  0.4518  0.9643
 5386TIP3    H237718   5.469   2.090   8.357  1.1831 -0.9196  0.0566
 5387TIP3   OH237719   3.878   6.687   7.214 -0.4492  0.0573 -0.4039
 5387TIP3    H137720   3.808   6.717   7.272 -1.2807 -0.4487 -1.1064
 5387TIP3    H237721   3.943   6.757   7.216 -1.9899  1.6049 -1.4523
 5388TIP3   OH237722   5.911   2.813   0.542  0.4443  0.6409  0.4155
 5388TIP3    H137723   5.984   2.825   0.603  3.2229  0.2333 -2.5809
 5388TIP3    H237724   5.894   2.901   0.508  1.8849  0.3415 -1.2489
 5389TIP3   OH237725   4.839   3.955   0.471 -0.3450  0.0782 -0.4700
 5389TIP3    H137726   4.877   4.028   0.422  0.0179  0.7946  0.8340
 5389TIP3    H237727   4.819   3.890   0.404  1.5821  0.3689 -1.4100
 5390TIP3   OH237728   6.686   4.443   0.795 -0.4750 -0.5496  0.1967
 5390TIP3    H137729   6.593   4.419   0.794  0.2535 -3.8484  0.4019
 5390TIP3    H237730   6.730   4.370   0.752  2.0466  1.1009 -0.2736
 5391TIP3   OH237731   3.940   1.210   7.392 -0.2957 -0.8787 -0.2902
 5391TIP3    H137732   3.993   1.240   7.466  0.3280  1.1110 -1.4655
 5391TIP3    H237733   4.001   1.207   7.319 -0.8948 -2.8573 -0.7577
 5392TIP3   OH237734   3.573   5.134   0.498  1.0077  0.3871  0.3046
 5392TIP3    H137735   3.590   5.216   0.453 -0.0268  0.5679  0.2213
 5392TIP3    H237736   3.635   5.072   0.460  0.5036  0.6622 -1.0177
 5393TIP3   OH237737   1.246   3.630   7.658 -0.2019  0.0257  0.8641
 5393TIP3    H137738   1.295   3.556   7.693  2.0939  1.8323  1.7799
 5393TIP3    H237739   1.179   3.647   7.725 -0.8688 -1.2627  0.5620
 5394TIP3   OH237740   1.282   4.119   7.304 -0.0905  0.3089  0.4842
 5394TIP3    H137741   1.334   4.077   7.372 -2.7713 -0.4194  2.2596
 5394TIP3    H237742   1.271   4.209   7.334  0.4994  0.5895 -0.1197
 5395TIP3   OH237743   2.794   4.228   6.941  0.2794  0.2532 -0.3802
 5395TIP3    H137744   2.725   4.245   6.878  0.3865  1.0362 -0.2917
 5395TIP3    H237745   2.874   4.227   6.889  0.5591  2.4821 -0.0741
 5396TIP3   OH237746   5.785   4.131   6.645  0.0663  0.2602  0.6202
 5396TIP3    H137747   5.835   4.060   6.685  1.4556  0.7786 -0.1062
 5396TIP3    H237748   5.745   4.091   6.567  0.7970  0.2428  0.2448
 5397TIP3   OH237749   0.426   5.875   8.414 -0.1128 -0.4087 -0.3325
 5397TIP3    H137750   0.349   5.830   8.378  0.7062 -2.8866  0.8044
 5397TIP3    H237751   0.396   5.910   8.498 -0.0765 -1.2070  0.0221
 5398TIP3   OH237752   5.746   5.414   0.033 -0.0960 -0.0739  0.3025
 5398TIP3    H137753   5.773   5.337  -0.016 -2.0587 -1.1808  0.8227
 5398TIP3    H237754   5.651   5.419   0.018 -0.2830  1.1929  1.6933
 5399TIP3   OH237755   3.713   6.798   1.661 -0.3359  0.2043  0.6988
 5399TIP3    H137756   3.787   6.738   1.666  0.1263  0.7457  0.5181
 5399TIP3    H237757   3.733   6.867   1.725 -0.9743  0.0486  1.0773
 5400TIP3   OH237758   3.699   4.218   1.614  0.7128 -0.3780  0.3316
 5400TIP3    H137759   3.665   4.201   1.526  0.8454  1.0062 -0.0073
 5400TIP3    H237760   3.782   4.264   1.599  0.4271  0.4430  1.1726
 5401TIP3   OH237761   1.084   6.174   8.577 -0.5480 -0.4296  0.2839
 5401TIP3    H137762   1.131   6.099   8.542 -1.8072 -1.0063 -0.1796
 5401TIP3    H237763   1.097   6.243   8.512  3.4894  0.9867  2.1880
 5402TIP3   OH237764   2.559   5.739   8.132 -0.6644  0.2673 -0.4024
 5402TIP3    H137765   2.540   5.718   8.223 -0.7183 -0.4213 -0.5685
 5402TIP3    H237766   2.621   5.813   8.137  1.3227 -1.3534  0.2552
 5403TIP3   OH237767   3.070   0.264   7.685 -0.3021 -0.3412 -0.3033
 5403TIP3    H137768   3.132   0.220   7.626 -0.2706 -0.2213 -0.3601
 5403TIP3    H237769   3.063   0.205   7.760  0.3174 -0.0872 -0.0414
 5404TIP3   OH237770   4.959   2.448   8.592 -0.0280  0.0530  0.3120
 5404TIP3    H137771   4.898   2.512   8.628 -0.6560 -0.3451 -0.0219
 5404TIP3    H237772   4.998   2.492   8.517 -0.6847 -0.0412 -0.1020
 5405TIP3   OH237773   2.446   5.228   2.023  0.0034  0.6781  0.5980
 5405TIP3    H137774   2.491   5.296   2.073  0.0827  2.0988 -1.3325
 5405TIP3    H237775   2.512   5.196   1.961 -0.0653 -1.1350  1.3712
 5406TIP3   OH237776   2.827   1.803   6.295 -0.3498 -0.3719  0.0815
 5406TIP3    H137777   2.793   1.882   6.337 -1.0024 -1.2299  1.2350
 5406TIP3    H237778   2.759   1.778   6.232 -0.5200 -0.4456  0.2916
 5407TIP3   OH237779   1.870   0.840   0.503 -0.2026  0.0620 -0.6202
 5407TIP3    H137780   1.868   0.769   0.438 -0.1485  0.0838 -0.6458
 5407TIP3    H237781   1.867   0.795   0.587  0.9467 -0.0323 -0.6061
 5408TIP3   OH237782   6.401   6.133   1.761  0.4703  0.2345  0.0017
 5408TIP3    H137783   6.324   6.153   1.813  0.3259  1.2607 -0.5884
 5408TIP3    H237784   6.410   6.207   1.701  2.2389  0.4218  0.4409
 5409TIP3   OH237785   5.830   2.011   1.018 -0.8515 -0.6693 -0.4782
 5409TIP3    H137786   5.818   1.974   0.931 -3.3679 -1.0542 -0.0460
 5409TIP3    H237787   5.860   1.937   1.071  1.3195 -0.2912 -1.0679
 5410TIP3   OH237788   5.049   6.243   0.720 -0.1506 -0.4316  0.6492
 5410TIP3    H137789   5.000   6.265   0.799 -0.4615 -0.0187  0.3475
 5410TIP3    H237790   5.124   6.302   0.721  1.5418 -2.4633  2.2014
 5411TIP3   OH237791   1.929   5.204   1.130  0.1815 -0.1299  0.4531
 5411TIP3    H137792   1.834   5.209   1.120  0.1273  2.8442  1.4467
 5411TIP3    H237793   1.964   5.260   1.060  1.1279 -0.1544  0.8826
 5412TIP3   OH237794   5.613   2.824   8.200  0.2755 -0.0544 -0.2902
 5412TIP3    H137795   5.657   2.739   8.199  2.6324  1.1165 -0.9612
 5412TIP3    H237796   5.629   2.861   8.113 -0.9886  0.9808 -0.1270
 5413TIP3   OH237797   1.228   5.954   7.411  0.3227  0.0290  0.0176
 5413TIP3    H137798   1.197   5.912   7.491 -1.2416  2.1646  0.6257
 5413TIP3    H237799   1.149   5.965   7.358  0.1146  3.9833  0.8292
 5414TIP3   OH237800   2.851   1.732   0.179 -0.1156  0.1500 -0.0621
 5414TIP3    H137801   2.909   1.806   0.159 -0.6507  1.1803  1.8902
 5414TIP3    H237802   2.885   1.697   0.261 -1.4617 -0.0493  0.4400
 5415TIP3   OH237803   6.538   4.473   0.127  0.1283 -0.1085 -0.5251
 5415TIP3    H137804   6.607   4.510   0.072  0.9533 -1.7970 -0.7119
 5415TIP3    H237805   6.478   4.431   0.065  0.4924 -1.1120 -0.2140
 5416TIP3   OH237806   0.409   5.805   0.645  0.4644 -0.7172  0.0506
 5416TIP3    H137807   0.502   5.800   0.624  0.2195 -0.3173 -1.2248
 5416TIP3    H237808   0.399   5.752   0.723  1.6203 -1.5050 -0.3119
 5417TIP3   OH237809   3.860   5.077   7.248 -0.3327 -0.9546 -0.0746
 5417TIP3    H137810   3.947   5.097   7.212 -0.2233 -1.7260 -0.2600
 5417TIP3    H237811   3.874   5.069   7.343  0.0548 -2.3261 -0.2331
 5418TIP3   OH237812   0.419   5.442   7.757  0.4989  0.0513  0.1801
 5418TIP3    H137813   0.488   5.436   7.692 -0.0747 -0.5261 -0.3879
 5418TIP3    H237814   0.464   5.432   7.841  1.1506  0.1274 -0.1533
 5419TIP3   OH237815   4.843   5.484   1.555  0.1301 -0.4703  0.2364
 5419TIP3    H137816   4.888   5.522   1.631 -0.1280 -1.1486  0.7380
 5419TIP3    H237817   4.769   5.436   1.593  0.1370 -1.0135 -0.4256
 5420TIP3   OH237818   3.971   0.320   7.736  0.0347  0.1323 -0.2560
 5420TIP3    H137819   4.017   0.335   7.819  0.0848 -2.0991  0.1867
 5420TIP3    H237820   3.907   0.252   7.757 -1.0573  0.6618 -1.7022
 5421TIP3   OH237821   1.571   6.707   0.138 -0.0898 -0.0507  0.2878
 5421TIP3    H137822   1.524   6.784   0.170  1.0299  0.5528  0.5589
 5421TIP3    H237823   1.573   6.648   0.213  1.2181  0.7331  0.9121
 5422TIP3   OH237824   2.506   3.253   0.395  0.5039 -0.1010  0.4668
 5422TIP3    H137825   2.450   3.189   0.352  0.1986 -0.7987  1.8572
 5422TIP3    H237826   2.453   3.333   0.397  0.1862 -0.3037  0.3193
 5423TIP3   OH237827   1.663   0.751   2.321  0.0608 -0.2956 -0.5183
 5423TIP3    H137828   1.610   0.826   2.294 -1.0978 -0.3467  1.4214
 5423TIP3    H237829   1.602   0.694   2.367  1.5113 -1.0989  0.4766
 5424TIP3   OH237830   4.887   1.340   7.437 -0.2114  0.5317 -0.0939
 5424TIP3    H137831   4.855   1.321   7.349 -0.4563  0.4141  0.0191
 5424TIP3    H237832   4.925   1.428   7.431  0.6345  0.1499 -0.5458
 5425TIP3   OH237833   6.577   2.904   7.182  1.0623 -0.3964  0.2484
 5425TIP3    H137834   6.577   2.875   7.091  0.3596 -0.8250  0.3846
 5425TIP3    H237835   6.515   2.977   7.184  0.4673 -0.9125  0.5539
 5426TIP3   OH237836   3.477   5.965   7.655 -0.4704 -0.2941  0.1535
 5426TIP3    H137837   3.407   5.969   7.720  0.2536 -0.1804  0.9458
 5426TIP3    H237838   3.540   5.903   7.692 -0.2582 -0.5860 -0.6655
 5427TIP3   OH237839   5.795   2.118   1.475 -0.0239  0.1870  0.0321
 5427TIP3    H137840   5.830   2.031   1.455 -0.9226 -0.1575 -0.1218
 5427TIP3    H237841   5.771   2.154   1.390 -0.1659  0.3538  0.1429
 5428TIP3   OH237842   4.081   3.470   6.583  0.4328 -0.6488  0.1632
 5428TIP3    H137843   4.114   3.509   6.664  1.9313 -1.6831  0.1018
 5428TIP3    H237844   3.986   3.469   6.593  0.3029  2.7736  0.2412
 5429TIP3   OH237845   2.618   1.051   0.090  0.3812  0.4459 -0.1061
 5429TIP3    H137846   2.598   1.135   0.130 -0.0542  1.3232 -2.0340
 5429TIP3    H237847   2.685   1.012   0.146  1.1412  2.4043  0.4122
 5430TIP3   OH237848   4.546   6.574   6.970  0.4336 -0.6797 -0.1209
 5430TIP3    H137849   4.508   6.608   6.889  0.7474 -1.6938 -0.7211
 5430TIP3    H237850   4.640   6.595   6.962  0.3597 -0.1618  0.3153
 5431TIP3   OH237851   5.719   5.119   7.740  0.3754  0.2751  0.0392
 5431TIP3    H137852   5.652   5.081   7.684  0.8477 -0.6259  0.0635
 5431TIP3    H237853   5.779   5.047   7.758  1.0172  0.9094  0.5208
 5432TIP3   OH237854   4.718   1.892   0.413 -0.3651  0.2250  0.8288
 5432TIP3    H137855   4.787   1.941   0.368 -0.6991 -0.7504 -0.8495
 5432TIP3    H237856   4.637   1.923   0.372 -0.7366 -0.3148  1.1481
 5433TIP3   OH237857   1.978   1.667   1.391  0.2492 -0.5597  0.0822
 5433TIP3    H137858   1.969   1.572   1.379  1.7952 -0.7714  0.3652
 5433TIP3    H237859   2.018   1.677   1.477  0.1324  0.3492  0.0406
 5434TIP3   OH237860   2.678   2.032   8.004  0.1721  0.1109  0.0676
 5434TIP3    H137861   2.674   1.938   8.018 -2.4656  0.0183 -0.7689
 5434TIP3    H237862   2.687   2.042   7.909  1.4283  0.7510  0.2231
 5435TIP3   OH237863   5.503   6.271   2.373  0.5116 -0.7631 -0.0222
 5435TIP3    H137864   5.443   6.227   2.312  2.4885 -1.0578 -1.8769
 5435TIP3    H237865   5.482   6.364   2.363  0.4432 -0.8472 -0.7830
 5436TIP3   OH237866   3.336   4.571   8.386  0.3481 -0.2246 -0.6435
 5436TIP3    H137867   3.296   4.633   8.325 -1.7267 -0.5128  0.3219
 5436TIP3    H237868   3.425   4.603   8.399 -0.1230  1.5268 -1.5122
 5437TIP3   OH237869   2.053   5.560   1.469  0.1843 -0.2237 -0.2564
 5437TIP3    H137870   2.092   5.603   1.392 -1.0093  1.4090 -0.0106
 5437TIP3    H237871   2.031   5.472   1.439  0.6329  0.0546 -1.4859
 5438TIP3   OH237872   0.504   4.154   0.633  0.0772 -0.5364 -0.7507
 5438TIP3    H137873   0.416   4.139   0.667 -0.3139 -2.3764 -2.3996
 5438TIP3    H237874   0.559   4.094   0.682  0.1370 -0.5888 -0.8833
 5439TIP3   OH237875   0.524   1.693   8.050  0.4417  0.1809  0.3390
 5439TIP3    H137876   0.432   1.701   8.076  0.8535 -1.8515  2.7619
 5439TIP3    H237877   0.564   1.776   8.077 -0.1206 -0.0651  2.0351
 5440TIP3   OH237878   5.710   0.960   6.991  0.0743 -0.7020 -0.1499
 5440TIP3    H137879   5.733   0.869   7.012  0.7558 -1.0535 -2.2365
 5440TIP3    H237880   5.614   0.961   6.994  0.0254 -1.7105 -0.8845
 5441TIP3   OH237881   2.129   0.735   7.036  0.3266  0.3211  0.2891
 5441TIP3    H137882   2.196   0.775   7.091  0.0716  0.2110  0.6775
 5441TIP3    H237883   2.055   0.796   7.039 -0.0614 -0.1749  0.8774
 5442TIP3   OH237884   1.664   4.921   0.567  0.3973  0.4545 -0.5416
 5442TIP3    H137885   1.620   4.873   0.497  1.2922 -1.4956  0.1745
 5442TIP3    H237886   1.595   4.975   0.605 -0.4986  0.2473 -1.8000
 5443TIP3   OH237887   1.997   4.954   6.969 -0.2838 -0.1756  0.7062
 5443TIP3    H137888   2.034   5.025   7.022 -0.6162  0.1937  0.4515
 5443TIP3    H237889   2.063   4.937   6.903 -0.8850  1.0414 -0.2516
 5444TIP3   OH237890   0.856   3.416   0.105 -0.8529  0.3661 -0.1928
 5444TIP3    H137891   0.865   3.493   0.161 -0.2836  1.5051 -1.7812
 5444TIP3    H237892   0.778   3.434   0.051 -2.5536 -1.5543  1.4210
 5445TIP3   OH237893   1.609   6.219   0.332 -0.5159 -0.3662  0.3511
 5445TIP3    H137894   1.674   6.266   0.279 -1.2757 -0.7665 -0.9987
 5445TIP3    H237895   1.525   6.253   0.301 -1.0692 -2.2002 -0.2742
 5446TIP3   OH237896   0.844   1.213   0.269  0.7867 -0.5506  0.1233
 5446TIP3    H137897   0.817   1.121   0.265 -1.4576  0.0853 -0.9080
 5446TIP3    H237898   0.827   1.239   0.359  2.0419 -1.2919  0.5927
 5447TIP3   OH237899   3.689   6.557   1.352 -0.1565  0.2179  0.0185
 5447TIP3    H137900   3.732   6.484   1.396  0.3623  1.4324  1.6131
 5447TIP3    H237901   3.760   6.609   1.315 -0.4396  0.5746 -0.0353
 5448TIP3   OH237902   2.515   0.153   0.054  0.3314 -0.1744  0.2539
 5448TIP3    H137903   2.503   0.243   0.083  2.5039  0.0994  0.5035
 5448TIP3    H237904   2.522   0.158  -0.041  1.4922  0.0962  0.3390
 5449TIP3   OH237905   5.552   5.046   1.905  0.0189 -0.0159 -0.3654
 5449TIP3    H137906   5.468   5.063   1.861 -0.0113 -0.8189 -0.6366
 5449TIP3    H237907   5.578   5.131   1.941 -0.4583  0.4414 -1.0707
 5450TIP3   OH237908   1.876   1.412   7.972 -0.1613  0.6867 -0.9615
 5450TIP3    H137909   1.813   1.400   8.043 -0.0727  2.2924 -0.5795
 5450TIP3    H237910   1.843   1.355   7.902  0.0130 -1.3216  0.4788
 5451TIP3   OH237911   3.030   1.140   1.215  0.3713  0.0165 -0.4736
 5451TIP3    H137912   3.105   1.174   1.166 -0.0865 -0.7976 -1.7878
 5451TIP3    H237913   2.966   1.211   1.211  0.3698 -0.0062 -1.0033
 5452TIP3   OH237914   5.813   1.231   7.419 -0.0285 -0.1009  0.8185
 5452TIP3    H137915   5.856   1.292   7.480  0.6698 -0.2963  0.5385
 5452TIP3    H237916   5.870   1.231   7.342 -0.4860 -0.4542  0.4759
 5453TIP3   OH237917   6.451   0.156   6.825  0.0669 -0.0635 -0.2613
 5453TIP3    H137918   6.380   0.104   6.785  0.3878  0.3982 -1.4919
 5453TIP3    H237919   6.511   0.090   6.861 -1.9266 -0.4586  2.6694
 5454TIP3   OH237920   1.284   0.140   6.496  0.2822  0.6974  0.3942
 5454TIP3    H137921   1.296   0.166   6.587 -3.0232  0.0707  1.1244
 5454TIP3    H237922   1.207   0.189   6.466 -2.2292 -3.1331 -0.1420
 5455TIP3   OH237923   4.870   3.123   7.737 -0.2151 -1.1507 -0.7603
 5455TIP3    H137924   4.899   3.051   7.792 -0.3148 -1.7368 -1.4559
 5455TIP3    H237925   4.870   3.199   7.795  0.0427 -1.6746 -0.0560
 5456TIP3   OH237926   2.498   1.739   8.628 -0.1630 -0.3210 -0.0191
 5456TIP3    H137927   2.561   1.682   8.672  0.9050  0.2542 -0.7392
 5456TIP3    H237928   2.530   1.744   8.537 -1.8971 -0.8973 -0.6938
 5457TIP3   OH237929   2.682   5.226   2.427  0.2714  0.3840  0.2098
 5457TIP3    H137930   2.705   5.253   2.338 -0.2070  0.4222  0.0927
 5457TIP3    H237931   2.766   5.219   2.473  0.4496  1.4775  0.0812
 5458TIP3   OH237932   1.626   3.292   0.651  0.4425  0.4357  0.1700
 5458TIP3    H137933   1.631   3.355   0.723  1.8488 -0.4990  0.9484
 5458TIP3    H237934   1.584   3.340   0.580  4.1242  3.3792 -0.3760
 5459TIP3   OH237935   0.763   0.008   1.347 -1.0646 -0.6698 -0.1357
 5459TIP3    H137936   0.731  -0.061   1.406 -0.2503 -0.6352  0.3677
 5459TIP3    H237937   0.842   0.041   1.390 -0.5899 -0.4718 -1.1275
 5460TIP3   OH237938   2.902   5.834   0.754  0.1675 -0.3115  0.3371
 5460TIP3    H137939   2.882   5.747   0.789  1.0827 -0.6928 -0.0502
 5460TIP3    H237940   2.984   5.859   0.796 -0.1678  0.4412  0.5656
 5461TIP3   OH237941   6.409   3.831   7.141  0.0081 -0.1652  0.1030
 5461TIP3    H137942   6.430   3.761   7.079  0.7905  0.2944 -0.1633
 5461TIP3    H237943   6.365   3.898   7.088 -1.4451 -0.7639  0.5006
 5462TIP3   OH237944   4.985   6.504   8.089 -0.9158 -0.2191 -0.2794
 5462TIP3    H137945   5.032   6.588   8.089 -0.9317 -0.2089  0.4418
 5462TIP3    H237946   4.971   6.485   7.996 -0.7496  0.4878 -0.4542
 5463TIP3   OH237947   5.709   5.250   8.286 -0.6996  0.0487 -0.5625
 5463TIP3    H137948   5.646   5.179   8.269 -2.7323  1.6118  0.0812
 5463TIP3    H237949   5.659   5.330   8.271  1.6550  1.4117 -1.7093
 5464TIP3   OH237950   2.337   0.546   7.863  0.0680 -0.0694  0.4936
 5464TIP3    H137951   2.282   0.607   7.814 -0.4628 -0.3311  0.7581
 5464TIP3    H237952   2.293   0.538   7.948  1.9670  1.9037  1.7829
 5465TIP3   OH237953   5.845   3.169   8.574 -0.2032  0.0242 -0.1267
 5465TIP3    H137954   5.885   3.194   8.490  3.0732  2.3474  1.9117
 5465TIP3    H237955   5.772   3.230   8.584 -0.2472  0.1273 -0.9906
 5466TIP3   OH237956   6.092   3.611   0.250  0.6545 -0.1260  0.2618
 5466TIP3    H137957   6.142   3.693   0.254  1.0072 -0.3668  0.9516
 5466TIP3    H237958   6.049   3.604   0.335 -0.4824  0.0172 -0.2821
 5467TIP3   OH237959   2.318   6.086   0.870  0.3670  0.4241 -0.0735
 5467TIP3    H137960   2.323   6.130   0.955  1.0801  1.6976 -0.7455
 5467TIP3    H237961   2.226   6.094   0.844  0.5751  1.9342 -0.3842
 5468TIP3   OH237962   2.912   2.738   7.564  0.0146 -0.8644 -0.3032
 5468TIP3    H137963   2.873   2.719   7.650 -1.0802  0.0113 -0.5807
 5468TIP3    H237964   2.991   2.788   7.585  0.7967 -2.2784  0.2545
 5469TIP3   OH237965   3.749   2.532   1.098  0.1023  0.1402 -0.0686
 5469TIP3    H137966   3.746   2.624   1.124 -3.1857  0.5431 -1.4213
 5469TIP3    H237967   3.789   2.533   1.012 -1.6685  0.6404 -0.9366
 5470TIP3   OH237968   0.576   1.111   7.743  0.0465  0.1101 -0.1161
 5470TIP3    H137969   0.535   1.080   7.662  0.5741  0.6812 -0.6180
 5470TIP3    H237970   0.549   1.203   7.750 -2.2169 -0.6013  1.8087
 5471TIP3   OH237971   6.746   6.650   1.589 -0.5625  0.6257 -0.7973
 5471TIP3    H137972   6.700   6.708   1.528  1.0771  1.1314 -1.6076
 5471TIP3    H237973   6.711   6.563   1.569 -2.4469  1.1736 -0.1352
 5472TIP3   OH237974   2.673   2.386   0.224  0.5654 -0.3115 -0.5594
 5472TIP3    H137975   2.713   2.454   0.169  0.5911 -0.5688 -0.8630
 5472TIP3    H237976   2.628   2.329   0.162 -2.3134  1.2558 -0.1145
 5473TIP3   OH237977   2.790   6.257   8.238  0.4329 -0.0910 -0.5500
 5473TIP3    H137978   2.861   6.208   8.197 -0.9089 -1.5101 -1.2874
 5473TIP3    H237979   2.798   6.239   8.331  1.3944  0.2940 -0.5436
 5474TIP3   OH237980   6.126   2.208   1.057 -0.0737 -0.2432 -0.5225
 5474TIP3    H137981   6.105   2.241   0.970 -1.6016  0.9817  0.2731
 5474TIP3    H237982   6.148   2.286   1.108  1.6687 -1.0248  0.0023
 5475TIP3   OH237983   0.034   1.845   8.005  0.6442 -0.6345 -0.2217
 5475TIP3    H137984   0.059   1.928   7.964  0.7821 -0.0963  0.9193
 5475TIP3    H237985  -0.043   1.867   8.058  1.1706 -1.0570  0.7249
 5476TIP3   OH237986   5.028   0.226   1.389 -0.6624  0.2250  0.3844
 5476TIP3    H137987   4.966   0.158   1.414  0.9403 -0.9957  1.2365
 5476TIP3    H237988   4.981   0.308   1.404 -2.4030 -0.6620 -0.0248
 5477TIP3   OH237989   3.278   4.454   7.414  0.3229 -0.4457  0.1042
 5477TIP3    H137990   3.310   4.486   7.329  0.5204 -1.2575 -0.1476
 5477TIP3    H237991   3.188   4.485   7.419  0.3611 -0.2461 -0.3339
 5478TIP3   OH237992   2.406   6.183   1.581  0.2658 -0.2212 -0.5293
 5478TIP3    H137993   2.324   6.136   1.594  0.5861 -0.5973  0.2370
 5478TIP3    H237994   2.383   6.274   1.599  0.0211 -0.3300 -0.2626
 5479TIP3   OH237995   6.697   0.460   7.971 -0.6898 -0.0132 -0.3989
 5479TIP3    H137996   6.711   0.554   7.966 -1.0428  0.0157 -0.9504
 5479TIP3    H237997   6.784   0.422   7.955 -0.3935  0.2188  0.5827
 5480TIP3   OH237998   4.168   1.254   7.165  0.0388  0.1983  0.0632
 5480TIP3    H137999   4.099   1.286   7.107  0.2664 -2.2472 -1.7214
 5480TIP3    H238000   4.152   1.160   7.172  0.9117  0.1439  2.8627
 5481TIP3   OH238001   0.173   6.010   8.079 -0.4559 -0.8823  0.5912
 5481TIP3    H138002   0.162   6.092   8.030 -1.2014 -1.0222  0.5121
 5481TIP3    H238003   0.202   6.037   8.166 -0.6388 -0.5396  0.5453
 5482TIP3   OH238004   4.356   5.200   7.234 -0.3442  0.2002 -0.7899
 5482TIP3    H138005   4.357   5.295   7.225  1.7713  0.1572 -1.6706
 5482TIP3    H238006   4.407   5.183   7.313 -2.4896 -0.1639  0.5684
 5483TIP3   OH238007   6.319   2.002   8.581 -0.3813 -0.0486 -0.0714
 5483TIP3    H138008   6.329   1.971   8.671  1.9898  0.0720 -0.2381
 5483TIP3    H238009   6.227   2.030   8.575 -0.2310  1.2714  2.7091
 5484TIP3   OH238010   6.252   2.645   8.196 -0.6061 -0.7052  0.5059
 5484TIP3    H138011   6.305   2.566   8.193 -1.3225 -1.1715 -0.0782
 5484TIP3    H238012   6.235   2.660   8.289 -1.1965 -1.7313  0.5682
 5485TIP3   OH238013   4.195   2.901   7.187  0.2159  0.0419 -0.3675
 5485TIP3    H138014   4.224   2.824   7.236  2.8923  0.1152 -1.6753
 5485TIP3    H238015   4.207   2.877   7.095  2.5696  2.3991 -0.8072
 5486TIP3   OH238016   5.041   4.382   7.006 -0.4215  0.3588 -0.3968
 5486TIP3    H138017   4.972   4.440   7.036 -1.4934 -1.5478  1.0143
 5486TIP3    H238018   5.104   4.440   6.962 -0.4600  2.8478  2.5228
 5487TIP3   OH238019   0.823   5.672   0.400 -0.0099 -0.0132  0.1525
 5487TIP3    H138020   0.891   5.613   0.434  1.6887  1.3108 -0.7497
 5487TIP3    H238021   0.797   5.633   0.317  0.4516  0.0094 -0.0092
 5488TIP3   OH238022   0.674   1.668   7.560 -0.1171  0.1649 -0.3410
 5488TIP3    H138023   0.681   1.722   7.638 -1.0975  0.8072 -0.6755
 5488TIP3    H238024   0.602   1.708   7.509 -0.6198 -1.2186 -0.7746
 5489TIP3   OH238025   1.806   0.992   0.304  0.1218 -0.1736 -0.0354
 5489TIP3    H138026   1.851   0.938   0.370 -1.3406 -1.3696  0.0346
 5489TIP3    H238027   1.715   0.962   0.306 -0.4877  1.4962 -0.8703
 5490TIP3   OH238028   3.030   5.485   8.163  0.3479  0.2981  0.2385
 5490TIP3    H138029   2.957   5.469   8.223 -0.4579 -1.0831 -1.0480
 5490TIP3    H238030   3.072   5.400   8.154  1.8499  0.9750  0.5580
 5491TIP3   OH238031   6.603   1.830   1.745  0.3418  0.0568  0.4047
 5491TIP3    H138032   6.577   1.887   1.817  2.4919  1.5011  0.1433
 5491TIP3    H238033   6.564   1.871   1.667  3.1243  2.2804 -0.0021
 5492TIP3   OH238034   6.867   6.549   8.451 -0.2980 -0.6674 -0.5892
 5492TIP3    H138035   6.861   6.476   8.513 -1.5595  1.0133  1.4059
 5492TIP3    H238036   6.950   6.593   8.473 -0.3724 -0.5099 -0.6217
 5493TIP3   OH238037   5.755   3.680   8.348 -0.4096 -0.4699 -0.1245
 5493TIP3    H138038   5.756   3.624   8.425  0.3367  0.6016  0.6750
 5493TIP3    H238039   5.785   3.765   8.379 -0.3504  0.0660 -1.5451
 5494TIP3   OH238040   0.343   2.031   6.773  0.3349 -0.5021  0.3494
 5494TIP3    H138041   0.262   2.064   6.812  0.3145 -0.5248  0.3261
 5494TIP3    H238042   0.365   2.097   6.707  0.5510 -0.2883  0.6289
 5495TIP3   OH238043   5.747   4.175   1.835  0.8097  0.5675  0.4323
 5495TIP3    H138044   5.704   4.091   1.819 -0.2248  1.1955 -0.2154
 5495TIP3    H238045   5.697   4.214   1.907 -1.4986  2.4353 -1.9994
 5496TIP3   OH238046   3.360   4.594   7.172  0.1646  0.6105  0.3564
 5496TIP3    H138047   3.417   4.565   7.100  1.4368 -0.5534  1.7592
 5496TIP3    H238048   3.280   4.623   7.129  1.4232  1.3224 -1.6315
 5497TIP3   OH238049   4.500   1.843   0.989  0.3402 -0.0915 -0.2570
 5497TIP3    H138050   4.570   1.829   1.053 -0.3414  1.3481  0.8689
 5497TIP3    H238051   4.453   1.919   1.022 -1.5475 -0.8021 -1.1759
 5498TIP3   OH238052   6.295   0.105   0.259 -0.5491  0.4753  0.3557
 5498TIP3    H138053   6.207   0.079   0.230 -0.6493 -0.8004  1.6744
 5498TIP3    H238054   6.316   0.043   0.329  0.8995  1.5494  0.9088
 5499TIP3   OH238055   1.503   6.772   1.320 -0.0414 -0.0067 -0.4467
 5499TIP3    H138056   1.553   6.696   1.290  0.2347  0.5122 -1.3367
 5499TIP3    H238057   1.438   6.788   1.251 -0.5009  0.2001  0.0199
 5500TIP3   OH238058   1.121   6.456   7.851  0.0682 -0.2477 -0.0219
 5500TIP3    H138059   1.111   6.529   7.789 -0.7893  1.8433  2.4032
 5500TIP3    H238060   1.216   6.439   7.852  0.2276  0.4489 -1.0111
 5501TIP3   OH238061   5.568   5.302   0.398  0.3551 -0.0490  0.3959
 5501TIP3    H138062   5.537   5.217   0.366  0.7213 -0.1068  0.1932
 5501TIP3    H238063   5.505   5.365   0.364  0.1140 -0.2309  0.4975
 5502TIP3   OH238064   3.534   6.730   8.386  0.6414 -0.2306  0.2751
 5502TIP3    H138065   3.603   6.710   8.323  0.9358  1.7668 -0.1013
 5502TIP3    H238066   3.494   6.811   8.354 -2.0403 -1.4130  0.3729
 5503TIP3   OH238067   5.511   0.979   0.913  0.2384  0.6298  0.0853
 5503TIP3    H138068   5.563   0.929   0.850  0.8628  2.0193 -0.5455
 5503TIP3    H238069   5.466   1.045   0.860 -2.0474 -0.3689  0.6386
 5504TIP3   OH238070   5.686   1.842   1.849  0.1659  0.0572  0.6769
 5504TIP3    H138071   5.766   1.793   1.870  1.0995  1.1285 -0.2471
 5504TIP3    H238072   5.718   1.922   1.807 -1.3289  1.2352  1.7065
 5505TIP3   OH238073   2.039   5.634   0.166  0.1982  0.1522  0.2224
 5505TIP3    H138074   2.122   5.620   0.120 -0.2787  0.4744 -0.7768
 5505TIP3    H238075   1.977   5.656   0.096 -0.3821  1.4638  1.1226
 5506TIP3   OH238076   0.598   0.465   8.074 -0.6185 -0.0008 -0.2144
 5506TIP3    H138077   0.554   0.518   8.008  2.8735  1.1020 -1.9266
 5506TIP3    H238078   0.600   0.377   8.036  1.1917  0.5823 -1.6744
 5507TIP3   OH238079   4.236   1.329   8.564  0.3227 -0.0623 -0.0073
 5507TIP3    H138080   4.214   1.422   8.574  0.2454 -0.0279 -0.4754
 5507TIP3    H238081   4.302   1.328   8.495  1.0018 -0.2726  0.6341
 5508TIP3   OH238082   4.065   6.507   6.715 -0.5564  0.4366 -0.0456
 5508TIP3    H138083   4.103   6.448   6.651 -2.6131 -0.4425 -0.5322
 5508TIP3    H238084   4.139   6.536   6.769  0.9075 -0.3056 -1.6001
 5509TIP3   OH238085   0.972   1.608   7.215 -0.3129 -0.0093 -0.4249
 5509TIP3    H138086   0.878   1.618   7.230 -0.4052 -1.3385  0.0260
 5509TIP3    H238087   0.994   1.524   7.255  0.8702 -0.2122 -1.4405
 5510TIP3   OH238088   5.804   3.548   7.039 -0.3774 -0.6540  0.5284
 5510TIP3    H138089   5.797   3.623   6.979  0.5667 -0.5977  0.4653
 5510TIP3    H238090   5.749   3.481   7.001 -1.2062 -0.0088  0.5566
 5511TIP3   OH238091   1.286   2.206   7.188 -0.0659  0.3814  0.2096
 5511TIP3    H138092   1.307   2.294   7.158  1.8977  0.4101  1.5126
 5511TIP3    H238093   1.212   2.217   7.247 -0.7192  0.9427 -0.6872
 5512TIP3   OH238094   2.428   0.834   6.806  0.2258 -0.0253 -0.7852
 5512TIP3    H138095   2.344   0.791   6.790  0.8995 -1.6043 -0.2907
 5512TIP3    H238096   2.459   0.858   6.719 -0.1093 -0.6803 -1.0942
 5513TIP3   OH238097   6.023   3.836   0.563  0.0563  0.1554 -0.0659
 5513TIP3    H138098   6.019   3.897   0.637 -1.7435  0.5258 -0.4291
 5513TIP3    H238099   6.116   3.813   0.556  1.0668  3.7477 -0.6361
 5514TIP3   OH238100   5.023   3.419   6.610  0.2671 -0.2536 -0.2918
 5514TIP3    H138101   5.080   3.455   6.678  0.1872 -2.8661  1.2727
 5514TIP3    H238102   5.040   3.474   6.534  3.2568  0.4513  0.7292
 5515TIP3   OH238103   3.478   6.064   8.233 -0.1281  0.2259 -0.5767
 5515TIP3    H138104   3.448   6.125   8.300 -1.6149  0.1317 -1.1402
 5515TIP3    H238105   3.468   5.978   8.274  1.0626  0.2736 -0.1367
 5516TIP3   OH238106   3.831   4.064   6.292 -0.2174  0.2065 -0.2211
 5516TIP3    H138107   3.849   4.009   6.368  2.2443  0.4937 -0.5334
 5516TIP3    H238108   3.834   4.004   6.218 -1.2689  0.1593 -0.2391
 5517TIP3   OH238109   1.736   2.657   8.019  0.1579 -0.8221  0.1549
 5517TIP3    H138110   1.647   2.690   8.028 -0.1585 -1.3734 -0.7906
 5517TIP3    H238111   1.728   2.562   8.033  0.3070 -1.1103 -1.4467
 5518TIP3   OH238112   0.149   5.350   6.915  0.0401 -0.1858 -0.1920
 5518TIP3    H138113   0.165   5.440   6.888 -1.1461 -0.2768 -1.2463
 5518TIP3    H238114   0.215   5.298   6.868  0.4712  0.0727  0.1171
 5519TIP3   OH238115   1.297   1.722   1.433 -0.0070 -1.7728  0.2113
 5519TIP3    H138116   1.381   1.682   1.454 -0.3270 -1.4016  2.5572
 5519TIP3    H238117   1.316   1.816   1.424 -0.0661 -1.7737  0.0757
 5520TIP3   OH238118   2.177   3.077   8.193 -0.0822  0.0463  0.1886
 5520TIP3    H138119   2.178   3.143   8.262 -2.3373  0.2486  0.1203
 5520TIP3    H238120   2.099   3.098   8.141  0.1758 -1.5607 -0.9400
 5521TIP3   OH238121   5.491   0.807   0.222  0.1040 -0.9328  0.0962
 5521TIP3    H138122   5.490   0.766   0.135  0.8829  1.0898 -0.9320
 5521TIP3    H238123   5.583   0.807   0.247  0.0140 -0.5372  0.4388
 5522TIP3   OH238124   1.094   6.862   1.304 -0.0526 -0.1991  0.2802
 5522TIP3    H138125   1.054   6.793   1.251  1.3918 -1.1252  0.3201
 5522TIP3    H238126   1.116   6.930   1.241  3.6838 -2.2015 -0.9119
 5523TIP3   OH238127   1.487   6.403   8.300  0.0619  0.4497  0.1918
 5523TIP3    H138128   1.430   6.381   8.227 -1.0128  1.5104  0.6710
 5523TIP3    H238129   1.462   6.343   8.370  1.2531 -0.7240 -0.3565
 5524TIP3   OH238130   0.230   4.577   1.560 -0.7260 -0.0822 -0.0370
 5524TIP3    H138131   0.141   4.542   1.559 -0.6445 -0.3230 -1.5838
 5524TIP3    H238132   0.218   4.671   1.546 -0.7954  0.1016  1.1847
 5525TIP3   OH238133   3.673   6.624   2.142  0.2626 -0.6588  0.0184
 5525TIP3    H138134   3.622   6.694   2.184 -0.2714 -0.2779 -1.2101
 5525TIP3    H238135   3.629   6.543   2.169 -0.6826 -0.3645 -0.5769
 5526TIP3   OH238136   5.662   4.859   8.373 -0.1774  0.2901  0.1554
 5526TIP3    H138137   5.613   4.931   8.334 -1.1217 -0.3722  0.0839
 5526TIP3    H238138   5.635   4.782   8.323 -1.9231 -0.6937  2.4523
 5527TIP3   OH238139   6.242   3.004   2.164 -0.5373  1.0513 -0.3066
 5527TIP3    H138140   6.164   2.968   2.207 -0.1470  1.0601  0.4157
 5527TIP3    H238141   6.248   3.094   2.196  0.9107  0.4492  1.2534
 5528TIP3   OH238142   4.894   3.935   8.591  0.8777  0.0544  0.2975
 5528TIP3    H138143   4.871   4.001   8.526  1.5541 -0.5813 -0.6141
 5528TIP3    H238144   4.827   3.944   8.659  0.6341  1.2833 -0.0774
 5529TIP3   OH238145   0.717   6.227   8.441  0.5917 -0.5090  0.1365
 5529TIP3    H138146   0.773   6.208   8.366 -1.5230 -1.0498 -1.4207
 5529TIP3    H238147   0.739   6.317   8.466  0.7134  0.0502 -1.7909
 5530TIP3   OH238148   2.617   0.049   8.243 -0.1629  0.0683 -0.4851
 5530TIP3    H138149   2.573  -0.026   8.284  1.0051  0.0024  0.7309
 5530TIP3    H238150   2.657   0.014   8.164  0.3039 -0.5830  0.0328
 5531TIP3   OH238151   1.862   5.451   0.302 -0.0412  0.4498  0.7015
 5531TIP3    H138152   1.904   5.530   0.269  1.1703 -1.4117 -2.8089
 5531TIP3    H238153   1.797   5.428   0.235  1.6096 -2.8992  0.0019
 5532TIP3   OH238154   5.267   6.503   8.105 -0.1485  0.2541  0.0793
 5532TIP3    H138155   5.360   6.499   8.125 -0.2186 -0.0593  0.3563
 5532TIP3    H238156   5.227   6.442   8.166 -0.4463 -0.2237 -0.5815
 5533TIP3   OH238157   3.756   0.987   6.730 -0.1550  0.1939  0.2372
 5533TIP3    H138158   3.683   0.986   6.669 -0.9249  0.4243  1.1360
 5533TIP3    H238159   3.830   1.021   6.678 -0.7944  0.4272 -0.5467
 5534TIP3   OH238160   4.976   0.527   0.953  0.3358  0.1902  0.2675
 5534TIP3    H138161   5.030   0.462   0.998  0.5562 -0.2751 -0.6507
 5534TIP3    H238162   4.991   0.608   1.001 -0.1566 -0.4828  1.6059
 5535TIP3   OH238163   5.561   0.553   2.271 -0.3653 -0.0167 -0.1127
 5535TIP3    H138164   5.570   0.644   2.298  0.1744 -0.6752  2.1293
 5535TIP3    H238165   5.468   0.533   2.283  0.0264 -0.6171  2.6660
 5536TIP3   OH238166   3.960   1.185   0.468  0.2375  0.1917 -0.2249
 5536TIP3    H138167   3.955   1.260   0.527  1.2694  1.4484 -1.6485
 5536TIP3    H238168   4.032   1.206   0.409  0.5676 -1.9555 -0.6626
 5537TIP3   OH238169   2.437   2.713   8.234  0.1274 -0.0174  0.2898
 5537TIP3    H138170   2.455   2.734   8.326  0.4962  0.2714  0.1543
 5537TIP3    H238171   2.389   2.630   8.237  2.3122 -1.3416  0.6438
 5538TIP3   OH238172   0.844   2.813   2.084 -0.6168 -0.0300  0.2932
 5538TIP3    H138173   0.868   2.897   2.121 -0.0981  1.0906 -2.3386
 5538TIP3    H238174   0.748   2.814   2.079 -0.5735  0.9012 -0.6865
 5539TIP3   OH238175   1.136   2.652   7.047  0.0168  0.3662 -0.2044
 5539TIP3    H138176   1.105   2.704   6.972 -1.2686  0.3180  0.2740
 5539TIP3    H238177   1.062   2.594   7.068  0.9612 -0.7724  0.0764
 5540TIP3   OH238178   2.252   0.322   1.468  0.3257 -0.4654 -0.1669
 5540TIP3    H138179   2.293   0.356   1.547 -1.1508  1.9063 -0.3071
 5540TIP3    H238180   2.260   0.393   1.404 -1.8896 -0.7524 -0.8796
 5541TIP3   OH238181   1.878   2.522   7.065  0.0887  0.4837  0.4492
 5541TIP3    H138182   1.842   2.610   7.073  0.3921  0.4987  1.8290
 5541TIP3    H238183   1.800   2.466   7.055 -0.2276  0.7285  1.4116
 5542TIP3   OH238184   1.671   5.431   0.550  0.1573  0.4194 -0.7577
 5542TIP3    H138185   1.721   5.434   0.469  0.2146  1.5227 -0.7049
 5542TIP3    H238186   1.649   5.523   0.567  2.0534  0.5498  1.6340
 5543TIP3   OH238187   5.937   3.804   1.267 -0.4599  0.1770  0.1080
 5543TIP3    H138188   5.900   3.832   1.351 -0.9252 -0.0425 -0.0182
 5543TIP3    H238189   5.878   3.735   1.237 -0.6929  0.7207 -0.7162
 5544TIP3   OH238190   4.462   6.226   1.195 -0.0798  0.3273  0.0327
 5544TIP3    H138191   4.474   6.157   1.261 -1.1369 -0.2673 -0.3845
 5544TIP3    H238192   4.436   6.179   1.116 -0.0214  1.1475 -0.4777
 5545TIP3   OH238193   4.096   2.950   1.825  0.7248 -0.4712 -0.2704
 5545TIP3    H138194   4.190   2.968   1.826  0.5415  1.1419  3.8658
 5545TIP3    H238195   4.055   3.035   1.810 -0.1070 -0.9149 -0.5831
 5546TIP3   OH238196   2.361   5.930   6.612 -0.2091 -0.4749  0.9435
 5546TIP3    H138197   2.350   5.967   6.524  1.0010  1.8205  1.6535
 5546TIP3    H238198   2.299   5.858   6.616  1.5821 -2.5025 -2.7095
 5547TIP3   OH238199   0.844   6.445   0.847  0.4023  0.6066 -0.1365
 5547TIP3    H138200   0.902   6.402   0.784  1.8488  1.0841  0.7927
 5547TIP3    H238201   0.808   6.519   0.800  0.2695  0.1020 -0.8467
 5548TIP3   OH238202   5.363   1.490   7.368 -0.4015  0.3469  0.4505
 5548TIP3    H138203   5.372   1.404   7.327 -0.8578  0.4695  0.0785
 5548TIP3    H238204   5.426   1.489   7.440  0.7341  0.2842 -0.5071
 5549TIP3   OH238205   2.652   3.850   0.310 -0.4246 -0.3440  0.4528
 5549TIP3    H138206   2.698   3.870   0.228 -0.8342 -1.4338 -0.0626
 5549TIP3    H238207   2.646   3.935   0.355  0.7581  0.0789 -0.1364
 5550TIP3   OH238208   4.167   2.489   7.890 -0.0080  0.1924  0.2293
 5550TIP3    H138209   4.246   2.486   7.945 -0.0086 -0.5316  0.2101
 5550TIP3    H238210   4.103   2.536   7.942  0.6265  1.3459 -0.0134
 5551TIP3   OH238211   3.936   1.832   7.209 -0.0993  0.2223  0.5266
 5551TIP3    H138212   3.936   1.823   7.114 -0.1464  0.2275  0.5259
 5551TIP3    H238213   3.982   1.754   7.241 -0.6759 -0.1145  0.5304
 5552TIP3   OH238214   3.329   4.062   2.406  0.2071  0.2067 -0.5117
 5552TIP3    H138215   3.420   4.074   2.432 -0.4577  1.2605  1.6141
 5552TIP3    H238216   3.321   4.111   2.324  1.4045  0.6753 -0.3712
 5553TIP3   OH238217   4.341   5.358   1.689  0.6427  0.0300  0.0085
 5553TIP3    H138218   4.261   5.310   1.670  0.8117  0.2493 -1.3058
 5553TIP3    H238219   4.342   5.366   1.785 -1.3146  0.7590  0.0010
 5554TIP3   OH238220   3.772   0.092   6.977 -0.1391  0.0481  0.0683
 5554TIP3    H138221   3.845   0.043   7.015 -1.1347 -0.9047  0.8000
 5554TIP3    H238222   3.752   0.159   7.042 -0.9094 -0.6793  0.6055
 5555TIP3   OH238223   5.733   6.313   8.350 -0.0519 -0.0821  0.8122
 5555TIP3    H138224   5.828   6.303   8.354 -0.1208 -0.2614  2.3060
 5555TIP3    H238225   5.701   6.281   8.434 -1.3036  1.4567  0.9696
 5556TIP3   OH238226   0.232   0.036   1.998  0.9179  0.3009  0.5505
 5556TIP3    H138227   0.180   0.030   1.918  0.3190  0.7012  0.9042
 5556TIP3    H238228   0.194   0.109   2.047  1.2100 -0.0010  1.2494
 5557TIP3   OH238229   1.062   6.117   0.249  0.7752  0.5297  0.1330
 5557TIP3    H138230   1.012   6.040   0.220  1.1735  0.4442 -0.3266
 5557TIP3    H238231   1.121   6.136   0.176  0.3721  1.5428  0.0557
 5558TIP3   OH238232   2.503   2.703   0.132 -0.1867  0.2091  0.1374
 5558TIP3    H138233   2.490   2.638   0.201  0.3076  0.7698  0.7691
 5558TIP3    H238234   2.593   2.689   0.102  0.0617  0.8828  0.5693
 5559TIP3   OH238235   4.109   2.248   2.065  0.2588  0.4830 -0.1613
 5559TIP3    H138236   4.066   2.173   2.022  0.0714  0.8172 -0.5633
 5559TIP3    H238237   4.040   2.314   2.072  0.2286  0.3578  0.8599
 5560TIP3   OH238238   5.277   2.015   1.106 -0.0521 -0.1812 -0.4210
 5560TIP3    H138239   5.224   2.012   1.186 -0.3148  1.1204 -0.5160
 5560TIP3    H238240   5.328   2.096   1.115  1.1738 -0.8910 -0.8050
 5561TIP3   OH238241   1.172   4.423   1.661  0.2340  0.4652 -0.4199
 5561TIP3    H138242   1.215   4.442   1.577 -0.4455 -1.2256 -1.2055
 5561TIP3    H238243   1.081   4.446   1.647  0.1583  0.3733 -0.0858
 5562TIP3   OH238244   5.828   0.739   8.305 -0.2781  0.4861  0.2261
 5562TIP3    H138245   5.784   0.766   8.386  1.1302  1.0518  0.8433
 5562TIP3    H238246   5.921   0.744   8.326  0.1017 -1.1103 -0.8833
 5563TIP3   OH238247   3.809   4.069   7.738 -0.0633  0.0224 -0.0512
 5563TIP3    H138248   3.860   4.019   7.802  0.6830  0.2744 -0.4269
 5563TIP3    H238249   3.722   4.077   7.777  0.3157 -0.0247  0.8296
 5564TIP3   OH238250   3.300   4.383   8.149  0.3461 -0.7627 -0.3632
 5564TIP3    H138251   3.251   4.304   8.172 -0.9609  0.0542 -0.2613
 5564TIP3    H238252   3.308   4.431   8.231 -0.5164  0.0918 -0.7664
 5565TIP3   OH238253   5.847   5.140   2.238  0.1112 -0.0088  0.2329
 5565TIP3    H138254   5.897   5.073   2.283 -0.7364  0.8109  2.5411
 5565TIP3    H238255   5.904   5.170   2.168  1.4911 -1.3514  0.7296
 5566TIP3   OH238256   5.878   4.802   0.866 -0.9752  0.3128 -0.1300
 5566TIP3    H138257   5.848   4.887   0.835 -0.2324  0.9825  0.9122
 5566TIP3    H238258   5.819   4.739   0.825 -1.6420  1.3398 -0.7852
 5567TIP3   OH238259   3.745   2.510   8.325 -0.5915 -0.2705 -0.1030
 5567TIP3    H138260   3.807   2.462   8.379 -1.0959  0.6773  1.3502
 5567TIP3    H238261   3.757   2.602   8.348 -0.6468  0.2097 -1.7961
 5568TIP3   OH238262   2.973   3.278   7.764 -0.5064  0.5778 -0.5509
 5568TIP3    H138263   3.004   3.243   7.847 -1.3027  0.7055 -0.2015
 5568TIP3    H238264   3.051   3.318   7.725  0.2150 -0.8088 -0.5657
 5569TIP3   OH238265   3.974   6.531   7.571 -0.1279 -0.0663 -0.3665
 5569TIP3    H138266   4.003   6.443   7.596 -0.0355 -0.5636 -2.1096
 5569TIP3    H238267   3.880   6.531   7.592 -0.2489 -0.7794 -0.8501
 5570TIP3   OH238268   1.650   6.533   1.219  0.3979  0.3277 -0.5757
 5570TIP3    H138269   1.698   6.553   1.138 -0.4770 -1.8538 -1.7003
 5570TIP3    H238270   1.703   6.467   1.263 -0.1273  0.0383 -0.3679
 5571TIP3   OH238271   1.579   5.083   7.587 -0.5379 -0.2687 -0.2211
 5571TIP3    H138272   1.521   5.016   7.624 -1.3714  0.7852  0.4468
 5571TIP3    H238273   1.599   5.051   7.499 -2.6241 -0.4167 -0.7104
 5572TIP3   OH238274   2.343   6.462   1.688 -0.4498  0.2715  0.1399
 5572TIP3    H138275   2.257   6.467   1.646  0.0156 -0.4229 -0.9588
 5572TIP3    H238276   2.366   6.553   1.707 -1.3317  0.4803  0.2429
 5573TIP3   OH238277   4.769   4.128   7.410  0.8194  0.0351  0.1216
 5573TIP3    H138278   4.814   4.209   7.386  0.1122  0.7696  1.1513
 5573TIP3    H238279   4.797   4.111   7.500 -0.3888  0.1202  0.5385
 5574TIP3   OH238280   0.667   4.752   8.019 -0.4828 -0.5321  0.2031
 5574TIP3    H138281   0.633   4.835   8.054 -1.5286 -0.4909 -0.8521
 5574TIP3    H238282   0.609   4.731   7.946  1.3528 -0.8283 -1.2701
 5575TIP3   OH238283   4.387   6.793   6.779 -0.4163 -0.4747  0.4628
 5575TIP3    H138284   4.412   6.868   6.833 -0.1828 -1.0376  1.1384
 5575TIP3    H238285   4.470   6.758   6.747 -0.5714  0.1037 -0.6132
 5576TIP3   OH238286   2.880   2.588   1.020  0.6366 -0.2858 -0.5953
 5576TIP3    H138287   2.875   2.668   0.968  1.0204 -1.3372 -2.3716
 5576TIP3    H238288   2.941   2.532   0.971  1.3630 -1.2043  1.2508
 5577TIP3   OH238289   5.634   1.727   7.724 -0.0452  0.1479 -0.1823
 5577TIP3    H138290   5.567   1.790   7.751  0.6264  1.1523 -0.7675
 5577TIP3    H238291   5.713   1.780   7.713  0.6512 -0.8793 -0.2684
 5578TIP3   OH238292   0.339   1.874   0.406  0.1364  0.2853  0.3500
 5578TIP3    H138293   0.262   1.931   0.405 -0.3649 -0.3896 -0.3406
 5578TIP3    H238294   0.390   1.902   0.330 -0.4824 -0.6519 -0.4431
 5579TIP3   OH238295   6.427   3.495   7.452 -0.2880  0.0213  0.2049
 5579TIP3    H138296   6.494   3.544   7.499 -1.4197  1.9501 -0.1127
 5579TIP3    H238297   6.346   3.510   7.501 -0.8191 -0.8475 -0.3779
 5580TIP3   OH238298   2.681   4.736   0.489 -0.5760  0.0322 -0.5174
 5580TIP3    H138299   2.618   4.673   0.523 -0.5577  0.2140 -0.1454
 5580TIP3    H238300   2.765   4.709   0.527 -0.1222 -1.1545 -2.2272
 5581TIP3   OH238301   4.787   3.262   0.708  0.3950  0.6127  0.2451
 5581TIP3    H138302   4.837   3.201   0.763  0.9013  0.2789 -0.5575
 5581TIP3    H238303   4.699   3.224   0.704  0.2596  0.8254  1.0940
 5582TIP3   OH238304   4.448   2.283   8.294  0.1310 -0.0392 -0.4257
 5582TIP3    H138305   4.459   2.351   8.228  0.3044 -0.9769 -1.3881
 5582TIP3    H238306   4.361   2.246   8.276  0.3155 -0.5190 -0.3340
 5583TIP3   OH238307   2.509   2.963   8.141 -0.5243  0.2009 -0.2199
 5583TIP3    H138308   2.494   2.881   8.188 -1.9476 -0.8655 -2.3550
 5583TIP3    H238309   2.579   2.943   8.080 -1.2704  0.3576 -1.1560
 5584TIP3   OH238310   2.024   1.733   1.664 -0.0098 -0.0157  0.2886
 5584TIP3    H138311   2.040   1.804   1.726 -0.7548  0.4523 -0.0491
 5584TIP3    H238312   1.936   1.703   1.684 -0.1739 -0.0052 -0.3976
 5585TIP3   OH238313   1.862   0.444   7.784  0.1128  0.0219  0.2467
 5585TIP3    H138314   1.880   0.533   7.813 -2.3775  0.7793 -0.2543
 5585TIP3    H238315   1.821   0.401   7.859 -0.4254 -0.0701 -0.0886
 5586TIP3   OH238316   0.740   4.918   0.627  0.3979  0.5450 -0.7847
 5586TIP3    H138317   0.692   4.865   0.564 -1.8136  0.5130  0.8281
 5586TIP3    H238318   0.826   4.875   0.634 -0.6294 -1.6672 -0.9893
 5587TIP3   OH238319   4.680   3.691   0.078  0.1936  0.6855 -0.4931
 5587TIP3    H138320   4.643   3.610   0.043 -0.5402  0.7088  0.1993
 5587TIP3    H238321   4.773   3.686   0.056  0.2956 -0.6696  0.1257
 5588TIP3   OH238322   3.237   2.908   0.824 -0.0046  0.2960 -0.0472
 5588TIP3    H138323   3.300   2.919   0.753 -1.3354 -1.9621 -1.7482
 5588TIP3    H238324   3.275   2.839   0.879  0.1085  0.6461  0.3180
 5589TIP3   OH238325   0.829   3.793   0.777 -0.0451  0.2235  0.1547
 5589TIP3    H138326   0.834   3.749   0.692  2.2495  1.8806 -0.6766
 5589TIP3    H238327   0.863   3.729   0.839 -2.0400 -1.1222 -0.0429
 5590TIP3   OH238328   3.968   4.981   0.395 -0.4544  0.0760 -0.4211
 5590TIP3    H138329   4.051   5.003   0.437 -1.1903  1.5678  0.3449
 5590TIP3    H238330   3.976   5.014   0.306  0.1245 -0.6918 -0.6673
 5591TIP3   OH238331   4.460   3.454   7.583  0.0792 -0.9188  0.1981
 5591TIP3    H138332   4.519   3.416   7.518 -0.4897 -1.1669 -0.1811
 5591TIP3    H238333   4.396   3.385   7.600  0.8038 -1.2320  1.7823
 5592TIP3   OH238334   0.128   2.430   1.451  0.6831 -0.1016 -0.3472
 5592TIP3    H138335   0.126   2.368   1.377 -1.0972  0.4220 -0.7892
 5592TIP3    H238336   0.046   2.479   1.443  1.7528  1.9105  0.3503
 5593TIP3   OH238337   5.831   1.915   7.667 -0.0650  0.4850  0.7067
 5593TIP3    H138338   5.778   1.969   7.724 -0.7822  0.8452 -0.2707
 5593TIP3    H238339   5.862   1.975   7.599 -0.7164 -0.2730 -0.2842
 5594TIP3   OH238340   0.607   3.555   0.355  0.2527 -0.3235  0.1989
 5594TIP3    H138341   0.578   3.477   0.403 -1.0277  0.1281  0.1899
 5594TIP3    H238342   0.578   3.629   0.408  3.0067  0.2160  1.1340
 5595TIP3   OH238343   4.448   5.647   0.263 -0.2359  0.2947  0.8587
 5595TIP3    H138344   4.383   5.677   0.200 -2.5300  0.1652  2.9888
 5595TIP3    H238345   4.505   5.723   0.277 -0.4501  0.7036 -0.4019
 5596TIP3   OH238346   4.473   6.213   8.156 -0.5516  0.1133 -0.1768
 5596TIP3    H138347   4.384   6.237   8.132 -1.0086 -1.2462  0.0471
 5596TIP3    H238348   4.524   6.293   8.145 -1.7520  0.8476 -0.5395
 5597TIP3   OH238349   2.750   3.223   0.664 -0.0692 -0.3787  0.3148
 5597TIP3    H138350   2.760   3.139   0.619 -0.0081 -0.2449  0.0785
 5597TIP3    H238351   2.777   3.288   0.599  1.1415 -0.2489  0.9100
 5598TIP3   OH238352   6.476   4.963   2.141 -0.0195  0.0156 -0.4009
 5598TIP3    H138353   6.445   4.970   2.051 -0.2529  0.1229 -0.3127
 5598TIP3    H238354   6.471   5.052   2.176  0.1372 -0.0125 -0.3030
 5599TIP3   OH238355   3.988   6.336   0.874 -0.2019  0.2225 -0.4640
 5599TIP3    H138356   4.047   6.354   0.948 -1.5906  1.0611  0.5029
 5599TIP3    H238357   3.932   6.414   0.870 -0.0081  0.3203 -2.6053
 5600TIP3   OH238358   5.102   4.681   7.148  0.1353  0.2648 -0.4181
 5600TIP3    H138359   5.111   4.645   7.060 -2.0922  0.1261 -0.6408
 5600TIP3    H238360   5.192   4.686   7.181  0.8494 -1.7280 -1.8642
 5601TIP3   OH238361   3.881   3.318   1.131 -0.0173 -0.3070  0.4027
 5601TIP3    H138362   3.855   3.394   1.078  1.7930 -1.2124 -1.9797
 5601TIP3    H238363   3.926   3.356   1.207 -1.1077  1.0130  0.4231
 5602TIP3   OH238364   1.446   4.581   8.316 -0.1797 -0.0165 -0.5354
 5602TIP3    H138365   1.354   4.604   8.323  0.4518  2.6550  0.0735
 5602TIP3    H238366   1.486   4.616   8.395  1.3010 -1.6975 -0.4619
 5603TIP3   OH238367   3.276   1.521   2.419 -0.4644  0.4810 -0.0551
 5603TIP3    H138368   3.224   1.443   2.402  1.3042 -0.7551 -0.0309
 5603TIP3    H238369   3.214   1.593   2.412 -1.6075 -0.6489 -2.9422
 5604TIP3   OH238370   2.902   5.864   8.380 -0.7056  0.5089 -0.1978
 5604TIP3    H138371   2.898   5.776   8.418 -0.3000  1.1228  1.3407
 5604TIP3    H238372   2.817   5.903   8.400 -1.9486 -0.3480 -3.1638
 5605TIP3   OH238373   0.217   1.468   1.837 -0.1345 -0.0282 -0.3981
 5605TIP3    H138374   0.128   1.440   1.857  0.6294 -0.6451  2.7226
 5605TIP3    H238375   0.268   1.387   1.837  0.7565  0.5129  0.1658
 5606TIP3   OH238376   1.582   2.080   1.313 -0.3248 -0.1500 -0.1269
 5606TIP3    H138377   1.597   2.109   1.223 -0.3398  1.0069  0.2300
 5606TIP3    H238378   1.613   1.989   1.315  1.2110  0.3284 -0.8897
 5607TIP3   OH238379   2.410   3.244   7.710 -0.0598  0.1506 -0.2561
 5607TIP3    H138380   2.464   3.190   7.767  0.2272 -0.3757 -1.0144
 5607TIP3    H238381   2.473   3.294   7.657 -0.3214  1.1739  0.3749
 5608TIP3   OH238382   5.775   1.524   2.533  0.6043  0.0177 -0.7810
 5608TIP3    H138383   5.789   1.431   2.549 -0.1867 -0.2343 -1.4994
 5608TIP3    H238384   5.691   1.528   2.487  0.5028  1.1069 -0.5250
 5609TIP3   OH238385   4.056   6.699   0.450  0.2899 -0.0702  0.0097
 5609TIP3    H138386   4.018   6.631   0.506  0.5056 -0.3143 -0.1389
 5609TIP3    H238387   4.144   6.713   0.485 -0.5128  1.7916  1.5053
 5610TIP3   OH238388   5.517   6.790   2.082  0.0969  0.1046 -0.7004
 5610TIP3    H138389   5.585   6.756   2.024 -0.3686 -0.2987 -1.0172
 5610TIP3    H238390   5.562   6.807   2.165  0.6754  0.2761 -1.0431
 5611TIP3   OH238391   6.855   3.999   2.286 -0.0623  0.2424 -0.2377
 5611TIP3    H138392   6.768   3.995   2.248  0.2094  0.3509 -0.8797
 5611TIP3    H238393   6.881   3.908   2.296  0.7780  0.1932 -2.4579
 5612TIP3   OH238394   5.212   5.547   2.004 -0.3474 -0.7510 -0.2730
 5612TIP3    H138395   5.194   5.454   2.021 -0.4512 -0.7691 -0.4774
 5612TIP3    H238396   5.307   5.554   2.013 -0.3377 -0.8792 -0.2617
 5613TIP3   OH238397   3.352   1.060   0.531 -0.5451 -0.9815  0.0728
 5613TIP3    H138398   3.321   1.144   0.497 -1.5159 -1.7325 -0.9657
 5613TIP3    H238399   3.412   1.083   0.602 -2.4825  0.5609  1.2942
 5614TIP3   OH238400   6.624   3.743   7.285 -0.3255 -0.1223  0.0972
 5614TIP3    H138401   6.667   3.825   7.308 -0.1134 -0.4812  1.0111
 5614TIP3    H238402   6.536   3.769   7.257 -0.0381  0.4698 -0.2918
 5615TIP3   OH238403   0.830   5.372   7.760  0.8521 -0.1170 -0.0077
 5615TIP3    H138404   0.890   5.386   7.834  1.6033  0.6247 -0.7338
 5615TIP3    H238405   0.869   5.422   7.688 -0.5398  0.2206 -0.5624
 5616TIP3   OH238406   2.930   0.422   8.236 -0.1332 -0.4832 -0.8898
 5616TIP3    H138407   2.938   0.468   8.152  0.2864 -0.9006 -1.0827
 5616TIP3    H238408   2.976   0.339   8.223  2.7153  0.7019  0.7058
 5617TIP3   OH238409   2.263   1.116   1.727 -0.6139 -0.0987 -0.1781
 5617TIP3    H138410   2.319   1.143   1.654 -0.2248 -0.2944  0.0432
 5617TIP3    H238411   2.275   1.022   1.732  1.1880  0.1451  1.5879
 5618TIP3   OH238412   0.752   1.203   0.538  0.0926 -0.2132  0.6194
 5618TIP3    H138413   0.802   1.138   0.588  0.4852  1.2725  2.2347
 5618TIP3    H238414   0.748   1.280   0.595 -1.5995  0.7033 -0.6471
 5619TIP3   OH238415   2.592   6.784   0.998  0.0922 -0.1460 -0.2357
 5619TIP3    H138416   2.505   6.749   1.015  0.1904 -0.7584 -0.9030
 5619TIP3    H238417   2.628   6.726   0.931  0.3752  1.0954 -1.1969
 5620TIP3   OH238418   4.318   4.404   2.068 -0.1611  0.4149 -0.2281
 5620TIP3    H138419   4.307   4.328   2.126 -0.4804  0.6354  0.0033
 5620TIP3    H238420   4.313   4.480   2.126 -0.1259  0.6233 -0.4954
 5621TIP3   OH238421   6.810   4.858   8.424 -0.0897 -0.0549  0.0964
 5621TIP3    H138422   6.840   4.773   8.392  0.7772  0.3280 -0.1466
 5621TIP3    H238423   6.856   4.869   8.507  1.2573  0.9724 -0.7439
 5622TIP3   OH238424   5.588   0.678   7.791 -0.2975  0.4729 -0.4590
 5622TIP3    H138425   5.606   0.744   7.724  1.1997 -0.1547 -0.7090
 5622TIP3    H238426   5.665   0.679   7.847 -1.0393  0.1819  0.6114
 5623TIP3   OH238427   4.470   3.550   1.276 -0.1738  0.1718  0.0445
 5623TIP3    H138428   4.464   3.462   1.239 -1.0289  0.3058 -0.1713
 5623TIP3    H238429   4.560   3.577   1.261 -0.5529  0.3712 -2.3670
 5624TIP3   OH238430   6.623   5.494   7.898 -0.1196  0.6644  0.0091
 5624TIP3    H138431   6.659   5.568   7.848 -0.0663  0.7299  0.1432
 5624TIP3    H238432   6.561   5.453   7.838  0.1316  0.5891 -0.2023
 5625TIP3   OH238433   5.415   0.616   0.405  0.1365 -1.3884 -0.8049
 5625TIP3    H138434   5.506   0.585   0.409  0.4606 -0.4232 -0.4625
 5625TIP3    H238435   5.408   0.655   0.318 -0.4659 -2.9388 -1.4964
 5626TIP3   OH238436   1.309   1.060   0.540  0.3530  0.6257  0.4398
 5626TIP3    H138437   1.303   1.145   0.497  0.8153 -0.1096 -1.1723
 5626TIP3    H238438   1.392   1.063   0.588  1.8188  0.1872 -1.8641
 5627TIP3   OH238439   6.664   1.548   0.787 -0.3599  0.1892 -0.4254
 5627TIP3    H138440   6.629   1.459   0.789 -0.5360  0.2705  0.4263
 5627TIP3    H238441   6.679   1.566   0.694 -0.6227 -0.6084 -0.6277
 5628TIP3   OH238442   4.869   3.440   0.517  0.8016  0.4658 -0.7983
 5628TIP3    H138443   4.840   3.367   0.571  1.0969 -0.6444 -2.0827
 5628TIP3    H238444   4.828   3.517   0.556 -0.6493 -0.5639 -0.2211
 5629TIP3   OH238445   4.683   4.271   0.008  0.0972 -0.6364  0.4422
 5629TIP3    H138446   4.727   4.278  -0.076 -0.8851  1.6017  0.0458
 5629TIP3    H238447   4.678   4.176   0.024 -2.2080 -1.3974 -3.4094
 5630TIP3   OH238448   1.194   3.214   8.225  0.0579  0.0663 -0.2644
 5630TIP3    H138449   1.223   3.128   8.194  1.0800 -0.6090  2.2996
 5630TIP3    H238450   1.099   3.213   8.213  0.0423 -1.4730 -0.2203
 5631TIP3   OH238451   0.257   6.119   8.592  0.0978 -0.0090  0.1859
 5631TIP3    H138452   0.341   6.164   8.601  0.3625 -0.5290  0.3722
 5631TIP3    H238453   0.230   6.101   8.682  0.3804 -0.9149  0.0944
 5632TIP3   OH238454   2.730   6.848   6.214  0.0344 -0.0142 -0.5952
 5632TIP3    H138455   2.719   6.804   6.130  1.9456 -0.1456 -0.8266
 5632TIP3    H238456   2.714   6.941   6.195 -1.1314 -0.2338 -0.7359
 5633TIP3   OH238457   4.922   1.660   1.007 -0.5305  0.2300 -0.1543
 5633TIP3    H138458   4.896   1.752   1.014  1.3504  0.7625  0.3993
 5633TIP3    H238459   5.008   1.663   0.964  0.0939 -1.1695  0.9252
 5634TIP3   OH238460   0.174   6.728   8.584  0.0823 -0.1619 -0.4348
 5634TIP3    H138461   0.163   6.701   8.675  1.0851 -0.6392 -0.4439
 5634TIP3    H238462   0.113   6.801   8.573  1.0125  0.9009  1.0597
 5635TIP3   OH238463   6.219   2.929   7.696  0.0976  0.0563  0.0174
 5635TIP3    H138464   6.221   2.834   7.698 -1.8606 -0.0302  2.5234
 5635TIP3    H238465   6.290   2.957   7.753 -0.4391  0.0110  0.7244
 5636TIP3   OH238466   5.052   5.011   6.802 -0.5519 -0.1102 -0.2071
 5636TIP3    H138467   5.100   4.928   6.810  0.4484  0.5813  1.5008
 5636TIP3    H238468   5.062   5.036   6.711 -0.7351 -1.7739 -0.7205
 5637TIP3   OH238469   6.507   0.780   8.280  0.0196  0.1806 -0.2273
 5637TIP3    H138470   6.451   0.714   8.318 -0.7756  0.8956 -0.1269
 5637TIP3    H238471   6.488   0.777   8.186 -0.9126  1.0686 -0.0829
 5638TIP3   OH238472   6.122   4.240   0.921 -0.3964 -0.3720  0.0511
 5638TIP3    H138473   6.078   4.261   0.838 -0.6533  0.7974  0.4577
 5638TIP3    H238474   6.089   4.153   0.944  0.0623 -0.9295 -1.3100
 5639TIP3   OH238475   6.646   5.793   8.213  0.1432  0.1251 -0.3678
 5639TIP3    H138476   6.679   5.710   8.179  0.8769  0.1016  0.3790
 5639TIP3    H238477   6.662   5.855   8.142  0.6408 -0.1492 -0.5045
 5640TIP3   OH238478   0.649   6.860   7.566 -0.1026 -0.1736  0.2632
 5640TIP3    H138479   0.733   6.851   7.611 -0.1460 -1.1549  0.1761
 5640TIP3    H238480   0.597   6.917   7.623 -0.0650 -1.1638  1.3303
 5641TIP3   OH238481   2.023   1.141   8.038 -0.1950 -0.1761 -0.2597
 5641TIP3    H138482   2.034   1.085   8.114 -0.7432  0.1213  0.0403
 5641TIP3    H238483   2.063   1.224   8.062 -1.5891  0.3855  0.2458
 5642TIP3   OH238484   5.673   6.469   2.071  0.5287 -0.6007  0.0440
 5642TIP3    H138485   5.749   6.525   2.056 -1.1429  1.5827 -0.9005
 5642TIP3    H238486   5.636   6.500   2.154 -1.1509  0.7326 -1.1203
 5643TIP3   OH238487   0.741   6.156   1.303  0.2638 -0.6246  0.3046
 5643TIP3    H138488   0.789   6.193   1.230 -1.2494 -0.4603 -0.6622
 5643TIP3    H238489   0.760   6.063   1.301  0.1269 -0.6405 -0.3990
 5644TIP3   OH238490   6.524   2.046   7.805 -0.0993  0.5948  0.1688
 5644TIP3    H138491   6.435   2.016   7.821 -0.3583  0.3957 -1.4972
 5644TIP3    H238492   6.571   1.968   7.776  0.1338  1.0698 -0.7532
 5645TIP3   OH238493   4.246   3.029   7.440  0.2770  0.1421  0.0506
 5645TIP3    H138494   4.333   2.999   7.467 -0.4408 -2.1850  0.0348
 5645TIP3    H238495   4.227   2.979   7.360 -1.1739  0.4027  0.1975
 5646TIP3   OH238496   2.438   1.935   0.688  0.3017  0.1987 -0.1039
 5646TIP3    H138497   2.367   1.943   0.623 -0.0422  0.7149  0.3312
 5646TIP3    H238498   2.400   1.883   0.759  0.1524  0.9890  0.4060
 5647TIP3   OH238499   5.872   4.883   7.714 -0.6392 -0.8186  0.0855
 5647TIP3    H138500   5.959   4.913   7.690 -0.8959  0.0033  0.1586
 5647TIP3    H238501   5.836   4.845   7.634 -0.2290 -1.1257  0.0473
 5648TIP3   OH238502   5.555   4.003   1.630 -0.2450  0.5163 -0.1113
 5648TIP3    H138503   5.539   4.096   1.640  2.7961  0.9449  3.4722
 5648TIP3    H238504   5.512   3.963   1.706  0.8897 -0.5377  0.0117
 5649TIP3   OH238505   1.746   2.276   1.386  0.1177  0.3851  0.2172
 5649TIP3    H138506   1.681   2.335   1.422  0.1027  0.4097  0.1492
 5649TIP3    H238507   1.695   2.207   1.343  0.1417  0.7165 -0.3426
 5650TIP3   OH238508   4.168   0.135   1.407  0.1681  0.6401 -0.2007
 5650TIP3    H138509   4.185   0.085   1.487  1.5163 -0.1883 -0.9701
 5650TIP3    H238510   4.131   0.217   1.438 -1.6066 -0.5797  1.1394
 5651TIP3   OH238511   4.837   3.901   6.263 -0.0103  0.1728  0.0507
 5651TIP3    H138512   4.786   3.821   6.245 -2.1948  1.3353  0.6292
 5651TIP3    H238513   4.854   3.897   6.357  0.0069  0.3040  0.0523
 5652TIP3   OH238514   1.505   2.706   8.335 -0.5676  0.4179  0.4518
 5652TIP3    H138515   1.550   2.629   8.300  0.9224  1.2524  0.4413
 5652TIP3    H238516   1.417   2.702   8.297 -0.8206 -1.7007  1.0890
 5653TIP3   OH238517   0.548   0.117   6.175 -0.2085 -0.5483 -0.2467
 5653TIP3    H138518   0.497   0.104   6.095  0.9468  0.6233 -1.2180
 5653TIP3    H238519   0.625   0.167   6.147  0.4428 -0.4710  1.5284
 5654TIP3   OH238520   5.961   4.785   0.415 -0.8077  1.1249  0.1892
 5654TIP3    H138521   5.978   4.714   0.353  0.6451 -1.5693  3.3618
 5654TIP3    H238522   5.876   4.761   0.454 -0.4945  1.3168  1.0017
 5655TIP3   OH238523   3.003   5.903   7.079 -0.4142  0.8075 -0.1918
 5655TIP3    H138524   2.920   5.915   7.032 -1.0955  2.0716  1.2456
 5655TIP3    H238525   3.006   5.809   7.097 -2.0905  0.8699  0.6359
 5656TIP3   OH238526   4.618   5.638   7.497  0.0698 -0.5126 -0.3813
 5656TIP3    H138527   4.618   5.543   7.494  0.7620 -0.6178  1.5523
 5656TIP3    H238528   4.694   5.660   7.550 -0.0293  1.1393 -0.8658
 5657TIP3   OH238529   5.099   5.079   6.535 -0.1070 -0.3892  0.4330
 5657TIP3    H138530   5.190   5.058   6.554  0.0303 -1.2203 -0.9742
 5657TIP3    H238531   5.072   5.014   6.470 -1.2577  0.7293 -0.2714
 5658TIP3   OH238532   6.366   4.371   7.576  0.3032 -0.0420 -0.4072
 5658TIP3    H138533   6.322   4.362   7.492 -0.2209  0.4004 -0.1825
 5658TIP3    H238534   6.295   4.364   7.641  0.8516 -1.7401  0.0642
 5659TIP3   OH238535   5.661   4.630   7.303 -0.1851 -0.0880  0.2399
 5659TIP3    H138536   5.662   4.566   7.232  0.1594 -0.2730  0.4082
 5659TIP3    H238537   5.723   4.698   7.276  0.4095 -0.4660  0.6394
 5660TIP3   OH238538   1.480   3.912   6.257 -0.7924 -0.2449  0.0185
 5660TIP3    H138539   1.445   4.001   6.264 -2.1475 -0.5217 -2.1728
 5660TIP3    H238540   1.453   3.883   6.170  3.5033 -1.1404 -1.2429
 5661TIP3   OH238541   5.670   3.750   1.043 -0.2736  0.4478 -0.1601
 5661TIP3    H138542   5.742   3.722   0.987 -0.2511  1.5224 -0.7041
 5661TIP3    H238543   5.691   3.841   1.064  0.1285 -0.1329  2.2690
 5662TIP3   OH238544   0.301   1.770   7.671 -0.1767 -0.4155 -0.3452
 5662TIP3    H138545   0.276   1.824   7.595  1.9586 -1.4244 -1.8670
 5662TIP3    H238546   0.335   1.833   7.734 -1.9337  0.4379 -0.1749
 5663TIP3   OH238547   4.921   4.318   7.277  0.3945  0.1416 -0.1039
 5663TIP3    H138548   4.846   4.374   7.260  0.3047 -0.1942 -0.8496
 5663TIP3    H238549   4.996   4.365   7.240  0.5830  0.5153  0.7109
 5664TIP3   OH238550   5.559   1.415   1.585  0.2012  0.1200  0.5422
 5664TIP3    H138551   5.480   1.367   1.608  0.3159  0.1879  1.0790
 5664TIP3    H238552   5.550   1.500   1.627 -1.5365  1.9144 -3.0470
 5665TIP3   OH238553   5.621   2.707   0.227  0.0405 -0.4430  0.2396
 5665TIP3    H138554   5.654   2.661   0.304  0.3759 -0.2973  0.1844
 5665TIP3    H238555   5.636   2.646   0.155  1.0473 -0.0239  0.0694
 5666TIP3   OH238556   1.291   2.613   1.127 -0.6108  0.4147  0.5678
 5666TIP3    H138557   1.357   2.645   1.189  0.6094  0.4042 -0.6572
 5666TIP3    H238558   1.303   2.518   1.128  0.4482  0.4954 -0.7061
 5667TIP3   OH238559   2.046   1.636   6.877 -0.0833 -0.7074 -0.4466
 5667TIP3    H138560   2.119   1.674   6.925  0.2547  1.7212 -2.6372
 5667TIP3    H238561   2.045   1.544   6.902  2.9313 -0.5512  0.5897
 5668TIP3   OH238562   4.267   1.234   1.180 -0.2616  0.4039  0.0992
 5668TIP3    H138563   4.222   1.154   1.154  0.1093  0.3942 -0.5230
 5668TIP3    H238564   4.231   1.302   1.123 -1.2882  0.8983  1.2681
 5669TIP3   OH238565   4.671   6.672   0.140  0.1839  0.0188 -0.1951
 5669TIP3    H138566   4.739   6.686   0.075  1.3991 -0.0416  1.0129
 5669TIP3    H238567   4.625   6.593   0.111  1.0655 -0.3293 -0.6730
 5670TIP3   OH238568   1.055   4.003   8.449  0.5547 -0.7176 -0.6159
 5670TIP3    H138569   1.090   4.086   8.480  1.5575 -1.5316  0.4976
 5670TIP3    H238570   0.960   4.010   8.464  0.6838  0.0362 -0.1241
 5671TIP3   OH238571   4.493   5.978   7.715 -0.3162 -0.1977  0.0252
 5671TIP3    H138572   4.587   5.966   7.729 -0.5502 -1.4610  0.6753
 5671TIP3    H238573   4.478   5.946   7.626 -0.1976 -0.4415  0.0906
 5672TIP3   OH238574   4.003   5.220   7.922 -0.8181  0.0345 -0.6830
 5672TIP3    H138575   4.016   5.147   7.862  0.5219 -0.7121  0.4690
 5672TIP3    H238576   4.055   5.291   7.886 -0.0014 -0.4181 -0.4079
 5673TIP3   OH238577   2.769   5.753   7.497 -0.1316 -0.0300 -0.4945
 5673TIP3    H138578   2.811   5.839   7.492  0.7798 -0.3039  1.5005
 5673TIP3    H238579   2.819   5.698   7.437 -0.7873  0.8394 -1.8642
 5674TIP3   OH238580   2.526   6.087   1.324  0.0499 -0.1410  0.3169
 5674TIP3    H138581   2.504   5.996   1.342  1.1489 -0.1965  1.4942
 5674TIP3    H238582   2.501   6.134   1.403 -3.1157  1.1080 -1.2744
 5675TIP3   OH238583   2.303   3.454   0.153  0.4652 -0.3833  0.0549
 5675TIP3    H138584   2.274   3.369   0.186  0.5684 -0.2725  0.4321
 5675TIP3    H238585   2.222   3.502   0.137  0.4108 -0.4911  0.0024
 5676TIP3   OH238586   2.367   5.039   7.040 -0.1777  0.1040 -0.1817
 5676TIP3    H138587   2.344   5.131   7.026  1.3477  0.5782  0.2106
 5676TIP3    H238588   2.398   5.036   7.130  0.7805 -0.5717 -0.5191
 5677TIP3   OH238589   6.151   4.761   1.269 -0.1685  0.0913 -0.5746
 5677TIP3    H138590   6.057   4.749   1.252 -0.3401  0.3857  0.1254
 5677TIP3    H238591   6.176   4.837   1.217 -0.7736  1.2297  0.7438
 5678TIP3   OH238592   0.085   4.969   7.489 -0.5606  0.3530  0.1166
 5678TIP3    H138593   0.090   5.063   7.503 -0.2745  0.1827  1.2599
 5678TIP3    H238594   0.174   4.937   7.508 -1.2902 -0.4643  2.4846
 5679TIP3   OH238595   5.289   3.566   7.524  0.0325  0.3539  0.5973
 5679TIP3    H138596   5.337   3.485   7.507 -0.6930  0.2058 -0.9223
 5679TIP3    H238597   5.218   3.540   7.583 -1.2152 -0.5187 -1.2043
 5680TIP3   OH238598   0.933   5.531   8.272  0.1837  0.1666 -0.8567
 5680TIP3    H138599   0.963   5.441   8.260 -0.3768 -0.2268  0.4644
 5680TIP3    H238600   1.012   5.579   8.300  0.2615 -0.1441 -0.5403
 5681TIP3   OH238601   2.672   2.257   6.548  0.6989 -0.1008  1.0037
 5681TIP3    H138602   2.647   2.186   6.488 -0.1987  0.3527  0.8303
 5681TIP3    H238603   2.700   2.328   6.491 -1.1312  0.7046  1.0482
 5682TIP3   OH238604   2.443   5.277   0.499  0.2286 -0.2371  0.0547
 5682TIP3    H138605   2.498   5.326   0.560 -0.3558  0.8270 -0.2485
 5682TIP3    H238606   2.367   5.250   0.551 -0.1975  0.5414 -0.1446
 5683TIP3   OH238607   3.918   6.397   1.212 -0.3342  0.5082 -0.0644
 5683TIP3    H138608   3.896   6.374   1.302 -1.2811  0.5569 -0.2688
 5683TIP3    H238609   3.881   6.484   1.200 -0.4910  0.3733 -0.5942
 5684TIP3   OH238610   4.092   3.462   8.255  0.8955  0.3354 -0.1211
 5684TIP3    H138611   4.104   3.402   8.182 -1.0168 -1.4137  0.9000
 5684TIP3    H238612   4.096   3.406   8.333 -1.4379  1.3775  0.8559
 5685TIP3   OH238613   3.888   4.654   1.129  0.0660 -0.3818  0.0530
 5685TIP3    H138614   3.961   4.599   1.101  0.1080  1.1386 -3.3865
 5685TIP3    H238615   3.929   4.736   1.156 -0.2640 -0.1104 -0.2631
 5686TIP3   OH238616   0.612   0.382   1.566 -0.2112 -0.0450  0.0998
 5686TIP3    H138617   0.522   0.377   1.599 -0.8263 -1.3404 -1.5772
 5686TIP3    H238618   0.667   0.384   1.644 -1.7145  1.7517  1.1852
 5687TIP3   OH238619   0.784   5.841   7.637 -0.1450  0.1415 -0.2410
 5687TIP3    H138620   0.770   5.915   7.696 -0.9468  0.8455 -1.2929
 5687TIP3    H238621   0.709   5.843   7.577  0.1494 -1.1412 -0.6925
 5688TIP3   OH238622   6.271   2.660   1.870  0.2831 -0.1490  1.5123
 5688TIP3    H138623   6.236   2.683   1.956 -1.4055  1.5564  0.4547
 5688TIP3    H238624   6.221   2.582   1.844 -1.1139  0.8441  1.0548
 5689TIP3   OH238625   6.297   5.591   7.902  0.2258  0.3680  0.3154
 5689TIP3    H138626   6.265   5.546   7.980  0.9880  1.2150  1.1449
 5689TIP3    H238627   6.318   5.520   7.840  3.2000 -0.6477  2.2723
 5690TIP3   OH238628   2.462   0.918   7.783  0.5429 -0.8619  0.1863
 5690TIP3    H138629   2.547   0.914   7.828  0.4211  0.2323  0.5435
 5690TIP3    H238630   2.460   1.004   7.743 -0.4444 -0.8383  0.2575
 5691TIP3   OH238631   0.076   4.837   1.569 -0.0634 -0.2806 -0.0689
 5691TIP3    H138632   0.076   4.882   1.484  1.0229  0.3614  0.2506
 5691TIP3    H238633   0.051   4.903   1.632  1.8132  0.0190  0.4418
 5692TIP3   OH238634   2.854   6.788   2.183  0.0462  0.3290  0.1209
 5692TIP3    H138635   2.812   6.718   2.134  2.4605  0.4911 -2.4139
 5692TIP3    H238636   2.812   6.868   2.150  0.1293  0.3201 -0.0044
 5693TIP3   OH238637   0.073   3.737   2.308  0.0502  0.5810  0.2565
 5693TIP3    H138638   0.075   3.713   2.401  3.2880 -1.1716 -0.1515
 5693TIP3    H238639   0.019   3.669   2.267 -3.3136  2.5797  0.9812
 5694TIP3   OH238640   6.435   5.111   7.907  0.0060  0.0068  0.4690
 5694TIP3    H138641   6.384   5.170   7.851  0.1032 -0.2759  0.0704
 5694TIP3    H238642   6.421   5.024   7.868  1.7823  0.0603 -0.4259
 5695TIP3   OH238643   4.975   0.453   7.407  0.4918  0.0158  0.2912
 5695TIP3    H138644   4.993   0.500   7.326 -1.0991  2.1615  1.0932
 5695TIP3    H238645   4.972   0.521   7.475  0.5708 -1.5532  1.9690
 5696TIP3   OH238646   1.420   6.118   2.135  0.0034 -0.0972 -0.1633
 5696TIP3    H138647   1.327   6.132   2.118  0.1804  1.4918  0.0658
 5696TIP3    H238648   1.465   6.166   2.066  0.6631  1.3217  1.1901
 5697TIP3   OH238649   5.933   1.157   1.589 -0.2744  0.8367 -0.2264
 5697TIP3    H138650   5.899   1.107   1.664 -1.1927 -0.2377 -1.3202
 5697TIP3    H238651   6.028   1.156   1.601 -0.0675 -2.6830 -1.0264
 5698TIP3   OH238652   4.773   5.652   1.199  0.1428 -0.3296  0.4307
 5698TIP3    H138653   4.765   5.560   1.227 -0.0293 -0.3175  0.4256
 5698TIP3    H238654   4.793   5.700   1.279  0.0884 -0.3534  0.4586
 5699TIP3   OH238655   6.462   1.755   0.306  0.1105  0.2163  0.1826
 5699TIP3    H138656   6.505   1.780   0.388  0.1176  1.1163 -0.0916
 5699TIP3    H238657   6.476   1.660   0.301  2.4618  0.5205 -0.1191
 5700TIP3   OH238658   4.894   1.293   0.148  0.0836 -0.2246 -0.4397
 5700TIP3    H138659   4.847   1.325   0.225 -0.2250  0.9280 -1.0879
 5700TIP3    H238660   4.942   1.369   0.116  3.8006 -1.6715  1.1231
 5701TIP3   OH238661   4.070   0.004   8.042  0.4568 -0.2723 -0.2197
 5701TIP3    H138662   4.010   0.037   8.110  0.3695 -0.6417 -0.1172
 5701TIP3    H238663   4.121  -0.063   8.087  0.1032 -0.8245 -0.6344
 5702TIP3   OH238664   2.092   5.439   7.968  0.5384 -0.2098 -0.2282
 5702TIP3    H138665   2.121   5.519   8.011 -2.1058 -0.0703  1.5182
 5702TIP3    H238666   2.043   5.469   7.891  0.1095 -0.1825  0.0561
 5703TIP3   OH238667   5.401   3.206   8.098 -0.1198 -0.4698  0.0075
 5703TIP3    H138668   5.477   3.162   8.135 -1.3261 -0.4275  2.8049
 5703TIP3    H238669   5.351   3.136   8.054 -0.0183 -1.1293  0.9161
 5704TIP3   OH238670   4.148   4.565   0.868  0.0322 -0.3075 -0.4502
 5704TIP3    H138671   4.131   4.492   0.927  1.3227  0.3990  0.8908
 5704TIP3    H238672   4.069   4.619   0.873 -1.2907 -1.9863 -2.1345
 5705TIP3   OH238673   4.901   5.557   8.621  0.5203  0.4176 -0.3349
 5705TIP3    H138674   4.826   5.516   8.666  0.3357  1.7898  0.6692
 5705TIP3    H238675   4.911   5.507   8.540  0.6867 -2.0096  1.0811
 5706TIP3   OH238676   0.855   1.092   7.865  0.0328 -0.1455 -0.3435
 5706TIP3    H138677   0.869   1.164   7.803 -1.7820  1.7580  1.2911
 5706TIP3    H238678   0.760   1.081   7.868  0.0209 -0.0465  2.1378
 5707TIP3   OH238679   1.738   0.223   2.136  0.1980  0.0832  0.3902
 5707TIP3    H138680   1.668   0.162   2.114  0.1541  1.0182 -2.4083
 5707TIP3    H238681   1.818   0.176   2.113  0.3864 -0.0826  1.3270
 5708TIP3   OH238682   4.948   2.976   2.022  0.2427 -0.5480  0.5119
 5708TIP3    H138683   4.885   3.046   2.006 -0.0899 -1.0204 -0.3173
 5708TIP3    H238684   5.025   3.020   2.056 -0.2253  0.1334  0.7203
 5709TIP3   OH238685   1.408   0.920   6.954 -0.2039  0.0642  0.2793
 5709TIP3    H138686   1.363   0.985   6.900 -0.6300 -0.8318 -0.4749
 5709TIP3    H238687   1.501   0.937   6.939 -0.3088 -0.4260 -1.1052
 5710TIP3   OH238688   6.738   6.756   0.693  0.5463  0.0334 -0.3823
 5710TIP3    H138689   6.728   6.732   0.601  1.4015  0.1271 -0.5081
 5710TIP3    H238690   6.710   6.847   0.697 -1.0779 -0.4367 -0.2211
 5711TIP3   OH238691   1.677   1.009   1.339 -0.0257 -0.0718  0.5797
 5711TIP3    H138692   1.596   1.009   1.288  0.4445 -0.6529 -0.1818
 5711TIP3    H238693   1.737   1.063   1.287  1.2077 -2.5365 -0.7577
 5712TIP3   OH238694   4.955   1.391   1.145 -0.1549  0.1744 -0.1350
 5712TIP3    H138695   4.891   1.339   1.096 -0.2785  0.5948 -0.4279
 5712TIP3    H238696   4.932   1.482   1.125  0.1431  0.3404  0.2619
 5713TIP3   OH238697   2.040   0.941   0.702 -0.4161 -0.5438 -0.3793
 5713TIP3    H138698   2.068   0.952   0.793 -0.8900  0.9723 -0.3881
 5713TIP3    H238699   1.945   0.933   0.707 -0.5824  0.7990 -0.7892
 5714TIP3   OH238700   4.335   3.398   7.295  0.0498  0.1779  0.4799
 5714TIP3    H138701   4.301   3.312   7.270  0.6091 -0.2607  1.1821
 5714TIP3    H238702   4.426   3.381   7.320  0.4798  1.1456 -0.3488
 5715TIP3   OH238703   3.078   3.813   7.640  0.5226 -0.0864 -0.5171
 5715TIP3    H138704   3.119   3.898   7.626  2.1175 -0.5115  1.1905
 5715TIP3    H238705   3.149   3.750   7.629  0.1413 -0.9237  1.5014
 5716TIP3   OH238706   0.041   1.904   0.124 -0.0727  0.1297 -0.9093
 5716TIP3    H138707   0.055   1.843   0.197  0.5297  0.3301 -0.8508
 5716TIP3    H238708   0.114   1.888   0.064 -1.6015 -1.4290 -2.4761
 5717TIP3   OH238709   5.393   1.203   1.648 -0.4328 -0.3353  0.6264
 5717TIP3    H138710   5.461   1.154   1.694  0.6588  0.5930  0.0477
 5717TIP3    H238711   5.352   1.257   1.716  0.0364 -0.2069  0.8070
 5718TIP3   OH238712   4.038   2.468   0.613  0.4078  0.5438 -0.1325
 5718TIP3    H138713   4.117   2.521   0.622 -0.1146  1.1710  0.8695
 5718TIP3    H238714   4.069   2.386   0.574  1.5623  0.7378  0.3321
 5719TIP3   OH238715   5.150   1.563   6.288  0.7482 -0.4476  0.1956
 5719TIP3    H138716   5.132   1.622   6.361  0.7665  1.4248 -1.2307
 5719TIP3    H238717   5.226   1.513   6.315  0.8039  0.2596  1.4223
 5720TIP3   OH238718   1.482   3.491   7.906 -0.1546  0.2833  0.1827
 5720TIP3    H138719   1.497   3.503   7.812 -0.5862 -0.4462  0.0145
 5720TIP3    H238720   1.420   3.418   7.912  1.7984 -1.3845  1.1284
 5721TIP3   OH238721   6.740   1.022   6.979  0.2647  0.2042 -0.4200
 5721TIP3    H138722   6.744   1.004   6.885 -2.0149  1.1618 -0.7680
 5721TIP3    H238723   6.782   1.108   6.989  0.5206  0.0951 -0.5551
 5722TIP3   OH238724   5.817   3.170   6.989  0.0731 -0.3596  0.1787
 5722TIP3    H138725   5.905   3.207   6.977 -0.2434 -0.1686 -1.8963
 5722TIP3    H238726   5.759   3.231   6.942 -0.9659 -1.3989  0.0735
 5723TIP3   OH238727   2.429   1.182   7.133  0.2777  0.1607 -0.2766
 5723TIP3    H138728   2.510   1.229   7.117  0.7385 -1.0868 -1.8958
 5723TIP3    H238729   2.377   1.196   7.053 -1.0306  0.7460  0.6315
 5724TIP3   OH238730   6.548   0.383   0.444  0.4335 -0.0464 -0.3287
 5724TIP3    H138731   6.504   0.319   0.388  0.8069  1.0398 -1.9396
 5724TIP3    H238732   6.640   0.380   0.416  0.9681 -0.5975  1.3559
 5725TIP3   OH238733   5.741   2.912   0.832  0.2303 -0.6802  0.0540
 5725TIP3    H138734   5.699   2.997   0.834  2.9166  0.7523  1.7395
 5725TIP3    H238735   5.792   2.912   0.750  1.0707 -0.1949  0.5694
 5726TIP3   OH238736   4.545   5.418   7.711 -0.0479 -0.5882  0.8302
 5726TIP3    H138737   4.624   5.384   7.752  1.2267 -0.0347 -1.0204
 5726TIP3    H238738   4.529   5.502   7.755 -0.8410 -1.6355  2.6147
 5727TIP3   OH238739   3.125   3.688   6.521 -0.4233 -0.5190 -0.1288
 5727TIP3    H138740   3.190   3.723   6.581 -0.7345  0.3876 -0.3042
 5727TIP3    H238741   3.118   3.595   6.544  0.3120 -0.4379  0.4417
 5728TIP3   OH238742   1.228   2.671   0.716  0.3313  0.3550  0.0386
 5728TIP3    H138743   1.219   2.722   0.796 -0.3926  3.1179 -1.6890
 5728TIP3    H238744   1.144   2.626   0.706 -0.1190  1.1664  0.0985
 5729TIP3   OH238745   6.180   1.395   1.771  0.2632  0.5028 -0.1053
 5729TIP3    H138746   6.170   1.411   1.865  0.0358  0.2870 -0.0936
 5729TIP3    H238747   6.157   1.303   1.760  0.6790  0.4223 -0.3146
 5730TIP3   OH238748   0.890   3.638   0.561 -0.0215 -0.2235 -0.6677
 5730TIP3    H138749   0.829   3.675   0.497 -0.4631 -0.2379 -0.2620
 5730TIP3    H238750   0.976   3.669   0.533 -0.2998  0.4540 -0.7958
 5731TIP3   OH238751   5.672   4.522   1.082 -0.4861  0.0735 -0.1951
 5731TIP3    H138752   5.586   4.492   1.114  0.3882 -1.5818  0.7384
 5731TIP3    H238753   5.735   4.471   1.133  1.0439  0.3524 -1.7281
 5732TIP3   OH238754   2.052   5.156   2.027  0.3815 -0.0326 -0.2967
 5732TIP3    H138755   1.999   5.171   1.948 -1.7542  0.5695  1.1590
 5732TIP3    H238756   2.023   5.224   2.088  1.4918 -0.8863  1.2430
 5733TIP3   OH238757   6.530   2.755   7.846 -0.5002  0.4607 -0.3321
 5733TIP3    H138758   6.453   2.699   7.834  0.0034 -0.3803  0.2215
 5733TIP3    H238759   6.498   2.844   7.831 -1.4889  0.0895 -0.5002
 5734TIP3   OH238760   6.119   3.278   2.791 -0.3525  0.3148  0.0512
 5734TIP3    H138761   6.094   3.350   2.733  4.1251  1.1575 -1.2172
 5734TIP3    H238762   6.118   3.201   2.735  1.3358  0.6558 -0.4984
 5735TIP3   OH238763   4.711   4.795   8.470  0.3591 -0.4980 -0.7150
 5735TIP3    H138764   4.784   4.857   8.471  0.4974 -0.6570 -0.9605
 5735TIP3    H238765   4.734   4.730   8.537  0.0283 -0.0778 -0.1786
 5736TIP3   OH238766   5.122   1.922   8.038 -0.3711  0.0957 -0.3281
 5736TIP3    H138767   5.183   1.989   8.069 -1.0660  1.0630 -0.9840
 5736TIP3    H238768   5.164   1.886   7.960 -0.6197  0.7602 -0.7788
 5737TIP3   OH238769   1.054   1.047   1.255 -0.0335  0.1136 -0.1061
 5737TIP3    H138770   1.011   1.073   1.336  0.8231  0.3769  0.2809
 5737TIP3    H238771   1.142   1.085   1.261 -0.4197  1.4068 -1.8293
 5738TIP3   OH238772   3.107   2.936   8.539 -0.2743  0.1551  0.1513
 5738TIP3    H138773   3.175   2.955   8.603 -0.3835  1.5699 -0.1092
 5738TIP3    H238774   3.088   2.843   8.550  0.1130  0.2423  1.7607
 5739TIP3   OH238775   1.153   5.619   8.421  0.3469  0.4618  0.1825
 5739TIP3    H138776   1.199   5.603   8.503  0.7456  0.0883 -0.1121
 5739TIP3    H238777   1.081   5.678   8.445  0.7083  0.6901  0.7227
 5740TIP3   OH238778   0.130   6.758   0.466  0.0364 -0.3100  0.0564
 5740TIP3    H138779   0.096   6.677   0.505  0.8959 -1.6380 -1.7788
 5740TIP3    H238780   0.083   6.766   0.383  2.6492 -1.1125 -1.6043
 5741TIP3   OH238781   4.450   6.719   7.640 -0.8804 -0.1664 -0.8733
 5741TIP3    H138782   4.413   6.663   7.707  1.4633 -1.5974 -0.6764
 5741TIP3    H238783   4.450   6.807   7.678 -1.1968 -0.6611  0.2835
 5742TIP3   OH238784   4.604   1.733   7.902 -0.7842  0.6434 -0.6067
 5742TIP3    H138785   4.509   1.726   7.909 -0.5899 -1.5169  2.6659
 5742TIP3    H238786   4.633   1.643   7.883  0.6037  0.6881  0.9938
 5743TIP3   OH238787   2.184   0.239   6.825  0.3060 -0.1755 -0.7997
 5743TIP3    H138788   2.260   0.269   6.775  3.0350 -5.4215 -0.4104
 5743TIP3    H238789   2.164   0.153   6.789  0.2064 -2.7872  4.5652
 5744TIP3   OH238790   5.924   6.383   1.810 -0.4607  0.2065 -0.1478
 5744TIP3    H138791   5.838   6.426   1.813 -1.5597 -1.8735  0.0085
 5744TIP3    H238792   5.922   6.332   1.729  0.0532 -0.9693  0.5582
 5745TIP3   OH238793   5.228   5.163   0.194 -0.0036 -0.1069 -0.1177
 5745TIP3    H138794   5.209   5.070   0.180 -1.3726 -0.7992  4.6169
 5745TIP3    H238795   5.142   5.206   0.187  0.4382  0.6604 -1.0687
 5746TIP3   OH238796   1.243   3.204   0.880  0.5574  0.0827  0.0576
 5746TIP3    H138797   1.188   3.135   0.843  0.1711 -0.0348  0.8401
 5746TIP3    H238798   1.223   3.281   0.827 -0.7114  0.1583  0.6058
 5747TIP3   OH238799   6.806   0.941   2.003  0.1413  0.1915  0.4741
 5747TIP3    H138800   6.718   0.923   2.037 -0.0245  0.2242  0.0645
 5747TIP3    H238801   6.864   0.887   2.058 -0.1424  0.0965  0.6831
 5748TIP3   OH238802   2.368   0.090   1.584  0.0505  0.1941  0.4585
 5748TIP3    H138803   2.330   0.157   1.528  0.6236 -0.1275 -0.3261
 5748TIP3    H238804   2.420   0.036   1.525  0.0303 -0.6198  1.1683
 5749TIP3   OH238805   6.233   5.549   2.228  1.1011  0.4909 -0.3481
 5749TIP3    H138806   6.306   5.496   2.261  0.5431 -0.2192 -0.2268
 5749TIP3    H238807   6.193   5.587   2.307  2.0854  1.9141 -0.4925
 5750TIP3   OH238808   5.650   3.149   1.786 -0.0634 -0.6364 -0.0104
 5750TIP3    H138809   5.610   3.235   1.769 -0.0564 -0.4848  0.6938
 5750TIP3    H238810   5.641   3.137   1.881 -0.2497 -1.5125 -0.1332
 5751TIP3   OH238811   2.164   2.909   1.629  0.7366 -0.0227  0.0444
 5751TIP3    H138812   2.075   2.945   1.636  0.6411  0.3204 -2.1667
 5751TIP3    H238813   2.197   2.944   1.546  1.5736 -3.0316 -1.0288
 5752TIP3   OH238814   3.470   2.422   0.424  0.5452 -0.0961  0.1949
 5752TIP3    H138815   3.515   2.454   0.503  0.2620  0.9989 -0.0635
 5752TIP3    H238816   3.378   2.444   0.438  0.3563 -0.7068 -0.0585
 5753TIP3   OH238817   6.759   3.688   0.044  0.4617 -0.0840 -0.0172
 5753TIP3    H138818   6.804   3.772   0.041  1.8854 -0.8175 -1.0101
 5753TIP3    H238819   6.667   3.708   0.025  0.4031  1.4213  1.6505
 5754TIP3   OH238820   5.745   0.781   8.008 -0.3886 -0.2729  0.2516
 5754TIP3    H138821   5.706   0.779   8.095  0.4283 -0.8923  0.6191
 5754TIP3    H238822   5.809   0.710   8.009 -1.7235 -1.5853 -1.5203
 5755TIP3   OH238823   6.416   6.233   0.887 -0.1130 -0.5277 -0.4211
 5755TIP3    H138824   6.498   6.283   0.887 -0.3047 -0.1705 -1.9745
 5755TIP3    H238825   6.403   6.209   0.979  1.5032 -0.2265 -0.0840
 5756TIP3   OH238826   1.156   1.523   7.807  0.1691 -0.4692 -0.2901
 5756TIP3    H138827   1.152   1.521   7.903 -0.2108  1.0620 -0.2478
 5756TIP3    H238828   1.113   1.605   7.783  0.4127 -0.7460 -1.7746
 5757TIP3   OH238829   5.417   3.476   0.056 -0.4529  0.2539 -0.6236
 5757TIP3    H138830   5.337   3.527   0.039  0.4686  1.2248 -2.2570
 5757TIP3    H238831   5.414   3.406  -0.008  0.2807  0.6293 -1.0725
 5758TIP3   OH238832   2.884   4.991   0.321 -0.2296 -0.1973 -0.1213
 5758TIP3    H138833   2.941   4.922   0.354 -1.5068 -1.3921 -0.3145
 5758TIP3    H238834   2.911   5.070   0.368  0.7790 -0.9786  0.6347
 5759TIP3   OH238835   1.095   6.811   8.259  0.0679 -0.1225  0.1476
 5759TIP3    H138836   1.001   6.824   8.254  0.1560  0.3656 -0.3262
 5759TIP3    H238837   1.133   6.890   8.219  0.6658 -0.5908 -0.2310
 5760TIP3   OH238838   5.787   4.154   8.277  0.2122 -0.0806  0.1271
 5760TIP3    H138839   5.754   4.159   8.188  2.3769 -0.0161 -0.7284
 5760TIP3    H238840   5.873   4.112   8.269 -0.0226 -1.1109  2.3204
 5761TIP3   OH238841   2.806   5.649   6.503 -0.2811 -0.0997  0.5573
 5761TIP3    H138842   2.725   5.682   6.542 -1.0179 -1.4842  0.2916
 5761TIP3    H238843   2.792   5.554   6.497  1.6140 -0.4412  1.0521
 5762TIP3   OH238844   0.112   1.735   1.766  0.3873 -0.4500 -0.6835
 5762TIP3    H138845   0.174   1.703   1.831  0.7611 -1.8850 -1.6999
 5762TIP3    H238846   0.033   1.683   1.779 -0.7332  1.4702  0.7008
 5763TIP3   OH238847   3.645   5.858   0.870  0.2238 -0.5897 -0.5541
 5763TIP3    H138848   3.644   5.913   0.792 -1.0552  1.0740  0.5582
 5763TIP3    H238849   3.570   5.800   0.860 -0.8658  0.6573  0.0799
 5764TIP3   OH238850   4.090   2.112   7.125 -0.1043  0.2147 -0.4544
 5764TIP3    H138851   4.109   2.083   7.036  1.5206  0.0750 -0.0932
 5764TIP3    H238852   4.165   2.167   7.149 -0.6034  0.3867  0.7595
 5765TIP3   OH238853   4.601   4.536   7.456  0.1469  0.5771 -0.7316
 5765TIP3    H138854   4.636   4.505   7.373 -0.1513 -1.2387 -0.2069
 5765TIP3    H238855   4.656   4.611   7.479  1.1158  0.2334 -1.8749
 5766TIP3   OH238856   2.161   2.905   7.845 -0.1677 -0.3664  0.5149
 5766TIP3    H138857   2.221   2.976   7.866  1.4678 -1.3003 -0.8231
 5766TIP3    H238858   2.154   2.854   7.926  1.2709 -0.5374  0.5466
 5767TIP3   OH238859   1.367   3.462   0.770 -0.5131  0.3267  0.5753
 5767TIP3    H138860   1.344   3.426   0.684 -0.1319  0.2667  0.4956
 5767TIP3    H238861   1.428   3.398   0.807 -0.8477  0.2430  0.9841
 5768TIP3   OH238862   1.073   1.872   7.281 -0.4586  0.6213  0.1243
 5768TIP3    H138863   0.980   1.871   7.303 -0.2933 -0.6735  0.8278
 5768TIP3    H238864   1.090   1.784   7.246  0.0396  1.5226 -2.0913
 5769TIP3   OH238865   2.998   6.513   1.786  0.2129  0.1409 -0.2231
 5769TIP3    H138866   3.059   6.473   1.725  0.2215 -0.3661  0.1152
 5769TIP3    H238867   3.018   6.474   1.871 -1.2982 -0.8721 -0.2919
 5770TIP3   OH238868   5.202   0.061   2.353  0.4782  0.1402  0.3783
 5770TIP3    H138869   5.133   0.004   2.388 -0.3076  1.1655  0.5652
 5770TIP3    H238870   5.236   0.014   2.277 -0.4889 -0.3655  0.2373
 5771TIP3   OH238871   4.127   0.348   0.479 -0.2478 -0.3658  0.0016
 5771TIP3    H138872   4.116   0.265   0.527 -1.0786 -0.3092 -0.0768
 5771TIP3    H238873   4.170   0.406   0.541 -0.9174 -0.4318  0.5373
 5772TIP3   OH238874   5.813   6.620   1.472  0.1071  0.0040  0.1115
 5772TIP3    H138875   5.795   6.551   1.409  1.4451 -0.4334  0.1884
 5772TIP3    H238876   5.907   6.632   1.469  0.1235  0.4400  1.5443
 5773TIP3   OH238877   1.070   4.958   8.215  0.3286  0.5785  0.0158
 5773TIP3    H138878   1.014   4.907   8.273  0.5819  1.5924  1.1763
 5773TIP3    H238879   1.027   4.951   8.129 -0.7467  0.1126  0.5703
 5774TIP3   OH238880   2.452   2.517   0.396  0.3249  0.3214  0.0742
 5774TIP3    H138881   2.377   2.492   0.342 -0.6826  1.7216  0.7722
 5774TIP3    H238882   2.505   2.438   0.400 -1.2091 -0.7855 -0.2766
 5775TIP3   OH238883   3.724   2.772   8.451 -0.5370 -0.1554  0.6043
 5775TIP3    H138884   3.807   2.790   8.408 -1.4646  0.7485 -0.9256
 5775TIP3    H238885   3.689   2.858   8.474 -0.7320 -0.5548  1.9275
 5776TIP3   OH238886   4.828   3.653   7.435  0.1899 -0.2085 -0.0611
 5776TIP3    H138887   4.913   3.694   7.446  0.3459 -0.6678  0.5109
 5776TIP3    H238888   4.808   3.616   7.521 -0.5527 -0.1681 -0.2078
 5777TIP3   OH238889   3.077   0.063   0.340  0.5008 -0.0347  0.2590
 5777TIP3    H138890   3.163   0.063   0.298  1.4004  2.1074  1.8651
 5777TIP3    H238891   3.028   0.133   0.296  0.4915  0.4076  0.9489
 5778TIP3   OH238892   1.660   3.024   7.262 -0.0209 -0.4665  0.0276
 5778TIP3    H138893   1.730   3.047   7.324  0.1887  0.7584 -0.6364
 5778TIP3    H238894   1.581   3.021   7.315  0.3564 -0.7424  0.5883
 5779TIP3   OH238895   2.020   6.062   6.445  0.3640 -0.1121  0.0949
 5779TIP3    H138896   2.041   6.150   6.416 -0.1108  0.2732  0.8861
 5779TIP3    H238897   1.966   6.026   6.375  1.9905 -0.4373 -1.0681
 5780TIP3   OH238898   2.157   2.828   1.204 -0.0767  0.7476  0.0833
 5780TIP3    H138899   2.242   2.841   1.161  0.8351 -2.8140  0.5359
 5780TIP3    H238900   2.094   2.865   1.142  1.6043  1.0255 -1.5746
 5781TIP3   OH238901   1.055   1.707   1.287 -0.1838  0.3150 -0.3623
 5781TIP3    H138902   1.139   1.741   1.319 -0.2116  1.1831 -1.1567
 5781TIP3    H238903   1.077   1.663   1.205 -0.1904 -1.4207  0.5396
 5782TIP3   OH238904   6.688   2.812   1.485  1.0306  0.3902 -0.2040
 5782TIP3    H138905   6.666   2.735   1.537  0.4845  0.6743 -0.0188
 5782TIP3    H238906   6.615   2.872   1.497  0.1121 -0.1542 -2.5096
 5783TIP3   OH238907   2.111   0.677   1.053  0.1274  0.6693  0.6224
 5783TIP3    H138908   2.098   0.619   0.978 -0.7160  0.0942  1.1999
 5783TIP3    H238909   2.181   0.636   1.104  0.2762  0.7392  0.4772
 5784TIP3   OH238910   6.602   0.553   6.508  0.3908  0.8623 -0.2360
 5784TIP3    H138911   6.583   0.460   6.493 -4.8154  1.4996  0.4377
 5784TIP3    H238912   6.690   0.554   6.545  0.5335 -3.8154  0.1458
 5785TIP3   OH238913   2.247   6.519   8.382  0.1334  0.0250  0.1508
 5785TIP3    H138914   2.162   6.559   8.365  1.2593  1.7229 -1.9695
 5785TIP3    H238915   2.292   6.520   8.298  3.7334  2.9378  1.7721
 5786TIP3   OH238916   5.079   6.307   8.290  0.0362  0.0451  0.0120
 5786TIP3    H138917   5.035   6.369   8.231 -1.1726 -1.1256 -0.3755
 5786TIP3    H238918   5.038   6.222   8.270  0.2234 -0.5455  1.9155
 5787TIP3   OH238919   5.670   3.406   8.037  0.2389 -0.5148  0.1933
 5787TIP3    H138920   5.654   3.417   7.944  0.0673 -3.6663 -0.2730
 5787TIP3    H238921   5.605   3.461   8.080 -0.6154 -0.1035 -1.5757
 5788TIP3   OH238922   2.782   0.357   1.633 -0.6420 -0.4770 -0.0060
 5788TIP3    H138923   2.868   0.382   1.666 -1.3165 -0.3281  1.7707
 5788TIP3    H238924   2.741   0.439   1.607 -0.2769 -0.5439 -0.8161
 5789TIP3   OH238925   3.752   5.778   6.436  0.0712  0.2241  0.6120
 5789TIP3    H138926   3.683   5.717   6.409 -0.8087 -0.0741  3.2236
 5789TIP3    H238927   3.730   5.860   6.392  0.0092 -0.7362 -1.2241
 5790TIP3   OH238928   0.250   0.727   0.011 -0.2197  0.3934 -0.4254
 5790TIP3    H138929   0.177   0.667  -0.001 -0.4329  0.2754  1.2576
 5790TIP3    H238930   0.240   0.791  -0.060 -1.2716 -0.2883 -0.9188
 5791TIP3   OH238931   2.482   6.745   0.085  0.4172  0.6067  0.4797
 5791TIP3    H138932   2.449   6.835   0.081 -0.2167  0.3325 -1.1989
 5791TIP3    H238933   2.557   6.745   0.025  1.0591  0.2532  1.2686
 5792TIP3   OH238934   1.819   6.035   7.999 -0.3290  0.3127 -0.4647
 5792TIP3    H138935   1.838   6.077   7.915 -1.1863 -1.5720 -1.6708
 5792TIP3    H238936   1.730   6.063   8.020  0.0364  1.1149  0.0465
 5793TIP3   OH238937   1.575   2.636   1.529  0.4432 -0.8606 -0.2192
 5793TIP3    H138938   1.604   2.590   1.607  0.1005  0.4355  0.6963
 5793TIP3    H238939   1.483   2.609   1.518  0.3087 -0.5666  0.1805
 5794TIP3   OH238940   1.996   0.679   8.572  0.2740  0.0226  0.1081
 5794TIP3    H138941   2.018   0.638   8.655  0.2238 -0.0988  0.0615
 5794TIP3    H238942   2.044   0.762   8.573  0.1391  0.0994  0.3308
 5795TIP3   OH238943   5.472   0.128   7.537 -0.2573 -0.3871 -0.0773
 5795TIP3    H138944   5.433   0.044   7.512 -1.2194  0.0071  0.0592
 5795TIP3    H238945   5.402   0.174   7.584  0.8656 -0.3065  1.5988
 5796TIP3   OH238946   3.540   5.963   7.956 -0.4048 -0.1662 -0.2959
 5796TIP3    H138947   3.622   5.914   7.957 -1.4891 -2.1522 -1.5894
 5796TIP3    H238948   3.507   5.957   8.046 -0.1060 -1.1028 -0.2404
 5797TIP3   OH238949   0.661   5.906   0.075 -0.0709  0.1722 -0.0932
 5797TIP3    H138950   0.730   5.939   0.018  0.1534 -0.1882 -0.0405
 5797TIP3    H238951   0.704   5.894   0.160 -0.2977  0.3161  0.0433
 5798TIP3   OH238952   6.811   4.512   7.069  0.4305 -0.5047  0.1783
 5798TIP3    H138953   6.744   4.470   7.123  1.2673  0.4099  2.0110
 5798TIP3    H238954   6.762   4.580   7.021 -0.6264 -2.4255 -1.6029
 5799TIP3   OH238955   3.882   0.122   8.583 -0.2380  0.1424  0.2979
 5799TIP3    H138956   3.823   0.115   8.658 -0.3071  0.2639  0.2536
 5799TIP3    H238957   3.925   0.206   8.593 -2.2910  1.4733 -1.2933
 5800TIP3   OH238958   5.329   0.544   1.380 -0.4657  0.0670  0.2209
 5800TIP3    H138959   5.254   0.566   1.434 -0.4111 -1.4651  0.9861
 5800TIP3    H238960   5.302   0.467   1.331  0.0126  0.5433 -0.8205
 5801TIP3   OH238961   0.302   5.719   6.414 -0.1492  0.0850 -0.3147
 5801TIP3    H138962   0.342   5.796   6.374 -0.7443 -0.7911 -2.7810
 5801TIP3    H238963   0.216   5.749   6.443 -0.5318  0.3055 -1.6073
 5802TIP3   OH238964   1.832   0.777   1.674  0.1944  0.2049 -0.7595
 5802TIP3    H138965   1.926   0.764   1.688  0.4589  1.2090 -1.4733
 5802TIP3    H238966   1.824   0.793   1.580 -0.9417 -1.7323 -1.0319
 5803TIP3   OH238967   3.567   4.625   1.709  0.3058 -0.4561  1.2926
 5803TIP3    H138968   3.641   4.575   1.744 -0.9077 -2.8379  0.5874
 5803TIP3    H238969   3.489   4.577   1.737 -0.9992  1.4353  1.1514
 5804TIP3   OH238970   1.991   5.215   7.107  0.3995 -0.1410 -0.5263
 5804TIP3    H138971   2.070   5.220   7.052  0.4589 -0.8807 -0.5137
 5804TIP3    H238972   2.005   5.140   7.164 -0.3438 -0.3235 -0.5660
 5805TIP3   OH238973   6.457   2.243   2.149  0.3542 -0.0855 -0.1590
 5805TIP3    H138974   6.439   2.269   2.058  1.3371 -1.2246 -0.7062
 5805TIP3    H238975   6.371   2.224   2.186 -0.2122  1.8665 -0.3509
 5806TIP3   OH238976   4.721   4.117   6.340  0.5164 -0.8255 -0.0581
 5806TIP3    H138977   4.784   4.188   6.355 -0.0906 -0.4187  0.5912
 5806TIP3    H238978   4.772   4.050   6.294  0.9377  0.2796 -1.2802
 5807TIP3   OH238979   5.659   6.688   0.023  0.1499 -0.2671  0.4414
 5807TIP3    H138980   5.583   6.632   0.008 -0.2740  0.7262 -1.5743
 5807TIP3    H238981   5.734   6.629   0.024 -0.4384 -1.0336 -0.0398
 5808TIP3   OH238982   2.108   0.678   1.411  0.4815  0.3986  0.5088
 5808TIP3    H138983   2.013   0.687   1.406  0.4954  0.1346 -0.4624
 5808TIP3    H238984   2.129   0.697   1.502 -0.2432  2.8448  0.2417
 5809TIP3   OH238985   3.927   1.379   1.503  0.2754  0.3313 -0.7047
 5809TIP3    H138986   3.963   1.330   1.430  1.2745 -1.8390  1.1285
 5809TIP3    H238987   3.942   1.324   1.579  1.0113  3.2888  1.4901
 5810TIP3   OH238988   3.519   3.968   6.877 -0.1652 -0.3581  0.1163
 5810TIP3    H138989   3.511   3.984   6.783 -1.7381  1.9368  0.5715
 5810TIP3    H238990   3.583   4.032   6.908  0.7789 -1.4793  0.5634
 5811TIP3   OH238991   6.640   3.957   2.717 -0.2386 -0.0094  0.2322
 5811TIP3    H138992   6.626   3.936   2.809  1.2459 -1.2372  0.2227
 5811TIP3    H238993   6.715   3.903   2.692  0.5285  1.6403 -1.2154
 5812TIP3   OH238994   6.280   6.037   6.714 -0.3994  0.2523  0.0219
 5812TIP3    H138995   6.201   6.074   6.753 -0.9844 -0.9851  0.0303
 5812TIP3    H238996   6.326   6.113   6.678 -0.2219  1.3600  2.3643
 5813TIP3   OH238997   2.313   1.965   0.369  0.3070 -0.0415 -0.1490
 5813TIP3    H138998   2.317   1.872   0.390  4.7616  0.0611  0.4888
 5813TIP3    H238999   2.349   1.971   0.281  2.1717  1.1361  0.6267
 5814TIP3   OH239000   5.326   2.690   7.157  0.1069 -0.0926 -0.0856
 5814TIP3    H139001   5.405   2.657   7.201  0.7173  1.0644 -0.2905
 5814TIP3    H239002   5.351   2.697   7.065 -0.7019 -1.0876 -0.3955
 5815TIP3   OH239003   0.962   1.170   1.479  0.4791  0.6605  0.2347
 5815TIP3    H139004   0.924   1.187   1.566 -1.3604 -1.4678 -0.0449
 5815TIP3    H239005   0.930   1.242   1.424  1.9478  2.2268  1.3193
 5816TIP3   OH239006   5.217   0.265   2.052  1.0234  0.5750 -0.3050
 5816TIP3    H139007   5.130   0.226   2.046  1.0058  0.4171  0.7375
 5816TIP3    H239008   5.205   0.344   2.105  1.7452 -0.3137  1.2679
 5817TIP3   OH239009   0.305   4.741   1.343  0.1055 -0.3921  0.6364
 5817TIP3    H139010   0.266   4.694   1.269 -0.6695  0.1925  0.6580
 5817TIP3    H239011   0.245   4.815   1.358  0.2756 -0.4856  1.8260
 5818TIP3   OH239012   3.090   2.662   0.010  0.1878 -0.3709  0.4201
 5818TIP3    H139013   2.996   2.644   0.013  0.5834 -3.3523 -1.1128
 5818TIP3    H239014   3.119   2.651   0.101 -0.6619 -1.7123  0.5697
 5819TIP3   OH239015   3.367   5.836   0.509 -0.1753  0.1825 -1.0133
 5819TIP3    H139016   3.306   5.909   0.501 -0.8777 -0.5393 -2.6947
 5819TIP3    H239017   3.315   5.759   0.489  0.4455 -0.8747  1.1804
 5820TIP3   OH239018   4.117   6.496   2.226 -0.8356  0.1415  0.2113
 5820TIP3    H139019   4.147   6.557   2.293  0.8411 -0.6614  0.2385
 5820TIP3    H239020   4.077   6.552   2.159 -2.1418  0.9935  1.6426
 5821TIP3   OH239021   6.472   5.629   1.618  0.2012  0.0895  0.2164
 5821TIP3    H139022   6.406   5.586   1.563  0.6398 -0.5587  0.1821
 5821TIP3    H239023   6.546   5.644   1.558  2.4796 -4.5717  1.4352
 5822TIP3   OH239024   2.840   0.409   7.428 -0.0362 -0.1011  0.3071
 5822TIP3    H139025   2.799   0.385   7.346 -0.0076  4.2232 -1.2122
 5822TIP3    H239026   2.932   0.425   7.405  0.8168 -2.0494  2.0061
 5823TIP3   OH239027   4.926   3.106   0.893  0.9893 -0.3706 -0.6043
 5823TIP3    H139028   4.985   3.101   0.817  0.8355  0.0423 -0.7528
 5823TIP3    H239029   4.880   3.023   0.893 -0.3626  0.3229 -2.0672
 5824TIP3   OH239030   3.847   3.225   0.591 -0.2067  0.0083  0.5337
 5824TIP3    H139031   3.811   3.313   0.586 -0.8262 -0.2828 -0.3081
 5824TIP3    H239032   3.815   3.191   0.675 -0.7793  0.2420  0.4165
 5825TIP3   OH239033   4.144   5.309   0.308  0.1601  0.3607 -0.4343
 5825TIP3    H139034   4.198   5.235   0.334  0.0249 -0.1713 -1.6301
 5825TIP3    H239035   4.153   5.372   0.380 -0.1860 -1.0426  0.8931
 5826TIP3   OH239036   1.429   5.179   7.959  0.5316 -0.0742  0.2298
 5826TIP3    H139037   1.406   5.162   8.050  2.2841 -0.3180  0.6568
 5826TIP3    H239038   1.479   5.102   7.932  0.2271  0.0938 -0.8756
 5827TIP3   OH239039   5.490   5.196   0.119 -0.1552 -0.2714  0.3892
 5827TIP3    H139040   5.550   5.122   0.112 -1.5309 -1.2963 -1.3632
 5827TIP3    H239041   5.423   5.167   0.180 -0.1814 -0.0948  0.4449
 5828TIP3   OH239042   2.329   0.995   0.426  0.0777  0.0007 -0.2870
 5828TIP3    H139043   2.412   0.993   0.473  0.0086 -2.3102 -0.1122
 5828TIP3    H239044   2.271   0.939   0.477 -1.5100  1.2777 -0.6066
 5829TIP3   OH239045   5.540   3.988   8.020  0.0903 -0.6934  0.1164
 5829TIP3    H139046   5.520   4.014   8.110  0.5575  0.1780 -0.0182
 5829TIP3    H239047   5.551   3.893   8.024  1.2105 -0.5455  1.2147
 5830TIP3   OH239048   1.861   4.654   1.412 -0.3394  0.2589  0.6886
 5830TIP3    H139049   1.934   4.679   1.356 -0.3173  0.3683  0.7656
 5830TIP3    H239050   1.861   4.559   1.412 -0.2171  0.2595  0.6621
 5831TIP3   OH239051   1.844   4.586   1.728  0.1193  0.0061 -0.3847
 5831TIP3    H139052   1.918   4.641   1.754  0.3199 -0.8396  0.8836
 5831TIP3    H239053   1.862   4.500   1.766 -0.5758 -0.7542 -1.6694
 5832TIP3   OH239054   1.167   6.560   0.295 -0.0836 -0.1326 -0.1646
 5832TIP3    H139055   1.085   6.519   0.323 -0.5992  1.4479  0.7250
 5832TIP3    H239056   1.167   6.551   0.199 -3.0830  2.9318 -0.6263
 5833TIP3   OH239057   0.298   6.378   7.631 -0.5031  0.5435 -0.1010
 5833TIP3    H139058   0.289   6.375   7.536  0.1500  1.0213 -0.1838
 5833TIP3    H239059   0.272   6.467   7.654 -2.7852 -0.1806  0.4192
 5834TIP3   OH239060   1.452   2.923   6.914 -0.0457 -0.4606 -0.2902
 5834TIP3    H139061   1.391   2.966   6.974 -0.1228  1.4196 -1.6353
 5834TIP3    H239062   1.527   2.983   6.910 -0.2044 -0.3414 -2.3133
 5835TIP3   OH239063   3.906   4.153   0.723 -0.2951 -0.1795  0.3571
 5835TIP3    H139064   3.906   4.070   0.771 -1.3985 -0.4122 -0.0029
 5835TIP3    H239065   3.866   4.216   0.784 -3.3065 -0.8394 -0.7299
 5836TIP3   OH239066   3.307   2.704   1.558 -0.2039 -0.2719  0.7397
 5836TIP3    H139067   3.217   2.719   1.529  0.0648  1.2266  0.6316
 5836TIP3    H239068   3.302   2.708   1.654  0.0686  1.9696  0.6969
 5837TIP3   OH239069   2.772   2.781   0.850  0.3381  0.1533  0.0230
 5837TIP3    H139070   2.730   2.816   0.771  0.2906  0.2543  0.0927
 5837TIP3    H239071   2.804   2.859   0.896  0.0847  0.1158  0.2642
 5838TIP3   OH239072   5.207   1.759   7.780  0.2215  0.2170 -0.1380
 5838TIP3    H139073   5.259   1.838   7.765 -0.2007  0.4216 -0.5599
 5838TIP3    H239074   5.190   1.725   7.692 -0.6041  0.3217 -0.0313
 5839TIP3   OH239075   6.458   2.331   1.845  0.2209  0.2397 -0.0665
 5839TIP3    H139076   6.541   2.290   1.867  0.7748  1.0463 -0.5995
 5839TIP3    H239077   6.453   2.325   1.749  1.3651  3.2856 -0.4205
 5840TIP3   OH239078   5.776   5.759   7.469 -0.1036  0.3913 -0.0912
 5840TIP3    H139079   5.835   5.733   7.398 -1.0020 -2.0702 -0.0458
 5840TIP3    H239080   5.807   5.846   7.496  2.3601 -0.0435 -1.2398
 5841TIP3   OH239081   4.852   6.407   7.450 -0.4564 -0.5279 -0.9136
 5841TIP3    H139082   4.784   6.362   7.401 -2.2721  0.6595  0.3975
 5841TIP3    H239083   4.807   6.446   7.524  1.6836  0.2527  0.0723
 5842TIP3   OH239084   1.106   1.165   0.826  0.0538  0.2439  0.2941
 5842TIP3    H139085   1.094   1.073   0.851  0.8198 -0.1319 -0.6801
 5842TIP3    H239086   1.020   1.204   0.837 -0.2006 -0.5015  1.0682
 5843TIP3   OH239087   0.646   3.376   8.554 -0.1819 -0.2293  0.0973
 5843TIP3    H139088   0.670   3.430   8.478  0.1787  0.1654  0.4837
 5843TIP3    H239089   0.581   3.429   8.600 -0.9828 -0.8117 -0.3502
 5844TIP3   OH239090   5.196   3.574   6.778  0.3968 -0.2316 -0.1641
 5844TIP3    H139091   5.188   3.618   6.863  2.2908  1.2534 -0.6760
 5844TIP3    H239092   5.288   3.587   6.753  0.5704 -2.9156 -1.2484
 5845TIP3   OH239093   3.111   3.055   7.886  0.1154 -0.1626  0.0417
 5845TIP3    H139094   3.082   3.013   7.805 -1.0709 -0.0216  0.3723
 5845TIP3    H239095   3.171   3.124   7.858 -1.5356  0.9701 -0.8778
 5846TIP3   OH239096   4.523   5.910   0.175 -0.7223  0.0111  0.5997
 5846TIP3    H139097   4.473   5.950   0.246 -0.2307  1.9102 -0.0608
 5846TIP3    H239098   4.492   5.955   0.096  0.1190 -0.6898 -0.1497
 5847TIP3   OH239099   3.014   0.849   8.538 -0.2910 -0.2435  0.7226
 5847TIP3    H139100   2.952   0.825   8.469  1.4210 -0.1215 -0.9289
 5847TIP3    H239101   2.969   0.827   8.619 -2.6360  0.2233 -0.3850
 5848TIP3   OH239102   5.968   3.829   0.941 -0.1049  0.4471 -0.1530
 5848TIP3    H139103   5.946   3.915   0.977 -1.4507 -0.4510  1.3291
 5848TIP3    H239104   5.966   3.770   1.017 -2.6190 -1.4632 -1.5347
 5849TIP3   OH239105   3.818   3.546   8.258 -0.2463  0.1738 -0.3780
 5849TIP3    H139106   3.766   3.570   8.335 -1.0980  1.5306 -1.3349
 5849TIP3    H239107   3.905   3.524   8.294 -0.1851  2.1848  0.8543
 5850TIP3   OH239108   3.646   1.257   8.054 -0.0600  0.4480  0.4411
 5850TIP3    H139109   3.629   1.229   8.144 -0.6119 -0.5721  0.0383
 5850TIP3    H239110   3.653   1.176   8.004  0.6311  0.9888 -0.3802
 5851TIP3   OH239111   2.045   0.166   8.608  0.1878  0.2574  0.3915
 5851TIP3    H139112   2.003   0.251   8.595  0.2929  0.7432  2.7437
 5851TIP3    H239113   1.975   0.102   8.596 -0.1269  0.7286 -0.3599
 5852TIP3   OH239114   4.434   1.149   7.244  0.4222 -0.3528  0.1284
 5852TIP3    H139115   4.420   1.060   7.211 -2.7189  0.0188  0.1334
 5852TIP3    H239116   4.393   1.205   7.179  0.6545  0.9538  1.0698
 5853TIP3   OH239117   1.127   6.137   6.546  0.5152 -0.1407 -0.4354
 5853TIP3    H139118   1.096   6.057   6.586 -0.2902 -0.4882 -1.6890
 5853TIP3    H239119   1.143   6.196   6.620 -0.1809 -0.9909  0.4261
 5854TIP3   OH239120   4.248   1.601   8.554 -0.0381  0.7295  0.2764
 5854TIP3    H139121   4.163   1.644   8.549 -0.5296 -0.3614 -1.7910
 5854TIP3    H239122   4.298   1.637   8.480  0.5352 -0.1485  0.2170
 5855TIP3   OH239123   2.470   3.097   6.686 -0.0526 -0.3111  0.5495
 5855TIP3    H139124   2.470   3.160   6.614  1.8739 -0.4866  0.3472
 5855TIP3    H239125   2.427   3.143   6.758  2.3294  1.7607  0.7798
 5856TIP3   OH239126   5.745   3.496   6.506  0.4774  0.7251 -0.4427
 5856TIP3    H139127   5.782   3.556   6.440  0.8433  1.4713  0.4223
 5856TIP3    H239128   5.658   3.474   6.473  0.7164  0.9579 -1.2523
 5857TIP3   OH239129   2.815   5.452   8.332  0.1604 -0.4186  0.3015
 5857TIP3    H139130   2.720   5.446   8.323  0.3065 -0.6496 -1.3581
 5857TIP3    H239131   2.828   5.525   8.394 -1.0817  1.6675 -1.7265
 5858TIP3   OH239132   3.898   5.684   6.888  0.4298  0.0878  0.0700
 5858TIP3    H139133   3.917   5.680   6.982  0.4361  0.5742  0.0952
 5858TIP3    H239134   3.806   5.659   6.881  0.0631  1.2654  0.3566
 5859TIP3   OH239135   1.499   3.528   7.263  0.1045 -0.5408 -0.4136
 5859TIP3    H139136   1.542   3.505   7.345 -0.1959  0.2649 -0.0181
 5859TIP3    H239137   1.489   3.445   7.217 -0.4157 -1.1080  0.6978
 5860TIP3   OH239138   2.678   2.237   6.111 -0.1213 -0.6092  0.1931
 5860TIP3    H139139   2.726   2.298   6.168 -1.6768  0.3707  0.5014
 5860TIP3    H239140   2.745   2.203   6.051  1.2649 -0.5445  1.6390
 5861TIP3   OH239141   3.140   0.309   8.423 -0.2681  0.5618  0.0927
 5861TIP3    H139142   3.128   0.226   8.378 -1.0462  0.6390  0.1335
 5861TIP3    H239143   3.053   0.330   8.458  0.4097  0.2451  2.0875
 5862TIP3   OH239144   2.609   1.711   7.305 -0.3016  0.0747  0.2676
 5862TIP3    H139145   2.605   1.797   7.264  1.0022  0.1719  0.3070
 5862TIP3    H239146   2.697   1.706   7.342 -0.3619 -1.2706  0.2819
 5863TIP3   OH239147   6.046   5.584   6.188 -0.2964  0.0955 -0.2295
 5863TIP3    H139148   5.957   5.618   6.181 -0.0843  0.9548  1.0206
 5863TIP3    H239149   6.036   5.489   6.182 -1.2633  0.1981 -0.3717
 5864TIP3   OH239150   4.602   4.778   6.930 -0.4629 -0.3835 -0.4555
 5864TIP3    H139151   4.578   4.790   7.022  2.0839  1.8841  0.0572
 5864TIP3    H239152   4.697   4.763   6.932 -0.2191  0.4627 -2.7306
 5865TIP3   OH239153   3.945   0.444   1.688 -0.1090  0.3059  0.0994
 5865TIP3    H139154   3.918   0.478   1.774 -0.8844  0.4362 -0.1901
 5865TIP3    H239155   3.900   0.361   1.680  0.2864  0.0981 -0.0181
 5866TIP3   OH239156   4.966   3.227   0.382 -0.2192  0.1858  0.1822
 5866TIP3    H139157   4.904   3.300   0.392  1.4066  1.6499 -0.0386
 5866TIP3    H239158   4.999   3.235   0.293  0.4585 -0.4475  0.3640
 5867TIP3   OH239159   1.308   1.962   6.985 -0.1191 -0.0207  0.3236
 5867TIP3    H139160   1.229   2.013   7.002 -0.7486 -1.2673  1.3542
 5867TIP3    H239161   1.380   2.023   6.999 -0.8744  0.8289  0.5686
 5868TIP3   OH239162   3.309   4.496   0.030 -0.1264 -0.3320  0.1551
 5868TIP3    H139163   3.336   4.501  -0.062 -0.1224 -1.2367  0.0969
 5868TIP3    H239164   3.268   4.409   0.038 -2.0860  0.5636  0.4824
 5869TIP3   OH239165   3.864   1.820   0.992 -0.2870 -0.0427  0.5021
 5869TIP3    H139166   3.909   1.901   1.017 -0.1818 -0.3041  1.1770
 5869TIP3    H239167   3.830   1.785   1.074 -1.0749 -0.2462  0.0978
 5870TIP3   OH239168   0.424   1.116   1.607 -0.4775  0.6267 -0.4801
 5870TIP3    H139169   0.394   1.056   1.538  0.4917 -0.6425  0.1527
 5870TIP3    H239170   0.346   1.134   1.659 -0.4208 -1.9039  0.6275
 5871TIP3   OH239171   3.705   6.833   0.739 -0.2927  0.1161  0.1399
 5871TIP3    H139172   3.705   6.853   0.646  0.0972  1.4209  0.3926
 5871TIP3    H239173   3.687   6.739   0.744  1.5039 -0.3634 -1.3303
 5872TIP3   OH239174   5.825   4.235   7.289 -0.2793 -0.0038  0.5157
 5872TIP3    H139175   5.850   4.170   7.223  0.2033  0.6880 -0.0102
 5872TIP3    H239176   5.783   4.304   7.238 -1.8111 -0.4040  1.2038
 5873TIP3   OH239177   5.517   5.073   7.527  0.1519 -0.2902  0.3225
 5873TIP3    H139178   5.561   5.155   7.504 -2.7435  0.7430 -2.0725
 5873TIP3    H239179   5.542   5.013   7.457 -2.0573  0.3115 -1.0705
 5874TIP3   OH239180   1.538   5.376   1.139  0.3561  0.2875  0.2062
 5874TIP3    H139181   1.567   5.442   1.202  0.2826  1.5897 -1.0848
 5874TIP3    H239182   1.616   5.358   1.086  0.0724  0.1939 -0.1811
 5875TIP3   OH239183   4.487   4.330   8.152 -0.6335 -0.4544  0.0249
 5875TIP3    H139184   4.405   4.374   8.176 -0.0676  1.0423 -0.6610
 5875TIP3    H239185   4.523   4.383   8.080  0.3571 -1.7554 -0.4802
 5876TIP3   OH239186   2.163   4.219   0.566 -0.0794  0.0064 -0.0577
 5876TIP3    H139187   2.089   4.196   0.621 -0.3570 -1.1890 -0.9016
 5876TIP3    H239188   2.126   4.231   0.478  1.0434 -3.6876 -1.2106
 5877TIP3   OH239189   4.665   1.387   2.126  0.1228 -0.3123 -0.1024
 5877TIP3    H139190   4.727   1.456   2.147  0.8502  0.2375 -3.4543
 5877TIP3    H239191   4.590   1.403   2.183  1.6683  1.0781  1.6496
 5878TIP3   OH239192   4.748   4.782   7.533 -0.2963 -0.3554  0.0754
 5878TIP3    H139193   4.735   4.876   7.533 -2.2932 -0.5786 -0.4912
 5878TIP3    H239194   4.791   4.764   7.449  2.5213  0.2524  1.2826
 5879TIP3   OH239195   1.327   4.974   1.759  0.3196  0.2642 -0.3125
 5879TIP3    H139196   1.243   4.964   1.802  0.4996  1.6718  0.3962
 5879TIP3    H239197   1.388   4.922   1.812 -0.0780 -0.7466 -0.8218
 5880TIP3   OH239198   1.494   6.508   7.270 -0.1595  0.5561 -0.1775
 5880TIP3    H139199   1.569   6.461   7.235  0.2552  1.6626 -0.7958
 5880TIP3    H239200   1.513   6.517   7.363  0.9639  1.7152 -0.5059
 5881TIP3   OH239201   1.238   2.339   1.438  0.1628  0.4983 -0.1616
 5881TIP3    H139202   1.333   2.325   1.439 -0.1446 -1.8013  0.3643
 5881TIP3    H239203   1.223   2.390   1.358  1.9437  2.0221  0.3928
 5882TIP3   OH239204   1.149   3.431   2.145  0.1046 -0.8894 -0.5632
 5882TIP3    H139205   1.065   3.440   2.099  0.6241  2.6309 -1.1281
 5882TIP3    H239206   1.212   3.477   2.089  1.8847 -1.1784  1.1082
 5883TIP3   OH239207   3.515   4.417   7.552  0.1013 -0.6004 -0.2792
 5883TIP3    H139208   3.587   4.464   7.510  0.2816  0.9112  1.5387
 5883TIP3    H239209   3.436   4.447   7.508  0.3255  0.5425  0.0690
 5884TIP3   OH239210   6.338   5.663   0.941 -0.3885 -0.1038  0.0447
 5884TIP3    H139211   6.273   5.687   1.006  0.6113 -1.1400  1.4792
 5884TIP3    H239212   6.331   5.568   0.933  0.3611 -0.1318 -0.4365
 5885TIP3   OH239213   4.685   1.801   2.514  0.3078 -0.3844  0.7239
 5885TIP3    H139214   4.714   1.751   2.590  0.0765 -1.9053 -0.1554
 5885TIP3    H239215   4.593   1.777   2.502 -0.1811  1.2192  1.0139
 5886TIP3   OH239216   3.652   6.280   7.667  0.3650  0.3532  0.2952
 5886TIP3    H139217   3.622   6.264   7.756  0.8710  0.2351  0.4522
 5886TIP3    H239218   3.654   6.194   7.626  0.0418  0.4195  0.1410
 5887TIP3   OH239219   5.586   5.630   8.412  0.2359  0.1681 -0.2991
 5887TIP3    H139220   5.578   5.571   8.486  1.9646 -0.6701 -0.7339
 5887TIP3    H239221   5.571   5.717   8.449 -0.6403 -0.3763  0.6754
 5888TIP3   OH239222   5.174   1.220   1.049 -0.1856  0.3324  0.3617
 5888TIP3    H139223   5.171   1.141   1.103 -0.5229 -1.0356 -1.5604
 5888TIP3    H239224   5.092   1.265   1.068 -0.4928 -0.3466  0.6783
 5889TIP3   OH239225   0.584   6.789   8.560  0.4061 -0.1945 -0.1984
 5889TIP3    H139226   0.628   6.861   8.515 -0.0622 -0.6729 -1.4926
 5889TIP3    H239227   0.510   6.829   8.605  1.4423  0.4390  0.9746
 5890TIP3   OH239228   6.361   5.602   0.087  0.4047  0.1642  0.4664
 5890TIP3    H139229   6.397   5.687   0.064  0.9270  0.7552  3.1665
 5890TIP3    H239230   6.266   5.614   0.079  0.5216 -0.0939 -2.4043
 5891TIP3   OH239231   5.071   1.226   1.852 -0.3310  0.1909 -0.1000
 5891TIP3    H139232   5.007   1.261   1.790  0.1830 -0.1398 -0.8337
 5891TIP3    H239233   5.153   1.268   1.828 -0.3653  1.0495  1.2072
 5892TIP3   OH239234   6.082   1.775   7.005 -0.0555  0.0397 -0.6065
 5892TIP3    H139235   6.108   1.853   6.955  1.6219 -0.2265 -0.2135
 5892TIP3    H239236   6.103   1.702   6.947 -2.3431 -0.1584 -1.2909
 5893TIP3   OH239237   6.538   3.779   8.094 -0.7690  0.2943 -0.3049
 5893TIP3    H139238   6.448   3.749   8.095 -0.3882 -0.9347 -1.1339
 5893TIP3    H239239   6.543   3.837   8.018 -0.2257 -1.8541 -2.0103
 5894TIP3   OH239240   1.423   0.476   7.539 -0.0947  0.4723 -0.6535
 5894TIP3    H139241   1.402   0.565   7.512  1.9001  1.3804  0.5870
 5894TIP3    H239242   1.342   0.443   7.578 -1.3600  1.0923 -2.6184
 5895TIP3   OH239243   4.656   5.353   7.179  0.0457  0.4799 -0.1231
 5895TIP3    H139244   4.562   5.369   7.190  0.1439  1.0407 -0.1114
 5895TIP3    H239245   4.664   5.325   7.088 -0.2367 -0.3627  0.0989
 5896TIP3   OH239246   0.192   5.675   0.068  0.6221  0.0089 -0.0433
 5896TIP3    H139247   0.179   5.700   0.160  1.2018  0.6262 -0.1183
 5896TIP3    H239248   0.109   5.696   0.026  0.7999  1.0012  0.0771
 5897TIP3   OH239249   1.890   4.905   1.832 -0.0683  0.0547  0.3402
 5897TIP3    H139250   1.823   4.940   1.890 -0.7371  0.1223 -0.4598
 5897TIP3    H239251   1.940   4.844   1.887 -0.0642  0.8359  1.2440
 5898TIP3   OH239252   0.963   4.362   7.516  0.4646  0.3750 -0.4488
 5898TIP3    H139253   0.959   4.437   7.575 -2.7075 -0.4923  0.6439
 5898TIP3    H239254   0.967   4.286   7.574 -0.8253 -0.4333 -1.3734
 5899TIP3   OH239255   2.588   2.464   7.132  0.1074  0.3811 -0.1333
 5899TIP3    H139256   2.671   2.508   7.111 -0.5730  1.0061 -1.6741
 5899TIP3    H239257   2.608   2.371   7.125  0.3190  0.5380 -2.1219
 5900TIP3   OH239258   2.152   0.702   6.409  0.0049 -0.0635  0.1788
 5900TIP3    H139259   2.084   0.759   6.445 -0.1195 -0.7019  1.0106
 5900TIP3    H239260   2.175   0.741   6.325 -1.1880  0.3357  0.0097
 5901TIP3   OH239261   4.848   6.031   0.262  0.4748  0.8058  0.2198
 5901TIP3    H139262   4.795   5.964   0.306  1.2765  0.2769  0.3807
 5901TIP3    H239263   4.912   6.058   0.328 -0.6154  2.6461  0.5957
 5902TIP3   OH239264   4.585   3.144   0.302 -0.3321 -0.0627  0.0394
 5902TIP3    H139265   4.601   3.214   0.366 -0.5039 -0.2854  0.3258
 5902TIP3    H239266   4.549   3.189   0.226 -2.7123 -0.0955  1.0691
 5903TIP3   OH239267   4.112   4.902   6.156 -0.2730  0.2063 -0.5159
 5903TIP3    H139268   4.022   4.929   6.140 -1.0984 -0.4171  2.5339
 5903TIP3    H239269   4.132   4.934   6.244  1.7054 -1.5691 -0.2326
 5904TIP3   OH239270   1.025   4.949   6.182 -0.2097 -0.0501 -0.0077
 5904TIP3    H139271   1.118   4.933   6.196 -0.6800 -3.0398  0.2796
 5904TIP3    H239272   0.995   4.989   6.263  1.0692  2.5999 -0.7329
 5905TIP3   OH239273   3.834   0.529   0.784 -0.4178  0.1243  0.5297
 5905TIP3    H139274   3.774   0.456   0.776 -0.1237 -0.2053  1.2399
 5905TIP3    H239275   3.780   0.603   0.812 -0.7674  0.2640 -0.5059
 5906TIP3   OH239276   4.321   6.007   8.607  0.0297  0.4572 -0.4770
 5906TIP3    H139277   4.312   5.931   8.549  0.7187  2.2010 -3.0270
 5906TIP3    H239278   4.238   6.011   8.655  0.3367 -2.3957  0.4805
 5907TIP3   OH239279   6.614   3.206   2.043  0.1156  0.8784  0.4043
 5907TIP3    H139280   6.591   3.287   1.997 -0.8820  0.0964 -0.5332
 5907TIP3    H239281   6.559   3.139   2.001  0.7061 -0.2251  1.3623
 5908TIP3   OH239282   5.443   0.673   6.568  0.0281  0.1733 -0.4083
 5908TIP3    H139283   5.496   0.621   6.508  0.6008 -0.3468  0.5208
 5908TIP3    H239284   5.464   0.638   6.655 -0.2914  1.3278  0.1513
 5909TIP3   OH239285   1.815   0.171   7.977  0.3494  0.4533  0.3211
 5909TIP3    H139286   1.852   0.118   8.047  1.4082  0.9937  0.1896
 5909TIP3    H239287   1.866   0.148   7.900 -0.2541  0.4838 -0.0953
 5910TIP3   OH239288   5.678   6.058   8.579  0.2556  0.5027  0.2669
 5910TIP3    H139289   5.630   6.018   8.507  1.4619  1.1493 -0.9346
 5910TIP3    H239290   5.761   6.011   8.581 -0.2700 -0.4550  2.1781
 5911TIP3   OH239291   4.375   1.286   1.432  0.3568 -0.4604 -0.0030
 5911TIP3    H139292   4.437   1.344   1.388  1.2941 -2.5312 -1.6057
 5911TIP3    H239293   4.312   1.261   1.364 -0.1990 -1.0698  0.7175
 5912TIP3   OH239294   4.622   2.878   0.346 -0.0927 -0.1772 -0.8614
 5912TIP3    H139295   4.588   2.954   0.299  0.2382  0.5691  0.0698
 5912TIP3    H239296   4.716   2.894   0.352 -0.1505 -0.1890  0.1616
 5913TIP3   OH239297   6.647   2.615   7.614  0.3507 -0.5381  0.7845
 5913TIP3    H139298   6.617   2.651   7.697 -0.2265 -1.2837  0.9079
 5913TIP3    H239299   6.738   2.590   7.630  1.2304  2.1050  0.2887
 5914TIP3   OH239300   2.379   3.650   1.579  0.1211  0.2079 -0.1150
 5914TIP3    H139301   2.386   3.618   1.489 -0.4985 -2.5970  0.7170
 5914TIP3    H239302   2.287   3.639   1.602  0.1858  1.3010  0.7341
 5915TIP3   OH239303   3.089   3.709   7.063  0.0059  0.6049  0.1535
 5915TIP3    H139304   3.014   3.672   7.016  0.6336 -0.6592  0.1066
 5915TIP3    H239305   3.063   3.704   7.155  0.5411 -1.0874  0.2371
 5916TIP3   OH239306   1.191   1.878   1.759 -0.0777 -0.1096  0.1453
 5916TIP3    H139307   1.149   1.933   1.825  0.9689 -0.8342  1.4757
 5916TIP3    H239308   1.275   1.921   1.742  1.5682 -2.0619  2.5237
 5917TIP3   OH239309   2.255   0.063   2.064 -0.2861 -0.1783 -0.7477
 5917TIP3    H139310   2.304   0.083   1.984 -0.7718 -0.1996 -1.0516
 5917TIP3    H239311   2.314   0.008   2.115  1.8261  3.2084  0.8560
 5918TIP3   OH239312   0.703   5.910   8.304 -0.2759  0.1869 -0.6771
 5918TIP3    H139313   0.617   5.951   8.309 -1.5341 -2.3959  0.4690
 5918TIP3    H239314   0.686   5.818   8.287  1.9895 -1.1386  2.9872
 5919TIP3   OH239315   2.455   3.131   8.348  0.5728  0.1058  0.5173
 5919TIP3    H139316   2.464   3.085   8.265 -2.6260  0.3591 -0.0663
 5919TIP3    H239317   2.434   3.061   8.411  0.6452  0.1891  0.6338
 5920TIP3   OH239318   2.291   4.756   1.828 -0.9849  0.5742  0.5112
 5920TIP3    H139319   2.253   4.675   1.794 -1.5380  1.5089 -1.2127
 5920TIP3    H239320   2.361   4.778   1.766 -0.9095  1.4740  0.8979
 5921TIP3   OH239321   6.832   5.226   7.087 -0.5562  0.2244 -0.1348
 5921TIP3    H139322   6.888   5.291   7.043 -0.2977  0.8985  1.1407
 5921TIP3    H239323   6.865   5.224   7.177 -0.5187 -1.7515 -0.1610
 5922TIP3   OH239324   0.259   3.459   8.377 -0.4738  0.2343 -0.5685
 5922TIP3    H139325   0.231   3.367   8.374 -0.4153  0.2267 -2.2572
 5922TIP3    H239326   0.184   3.506   8.413 -0.3206 -0.5236  0.7735
 5923TIP3   OH239327   6.008   2.920   7.887 -0.5219  0.2432  0.4106
 5923TIP3    H139328   6.043   2.893   7.802 -1.2662 -1.1778  0.5254
 5923TIP3    H239329   6.013   2.841   7.941 -2.3632  0.4218  0.9104
 5924TIP3   OH239330   1.513   3.259   7.125  0.3016  0.3213  0.7488
 5924TIP3    H139331   1.547   3.204   7.055 -1.0359 -0.3509  0.5994
 5924TIP3    H239332   1.501   3.200   7.199 -1.0532  0.4075  0.6176
 5925TIP3   OH239333   2.108   2.580   8.625  0.6151 -0.2728  0.2717
 5925TIP3    H139334   2.056   2.628   8.689  1.3737  1.7196 -0.5410
 5925TIP3    H239335   2.073   2.608   8.540  0.7880 -1.5234 -0.2344
 5926TIP3   OH239336   3.145   4.308   1.374  0.1705  0.0264  0.0720
 5926TIP3    H139337   3.201   4.295   1.297 -1.2914 -0.7109 -0.9320
 5926TIP3    H239338   3.204   4.304   1.449  1.3618 -1.3809 -0.8969
 5927TIP3   OH239339   0.740   6.671   6.787  0.2841  0.0225  0.2015
 5927TIP3    H139340   0.753   6.621   6.867  1.1736  0.5535  0.4047
 5927TIP3    H239341   0.668   6.627   6.742 -1.5915  0.8304  2.1932
 5928TIP3   OH239342   3.080   0.641   6.211  0.6357 -0.5316  0.1997
 5928TIP3    H139343   3.137   0.606   6.142  0.3162 -1.0116  0.1774
 5928TIP3    H239344   3.019   0.570   6.230 -0.5856  0.3037 -0.4501
 5929TIP3   OH239345   0.434   0.851   2.040 -0.0115  0.1051  0.1102
 5929TIP3    H139346   0.383   0.805   2.106 -0.2809  1.1550  0.6611
 5929TIP3    H239347   0.507   0.793   2.022 -0.0579 -0.3140  1.1639
 5930TIP3   OH239348   1.794   1.997   8.017 -0.4661 -0.0911  0.3002
 5930TIP3    H139349   1.844   2.037   7.946  1.0875 -2.4497 -0.0804
 5930TIP3    H239350   1.730   1.941   7.974 -0.4948 -0.4165  0.7507
 5931TIP3   OH239351   6.704   1.631   6.332 -0.4048  1.1496  0.6059
 5931TIP3    H139352   6.747   1.716   6.322 -2.2536  1.8509 -2.8014
 5931TIP3    H239353   6.764   1.569   6.291 -0.6425  1.4374 -0.2031
 5932TIP3   OH239354   4.960   6.434   0.956  0.6192  0.3612  0.7798
 5932TIP3    H139355   5.052   6.419   0.978  0.4105 -2.1611  0.2533
 5932TIP3    H239356   4.959   6.523   0.920  3.0696  0.0790 -0.2493
 5933TIP3   OH239357   0.948   4.022   0.675 -0.2259  0.4132  0.3858
 5933TIP3    H139358   0.914   3.968   0.746  2.6290 -1.3162  0.5745
 5933TIP3    H239359   0.878   4.085   0.658 -2.9025 -1.9931  1.5656
 5934TIP3   OH239360   3.325   1.815   0.416 -0.4198 -0.6091  0.0462
 5934TIP3    H139361   3.410   1.854   0.434  0.0572 -1.7187  0.3344
 5934TIP3    H239362   3.345   1.724   0.393 -1.5658 -1.1288  0.9581
 5935TIP3   OH239363   0.816   0.370   8.631 -0.4707 -0.2672 -0.2087
 5935TIP3    H139364   0.841   0.432   8.700 -1.5942 -2.9889  2.9535
 5935TIP3    H239365   0.896   0.322   8.612  0.2354  1.5207 -2.1656
 5936TIP3   OH239366   2.463   4.143   0.033  0.0266 -0.3626 -0.0276
 5936TIP3    H139367   2.410   4.065   0.049 -0.3140  0.2545  2.2998
 5936TIP3    H239368   2.399   4.215   0.030  0.3903 -0.0787 -1.5206
 5937TIP3   OH239369   3.465   4.479   1.392  0.2659 -0.3390 -0.6903
 5937TIP3    H139370   3.485   4.385   1.403 -0.0600 -0.2509  0.9075
 5937TIP3    H239371   3.551   4.520   1.385  0.5198 -0.5628  0.6864
 5938TIP3   OH239372   0.909   3.235   0.307 -0.0508 -0.5669  0.9769
 5938TIP3    H139373   0.891   3.300   0.238  0.5739  0.4496  1.7513
 5938TIP3    H239374   0.825   3.190   0.318  0.2318 -1.9519 -1.6310
 5939TIP3   OH239375   0.006   2.435   7.567  0.2212  0.0435 -0.8216
 5939TIP3    H139376   0.066   2.362   7.581  2.2266  1.5972 -0.9427
 5939TIP3    H239377  -0.080   2.393   7.555  1.6035 -2.4355 -3.0791
 5940TIP3   OH239378   5.660   3.162   0.750 -0.1392  0.4475 -0.6767
 5940TIP3    H139379   5.739   3.215   0.748  2.5849 -3.0971  1.0644
 5940TIP3    H239380   5.626   3.166   0.661  1.8083  2.3417 -1.4255
 5941TIP3   OH239381   1.998   6.231   1.637  0.1034 -0.6457  0.2258
 5941TIP3    H139382   2.021   6.234   1.730  0.3952  0.4112  0.1257
 5941TIP3    H239383   1.921   6.175   1.633  1.6336 -2.9445  0.7741
 5942TIP3   OH239384   3.667   6.523   0.446  0.2701 -0.4202 -0.0322
 5942TIP3    H139385   3.762   6.517   0.455  0.1997 -1.8979  0.1218
 5942TIP3    H239386   3.643   6.445   0.395 -0.6618  1.0378 -1.9565
 5943TIP3   OH239387   2.046   2.928   6.533  0.2887 -0.5226  0.8274
 5943TIP3    H139388   2.101   2.870   6.479 -0.2803 -0.7725  0.5022
 5943TIP3    H239389   1.971   2.873   6.557 -0.9223  0.4224 -0.5632
 5944TIP3   OH239390   5.340   3.986   1.210 -0.2162 -0.3936 -0.7988
 5944TIP3    H139391   5.308   4.047   1.143  0.1226 -1.8334 -2.3255
 5944TIP3    H239392   5.430   4.014   1.226 -0.6099  0.5744 -0.1775
 5945TIP3   OH239393   5.147   1.043   6.922 -0.1881  0.0448  0.2120
 5945TIP3    H139394   5.218   1.108   6.918  2.1484 -2.1182  2.5134
 5945TIP3    H239395   5.183   0.967   6.877 -0.1437 -1.7461  3.0559
 5946TIP3   OH239396   6.629   2.384   0.344 -0.2463 -0.1824 -0.3779
 5946TIP3    H139397   6.565   2.446   0.379 -0.9673 -2.1111  1.9462
 5946TIP3    H239398   6.577   2.312   0.310  0.6342 -1.1687  0.3071
 5947TIP3   OH239399   4.393   5.606   6.677 -0.1595  0.0922 -0.2688
 5947TIP3    H139400   4.408   5.687   6.627  1.3088 -0.5700 -0.9401
 5947TIP3    H239401   4.301   5.612   6.704  0.2548  2.6767  0.9573
 5948TIP3   OH239402   1.466   2.602   7.571  0.1141 -0.0310 -0.3232
 5948TIP3    H139403   1.534   2.612   7.504 -1.1482  0.6023 -1.5535
 5948TIP3    H239404   1.426   2.517   7.551  0.5307 -0.4169  0.4204
 5949TIP3   OH239405   0.630   4.257   1.716 -0.3115 -0.2704 -0.5617
 5949TIP3    H139406   0.626   4.285   1.807 -0.4449 -0.9713 -0.3521
 5949TIP3    H239407   0.611   4.336   1.666 -1.4743 -0.1570  0.0444
 5950TIP3   OH239408   1.969   2.771   1.388 -0.3429  0.2953 -0.3753
 5950TIP3    H139409   2.046   2.795   1.336  0.7211 -0.4549  0.8199
 5950TIP3    H239410   1.977   2.824   1.468 -1.2011  0.3829 -0.3420
 5951TIP3   OH239411   4.891   0.910   6.893  0.0573  0.0791 -0.5701
 5951TIP3    H139412   4.975   0.950   6.870  0.8293 -0.5769  0.9595
 5951TIP3    H239413   4.864   0.863   6.814  2.1204 -1.3000 -0.5372
 5952TIP3   OH239414   1.117   0.572   1.822 -0.2586 -0.0971 -0.4376
 5952TIP3    H139415   1.111   0.483   1.856 -0.4132 -0.4002 -1.2289
 5952TIP3    H239416   1.080   0.566   1.734  1.8440  0.2354 -1.4158
 5953TIP3   OH239417   3.066   3.782   1.694  0.2451  0.9532  0.1116
 5953TIP3    H139418   3.097   3.783   1.603 -2.0963  1.0693 -0.7641
 5953TIP3    H239419   2.993   3.844   1.695 -0.9513 -0.4030  1.6230
 5954TIP3   OH239420   3.233   5.572   8.617  0.4352  0.3768  0.0440
 5954TIP3    H139421   3.229   5.529   8.703 -0.6956 -1.0408 -0.6694
 5954TIP3    H239422   3.315   5.620   8.618  0.5852  0.1605  1.8143
 5955TIP3   OH239423   4.706   3.514   0.919  0.0200 -0.2943  0.1463
 5955TIP3    H139424   4.751   3.489   0.838  0.9642  1.8351 -0.0584
 5955TIP3    H239425   4.771   3.562   0.969 -1.4354  1.1659  0.7372
 5956TIP3   OH239426   4.146   0.210   6.893 -0.7459  0.3162  0.5528
 5956TIP3    H139427   4.235   0.228   6.925 -0.6183 -0.3607  0.5902
 5956TIP3    H239428   4.141   0.255   6.809 -1.1699  2.3528  1.6139
 5957TIP3   OH239429   6.431   2.964   1.201 -0.4672  0.4920  0.4427
 5957TIP3    H139430   6.368   3.031   1.175 -0.6457  0.0599 -0.2799
 5957TIP3    H239431   6.383   2.906   1.260 -0.7731  0.1463 -0.1317
 5958TIP3   OH239432   6.437   3.491   2.265 -0.2970 -0.3717 -0.3573
 5958TIP3    H139433   6.524   3.516   2.296 -0.3809 -0.9846  0.3799
 5958TIP3    H239434   6.379   3.510   2.339 -0.8039  0.0612 -0.8558
 5959TIP3   OH239435   5.539   2.517   1.061 -0.6676  0.5789 -0.2544
 5959TIP3    H139436   5.486   2.446   1.024 -0.8866  0.5575  0.0888
 5959TIP3    H239437   5.542   2.584   0.992 -0.8745  0.4446 -0.3943
 5960TIP3   OH239438   4.585   1.618   1.629 -0.1896 -0.1879  0.0219
 5960TIP3    H139439   4.641   1.552   1.669 -0.9869 -0.4176  0.7881
 5960TIP3    H239440   4.629   1.639   1.546  0.9114 -0.4948  0.5060
 5961TIP3   OH239441   2.930   1.528   7.853  0.2526  0.1061 -0.3508
 5961TIP3    H139442   2.899   1.454   7.905  0.0089 -0.5386 -1.3723
 5961TIP3    H239443   3.005   1.494   7.804 -0.1977  0.3509 -1.2484
 5962TIP3   OH239444   2.629   2.484   7.421  0.0485  0.4672  0.5937
 5962TIP3    H139445   2.543   2.522   7.442  0.2858  1.4825 -0.1972
 5962TIP3    H239446   2.636   2.493   7.326  0.3721 -1.0738  0.4368
 5963TIP3   OH239447   1.878   1.593   5.874  0.2512 -0.1796  0.0689
 5963TIP3    H139448   1.970   1.569   5.887 -0.1876 -2.0141  0.0890
 5963TIP3    H239449   1.869   1.677   5.919  1.9263  0.0650  0.0164
 5964TIP3   OH239450   0.910   2.879   1.096 -0.0562 -0.1900 -0.7240
 5964TIP3    H139451   0.835   2.907   1.148  0.8832  1.4312 -0.1229
 5964TIP3    H239452   0.905   2.933   1.016  1.2994  1.1714  0.0477
 5965TIP3   OH239453   1.008   6.325   0.642 -0.1303  0.2503 -0.4691
 5965TIP3    H139454   1.073   6.274   0.594 -1.0782 -0.1334 -1.3938
 5965TIP3    H239455   0.955   6.366   0.574 -2.5806 -1.6565  0.1299
 5966TIP3   OH239456   5.761   1.415   0.249 -0.1241  0.4945 -0.0592
 5966TIP3    H139457   5.673   1.455   0.248  0.3183  1.5052  0.0026
 5966TIP3    H239458   5.785   1.415   0.341  0.2069  0.8266 -0.1450
 5967TIP3   OH239459   5.892   6.537   8.617  0.2825  0.4968  0.1429
 5967TIP3    H139460   5.941   6.505   8.542 -1.2488 -1.1560 -0.2241
 5967TIP3    H239461   5.957   6.584   8.670  2.0635 -0.8835 -0.7085
 5968TIP3   OH239462   2.441   0.765   7.161  0.1876  0.0660  0.1359
 5968TIP3    H139463   2.435   0.804   7.248  2.3998  1.0465 -0.0684
 5968TIP3    H239464   2.426   0.838   7.101  1.6701  0.0853 -0.2541
 5969TIP3   OH239465   3.458   6.639   7.395  0.0709 -0.1465  0.0603
 5969TIP3    H139466   3.364   6.631   7.408  0.3903 -1.2990  2.1873
 5969TIP3    H239467   3.475   6.599   7.310 -1.1639 -1.6364  0.4818
 5970TIP3   OH239468   6.397   4.429   1.710  0.3171  0.3622 -0.3552
 5970TIP3    H139469   6.467   4.451   1.647 -1.4627  0.5804 -2.3722
 5970TIP3    H239470   6.418   4.341   1.740  0.7225 -0.1429 -2.0343
 5971TIP3   OH239471   2.538   0.456   6.948 -0.3968  0.1595  0.6396
 5971TIP3    H139472   2.449   0.447   6.983 -0.0615 -0.1829  1.4409
 5971TIP3    H239473   2.534   0.417   6.861 -1.3225  1.2877  0.1571
 5972TIP3   OH239474   1.802   0.382   0.564 -1.0004 -0.3489 -0.2324
 5972TIP3    H139475   1.848   0.389   0.647  2.6369  0.3817 -2.1430
 5972TIP3    H239476   1.784   0.288   0.555 -1.2815 -0.4621  1.2394
 5973TIP3   OH239477   3.602   5.629   1.523  0.2598  0.1689  0.4444
 5973TIP3    H139478   3.615   5.600   1.432  0.8214 -0.5141  0.7304
 5973TIP3    H239479   3.569   5.551   1.568 -0.2396  0.5708  0.7803
 5974TIP3   OH239480   0.033   5.879   0.805 -0.1536  0.5183  0.3822
 5974TIP3    H139481  -0.062   5.870   0.796 -0.0333 -0.8310  0.1967
 5974TIP3    H239482   0.055   5.821   0.878  0.5555  0.5922  0.2314
 5975TIP3   OH239483   4.415   1.686   0.308 -0.4412  0.2808  0.2714
 5975TIP3    H139484   4.439   1.685   0.215 -1.1356  2.2374  0.0270
 5975TIP3    H239485   4.368   1.604   0.321  2.0816 -1.3995 -0.3821
 5976TIP3   OH239486   6.603   6.766   1.389  0.3044  0.2421  0.3171
 5976TIP3    H139487   6.557   6.725   1.316  0.6954  0.5227 -0.0978
 5976TIP3    H239488   6.535   6.813   1.437 -0.4142 -1.9794  1.6183
 5977TIP3   OH239489   4.815   6.080   7.942  0.2769 -0.7686 -0.5002
 5977TIP3    H139490   4.765   6.160   7.961 -1.3680 -1.2299 -2.4618
 5977TIP3    H239491   4.782   6.051   7.857  0.3001 -3.9338  0.4397
 5978TIP3   OH239492   5.745   4.494   8.011 -0.1383 -0.0908  0.5047
 5978TIP3    H139493   5.781   4.406   8.000 -1.3451 -0.3501 -2.3292
 5978TIP3    H239494   5.818   4.552   7.990  0.5700 -0.3835  2.0530
 5979TIP3   OH239495   2.672   3.101   7.713  0.0155 -0.2897  0.0753
 5979TIP3    H139496   2.704   3.171   7.656  0.0380 -0.0698  0.3558
 5979TIP3    H239497   2.694   3.130   7.802  1.1835 -1.2527  0.1228
 5980TIP3   OH239498   5.260   2.241   8.583  0.0061  0.6381  0.0685
 5980TIP3    H139499   5.331   2.188   8.618  2.9829  2.7514 -2.3016
 5980TIP3    H239500   5.229   2.193   8.506  1.1535  1.2064 -0.7696
 5981TIP3   OH239501   6.104   1.930   1.004 -0.6755 -0.2341  0.5447
 5981TIP3    H139502   6.192   1.922   1.042 -0.3273  1.6273  0.2328
 5981TIP3    H239503   6.080   2.021   1.019 -2.3672 -0.5849  0.1757
 5982TIP3   OH239504   5.523   6.529   8.246 -0.0818  0.2112 -0.1362
 5982TIP3    H139505   5.564   6.613   8.267 -1.0384  0.3887  1.1451
 5982TIP3    H239506   5.556   6.469   8.313 -1.0130  0.0857  0.2277
 5983TIP3   OH239507   4.298   0.596   0.871 -0.2372 -0.2793 -0.1001
 5983TIP3    H139508   4.367   0.530   0.869  0.7966  0.7675 -2.7328
 5983TIP3    H239509   4.322   0.653   0.944  1.6725  0.0132 -0.9079
 5984TIP3   OH239510   5.442   6.772   1.587 -0.1630 -0.1493 -0.5280
 5984TIP3    H139511   5.452   6.839   1.655  1.1393 -0.2833 -0.5549
 5984TIP3    H239512   5.360   6.727   1.609  0.9951 -1.2718  1.9615
 5985TIP3   OH239513   3.427   3.372   0.602  0.2981  0.4851 -0.1927
 5985TIP3    H139514   3.387   3.335   0.524  0.2413  0.6718 -0.2526
 5985TIP3    H239515   3.375   3.339   0.675  0.0515  0.7040 -0.2681
 5986TIP3   OH239516   1.797   1.265   8.423  0.2038  0.1263  0.3553
 5986TIP3    H139517   1.880   1.309   8.443  1.3749 -1.4963 -0.7132
 5986TIP3    H239518   1.749   1.329   8.371 -0.0586  1.7994  2.5022
 5987TIP3   OH239519   6.362   2.482   6.674  0.0650  0.2338  0.3985
 5987TIP3    H139520   6.440   2.484   6.729 -0.2450 -0.3293  0.8701
 5987TIP3    H239521   6.333   2.574   6.671 -0.2753  0.1909  1.7041
 5988TIP3   OH239522   4.777   6.600   1.624  0.2131 -0.2478  0.2167
 5988TIP3    H139523   4.708   6.657   1.658 -0.9154  0.1071 -2.3811
 5988TIP3    H239524   4.858   6.647   1.641 -0.1136 -0.6274  3.2587
 5989TIP3   OH239525   3.717   4.634   0.771  0.0716  0.0263 -0.7353
 5989TIP3    H139526   3.653   4.654   0.702 -0.3044  0.0158 -0.3938
 5989TIP3    H239527   3.667   4.584   0.835  0.5533 -0.4197 -0.7061
 5990TIP3   OH239528   1.187   6.632   0.804  0.1468  0.0748 -0.1752
 5990TIP3    H139529   1.112   6.686   0.830  0.9943  1.1230  0.1772
 5990TIP3    H239530   1.211   6.665   0.717 -2.0484 -2.7421 -2.0725
 5991TIP3   OH239531   0.867   1.460   5.930  0.3554 -0.2166  0.3666
 5991TIP3    H139532   0.955   1.468   5.967 -0.0243 -1.3376  1.6050
 5991TIP3    H239533   0.852   1.366   5.924 -0.5882 -0.0404 -0.2729
 5992TIP3   OH239534   3.191   0.848   6.892  0.9934  0.2038  0.2638
 5992TIP3    H139535   3.179   0.778   6.828  0.3907  0.5553 -0.0161
 5992TIP3    H239536   3.116   0.906   6.879  1.3845  0.8042  0.6146
 5993TIP3   OH239537   5.474   0.357   0.184 -0.0119 -0.4489 -0.0350
 5993TIP3    H139538   5.392   0.356   0.233 -0.3331  2.7664 -0.2379
 5993TIP3    H239539   5.448   0.348   0.092  0.0826 -1.3987  0.0252
 5994TIP3   OH239540   1.249   2.630   1.491 -0.4380 -0.0421 -0.1771
 5994TIP3    H139541   1.169   2.584   1.517 -1.4333 -0.1992 -3.2143
 5994TIP3    H239542   1.218   2.715   1.460  0.6177  0.0619 -0.9862
 5995TIP3   OH239543   1.561   6.132   7.969 -0.1778  0.4784  0.0776
 5995TIP3    H139544   1.493   6.183   8.013  1.0316  2.0028  0.2641
 5995TIP3    H239545   1.593   6.189   7.899  0.5586 -0.4104 -0.3364
 5996TIP3   OH239546   6.289   2.792   0.479 -0.2118 -0.2733 -0.1949
 5996TIP3    H139547   6.225   2.767   0.545  0.2147 -2.5642 -0.5378
 5996TIP3    H239548   6.357   2.839   0.528 -0.8366 -0.2180  0.6452
 5997TIP3   OH239549   4.398   3.893   0.359  0.2272 -0.3220 -0.8836
 5997TIP3    H139550   4.341   3.908   0.434  0.7411 -0.3112 -0.4955
 5997TIP3    H239551   4.388   3.972   0.305  0.4733  0.0186 -0.4309
 5998TIP3   OH239552   2.360   1.407   0.557  0.3211  0.1031 -0.1648
 5998TIP3    H139553   2.326   1.331   0.509  1.8840 -0.2459 -0.7607
 5998TIP3    H239554   2.424   1.447   0.498  1.2166  0.5268  1.0412
 5999TIP3   OH239555   1.038   1.715   8.150  0.0785 -0.2145  0.1825
 5999TIP3    H139556   1.106   1.651   8.127 -0.0623  0.0298 -0.9688
 5999TIP3    H239557   1.079   1.770   8.217  0.4315 -1.0942  0.7038
 6000TIP3   OH239558   0.503   3.548   7.413 -0.5526 -0.1161  0.7337
 6000TIP3    H139559   0.427   3.607   7.415 -0.0727  0.5636 -0.1028
 6000TIP3    H239560   0.511   3.522   7.322  0.6221  0.3838  0.6679
 6001TIP3   OH239561   4.441   5.177   8.220  0.0231  0.3688 -0.4174
 6001TIP3    H139562   4.462   5.132   8.303 -1.0331 -0.4792 -0.5789
 6001TIP3    H239563   4.507   5.145   8.158  1.6210  1.9878  0.3659
 6002TIP3   OH239564   6.571   3.940   2.184  0.6930  0.3103 -0.2130
 6002TIP3    H139565   6.500   4.002   2.202  0.0327  0.0910 -1.8937
 6002TIP3    H239566   6.599   3.961   2.096  0.3907 -1.8219 -0.8794
 6003TIP3   OH239567   5.707   4.107   0.080 -0.0585 -0.1845  0.0352
 6003TIP3    H139568   5.617   4.076   0.092 -0.5224  1.5819  1.6108
 6003TIP3    H239569   5.704   4.158  -0.001 -0.7230  0.6366  0.5638
 6004TIP3   OH239570   3.414   3.400   8.232  0.4837  0.7293 -0.2620
 6004TIP3    H139571   3.378   3.410   8.143  0.7562  0.9103 -0.3552
 6004TIP3    H239572   3.450   3.312   8.234  0.5875  0.7682 -0.3744
 6005TIP3   OH239573   1.346   5.741   6.199  0.0051  0.3823 -0.1486
 6005TIP3    H139574   1.266   5.690   6.200  1.0176 -1.3033  1.3170
 6005TIP3    H239575   1.347   5.788   6.283  1.2587 -0.8725  0.5839
 6006TIP3   OH239576   2.287   5.745   1.519 -0.2755 -0.1133  0.3639
 6006TIP3    H139577   2.263   5.653   1.517  1.0328 -0.5035  1.4558
 6006TIP3    H239578   2.320   5.764   1.431 -1.2280 -0.4650 -0.0865
 6007TIP3   OH239579   1.690   3.885   7.237 -0.6164 -0.1070 -0.6450
 6007TIP3    H139580   1.741   3.876   7.318 -0.0217 -2.1970 -1.1829
 6007TIP3    H239581   1.730   3.959   7.192 -1.0374  1.1808  0.9794
 6008TIP3   OH239582   5.829   4.942   1.712  0.6247  0.3768  0.5696
 6008TIP3    H139583   5.901   4.958   1.773  2.2957 -0.1946 -1.1516
 6008TIP3    H239584   5.830   5.018   1.653  0.4162 -0.0649 -0.0103
 6009TIP3   OH239585   4.181   3.173   0.308 -0.5083 -0.6688  0.1887
 6009TIP3    H139586   4.250   3.118   0.271 -0.5827 -0.0739 -0.8631
 6009TIP3    H239587   4.144   3.121   0.379 -1.2305 -2.3908 -1.3779
 6010TIP3   OH239588   5.878   6.741   0.808  0.0464  0.8236 -0.1886
 6010TIP3    H139589   5.892   6.811   0.744 -0.0754  0.8407 -0.1958
 6010TIP3    H239590   5.962   6.734   0.854  0.9944 -0.9419 -2.0453
 6011TIP3   OH239591   0.634   1.648   7.228 -0.2399 -0.1270 -1.1083
 6011TIP3    H139592   0.630   1.711   7.301 -0.4640 -1.5074  0.1252
 6011TIP3    H239593   0.547   1.608   7.226  0.6234 -2.2619 -0.0807
 6012TIP3   OH239594   0.546   1.635   1.610 -0.3436 -0.0000 -0.0266
 6012TIP3    H139595   0.566   1.550   1.648  0.8999  0.3463  0.1416
 6012TIP3    H239596   0.450   1.637   1.604 -0.6845  0.1113  3.4584
 6013TIP3   OH239597   5.027   5.684   0.927  0.4748  0.2890  0.4872
 6013TIP3    H139598   5.094   5.706   0.992  1.3396 -1.5253  0.2922
 6013TIP3    H239599   5.076   5.655   0.850 -0.5278 -0.1535 -0.0094
 6014TIP3   OH239600   0.195   4.051   8.153  0.0119 -0.0894 -0.0853
 6014TIP3    H139601   0.113   4.046   8.202  0.4632  1.4719  0.9214
 6014TIP3    H239602   0.240   4.128   8.189  0.5441  0.9398 -2.7045
 6015TIP3   OH239603   6.418   5.308   1.763  0.2009 -0.7167 -0.4867
 6015TIP3    H139604   6.447   5.333   1.850  0.7506 -1.3623 -0.4702
 6015TIP3    H239605   6.322   5.302   1.769  0.1628  0.1317 -0.1825
 6016TIP3   OH239606   0.916   4.940   0.260 -0.1083  0.6478  0.3083
 6016TIP3    H139607   0.915   4.973   0.170 -0.2796 -0.8591 -0.2811
 6016TIP3    H239608   0.934   5.016   0.314 -3.4501  2.3543 -0.6881
 6017TIP3   OH239609   0.351   6.252   6.820 -0.5184  0.3927 -0.6234
 6017TIP3    H139610   0.375   6.186   6.754 -0.1776  0.8851 -0.9998
 6017TIP3    H239611   0.290   6.206   6.878 -1.3348  0.1265 -1.6499
 6018TIP3   OH239612   3.557   5.157   7.316 -0.1024 -0.4014  0.4642
 6018TIP3    H139613   3.496   5.117   7.254 -0.0492  0.3097 -0.0535
 6018TIP3    H239614   3.641   5.117   7.295  0.0705  0.3858 -0.4627
 6019TIP3   OH239615   0.857   6.053   8.594 -0.1211 -0.1633  0.5015
 6019TIP3    H139616   0.809   6.121   8.547 -0.2281  1.6517  3.0591
 6019TIP3    H239617   0.941   6.094   8.616  0.5791 -1.5411  0.5073
 6020TIP3   OH239618   3.709   5.536   0.272 -0.0032 -0.3040 -0.5695
 6020TIP3    H139619   3.715   5.444   0.299  1.0834  0.1885  0.9954
 6020TIP3    H239620   3.615   5.555   0.272 -0.1591 -1.0156  0.5881
 6021TIP3   OH239621   5.478   5.802   1.129 -0.3703 -0.2349 -0.5227
 6021TIP3    H139622   5.474   5.850   1.212  2.5368  0.3929 -0.6140
 6021TIP3    H239623   5.406   5.838   1.077  0.0956  2.2174  0.3732
 6022TIP3   OH239624   5.324   1.017   7.509 -0.2522  0.1202 -0.6604
 6022TIP3    H139625   5.287   1.012   7.421  2.4153 -0.8552 -1.8406
 6022TIP3    H239626   5.407   1.063   7.497  0.1148  0.0831  1.3961
 6023TIP3   OH239627   0.121   2.555   2.789 -0.2117 -0.1553  0.3488
 6023TIP3    H139628   0.080   2.481   2.745 -1.0856  0.4839  0.0411
 6023TIP3    H239629   0.069   2.568   2.868 -1.0481  1.0444 -0.3522
 6024TIP3   OH239630   0.221   6.430   8.000  0.5064  0.3694  0.0329
 6024TIP3    H139631   0.270   6.498   8.046  0.7390  0.3644 -0.2064
 6024TIP3    H239632   0.179   6.476   7.927 -1.5008  0.7842  1.3723
 6025TIP3   OH239633   6.116   5.164   1.608  0.7042 -0.1770  0.0787
 6025TIP3    H139634   6.121   5.150   1.703 -1.9772  0.2510  0.3860
 6025TIP3    H239635   6.023   5.185   1.593  0.6673 -1.9910 -2.8903
 6026TIP3   OH239636   1.301   5.237   2.025 -0.3991  0.2987  0.5307
 6026TIP3    H139637   1.258   5.245   2.110  0.4462 -0.5947  1.0698
 6026TIP3    H239638   1.395   5.234   2.045 -0.2220 -0.8382 -0.3412
 6027TIP3   OH239639   0.261   5.180   7.208  0.4863  0.0477 -0.8745
 6027TIP3    H139640   0.294   5.177   7.119 -0.5109  0.8689 -1.2894
 6027TIP3    H239641   0.310   5.111   7.254  1.9194  0.4601 -1.7185
 6028TIP3   OH239642   2.605   1.118   0.879  0.0478 -0.1782  0.2791
 6028TIP3    H139643   2.603   1.202   0.832  1.1735 -0.2727  0.0149
 6028TIP3    H239644   2.646   1.139   0.963  1.3775 -0.6451 -0.2342
 6029TIP3   OH239645   4.952   4.223   0.415  0.3649 -0.3476 -0.2992
 6029TIP3    H139646   4.908   4.229   0.331 -1.3967  0.8476  0.6586
 6029TIP3    H239647   5.046   4.228   0.394 -0.0790  1.9032 -2.0523
 6030TIP3   OH239648   6.733   5.179   7.796 -0.2307  0.5709  0.1968
 6030TIP3    H139649   6.822   5.159   7.825  0.7661 -0.7024 -3.3222
 6030TIP3    H239650   6.735   5.273   7.778  0.9956  0.2684 -1.4602
 6031TIP3   OH239651   2.429   4.030   6.078 -0.1084  0.0848  0.5803
 6031TIP3    H139652   2.482   4.055   6.002 -1.6307 -0.2583 -0.6495
 6031TIP3    H239653   2.421   4.111   6.129 -1.0859  0.9811 -0.9226
 6032TIP3   OH239654   1.575   5.282   6.879 -0.0907 -0.1529  0.2469
 6032TIP3    H139655   1.658   5.329   6.888 -0.3998  0.2164  1.4536
 6032TIP3    H239656   1.598   5.190   6.893  0.0620 -0.0057  1.0010
 6033TIP3   OH239657   4.487   3.365   8.251 -0.0144 -0.2459 -0.0306
 6033TIP3    H139658   4.514   3.442   8.201 -0.1711 -0.6111 -0.6888
 6033TIP3    H239659   4.566   3.336   8.297  0.1210  0.1146 -0.0351
 6034TIP3   OH239660   0.315   4.941   8.213  0.0549  0.6474 -0.4895
 6034TIP3    H139661   0.255   4.878   8.174  0.6883 -0.0573 -0.3577
 6034TIP3    H239662   0.327   4.912   8.303  1.6145 -0.0308 -0.8723
 6035TIP3   OH239663   3.952   2.492   7.123 -0.3494  0.1893 -0.1078
 6035TIP3    H139664   3.868   2.468   7.162 -0.2836  0.2695  0.0821
 6035TIP3    H239665   3.928   2.535   7.041 -0.4657 -0.6332 -0.5202
 6036TIP3   OH239666   1.636   3.632   0.232  0.3608  0.0159 -0.0214
 6036TIP3    H139667   1.602   3.553   0.189  0.5950  0.1665 -0.4786
 6036TIP3    H239668   1.663   3.689   0.161 -1.2736  1.1904  0.2424
 6037TIP3   OH239669   6.697   1.771   7.808  0.0684 -0.0239  0.1764
 6037TIP3    H139670   6.678   1.708   7.878  2.0434 -1.0353 -0.1125
 6037TIP3    H239671   6.770   1.823   7.842 -1.8889  2.6201  0.6547
 6038TIP3   OH239672   1.519   3.395   0.432 -0.1076 -0.8759  0.1825
 6038TIP3    H139673   1.523   3.487   0.456  0.7158 -0.9346  0.3141
 6038TIP3    H239674   1.430   3.381   0.401  0.0413  0.1925 -0.7681
 6039TIP3   OH239675   6.840   2.814   0.041 -0.2249 -0.1214 -0.2423
 6039TIP3    H139676   6.787   2.743   0.077  0.7542 -1.1410 -0.7168
 6039TIP3    H239677   6.801   2.894   0.076 -0.8830 -0.9334  0.9598
 6040TIP3   OH239678   6.549   1.795   2.307 -0.3381 -0.5603  0.7722
 6040TIP3    H139679   6.565   1.715   2.257  3.3956  1.0997 -1.1111
 6040TIP3    H239680   6.467   1.829   2.271 -0.1271 -1.7718 -0.9977
 6041TIP3   OH239681   2.277   0.909   0.934  0.0551  0.2818  0.1947
 6041TIP3    H139682   2.218   0.834   0.944 -2.8267  1.8976 -2.8161
 6041TIP3    H239683   2.276   0.951   1.020 -2.3931 -0.3644  0.5534
 6042TIP3   OH239684   4.437   2.188   6.920  0.6589 -0.0424  0.4631
 6042TIP3    H139685   4.502   2.127   6.956  1.6619  1.5123  1.4093
 6042TIP3    H239686   4.454   2.188   6.826  1.4585 -0.3125  0.6009
 6043TIP3   OH239687   2.839   1.609   0.437 -0.0645  0.1250 -0.0054
 6043TIP3    H139688   2.871   1.519   0.437  1.2443  0.5629 -1.0919
 6043TIP3    H239689   2.855   1.640   0.527 -1.4704 -1.0007  0.6757
 6044TIP3   OH239690   3.740   1.580   1.607  0.1680 -0.1023 -0.3407
 6044TIP3    H139691   3.814   1.522   1.593  0.9232  0.8286 -0.2992
 6044TIP3    H239692   3.773   1.667   1.585 -0.5808  0.4775  0.7508
 6045TIP3   OH239693   5.992   4.600   0.197 -0.3624 -0.4308 -0.2636
 6045TIP3    H139694   6.016   4.651   0.120 -2.6696  1.6562  0.2687
 6045TIP3    H239695   5.942   4.526   0.162 -0.2724 -0.2278 -0.8319
 6046TIP3   OH239696   1.860   4.887   2.501  0.5632  0.0369  0.2744
 6046TIP3    H139697   1.898   4.948   2.437 -0.7869 -0.7770 -1.3823
 6046TIP3    H239698   1.765   4.902   2.494  0.1288 -2.6160 -0.6602
 6047TIP3   OH239699   6.704   1.299   0.489  0.2521 -0.3700 -0.5173
 6047TIP3    H139700   6.697   1.280   0.583  0.8613 -0.5808 -0.5114
 6047TIP3    H239701   6.711   1.394   0.485 -1.3818 -0.2148 -0.4605
 6048TIP3   OH239702   4.090   3.982   1.616  0.4745  0.6917  0.0002
 6048TIP3    H139703   4.037   3.921   1.667 -1.2466  0.3915 -1.9957
 6048TIP3    H239704   4.027   4.029   1.562  2.1608  0.9007 -1.9293
 6049TIP3   OH239705   6.013   4.628   7.334 -0.4430 -0.7998  0.6062
 6049TIP3    H139706   5.993   4.539   7.303 -2.7375 -1.2473  3.0022
 6049TIP3    H239707   5.981   4.629   7.424  0.1567  2.2814  0.8687
 6050TIP3   OH239708   1.381   4.792   1.051  0.3047  0.5827  0.1120
 6050TIP3    H139709   1.330   4.718   1.085  1.7808 -0.7111 -0.3776
 6050TIP3    H239710   1.434   4.821   1.125  0.5943  0.3588 -0.0034
 6051TIP3   OH239711   5.795   2.483   1.133  0.5134  0.1841  0.2869
 6051TIP3    H139712   5.700   2.495   1.129  0.5383  0.1104 -0.7727
 6051TIP3    H239713   5.826   2.512   1.047  1.6649  2.0180  1.2687
 6052TIP3   OH239714   4.337   2.738   0.153  0.6782 -0.1781 -0.3587
 6052TIP3    H139715   4.255   2.758   0.198  0.6336 -1.8308  0.3743
 6052TIP3    H239716   4.379   2.823   0.139 -1.3765  0.7685 -1.2213
 6053TIP3   OH239717   6.740   6.146   6.704 -0.3304 -0.1467  0.4257
 6053TIP3    H139718   6.663   6.204   6.707 -0.9496 -0.9853  1.2776
 6053TIP3    H239719   6.766   6.146   6.612 -0.0597  1.8021  0.4573
 6054TIP3   OH239720   0.753   4.449   8.326  0.2212 -0.2285  0.8388
 6054TIP3    H139721   0.717   4.526   8.284 -3.1957 -0.6384  2.6809
 6054TIP3    H239722   0.756   4.383   8.257  0.7056  0.7606 -0.1231
 6055TIP3   OH239723   6.580   0.635   0.590  0.1233 -0.2134 -0.0987
 6055TIP3    H139724   6.546   0.562   0.539  0.8469  0.4986 -1.6997
 6055TIP3    H239725   6.646   0.596   0.647 -0.9257 -1.0792  0.5668
 6056TIP3   OH239726   6.313   1.666   7.658 -0.6951  0.3581 -0.0825
 6056TIP3    H139727   6.393   1.620   7.683  0.2536 -0.6065 -4.1692
 6056TIP3    H239728   6.255   1.655   7.733  1.8720 -1.5967  1.8186
 6057TIP3   OH239729   1.071   2.865   0.482  0.0844  0.1725  0.7720
 6057TIP3    H139730   1.093   2.773   0.496  1.1673  0.1195 -0.9991
 6057TIP3    H239731   1.155   2.910   0.478 -0.3155  0.8502 -0.6762
 6058TIP3   OH239732   1.760   0.368   1.268 -0.6381 -0.1657  0.5153
 6058TIP3    H139733   1.808   0.325   1.198 -0.9496 -0.9111  0.7416
 6058TIP3    H239734   1.826   0.385   1.335 -0.5430 -0.4974  0.5115
 6059TIP3   OH239735   2.362   5.566   7.356  0.0355  0.3220 -0.3480
 6059TIP3    H139736   2.442   5.582   7.405 -0.3052  1.4903 -0.1475
 6059TIP3    H239737   2.368   5.474   7.329  1.1245  0.2152  0.2212
 6060TIP3   OH239738   5.599   5.262   1.450  0.3530 -0.5258  0.6246
 6060TIP3    H139739   5.518   5.226   1.484  0.1326 -0.7011 -0.0677
 6060TIP3    H239740   5.577   5.292   1.362  1.7690 -3.7347 -1.0166
 6061TIP3   OH239741   6.603   3.971   7.922  0.3309  0.0429  0.8381
 6061TIP3    H139742   6.526   4.000   7.873  0.2267 -2.5632 -0.6917
 6061TIP3    H239743   6.661   4.047   7.921 -0.5145  0.7485 -1.6326
 6062TIP3   OH239744   5.527   2.470   1.729  0.2807 -0.1200  0.6538
 6062TIP3    H139745   5.520   2.377   1.752  2.2741 -0.0208  1.8822
 6062TIP3    H239746   5.621   2.489   1.732  0.1246  1.4820 -1.5745
 6063TIP3   OH239747   0.274   0.045   0.843 -0.1499 -0.1367  0.4361
 6063TIP3    H139748   0.190   0.004   0.821  0.2565 -0.0091 -1.5491
 6063TIP3    H239749   0.298   0.093   0.764  1.8300 -0.2210  0.9435
 6064TIP3   OH239750   5.433   5.544   6.768  0.4426 -0.1612  0.1052
 6064TIP3    H139751   5.355   5.598   6.780  0.3089 -0.5940  1.3748
 6064TIP3    H239752   5.506   5.606   6.772  0.2259  0.0845  0.2655
 6065TIP3   OH239753   3.823   2.985   6.251 -0.7552 -0.1308  0.1114
 6065TIP3    H139754   3.745   3.029   6.282 -0.7100  0.9495 -1.1978
 6065TIP3    H239755   3.882   3.056   6.225  2.1027 -0.6954  4.0759
 6066TIP3   OH239756   4.818   1.735   6.838  0.0725 -0.5270 -0.2777
 6066TIP3    H139757   4.752   1.708   6.775 -1.4397  0.6671  0.7268
 6066TIP3    H239758   4.829   1.829   6.823  2.3868 -0.8662 -1.1481
 6067TIP3   OH239759   0.525   3.734   0.604  0.6149  0.3670 -0.2118
 6067TIP3    H139760   0.446   3.680   0.610  0.6928 -0.0374 -2.2137
 6067TIP3    H239761   0.495   3.816   0.564  0.8585  1.0420  0.9534
 6068TIP3   OH239762   6.430   0.815   0.777 -0.0912  0.5811  0.2189
 6068TIP3    H139763   6.460   0.775   0.695 -0.2704 -0.1293  0.4966
 6068TIP3    H239764   6.449   0.750   0.844 -1.3191  0.5385  0.5460
 6069TIP3   OH239765   6.085   5.906   1.109 -0.3250 -0.9894 -0.3803
 6069TIP3    H139766   6.079   5.958   1.029 -1.3162 -0.5323 -0.0225
 6069TIP3    H239767   6.078   5.970   1.180 -2.8170 -1.6875  0.0709
 6070TIP3   OH239768   1.347   1.028   7.262 -0.0112  0.0391 -0.5536
 6070TIP3    H139769   1.320   1.106   7.310 -2.4456 -1.0627  0.0297
 6070TIP3    H239770   1.302   1.033   7.178 -0.6107 -0.9625 -0.3070
 6071TIP3   OH239771   6.837   2.902   1.905 -0.1811  0.7216  0.3128
 6071TIP3    H139772   6.907   2.926   1.845  1.6124 -1.7106  1.2858
 6071TIP3    H239773   6.877   2.905   1.992 -1.7315  0.7781  1.0709
 6072TIP3   OH239774   0.937   6.519   8.031  0.5115  0.4349  0.1688
 6072TIP3    H139775   0.986   6.486   7.956 -1.1997 -2.3273  0.1336
 6072TIP3    H239776   0.860   6.561   7.993  1.4523  2.4245  0.3233
 6073TIP3   OH239777   5.631   2.351   6.529  0.2045  0.3040 -0.1231
 6073TIP3    H139778   5.590   2.378   6.447 -1.1846  1.2119  0.8175
 6073TIP3    H239779   5.564   2.298   6.572  0.0570  1.6409  1.3672
 6074TIP3   OH239780   0.417   4.492   7.160 -0.1888 -0.4722  0.0402
 6074TIP3    H139781   0.352   4.532   7.217 -0.6404 -1.2022  0.0505
 6074TIP3    H239782   0.473   4.564   7.133 -0.0410 -0.0997  1.3083
 6075TIP3   OH239783   3.496   6.227   7.908 -0.6853  0.8220 -0.1231
 6075TIP3    H139784   3.525   6.136   7.917  1.6778  1.6244  1.4553
 6075TIP3    H239785   3.415   6.231   7.960 -2.0501 -0.7916 -1.9807
 6076TIP3   OH239786   0.098   4.825   7.039  0.6344 -0.2048  0.9800
 6076TIP3    H139787   0.047   4.793   6.964  0.3198 -0.9585  1.4974
 6076TIP3    H239788   0.088   4.920   7.036 -0.4105 -0.3004  0.7748
 6077TIP3   OH239789   3.309   2.628   6.616  0.1615  0.2533  0.4512
 6077TIP3    H139790   3.356   2.685   6.676  0.2778  0.1293  0.4797
 6077TIP3    H239791   3.298   2.681   6.537  1.8515 -0.2575 -0.1849
 6078TIP3   OH239792   4.616   1.362   1.296 -0.5822  0.6137  0.2679
 6078TIP3    H139793   4.688   1.374   1.358  0.9772 -2.3878 -0.7217
 6078TIP3    H239794   4.589   1.450   1.273  1.8039  1.8691  1.8121
 6079TIP3   OH239795   0.633   2.229   1.993  0.6638  0.8574 -0.0101
 6079TIP3    H139796   0.618   2.190   2.079  0.8515  0.6888 -0.0545
 6079TIP3    H239797   0.707   2.181   1.957 -1.1302 -0.9627 -1.4261
 6080TIP3   OH239798   5.999   6.857   7.692 -0.0661  0.2404 -0.6150
 6080TIP3    H139799   5.908   6.877   7.714 -0.1884 -0.4940 -0.4335
 6080TIP3    H239800   5.993   6.794   7.621  0.3261  1.8577 -2.1388
 6081TIP3   OH239801   5.028   4.586   0.230 -0.3048 -0.2008  0.5984
 6081TIP3    H139802   4.982   4.528   0.291  0.4130 -0.2688  1.0862
 6081TIP3    H239803   5.053   4.662   0.283  0.0080 -0.0943  0.3031
 6082TIP3   OH239804   5.304   1.162   2.111 -0.0418 -0.0430  0.5586
 6082TIP3    H139805   5.344   1.137   2.028 -2.2234 -1.4740 -0.1496
 6082TIP3    H239806   5.300   1.258   2.108  0.5882 -0.0331 -0.6323
 6083TIP3   OH239807   2.777   3.151   6.658  0.0587 -0.6618  0.1115
 6083TIP3    H139808   2.755   3.212   6.588  0.1395 -0.8383 -0.0697
 6083TIP3    H239809   2.692   3.126   6.695 -0.0153 -0.9197 -0.2266
 6084TIP3   OH239810   5.821   5.469   6.563 -0.0728 -0.1573 -0.1648
 6084TIP3    H139811   5.786   5.398   6.509  3.1221 -0.3237 -2.2941
 6084TIP3    H239812   5.875   5.425   6.628  1.0438  0.2478 -0.7998
 6085TIP3   OH239813   6.768   4.432   8.588 -0.4319  0.1772  0.4410
 6085TIP3    H139814   6.838   4.412   8.650 -0.0106  1.1977  0.3073
 6085TIP3    H239815   6.741   4.521   8.610 -2.3481 -0.5326  1.0973
 6086TIP3   OH239816   2.575   3.404   0.814 -0.0351  0.2197 -0.7088
 6086TIP3    H139817   2.641   3.345   0.777 -0.5530  0.3716 -1.9420
 6086TIP3    H239818   2.598   3.412   0.906 -0.4556 -2.6079 -0.2860
 6087TIP3   OH239819   4.251   2.024   1.740  0.0178 -0.2220  0.1736
 6087TIP3    H139820   4.259   2.010   1.646 -2.7656  0.5003 -0.2622
 6087TIP3    H239821   4.261   1.937   1.779 -2.5393 -1.1969 -1.1658
 6088TIP3   OH239822   3.160   1.583   1.681 -0.0955  0.0474  0.2861
 6088TIP3    H139823   3.089   1.533   1.722 -0.5954  1.5905  1.4210
 6088TIP3    H239824   3.155   1.561   1.588 -1.8789 -0.0948  0.3845
 6089TIP3   OH239825   3.993   4.466   0.234  0.8637 -0.2360  0.2002
 6089TIP3    H139826   4.051   4.390   0.230  1.2179  0.0368  0.0951
 6089TIP3    H239827   3.958   4.465   0.323 -0.2622 -1.3421 -0.2311
 6090TIP3   OH239828   2.421   2.240   1.418  0.1589 -0.2312 -0.3039
 6090TIP3    H139829   2.493   2.177   1.413  1.0554  0.4770  2.1340
 6090TIP3    H239830   2.344   2.186   1.438  0.8285 -0.6616  1.3114
 6091TIP3   OH239831   2.906   4.626   8.219 -0.3657 -0.0199 -0.3269
 6091TIP3    H139832   2.979   4.684   8.241 -1.2075  1.1702 -0.6029
 6091TIP3    H239833   2.842   4.683   8.177 -1.4641 -1.0458 -0.0854
 6092TIP3   OH239834   3.298   6.230   8.095 -0.3266 -0.2898  0.3380
 6092TIP3    H139835   3.340   6.163   8.149 -1.5314  1.6300  3.9953
 6092TIP3    H239836   3.210   6.195   8.078 -0.5761 -0.1422  1.2799
 6093TIP3   OH239837   3.707   1.524   1.919  1.0481 -0.1706 -0.5181
 6093TIP3    H139838   3.699   1.593   1.985 -0.5574 -0.9232  0.1067
 6093TIP3    H239839   3.695   1.443   1.967  0.3745 -0.7672 -1.6562
 6094TIP3   OH239840   4.122   5.564   2.186  0.0356 -0.3030  0.1950
 6094TIP3    H139841   4.154   5.592   2.100 -1.0678 -0.4492 -0.2780
 6094TIP3    H239842   4.091   5.475   2.173  1.2395 -0.8952  1.1199
 6095TIP3   OH239843   0.110   2.035   0.466  0.4060 -0.2307  0.3235
 6095TIP3    H139844   0.113   2.127   0.489  0.7975 -0.4601  1.2257
 6095TIP3    H239845   0.042   1.998   0.523  0.5367 -0.5773  0.2582
 6096TIP3   OH239846   3.394   5.932   6.453 -0.3157 -0.2716 -0.1721
 6096TIP3    H139847   3.438   6.017   6.454  0.8660 -0.8565  0.9717
 6096TIP3    H239848   3.422   5.892   6.371  2.1025 -0.9871  0.9092
 6097TIP3   OH239849   1.900   3.111   6.765  0.8017  1.0804 -0.2343
 6097TIP3    H139850   1.867   3.033   6.720  0.1519  1.7242 -0.9130
 6097TIP3    H239851   1.994   3.111   6.746  0.4763  1.5942 -2.0553
 6098TIP3   OH239852   3.227   3.075   1.398 -0.2221  0.5526 -0.5081
 6098TIP3    H139853   3.319   3.054   1.412 -0.3832  0.8549  1.1797
 6098TIP3    H239854   3.195   3.005   1.341  0.9116  0.1319 -0.6457
 6099TIP3   OH239855   4.539   3.430   0.235 -0.0625 -0.4472 -0.6998
 6099TIP3    H139856   4.551   3.406   0.327  0.5006  0.5328 -0.5103
 6099TIP3    H239857   4.453   3.473   0.232  1.0767  2.0393 -0.0765
 6100TIP3   OH239858   4.598   3.340   7.364 -0.0361  0.0378  0.2629
 6100TIP3    H139859   4.653   3.369   7.291  0.1595  0.0156  0.3988
 6100TIP3    H239860   4.624   3.249   7.379  0.2108  0.1635  0.6170
 6101TIP3   OH239861   3.773   4.446   2.439  0.1311  0.1390  0.2155
 6101TIP3    H139862   3.691   4.440   2.487 -0.9038  1.1157 -1.3314
 6101TIP3    H239863   3.762   4.522   2.382  2.6680  1.1799  0.9698
 6102TIP3   OH239864   0.226   0.158   0.606  0.2729  0.6636 -0.4031
 6102TIP3    H139865   0.238   0.247   0.639  1.3336  0.8271 -1.1759
 6102TIP3    H239866   0.132   0.150   0.591 -0.1541  0.8556  1.8285
 6103TIP3   OH239867   4.679   0.820   0.999  0.2515 -0.1137 -0.1230
 6103TIP3    H139868   4.638   0.791   0.917  0.1896  0.7458 -0.4008
 6103TIP3    H239869   4.772   0.829   0.977  0.3868 -0.7706  0.1530
 6104TIP3   OH239870   3.867   4.462   7.869  0.2286 -0.0460  0.0469
 6104TIP3    H139871   3.772   4.456   7.863  0.4162 -1.5865 -2.5295
 6104TIP3    H239872   3.894   4.499   7.785  1.9662 -0.4877  0.3753
 6105TIP3   OH239873   3.069   1.470   0.007  0.0124 -0.0716  0.3412
 6105TIP3    H139874   3.113   1.488  -0.076  0.3765 -0.0752  0.5309
 6105TIP3    H239875   2.982   1.438  -0.018 -0.3413  1.1215 -0.0183
 6106TIP3   OH239876   5.266   3.904   0.817  0.0892 -0.3747  0.1225
 6106TIP3    H139877   5.322   3.866   0.885  2.6576 -0.2924 -1.8141
 6106TIP3    H239878   5.318   3.975   0.780 -1.9701  0.7369 -0.7590
 6107TIP3   OH239879   2.471   0.473   8.254  0.4612 -0.7193  0.1186
 6107TIP3    H139880   2.478   0.557   8.299  0.1886 -0.7294  0.1804
 6107TIP3    H239881   2.551   0.467   8.202 -0.5454  0.6348 -1.6925
 6108TIP3   OH239882   4.678   5.043   7.862  0.1836  0.5834 -0.4195
 6108TIP3    H139883   4.763   5.076   7.832 -0.3566  0.2651 -2.4514
 6108TIP3    H239884   4.677   4.951   7.836 -0.3178  0.2456  0.7193
 6109TIP3   OH239885   6.264   2.405   0.806  0.6161 -0.2039 -0.0295
 6109TIP3    H139886   6.236   2.495   0.825  0.5876 -0.0421 -0.8195
 6109TIP3    H239887   6.359   2.409   0.804  0.5962 -0.0683 -0.6671
 6110TIP3   OH239888   6.489   6.525   7.219  0.0670 -0.2819  0.3294
 6110TIP3    H139889   6.511   6.604   7.169  1.0146 -0.5954  0.2188
 6110TIP3    H239890   6.469   6.459   7.153 -1.8038  0.1271  0.4341
 6111TIP3   OH239891   4.881   4.246   1.135  0.5534 -0.5912 -0.0449
 6111TIP3    H139892   4.824   4.207   1.069  0.3828 -2.6400  1.2054
 6111TIP3    H239893   4.852   4.336   1.142  0.0235 -0.5456 -2.1227
 6112TIP3   OH239894   5.406   2.097   6.928  0.7174 -0.0685 -0.4800
 6112TIP3    H139895   5.473   2.044   6.886 -0.5244 -2.5853  0.5090
 6112TIP3    H239896   5.337   2.034   6.950 -1.0658  2.0722  0.3589
 6113TIP3   OH239897   6.454   6.370   8.412 -0.9670  0.2423 -0.4155
 6113TIP3    H139898   6.436   6.368   8.318  1.0973 -2.6704 -0.9164
 6113TIP3    H239899   6.432   6.282   8.442  0.5086  0.4151  1.3383
 6114TIP3   OH239900   5.243   3.006   7.961 -0.0644 -0.6226 -0.0383
 6114TIP3    H139901   5.176   2.982   8.024 -2.2620 -0.0497 -2.0040
 6114TIP3    H239902   5.266   2.924   7.918 -1.4417 -0.5224 -1.0617
 6115TIP3   OH239903   0.028   1.276   8.131 -0.0507  0.0238 -0.4253
 6115TIP3    H139904  -0.006   1.364   8.151  0.0837  0.2376 -1.1326
 6115TIP3    H239905  -0.038   1.217   8.168 -0.1825  0.4185 -0.0139
 6116TIP3   OH239906   3.421   3.698   1.723  0.0534 -0.0566 -0.1554
 6116TIP3    H139907   3.416   3.627   1.787 -2.3363  0.7988  0.7356
 6116TIP3    H239908   3.451   3.774   1.774  1.6951 -0.1603 -0.9034
 6117TIP3   OH239909   4.984   1.643   0.283  0.8431  0.6432 -0.5987
 6117TIP3    H139910   4.970   1.664   0.190  0.1735 -0.7336 -0.8297
 6117TIP3    H239911   5.074   1.611   0.287  1.0773  1.2789 -0.6598
 6118TIP3   OH239912   3.127   4.142   6.484 -0.4738  0.5026  0.0759
 6118TIP3    H139913   3.179   4.154   6.564 -2.0998 -0.7350  1.3934
 6118TIP3    H239914   3.170   4.070   6.438 -0.3622  0.2505  0.5686
 6119TIP3   OH239915   5.613   6.096   2.622 -0.5980  0.6676 -0.2747
 6119TIP3    H139916   5.685   6.158   2.629  0.8862 -0.5051 -3.2946
 6119TIP3    H239917   5.545   6.144   2.575 -0.2270  0.6303 -0.8611
 6120TIP3   OH239918   3.338   5.712   7.937 -0.6593 -0.4167  0.3376
 6120TIP3    H139919   3.426   5.675   7.947 -0.9390 -2.1547 -2.4218
 6120TIP3    H239920   3.305   5.719   8.026  1.4066 -1.9874  1.3263
 6121TIP3   OH239921   0.103   3.171   7.035  0.1314  0.1889 -0.3173
 6121TIP3    H139922   0.153   3.190   6.956  1.1334 -0.8997  0.0254
 6121TIP3    H239923   0.139   3.088   7.067  1.5761  1.7799  2.6832
 6122TIP3   OH239924   4.865   5.033   8.233 -0.1247 -0.0060  0.0149
 6122TIP3    H139925   4.949   5.034   8.187 -1.0018  1.8466 -1.6917
 6122TIP3    H239926   4.887   5.054   8.324  1.3648 -0.8718 -0.1183
 6123TIP3   OH239927   3.059   6.774   2.393  0.1000 -0.1216  0.2678
 6123TIP3    H139928   3.009   6.774   2.474  0.7509  1.3757  0.7144
 6123TIP3    H239929   2.994   6.766   2.324 -0.5524 -0.3687  0.9034
 6124TIP3   OH239930   1.666   1.071   7.072  0.0285  0.0118 -0.0693
 6124TIP3    H139931   1.609   1.043   7.143  1.6046 -1.4781  0.6739
 6124TIP3    H239932   1.689   1.162   7.095 -0.0183 -0.2225  0.9652
 6125TIP3   OH239933   2.544   5.974   0.067 -0.4503  0.4800 -0.0534
 6125TIP3    H139934   2.620   5.981   0.124 -0.0213  0.8623 -0.6548
 6125TIP3    H239935   2.491   5.904   0.105  1.9826 -2.3937 -1.6249
 6126TIP3   OH239936   4.327   0.730   8.623  0.0950 -0.2765  0.2329
 6126TIP3    H139937   4.368   0.773   8.548 -1.1111 -0.5195 -0.5862
 6126TIP3    H239938   4.380   0.652   8.638  0.2994 -0.2657 -0.4180
 6127TIP3   OH239939   6.493   2.521   7.135  0.0830 -0.1992  0.1757
 6127TIP3    H139940   6.482   2.598   7.080  0.0817 -0.2236  0.1415
 6127TIP3    H239941   6.498   2.448   7.073 -3.3025 -0.6550  0.2501
 6128TIP3   OH239942   3.931   2.080   0.093  0.1251  0.2296 -0.4862
 6128TIP3    H139943   3.944   2.145   0.024  0.3248 -0.1317 -0.7914
 6128TIP3    H239944   3.910   1.999   0.046 -0.5711  0.1708 -0.0959
 6129TIP3   OH239945   3.493   2.783   7.320 -0.1290 -0.0783  0.1312
 6129TIP3    H139946   3.525   2.784   7.230 -1.0887 -1.0065 -0.2450
 6129TIP3    H239947   3.571   2.769   7.373  0.2156 -1.5720 -0.6988
 6130TIP3   OH239948   1.207   5.852   1.335  0.0185  0.4590  0.8079
 6130TIP3    H139949   1.259   5.933   1.333 -1.3371  1.3337 -0.1044
 6130TIP3    H239950   1.271   5.783   1.318  1.2919  1.2646  2.0537
 6131TIP3   OH239951   4.007   2.778   2.120  0.1651 -0.1527 -0.8020
 6131TIP3    H139952   3.990   2.710   2.055  0.6475 -0.5206 -0.5492
 6131TIP3    H239953   3.920   2.802   2.153  0.0841 -2.1731  0.6345
 6132TIP3   OH239954   3.079   6.571   1.314 -0.2306  0.3267  0.1139
 6132TIP3    H139955   3.111   6.504   1.253  1.5080  0.5537  0.7024
 6132TIP3    H239956   3.031   6.522   1.380  1.3024 -0.4393  0.7162
 6133TIP3   OH239957   2.673   5.086   0.192 -0.6512  0.0674 -0.2830
 6133TIP3    H139958   2.737   5.043   0.249  1.8181  2.3344 -1.1184
 6133TIP3    H239959   2.654   5.022   0.124 -0.2410 -1.0995  0.6618
 6134TIP3   OH239960   4.496   1.677   0.020 -0.1563 -0.4900 -0.5111
 6134TIP3    H139961   4.433   1.628  -0.033  1.2081 -2.6526 -0.2593
 6134TIP3    H239962   4.581   1.657  -0.019  0.6993 -0.5947  1.2952
 6135TIP3   OH239963   4.611   4.669   0.812 -0.4518  0.0542 -0.0091
 6135TIP3    H139964   4.564   4.617   0.746 -0.2503 -0.1765  0.0279
 6135TIP3    H239965   4.544   4.690   0.877 -0.4161 -0.6326  0.2587
 6136TIP3   OH239966   1.227   0.065   7.078 -0.6904  0.4822 -0.2911
 6136TIP3    H139967   1.151   0.028   7.033 -0.0869  0.1582 -1.0625
 6136TIP3    H239968   1.256  -0.005   7.137 -1.4388  0.8819  0.5827
 6137TIP3   OH239969   6.731   1.089   7.761  0.5213 -0.0603 -0.8682
 6137TIP3    H139970   6.815   1.065   7.799 -0.0191  1.4457  1.4843
 6137TIP3    H239971   6.666   1.059   7.825 -0.4607  2.4701 -0.5783
 6138TIP3   OH239972   0.123   3.264   7.927 -0.2165 -0.2806 -0.3634
 6138TIP3    H139973   0.041   3.214   7.929  0.1049 -0.8059  0.1741
 6138TIP3    H239974   0.191   3.197   7.916  0.2574 -0.0040  0.8007
 6139TIP3   OH239975   1.981   2.073   1.392  0.3319 -0.4151 -0.2448
 6139TIP3    H139976   1.981   2.166   1.414  0.9442 -0.4366 -0.1292
 6139TIP3    H239977   2.063   2.040   1.429  0.2223 -0.9520 -0.4762
 6140TIP3   OH239978   3.357   5.146   1.162  0.2704 -0.7390  0.0143
 6140TIP3    H139979   3.316   5.201   1.228 -0.3781 -0.3650 -0.6876
 6140TIP3    H239980   3.361   5.059   1.202 -0.9351 -0.7201  0.2118
 6141TIP3   OH239981   0.620   0.993   6.670 -0.3044 -0.3212 -0.0498
 6141TIP3    H139982   0.653   1.022   6.585  0.9174 -0.7544  0.2499
 6141TIP3    H239983   0.659   0.906   6.682 -1.5936 -0.8663  0.3381
 6142TIP3   OH239984   6.173   4.611   7.702 -0.1328 -0.2158  0.3789
 6142TIP3    H139985   6.162   4.701   7.674 -1.8279  0.6517  3.3439
 6142TIP3    H239986   6.109   4.562   7.650  0.5194  0.3177 -0.9644
 6143TIP3   OH239987   4.910   1.203   7.850  0.1870 -0.9887 -0.1147
 6143TIP3    H139988   4.975   1.154   7.799 -0.5443 -0.9751 -1.0933
 6143TIP3    H239989   4.829   1.193   7.800 -0.2276  0.2636  0.2805
 6144TIP3   OH239990   4.952   0.241   8.622 -0.1532  0.2661  0.6107
 6144TIP3    H139991   4.921   0.170   8.680  0.2993  0.4642  1.1051
 6144TIP3    H239992   5.003   0.196   8.555 -0.0171  0.1070  0.8197
 6145TIP3   OH239993   1.092   5.848   7.641 -0.3579  0.0501  0.2566
 6145TIP3    H139994   1.098   5.855   7.737  0.2511 -0.7590  0.2866
 6145TIP3    H239995   1.017   5.790   7.626 -1.3856  1.3499  0.1853
 6146TIP3   OH239996   3.001   3.989   7.224 -0.2297 -0.3280  0.3130
 6146TIP3    H139997   3.058   4.052   7.269  0.8502 -0.8766 -0.2462
 6146TIP3    H239998   2.913   4.025   7.234  0.4817  2.1271 -1.3184
 6147TIP3   OH239999   4.198   2.496   1.551 -0.6097 -0.0980  0.2829
 6147TIP3    H140000   4.255   2.572   1.559 -2.3677  1.4626 -0.9704
 6147TIP3    H240001   4.247   2.424   1.591  1.7254  1.3584  0.2167
 6148TIP3   OH240002   2.634   6.220   0.292  0.8035 -0.3749 -0.2457
 6148TIP3    H140003   2.728   6.233   0.276  0.6876  0.4819 -0.2865
 6148TIP3    H240004   2.619   6.259   0.378  0.3219  0.2840 -0.6222
 6149TIP3   OH240005   0.945   3.568   7.763  0.1658 -0.1411 -0.0670
 6149TIP3    H140006   0.960   3.563   7.668  3.7274  1.0176  0.2858
 6149TIP3    H240007   0.970   3.482   7.796 -2.6039 -1.0872 -0.2407
 6150TIP3   OH240008   0.049   5.128   8.329  0.1249  0.2977 -0.1636
 6150TIP3    H140009   0.038   5.033   8.328 -0.6707  0.3868 -0.6379
 6150TIP3    H240010  -0.026   5.161   8.379  0.0194  0.7174 -0.5883
 6151TIP3   OH240011   4.951   0.565   7.136  0.5489 -0.1297 -0.2511
 6151TIP3    H140012   4.995   0.509   7.072  1.1418  0.4468 -0.3709
 6151TIP3    H240013   4.959   0.653   7.099  1.5739  0.3245  0.9643
 6152TIP3   OH240014   3.940   6.664   1.256  0.4274 -0.4775  0.2945
 6152TIP3    H140015   3.883   6.694   1.186  1.0045  0.8204  0.3355
 6152TIP3    H240016   4.028   6.688   1.227  0.5099  2.3658  2.4486
 6153TIP3   OH240017   2.524   4.600   0.661  0.0716  0.2115  0.3415
 6153TIP3    H140018   2.473   4.655   0.721 -0.2764 -0.4678  0.6811
 6153TIP3    H240019   2.474   4.519   0.654 -0.2974  0.5631 -1.4997
 6154TIP3   OH240020   1.131   5.496   1.260 -0.7540  0.1114 -0.3868
 6154TIP3    H140021   1.130   5.509   1.165  0.0302  0.0981 -0.3977
 6154TIP3    H240022   1.210   5.542   1.290 -0.6331 -0.4597  0.1753
 6155TIP3   OH240023   0.669   1.379   6.862  0.0137  0.3766  0.0312
 6155TIP3    H140024   0.603   1.312   6.878  0.1372 -0.0346 -1.1314
 6155TIP3    H240025   0.645   1.417   6.777  1.9671 -0.6459 -1.0326
 6156TIP3   OH240026   5.402   3.762   1.023 -0.1567 -0.1066  0.1308
 6156TIP3    H140027   5.378   3.824   1.092  0.0066 -0.8583  0.8750
 6156TIP3    H240028   5.497   3.768   1.017 -0.2677  1.0616 -1.1057
 6157TIP3   OH240029   6.637   1.302   8.455  0.1968  0.2682  0.2833
 6157TIP3    H140030   6.704   1.297   8.387 -1.4533  3.2710 -1.8152
 6157TIP3    H240031   6.655   1.384   8.501 -0.7862  0.0290  1.1482
 6158TIP3   OH240032   6.172   4.666   0.598 -0.6171 -0.2925  0.2296
 6158TIP3    H140033   6.097   4.701   0.550 -1.8796 -2.0379  0.8219
 6158TIP3    H240034   6.201   4.739   0.653 -0.3705  1.1293 -1.7004
 6159TIP3   OH240035   5.646   4.484   7.729 -0.8789 -0.0688  0.1726
 6159TIP3    H140036   5.678   4.573   7.741 -0.8885  0.1166 -1.0269
 6159TIP3    H240037   5.586   4.490   7.655  1.0280 -1.4805 -1.5952
 6160TIP3   OH240038   0.522   3.315   0.909 -0.7867 -0.3211 -0.4749
 6160TIP3    H140039   0.472   3.359   0.978 -2.5485  0.2099 -1.9823
 6160TIP3    H240040   0.613   3.332   0.931 -1.3369  1.5329  0.6498
 6161TIP3   OH240041   1.736   3.771   0.904 -0.3232  0.1230  0.8287
 6161TIP3    H140042   1.804   3.708   0.878 -0.2385 -0.1905  1.7739
 6161TIP3    H240043   1.670   3.764   0.835  0.2621 -0.0969  0.2739
 6162TIP3   OH240044   2.071   4.598   6.988 -0.2882 -0.4540  0.4203
 6162TIP3    H140045   1.993   4.585   7.042 -0.9133 -3.2754 -0.9907
 6162TIP3    H240046   2.047   4.666   6.926 -0.7724  0.3269  1.4247
 6163TIP3   OH240047   0.874   5.779   1.008  0.3780  0.2175 -0.0397
 6163TIP3    H140048   0.926   5.760   0.930  1.0911 -0.2629  0.5510
 6163TIP3    H240049   0.818   5.702   1.019  0.4524  0.1806  0.0736
 6164TIP3   OH240050   0.606   4.670   1.794  0.6593 -0.3711  0.5059
 6164TIP3    H140051   0.515   4.643   1.804  1.0200 -1.6236  0.5998
 6164TIP3    H240052   0.651   4.632   1.870  1.4363 -0.6498 -0.0811
 6165TIP3   OH240053   3.495   5.587   8.568 -0.5505  0.1897  0.0771
 6165TIP3    H140054   3.571   5.638   8.541  0.0962  0.2266  1.8464
 6165TIP3    H240055   3.463   5.547   8.487  1.7939 -0.4541 -0.6009
 6166TIP3   OH240056   0.178   5.785   8.313  0.0047 -0.1688  0.6233
 6166TIP3    H140057   0.133   5.755   8.234 -1.0180 -0.7976  1.4230
 6166TIP3    H240058   0.111   5.830   8.363  0.9994  1.5365  0.4920
 6167TIP3   OH240059   2.844   5.928   2.150  0.4430  0.0583  0.1476
 6167TIP3    H140060   2.861   5.991   2.220 -0.9315  1.0715 -0.3775
 6167TIP3    H240061   2.781   5.866   2.188 -1.5280  1.5098 -0.6018
 6168TIP3   OH240062   6.743   0.426   6.754  0.6298 -0.2092  0.1837
 6168TIP3    H140063   6.707   0.345   6.719 -0.3809 -0.1090  0.9399
 6168TIP3    H240064   6.788   0.467   6.680 -1.2399 -0.1131 -0.9625
 6169TIP3   OH240065   4.509   4.350   0.227  0.2475  0.0669  0.1942
 6169TIP3    H140066   4.496   4.428   0.281  3.1697 -0.5730  2.0686
 6169TIP3    H240067   4.532   4.384   0.141 -0.3129  1.2049  0.4685
 6170TIP3   OH240068   0.640   5.345   2.320  0.2063 -0.0582 -0.1640
 6170TIP3    H140069   0.694   5.363   2.243 -0.6672 -1.3642 -1.1105
 6170TIP3    H240070   0.580   5.419   2.325 -0.0487 -0.1913 -1.0450
 6171TIP3   OH240071   5.086   6.664   7.596  0.1244 -0.0324 -0.4855
 6171TIP3    H140072   5.009   6.677   7.540  0.1994 -1.5149 -0.9752
 6171TIP3    H240073   5.154   6.718   7.556 -0.1690 -0.1118 -1.1006
 6172TIP3   OH240074   1.125   1.040   8.530 -0.0146  0.2511  0.2025
 6172TIP3    H140075   1.079   1.082   8.458  0.4904 -0.1914 -0.3956
 6172TIP3    H240076   1.138   0.950   8.501 -0.3332 -0.1042  1.1066
 6173TIP3   OH240077   6.186   5.955   7.305 -0.0946  0.0157  0.2839
 6173TIP3    H140078   6.217   6.027   7.360 -1.6865  0.9622  0.0160
 6173TIP3    H240079   6.115   5.994   7.253 -0.5064 -1.5746 -0.3975
 6174TIP3   OH240080   1.232   4.359   7.422  1.1285  0.2348 -0.5184
 6174TIP3    H140081   1.152   4.319   7.456  2.1228 -2.4168 -1.0785
 6174TIP3    H240082   1.255   4.425   7.488 -1.0807  0.5865 -0.0002
 6175TIP3   OH240083   2.076   4.759   1.233  0.3093 -0.0078  0.1028
 6175TIP3    H140084   2.146   4.745   1.297 -0.6617 -0.7861  1.0551
 6175TIP3    H240085   2.116   4.740   1.148  1.1715 -0.7602  0.6524
 6176TIP3   OH240086   4.099   4.157   2.539  0.3371  0.3350  0.4372
 6176TIP3    H140087   4.066   4.084   2.488 -0.3244 -0.0217  1.3547
 6176TIP3    H240088   4.187   4.131   2.564  1.0696  0.9414 -1.3281
 6177TIP3   OH240089   1.005   3.350   0.677 -0.1567  0.4789 -0.0735
 6177TIP3    H140090   0.914   3.322   0.669  0.1806 -0.6026 -0.2368
 6177TIP3    H240091   1.001   3.445   0.672 -1.2558  0.4354 -0.2788
 6178TIP3   OH240092   3.004   2.230   0.197  0.4182  0.1318  0.2839
 6178TIP3    H140093   2.920   2.276   0.186  0.0099 -0.9140 -1.2079
 6178TIP3    H240094   3.061   2.294   0.240 -0.1873  1.9759 -1.5277
 6179TIP3   OH240095   3.635   3.545   8.511 -0.0006  0.1637  0.5476
 6179TIP3    H140096   3.573   3.478   8.541 -0.9034  0.5503 -0.3922
 6179TIP3    H240097   3.654   3.597   8.589  0.1910 -0.7740  1.1444
 6180TIP3   OH240098   3.633   4.904   7.241  0.0939  0.0041  0.3686
 6180TIP3    H140099   3.717   4.932   7.205 -0.9628 -0.5076 -2.8337
 6180TIP3    H240100   3.630   4.810   7.226 -1.0679  0.0269  0.3399
 6181TIP3   OH240101   0.233   0.420   1.314 -0.3663  0.8082 -0.0837
 6181TIP3    H140102   0.279   0.336   1.302 -2.2303 -0.2692 -0.0851
 6181TIP3    H240103   0.172   0.424   1.241 -2.4853  0.6138  1.5692
 6182TIP3   OH240104   4.462   5.829   6.533  0.1592 -0.3597  0.6803
 6182TIP3    H140105   4.531   5.896   6.528 -1.5815  1.4290 -0.5313
 6182TIP3    H240106   4.438   5.812   6.442 -3.1001  1.3992  1.0727
 6183TIP3   OH240107   3.384   2.420   2.145 -0.1146  0.5349  0.1627
 6183TIP3    H140108   3.349   2.508   2.161  0.8401  0.7478  1.1245
 6183TIP3    H240109   3.469   2.435   2.104  1.1062  0.1409  2.4107
 6184TIP3   OH240110   4.638   1.110   2.023  0.5081 -0.6259  0.4123
 6184TIP3    H140111   4.639   1.203   2.045 -0.2774  0.0734 -2.0972
 6184TIP3    H240112   4.556   1.078   2.060  0.0992  0.0353  0.1032
 6185TIP3   OH240113   1.149   5.830   8.189  0.0865 -0.0847 -0.5955
 6185TIP3    H140114   1.059   5.824   8.155 -0.2372 -0.2668  0.2565
 6185TIP3    H240115   1.204   5.801   8.116 -0.7121 -2.2961 -0.4161
 6186TIP3   OH240116   3.249   2.828   8.220 -0.0286 -0.0319 -0.3409
 6186TIP3    H140117   3.199   2.749   8.243 -0.3355  0.0714 -0.6463
 6186TIP3    H240118   3.292   2.806   8.138  1.0948 -0.4117  0.3306
 6187TIP3   OH240119   3.327   1.086   1.947  0.0484 -0.6226 -0.0546
 6187TIP3    H140120   3.347   1.142   2.022  0.8184 -0.1883 -0.5771
 6187TIP3    H240121   3.269   1.018   1.983 -1.5339  0.9101  0.4254
 6188TIP3   OH240122   5.414   6.276   7.930  0.8548 -0.0742 -0.1047
 6188TIP3    H140123   5.481   6.283   7.998  1.2578 -0.7370 -0.4220
 6188TIP3    H240124   5.439   6.199   7.879  0.5110  0.3553 -0.9506
 6189TIP3   OH240125   4.720   5.027   0.758 -0.4335 -0.6256 -0.1987
 6189TIP3    H140126   4.669   4.971   0.817  1.5753 -1.6023  0.6955
 6189TIP3    H240127   4.794   4.973   0.731 -1.1397 -0.1583 -3.5498
 6190TIP3   OH240128   6.676   6.323   0.988  0.1190  0.0719  0.1522
 6190TIP3    H140129   6.728   6.396   1.021 -0.9155  0.4501  1.0369
 6190TIP3    H240130   6.706   6.247   1.040 -1.4983  0.6640  2.1005
 6191TIP3   OH240131   4.560   2.422   6.720  0.6500 -0.0355 -0.2678
 6191TIP3    H140132   4.616   2.499   6.730 -0.0058  0.3324  0.7179
 6191TIP3    H240133   4.613   2.350   6.754 -0.0561  0.5862  2.4280
 6192TIP3   OH240134   0.838   2.970   7.865 -0.3417  0.0780  0.0659
 6192TIP3    H140135   0.828   2.994   7.773 -0.1459 -0.1097 -0.0059
 6192TIP3    H240136   0.757   3.000   7.906 -1.5900 -2.1018 -0.6294
 6193TIP3   OH240137   6.072   4.909   1.050 -0.0966 -0.1890  0.3406
 6193TIP3    H140138   6.016   4.858   0.991  1.2084 -0.6097 -0.5931
 6193TIP3    H240139   6.032   4.996   1.053 -2.0947 -1.0753  1.5658
 6194TIP3   OH240140   6.432   2.158   1.061 -0.3147 -0.0196  0.2443
 6194TIP3    H140141   6.368   2.210   1.012  0.9945  2.0535  0.6105
 6194TIP3    H240142   6.475   2.104   0.995 -0.3704  0.7988 -0.4706
 6195TIP3   OH240143   3.556   6.230   1.564  0.4225  0.2150  0.4256
 6195TIP3    H140144   3.572   6.280   1.484 -0.2263 -0.7317 -0.3289
 6195TIP3    H240145   3.463   6.206   1.559  0.4725 -0.1941  1.2626
 6196TIP3   OH240146   4.610   0.772   1.543 -0.5430  0.3518  0.3518
 6196TIP3    H140147   4.611   0.840   1.611  0.5087  0.5589  0.1511
 6196TIP3    H240148   4.616   0.820   1.460 -1.3654  0.0811  0.1280
 6197TIP3   OH240149   4.527   1.832   8.393 -0.1155  0.4159  0.4510
 6197TIP3    H140150   4.556   1.919   8.421  0.7514 -0.5287  2.6400
 6197TIP3    H240151   4.441   1.847   8.352  0.7006  2.4683 -0.6515
 6198TIP3   OH240152   2.127   6.059   0.019 -0.2048 -0.1063  0.5647
 6198TIP3    H140153   2.131   6.142  -0.028 -1.4172  0.9378  2.1974
 6198TIP3    H240154   2.073   6.002  -0.036 -2.1092  1.2792  0.9091
 6199TIP3   OH240155   1.057   5.271   8.241 -0.5354 -0.3433  0.3099
 6199TIP3    H140156   1.070   5.196   8.300  0.6380 -1.5302 -1.3442
 6199TIP3    H240157   1.134   5.270   8.184 -1.5462  0.8172 -1.1590
 6200TIP3   OH240158   2.716   6.768   7.425 -0.2452  0.2841 -0.0486
 6200TIP3    H140159   2.723   6.862   7.440  1.6280  0.5414 -1.9802
 6200TIP3    H240160   2.804   6.734   7.445 -0.5018 -0.8084 -0.6791
 6201TIP3   OH240161   2.671   6.001   8.454 -0.3206  0.2058  0.3809
 6201TIP3    H140162   2.690   6.094   8.472  0.5338  0.2784 -0.8121
 6201TIP3    H240163   2.616   5.974   8.528 -1.3792  1.9078  0.2860
 6202TIP3   OH240164   0.271   6.078   0.212 -0.1550  0.6165 -0.4286
 6202TIP3    H140165   0.202   6.050   0.272 -1.5635  0.6683 -1.9283
 6202TIP3    H240166   0.328   6.001   0.203  0.5316  0.8408  1.4805
 6203TIP3   OH240167   0.013   0.598   0.049 -0.0712 -0.7072  0.1453
 6203TIP3    H140168   0.012   0.649   0.131  0.4376 -0.0026 -0.2717
 6203TIP3    H240169  -0.077   0.602   0.017  0.2515  1.2353 -0.6490
 6204TIP3   OH240170   0.467   4.446   1.439 -0.3080 -0.1632  0.2776
 6204TIP3    H140171   0.397   4.502   1.473 -0.8543  0.7926 -2.1529
 6204TIP3    H240172   0.546   4.476   1.484 -0.9193  1.2522  0.4624
 6205TIP3   OH240173   1.927   4.946   0.629 -0.1691  0.8542 -0.1137
 6205TIP3    H140174   1.836   4.935   0.602 -0.2769  1.6639 -0.1260
 6205TIP3    H240175   1.934   5.039   0.650  0.1561  0.4474  1.7350
 6206TIP3   OH240176   4.631   4.677   1.557 -0.5628 -0.2046  1.0202
 6206TIP3    H140177   4.616   4.622   1.634  0.3669 -0.7353  0.8396
 6206TIP3    H240178   4.709   4.729   1.579  0.3287 -1.0910  0.0697
 6207TIP3   OH240179   4.894   6.782   7.163 -0.2611  0.1419  0.5212
 6207TIP3    H140180   4.907   6.877   7.160  0.8158  0.0092  0.4462
 6207TIP3    H240181   4.843   6.762   7.085 -0.0816  0.6055  0.2789
 6208TIP3   OH240182   6.837   6.303   8.283  0.0209  0.8741 -0.2560
 6208TIP3    H140183   6.851   6.357   8.361  2.4397 -1.1099  0.8411
 6208TIP3    H240184   6.925   6.291   8.247 -0.5005 -1.6124 -0.8790
 6209TIP3   OH240185   3.529   1.596   0.141  0.3669 -0.5346  0.8582
 6209TIP3    H140186   3.447   1.624   0.101 -0.0843 -0.0519  2.0888
 6209TIP3    H240187   3.508   1.514   0.186  0.6136 -0.5431  0.9613
 6210TIP3   OH240188   5.971   2.278   1.613  0.0021  0.4174  0.3585
 6210TIP3    H140189   6.024   2.273   1.533  0.2013  0.6527  0.4755
 6210TIP3    H240190   5.895   2.224   1.594  1.1118 -1.4223  0.8344
 6211TIP3   OH240191   1.527   3.734   0.743  0.0630  0.2109  0.1493
 6211TIP3    H140192   1.474   3.665   0.784 -0.2170  0.2657 -0.1181
 6211TIP3    H240193   1.512   3.724   0.649  1.5701 -0.6199 -0.0344
 6212TIP3   OH240194   2.985   4.902   7.097  0.1748  0.3018 -0.2408
 6212TIP3    H140195   2.965   4.920   7.005  0.1400  1.4758 -0.0275
 6212TIP3    H240196   3.035   4.978   7.125  0.0871  0.0060  0.7411
 6213TIP3   OH240197   2.096   5.908   8.036  0.4109  0.0726 -0.1306
 6213TIP3    H140198   2.016   5.908   8.089  1.2067  0.5459  1.1358
 6213TIP3    H240199   2.068   5.936   7.949 -0.4663  2.7843  0.9161
 6214TIP3   OH240200   0.342   4.593   1.817  0.7604  0.7428  0.3389
 6214TIP3    H140201   0.297   4.573   1.735  0.3745 -2.3651  1.1971
 6214TIP3    H240202   0.274   4.629   1.874 -0.0235 -1.0584  0.6137
 6215TIP3   OH240203   1.648   2.453   0.361 -0.1001 -0.3438  0.2274
 6215TIP3    H140204   1.713   2.414   0.420  0.9631  1.4117  0.3174
 6215TIP3    H240205   1.660   2.548   0.372 -2.1971  0.0428 -0.3213
 6216TIP3   OH240206   6.192   1.732   1.392 -0.6087 -0.0032 -0.0084
 6216TIP3    H140207   6.142   1.765   1.466 -0.6930  0.3973 -0.2406
 6216TIP3    H240208   6.261   1.678   1.432  0.2986  1.4427  0.4677
 6217TIP3   OH240209   5.699   5.645   6.755  0.2681 -0.1991  0.2651
 6217TIP3    H140210   5.731   5.572   6.701  0.8188 -0.0619  0.3934
 6217TIP3    H240211   5.713   5.722   6.701 -0.8137 -0.2391 -0.0805
 6218TIP3   OH240212   6.033   1.543   0.848 -0.1272  0.1699 -0.5594
 6218TIP3    H140213   6.043   1.486   0.772 -0.2680  2.2900 -2.2388
 6218TIP3    H240214   6.053   1.630   0.816  1.8683  0.9101  2.3450
 6219TIP3   OH240215   4.550   5.465   8.175 -0.0836 -0.0346  0.2138
 6219TIP3    H140216   4.593   5.383   8.152 -0.1353  0.0628 -0.2531
 6219TIP3    H240217   4.538   5.461   8.269 -0.6376 -0.8352  0.1193
 6220TIP3   OH240218   3.816   5.066   0.883  0.0097  0.3885  0.0398
 6220TIP3    H140219   3.731   5.034   0.854  0.6457 -1.2842 -0.1632
 6220TIP3    H240220   3.820   5.156   0.853 -0.8970 -0.1148 -1.7315
 6221TIP3   OH240221   1.004   0.637   1.571 -0.0726 -0.0947  0.5042
 6221TIP3    H140222   0.989   0.705   1.505 -0.5289  1.1600  1.8378
 6221TIP3    H240223   0.988   0.555   1.526  2.0811  0.5355 -1.6244
 6222TIP3   OH240224   1.355   3.468   0.190 -0.1978  0.3995  0.3974
 6222TIP3    H140225   1.267   3.459   0.156 -0.4535  0.2204  1.0848
 6222TIP3    H240226   1.376   3.561   0.178 -0.4333  0.4171  0.1216
 6223TIP3   OH240227   3.129   3.846   1.441 -0.2506 -0.5276  0.5552
 6223TIP3    H140228   3.220   3.864   1.467 -0.2840  0.2478  0.1655
 6223TIP3    H240229   3.137   3.806   1.354 -0.3143  0.1300  0.2470
 6224TIP3   OH240230   6.334   2.573   7.857 -0.5226  0.2516  0.0170
 6224TIP3    H140231   6.370   2.489   7.829 -0.3585  0.8517 -1.6812
 6224TIP3    H240232   6.340   2.570   7.953  2.1706 -0.5099 -0.0722
 6225TIP3   OH240233   0.932   2.239   0.565  0.5256 -0.2563  0.2615
 6225TIP3    H140234   0.860   2.176   0.576  0.0078  0.1938 -0.4853
 6225TIP3    H240235   0.900   2.301   0.499  0.5715  1.4393  1.7448
 6226TIP3   OH240236   0.750   6.062   7.059  0.4954 -0.3908 -0.5158
 6226TIP3    H140237   0.678   6.118   7.028 -0.0674  0.2511  1.7716
 6226TIP3    H240238   0.821   6.078   6.997  0.1569  2.4494 -0.2887
 6227TIP3   OH240239   2.939   2.222   1.766 -0.4296 -0.6016  0.0854
 6227TIP3    H140240   2.974   2.311   1.758 -0.6676 -0.6571 -2.2233
 6227TIP3    H240241   2.974   2.190   1.849 -1.3641  2.0615  1.6370
 6228TIP3   OH240242   4.045   0.304   8.002  0.0277  0.0679  0.0577
 6228TIP3    H140243   4.106   0.352   8.058 -1.2825  2.7119 -0.5901
 6228TIP3    H240244   4.077   0.214   8.002  2.9534  0.9993  1.0261
 6229TIP3   OH240245   2.952   6.718   5.919  0.2869 -0.2059 -0.5646
 6229TIP3    H140246   3.033   6.671   5.936  0.2827  0.1423  0.5171
 6229TIP3    H240247   2.884   6.651   5.922  0.5252 -0.5025 -1.5015
 6230TIP3   OH240248   5.170   1.718   0.817  0.1407 -0.0945  0.1932
 6230TIP3    H140249   5.214   1.778   0.757 -1.3256  1.2490  0.3920
 6230TIP3    H240250   5.211   1.736   0.902 -0.1241  0.4767  0.2075
 6231TIP3   OH240251   4.635   1.146   6.721 -0.3617 -0.5883 -0.2714
 6231TIP3    H140252   4.577   1.151   6.644  0.4327 -0.6213 -0.8823
 6231TIP3    H240253   4.612   1.063   6.763 -0.1169 -1.0452 -1.0288
 6232TIP3   OH240254   5.450   0.643   1.882 -0.2037 -0.7260  0.0190
 6232TIP3    H140255   5.381   0.601   1.831 -2.0869  1.3378  0.7216
 6232TIP3    H240256   5.504   0.571   1.913 -1.1333 -2.3110 -1.8146
 6233TIP3   OH240257   5.353   2.309   1.282  0.2507 -0.0578 -0.4704
 6233TIP3    H140258   5.426   2.249   1.292  0.6989  0.6823  1.1020
 6233TIP3    H240259   5.388   2.394   1.309 -1.0046  0.4277 -0.2838
 6234TIP3   OH240260   1.064   1.227   0.118  0.5467 -0.2250 -0.3984
 6234TIP3    H140261   0.986   1.218   0.172  3.1906 -0.8780  3.7573
 6234TIP3    H240262   1.062   1.151   0.060 -0.5722 -1.7763  1.5672
 6235TIP3   OH240263   5.907   5.779   0.922  0.2323 -0.4686  0.7075
 6235TIP3    H140264   5.884   5.686   0.929 -2.2319  0.0939  0.9683
 6235TIP3    H240265   5.950   5.800   1.005 -1.6061 -0.8103  1.8041
 6236TIP3   OH240266   3.029   1.162   7.873 -0.0369  0.4342  0.3708
 6236TIP3    H140267   2.949   1.175   7.925  0.5696 -0.7191  1.6508
 6236TIP3    H240268   3.096   1.212   7.919  0.3474  0.0398  0.2363
 6237TIP3   OH240269   5.653   5.565   7.323  0.5930  0.2142  0.3186
 6237TIP3    H140270   5.675   5.654   7.349 -0.0694  0.9953 -1.6291
 6237TIP3    H240271   5.711   5.547   7.249 -1.7845  0.4806 -1.7243
 6238TIP3   OH240272   2.749   3.370   7.545 -0.2062 -0.5227 -0.3562
 6238TIP3    H140273   2.793   3.443   7.501  2.4327 -2.3975 -1.1187
 6238TIP3    H240274   2.785   3.370   7.634 -0.8482 -0.3935 -0.0947
 6239TIP3   OH240275   5.672   3.256   7.517 -1.0708 -0.0503 -0.3529
 6239TIP3    H140276   5.715   3.342   7.516  0.1897 -0.6237  0.8907
 6239TIP3    H240277   5.698   3.215   7.434 -0.3416  0.1527 -0.2311
 6240TIP3   OH240278   6.390   0.112   0.942  0.6163 -0.3526  0.3109
 6240TIP3    H140279   6.407   0.076   1.029 -0.6598  2.6305  1.9527
 6240TIP3    H240280   6.365   0.203   0.958  0.2491  0.3208 -3.2075
 6241TIP3   OH240281   2.373   5.013   7.884  0.3079 -0.1066 -0.1865
 6241TIP3    H140282   2.374   5.108   7.875 -1.6495  0.0533  0.6952
 6241TIP3    H240283   2.417   4.996   7.967 -0.1976  0.1234  0.1322
 6242TIP3   OH240284   2.198   5.966   0.268 -0.4992  0.6477 -0.2216
 6242TIP3    H140285   2.177   6.004   0.182 -0.7485 -0.5951 -0.7335
 6242TIP3    H240286   2.253   5.890   0.248 -2.4335 -1.0425  0.5119
 6243TIP3   OH240287   3.338   1.898   8.013 -0.3735 -0.1115  0.3977
 6243TIP3    H140288   3.404   1.930   7.952  0.4065 -0.6635  0.9409
 6243TIP3    H240289   3.386   1.846   8.077 -1.4386 -1.2867  0.2919
 6244TIP3   OH240290   6.353   5.392   0.911  0.4649  0.3778 -0.2846
 6244TIP3    H140291   6.436   5.405   0.864  0.2181  1.1918 -0.5086
 6244TIP3    H240292   6.304   5.331   0.856  1.1670 -0.6319  0.1802
 6245TIP3   OH240293   3.516   3.008   0.938 -0.3812  0.4109  0.1229
 6245TIP3    H140294   3.574   2.933   0.951 -1.6394 -0.5554  0.3800
 6245TIP3    H240295   3.479   2.995   0.851 -3.0208 -1.0892  1.3297
 6246TIP3   OH240296   4.410   0.627   6.706 -0.9076  0.0538  0.3497
 6246TIP3    H140297   4.374   0.618   6.794  0.1027 -4.1520  0.5087
 6246TIP3    H240298   4.341   0.595   6.648 -0.3451 -0.3945 -0.0819
 6247TIP3   OH240299   4.129   0.092   0.559  0.4247  0.3763  0.1693
 6247TIP3    H140300   4.071   0.046   0.499  2.2090  0.2040 -1.5442
 6247TIP3    H240301   4.193   0.025   0.585  0.7948  0.9425  0.7227
 6248TIP3   OH240302   6.151   5.280   1.865 -0.1176 -0.1266 -0.1524
 6248TIP3    H140303   6.080   5.341   1.886 -2.1467 -2.3850 -0.0820
 6248TIP3    H240304   6.118   5.194   1.892  1.9407 -1.5205 -1.7589
 6249TIP3   OH240305   4.790   4.444   0.195  0.4711  0.2207 -0.5347
 6249TIP3    H140306   4.780   4.524   0.142 -0.0930  0.6969  0.2732
 6249TIP3    H240307   4.730   4.381   0.156  0.0482  0.5754 -0.4607
 6250TIP3   OH240308   5.116   6.084   7.452  0.0677  0.2319 -0.4756
 6250TIP3    H140309   5.101   5.997   7.488 -0.5972  0.9375  1.0215
 6250TIP3    H240310   5.125   6.070   7.358  0.0128 -1.4460 -0.2530
 6251TIP3   OH240311   4.412   6.419   7.189  0.1141  0.3655  0.2598
 6251TIP3    H140312   4.503   6.393   7.204 -0.2233  0.1019  2.0810
 6251TIP3    H240313   4.417   6.481   7.117  1.4575 -1.4095 -1.2959
 6252TIP3   OH240314   6.127   0.076   1.800 -0.5765  0.3779 -0.3191
 6252TIP3    H140315   6.035   0.103   1.794 -0.7469 -0.5036 -2.7791
 6252TIP3    H240316   6.176   0.152   1.769 -0.8383 -0.6137 -3.5397
 6253TIP3   OH240317   5.373   0.130   1.704 -0.4260 -0.7740  0.0036
 6253TIP3    H140318   5.350   0.104   1.793 -0.6286  0.6239  0.3888
 6253TIP3    H240319   5.435   0.203   1.716  0.1480 -1.0734 -1.0073
 6254TIP3   OH240320   1.350   0.058   6.838  0.3356 -0.0230  0.1460
 6254TIP3    H140321   1.298   0.069   6.918 -1.3356 -1.2980 -0.6885
 6254TIP3    H240322   1.413  -0.011   6.859  1.5552  1.3080  1.0675
 6255TIP3   OH240323   4.230   3.382   1.143  0.2201 -0.1355  0.8894
 6255TIP3    H140324   4.295   3.371   1.073 -0.3510 -1.6119  0.5620
 6255TIP3    H240325   4.191   3.467   1.126 -0.4333 -0.7736 -1.0648
 6256TIP3   OH240326   4.373   1.270   7.781  0.2201 -0.1100 -0.2512
 6256TIP3    H140327   4.326   1.193   7.749 -0.3791  0.2888 -0.3524
 6256TIP3    H240328   4.383   1.254   7.875 -1.1662  0.3109  0.0046
 6257TIP3   OH240329   1.429   2.343   0.880  0.3689  0.2463  0.0920
 6257TIP3    H140330   1.366   2.338   0.808  1.5667 -1.3081 -0.9221
 6257TIP3    H240331   1.487   2.415   0.856 -0.2691  0.8849  0.4199
 6258TIP3   OH240332   0.410   1.708   1.145  0.1558 -0.5246 -0.6993
 6258TIP3    H140333   0.328   1.740   1.106 -0.0289 -0.3910 -0.2160
 6258TIP3    H240334   0.409   1.614   1.129 -1.4412 -1.0147  1.6429
 6259TIP3   OH240335   2.018   1.118   0.958  0.5287 -1.0839 -0.5111
 6259TIP3    H140336   2.113   1.105   0.962  0.3282 -2.6232  0.1808
 6259TIP3    H240337   1.986   1.085   1.042 -0.5247  0.5913 -0.2148
 6260TIP3   OH240338   2.384   2.827   0.805  0.1820  0.7483 -0.2197
 6260TIP3    H140339   2.372   2.867   0.718 -0.6587 -1.1153 -1.0131
 6260TIP3    H240340   2.436   2.748   0.787 -1.9042 -0.9012  0.5845
 6261TIP3   OH240341   1.811   6.106   6.942  0.2013 -0.2705 -0.1419
 6261TIP3    H140342   1.767   6.021   6.937  0.6025 -0.4808 -0.0780
 6261TIP3    H240343   1.835   6.125   6.851 -3.0346  1.4560 -0.8130
 6262TIP3   OH240344   0.389   1.064   7.195 -0.2467 -0.0238 -0.4730
 6262TIP3    H140345   0.469   1.011   7.190  0.8603  1.6071 -0.7886
 6262TIP3    H240346   0.342   1.043   7.115 -0.8165 -1.9700  0.3109
 6263TIP3   OH240347   0.056   4.596   8.405  0.6698 -0.0981 -0.7623
 6263TIP3    H140348   0.140   4.567   8.440  0.9171  1.2478 -0.2080
 6263TIP3    H240349  -0.007   4.530   8.436  0.8874  0.9681  2.1784
 6264TIP3   OH240350   4.622   2.630   0.451  0.1767 -0.2675 -0.3052
 6264TIP3    H140351   4.631   2.723   0.428  4.1230 -0.2333  0.6358
 6264TIP3    H240352   4.632   2.584   0.368 -0.1844  0.1108 -0.5613
 6265TIP3   OH240353   0.881   5.046   6.394  0.4599  0.2036 -0.2278
 6265TIP3    H140354   0.786   5.043   6.406  0.1763 -2.0707 -2.2122
 6265TIP3    H240355   0.913   5.102   6.465 -2.3390  1.0771  0.4631
 6266TIP3   OH240356   0.777   2.878   8.135  0.0676 -0.2006  0.0156
 6266TIP3    H140357   0.812   2.801   8.179  0.5509 -0.4730 -0.8160
 6266TIP3    H240358   0.811   2.871   8.046  0.3142  1.1018 -0.0078
 6267TIP3   OH240359   3.343   2.847   7.804 -0.4304 -0.1621 -0.0162
 6267TIP3    H140360   3.379   2.879   7.721  2.6590 -1.3807  0.7005
 6267TIP3    H240361   3.252   2.876   7.803 -0.6046 -0.2679 -3.8854
 6268TIP3   OH240362   0.124   4.965   7.879  0.5835 -0.4418  0.2255
 6268TIP3    H140363   0.049   4.941   7.825  0.8818  1.1878 -1.0229
 6268TIP3    H240364   0.087   4.993   7.962  0.0560 -2.2827  0.6585
 6269TIP3   OH240365   5.957   4.046   0.015 -0.4295  0.0708  0.7719
 6269TIP3    H140366   5.868   4.064   0.047 -0.9508 -0.3811 -0.4016
 6269TIP3    H240367   5.962   3.951   0.011  1.0055 -0.0445  3.2283
 6270TIP3   OH240368   0.688   0.837   7.063  0.0559 -0.1114 -0.3519
 6270TIP3    H140369   0.664   0.780   7.136  0.2256 -1.4859 -1.3408
 6270TIP3    H240370   0.743   0.905   7.103  0.3773 -0.9963  0.7579
 6271TIP3   OH240371   5.513   6.109   0.486 -0.0520  0.1869 -0.5492
 6271TIP3    H140372   5.431   6.065   0.505 -0.2359 -0.0301 -1.7670
 6271TIP3    H240373   5.530   6.090   0.394  1.5663 -0.1035 -0.2292
 6272TIP3   OH240374   6.434   6.810   7.564  0.1194  0.2221 -0.0488
 6272TIP3    H140375   6.374   6.751   7.609 -1.6183 -0.1761 -2.6666
 6272TIP3    H240376   6.512   6.813   7.620 -0.5354 -2.9047  1.2021
 6273TIP3   OH240377   0.379   5.481   1.713 -0.2781 -0.8701  0.0326
 6273TIP3    H140378   0.385   5.400   1.662  0.2598 -0.9424  0.2027
 6273TIP3    H240379   0.356   5.548   1.649  1.1653 -0.8187 -0.4650
 6274TIP3   OH240380   3.213   6.161   0.594 -0.2182  0.4740  0.1530
 6274TIP3    H140381   3.152   6.206   0.653 -0.1077  2.0346 -0.8682
 6274TIP3    H240382   3.288   6.219   0.588  0.3636 -0.3179 -0.4436
 6275TIP3   OH240383   3.258   2.492   8.527  0.6084 -0.4874  0.6027
 6275TIP3    H140384   3.196   2.560   8.553  0.6174 -0.0711 -0.4181
 6275TIP3    H240385   3.340   2.515   8.569  0.0154 -1.2112  2.2212
 6276TIP3   OH240386   1.810   4.277   6.253 -0.5812  0.0499 -0.7203
 6276TIP3    H140387   1.803   4.279   6.348  3.6412  0.4387 -0.2136
 6276TIP3    H240388   1.812   4.369   6.226 -1.2111 -0.0512 -1.1313
 6277TIP3   OH240389   2.112   2.724   6.340 -0.1060 -0.1414 -0.4391
 6277TIP3    H140390   2.193   2.689   6.304 -0.4598 -0.1837 -1.2192
 6277TIP3    H240391   2.096   2.673   6.420  1.0487  0.4113  0.1696
 6278TIP3   OH240392   6.636   6.846   8.616 -0.3125 -0.2315  0.7191
 6278TIP3    H140393   6.615   6.825   8.525  0.6681 -0.0919  0.4556
 6278TIP3    H240394   6.728   6.870   8.615  0.0569 -1.4410  1.9516
 6279TIP3   OH240395   4.722   0.890   0.068 -0.2110 -0.0227  0.4314
 6279TIP3    H140396   4.648   0.916   0.014  0.8543  3.1224  0.2680
 6279TIP3    H240397   4.799   0.922   0.020  1.2570 -2.3118  1.0624
 6280TIP3   OH240398   1.408   5.769   0.754  0.7300  0.1501  0.2652
 6280TIP3    H140399   1.401   5.705   0.824  1.3246  1.0534  1.1942
 6280TIP3    H240400   1.420   5.718   0.675  0.1388 -0.8947  0.8338
 6281TIP3   OH240401   2.534   0.446   1.337 -0.1304  0.1671  0.2329
 6281TIP3    H140402   2.547   0.361   1.380  2.0313 -1.2833 -2.8433
 6281TIP3    H240403   2.466   0.430   1.272  1.8659 -0.0714 -1.9716
 6282TIP3   OH240404   6.106   3.865   7.948  0.1227 -0.0624  0.5808
 6282TIP3    H140405   6.056   3.815   8.013  0.1714  0.8070  1.3073
 6282TIP3    H240406   6.065   3.843   7.864  0.7866 -2.1135  0.7306
 6283TIP3   OH240407   2.368   4.145   0.398 -0.2795  0.2631  0.6177
 6283TIP3    H140408   2.374   4.160   0.493  1.6392 -0.8798  0.7103
 6283TIP3    H240409   2.296   4.082   0.389  0.7907 -1.1573  1.5372
 6284TIP3   OH240410   5.908   2.273   6.856 -0.6707  0.6815  0.1655
 6284TIP3    H140411   5.874   2.362   6.857  0.7436  1.2492  1.5013
 6284TIP3    H240412   5.944   2.262   6.768 -1.9534  0.9589 -0.4174
 6285TIP3   OH240413   1.984   4.682   0.693 -0.4051 -0.1625  0.0590
 6285TIP3    H140414   1.955   4.773   0.682 -0.9665 -0.4697 -1.1505
 6285TIP3    H240415   1.979   4.667   0.788  1.0176  1.4714  0.4337
 6286TIP3   OH240416   6.482   4.271   2.102 -0.0736  0.0689  0.0667
 6286TIP3    H140417   6.432   4.236   2.176  1.1950 -3.4887 -0.5669
 6286TIP3    H240418   6.425   4.257   2.026 -1.0456  2.9997  0.1049
 6287TIP3   OH240419   1.491   3.684   0.463 -0.2326  0.2633  0.0378
 6287TIP3    H140420   1.557   3.682   0.395 -1.1728  1.0912 -0.9361
 6287TIP3    H240421   1.437   3.760   0.442  0.0127  1.1404  2.2469
 6288TIP3   OH240422   0.318   0.862   1.787  0.0694 -0.4479  0.4209
 6288TIP3    H140423   0.356   0.853   1.875 -2.5343 -0.7254  1.6096
 6288TIP3    H240424   0.274   0.778   1.771 -0.1661 -0.1080 -0.8075
 6289TIP3   OH240425   5.459   1.813   8.630  0.3413  0.2784  0.1360
 6289TIP3    H140426   5.479   1.786   8.720 -1.0780  2.3828  1.1541
 6289TIP3    H240427   5.389   1.753   8.602  0.0595  0.2775  0.8326
 6290TIP3   OH240428   1.722   3.902   2.384 -0.5495  0.2457 -0.2370
 6290TIP3    H140429   1.786   3.959   2.427 -0.1992 -1.8766  2.3330
 6290TIP3    H240430   1.774   3.831   2.347 -1.2035 -0.0610 -0.5829
 6291TIP3   OH240431   6.178   3.297   7.459  0.3917 -0.1382 -0.3486
 6291TIP3    H140432   6.170   3.378   7.510  1.4559 -0.7088  0.7906
 6291TIP3    H240433   6.106   3.243   7.490  0.2889 -0.0119 -0.3649
 6292TIP3   OH240434   4.282   3.655   8.386  0.1533  0.0844 -0.2027
 6292TIP3    H140435   4.236   3.589   8.334 -0.4708 -1.3735  2.0860
 6292TIP3    H240436   4.357   3.679   8.331 -0.7010 -1.0085 -1.9663
 6293TIP3   OH240437   6.047   3.884   7.265  0.1952 -0.5491  0.2195
 6293TIP3    H140438   6.024   3.791   7.262  0.2461 -0.5422 -1.5183
 6293TIP3    H240439   5.970   3.929   7.231  0.4507 -0.0185  0.3272
 6294TIP3   OH240440   4.010   4.382   7.248  0.1637 -0.1463  0.8834
 6294TIP3    H140441   4.095   4.424   7.240  0.4551 -0.9032 -0.2031
 6294TIP3    H240442   3.994   4.342   7.163 -0.8882 -0.7546  1.3340
 6295TIP3   OH240443   5.139   0.608   8.373 -0.2878 -0.4795 -0.0647
 6295TIP3    H140444   5.080   0.677   8.344 -0.0056 -0.5840 -0.9456
 6295TIP3    H240445   5.124   0.601   8.467  0.4842  1.5500  0.2669
 6296TIP3   OH240446   2.880   3.127   0.047 -0.2146  0.1959 -0.4602
 6296TIP3    H140447   2.943   3.135   0.118  1.3329 -0.2594 -1.7292
 6296TIP3    H240448   2.819   3.199   0.061 -0.2670 -0.1749  1.5933
 6297TIP3   OH240449   0.260   4.009   0.021  0.0769 -0.3616 -0.6471
 6297TIP3    H140450   0.169   3.995   0.048 -0.0389  0.6111 -0.5074
 6297TIP3    H240451   0.313   3.975   0.094 -0.1924  0.1999 -0.1898
 6298TIP3   OH240452   0.416   3.850   1.306  0.2797 -0.4363 -0.0076
 6298TIP3    H140453   0.443   3.802   1.228  0.5252  0.6658 -0.6267
 6298TIP3    H240454   0.449   3.939   1.292 -2.8061  0.7706 -0.3623
 6299TIP3   OH240455   0.432   4.823   0.651  0.0538  0.5356 -0.2784
 6299TIP3    H140456   0.427   4.809   0.556 -0.1816 -0.2555 -0.1469
 6299TIP3    H240457   0.400   4.913   0.663 -0.8152  0.3076 -0.8463
 6300TIP3   OH240458   0.611   2.545   0.474 -0.4030  0.0745  0.2510
 6300TIP3    H140459   0.549   2.526   0.545 -1.4172  0.8424 -0.4157
 6300TIP3    H240460   0.607   2.640   0.463 -0.4495 -0.0562 -0.9911
 6301TIP3   OH240461   0.308   4.804   7.226  0.1496  0.4263  0.1522
 6301TIP3    H140462   0.256   4.816   7.147 -0.5846  0.0396  0.5649
 6301TIP3    H240463   0.399   4.813   7.197 -0.1201  0.5139 -0.6889
 6302TIP3   OH240464   4.133   3.344   7.974 -0.5263  0.4100  0.0778
 6302TIP3    H140465   4.139   3.406   7.901  1.7767  0.7363  0.4546
 6302TIP3    H240466   4.125   3.259   7.932  1.8079  0.4877 -0.6904
 6303TIP3   OH240467   6.472   4.857   2.589 -0.2521  1.2711  0.0222
 6303TIP3    H140468   6.460   4.821   2.502 -0.1078  0.5737  0.2838
 6303TIP3    H240469   6.403   4.923   2.598 -1.6414 -0.1322  0.1611
 6304TIP3   OH240470   2.281   4.365   1.165  0.1151 -0.2647 -0.8737
 6304TIP3    H140471   2.243   4.282   1.193  0.2977  0.5940  2.3164
 6304TIP3    H240472   2.212   4.429   1.177  0.3260  0.2641 -2.2520
 6305TIP3   OH240473   0.957   2.513   0.348 -0.3203  0.8953  0.8086
 6305TIP3    H140474   0.891   2.537   0.283  1.1082 -0.2477 -1.1998
 6305TIP3    H240475   1.041   2.523   0.302  0.6766 -1.3128  1.9799
 6306TIP3   OH240476   2.844   1.350   1.520 -0.4001  0.1849 -0.0272
 6306TIP3    H140477   2.824   1.397   1.601 -0.3267  0.0123  0.0919
 6306TIP3    H240478   2.931   1.380   1.496 -0.2114 -0.1350  0.2312
 6307TIP3   OH240479   3.342   1.686   7.188 -0.5301  0.0287 -0.6707
 6307TIP3    H140480   3.363   1.623   7.257 -2.6748 -0.3282 -0.2648
 6307TIP3    H240481   3.359   1.772   7.226 -1.2463 -0.1866  0.1662
 6308TIP3   OH240482   6.136   5.673   0.399 -0.2154  1.0863  0.4264
 6308TIP3    H140483   6.228   5.686   0.420  0.2435  1.0799 -1.3777
 6308TIP3    H240484   6.090   5.687   0.481  1.4551  0.2282  1.5741
 6309TIP3   OH240485   3.083   6.482   8.182 -0.0553 -0.1584 -0.0619
 6309TIP3    H140486   3.174   6.499   8.158  0.0500  2.9166  1.9099
 6309TIP3    H240487   3.070   6.389   8.163  3.1686 -0.4886 -1.3122
 6310TIP3   OH240488   2.572   2.093   6.319 -0.3802 -0.0720  0.1799
 6310TIP3    H140489   2.478   2.109   6.330 -0.2370  1.3943 -0.5219
 6310TIP3    H240490   2.596   2.146   6.243  1.5470  1.7245  1.9307
 6311TIP3   OH240491   4.490   1.130   8.437 -0.2958  0.0076  0.4724
 6311TIP3    H140492   4.556   1.081   8.390  0.6578  2.4773 -0.9764
 6311TIP3    H240493   4.539   1.197   8.484 -1.6121  0.5440  1.1278
 6312TIP3   OH240494   4.848   1.892   7.059 -0.6257  0.2102  0.4610
 6312TIP3    H140495   4.938   1.878   7.090 -0.4383  1.8026  0.7122
 6312TIP3    H240496   4.854   1.882   6.964 -0.8444 -2.8308  0.6648
 6313TIP3   OH240497   3.137   3.418   0.236  0.4454 -0.2492 -0.1576
 6313TIP3    H140498   3.048   3.386   0.227  0.7917 -0.9766 -1.1652
 6313TIP3    H240499   3.131   3.490   0.299 -0.9729  0.2167 -0.7955
 6314TIP3   OH240500   1.264   1.371   7.107 -0.0536 -0.9711 -0.1293
 6314TIP3    H140501   1.310   1.382   7.023  1.1435  0.1645  0.6341
 6314TIP3    H240502   1.309   1.431   7.166 -1.5325 -1.0161  1.0779
 6315TIP3   OH240503   5.169   1.207   0.321  0.3313 -0.5685 -0.3041
 6315TIP3    H140504   5.074   1.205   0.306  0.5145 -0.2842 -1.5686
 6315TIP3    H240505   5.195   1.114   0.321  0.1134 -0.6313 -0.3547
 6316TIP3   OH240506   5.595   0.636   1.356 -0.0905 -0.3520  0.4539
 6316TIP3    H140507   5.597   0.732   1.357 -0.7424 -0.2944 -0.9447
 6316TIP3    H240508   5.503   0.614   1.367 -0.1188 -0.7703 -0.5575
 6317TIP3   OH240509   5.560   2.166   0.850  0.0257  0.2041  0.3387
 6317TIP3    H140510   5.524   2.254   0.859 -0.6546 -0.1886  1.7396
 6317TIP3    H240511   5.518   2.115   0.920 -0.6209 -1.5850 -1.2577
 6318TIP3   OH240512   0.680   1.371   8.482 -0.0790  0.3885 -0.0538
 6318TIP3    H140513   0.595   1.413   8.465 -0.5703 -0.9861 -1.2019
 6318TIP3    H240514   0.669   1.329   8.567 -0.2829  0.8250  0.1429
 6319TIP3   OH240515   1.264   1.651   1.904  0.2814 -0.2260  0.1011
 6319TIP3    H140516   1.209   1.661   1.982 -0.2748  0.0228 -0.3118
 6319TIP3    H240517   1.234   1.720   1.845 -0.4164 -1.3885 -0.9632
 6320TIP3   OH240518   4.826   6.575   8.283 -0.6908  0.3891  0.4411
 6320TIP3    H140519   4.892   6.540   8.223 -2.0761  0.0229 -0.9407
 6320TIP3    H240520   4.784   6.498   8.320 -1.7210  0.5666 -0.3038
 6321TIP3   OH240521   2.056   6.628   7.577 -0.5547  0.4267  0.5213
 6321TIP3    H140522   2.145   6.600   7.597 -0.3243  0.5736 -0.2770
 6321TIP3    H240523   2.062   6.723   7.567 -0.8368  0.4550  0.6074
 6322TIP3   OH240524   1.919   1.740   0.385 -0.2454  0.2505 -0.5673
 6322TIP3    H140525   1.915   1.656   0.431 -1.7873  0.1734 -0.7844
 6322TIP3    H240526   1.995   1.732   0.327  0.2424 -0.5905  0.1591
 6323TIP3   OH240527   5.592   2.925   7.693 -0.1711  0.1660  0.6622
 6323TIP3    H140528   5.580   2.864   7.765  1.3921  0.9945  1.6956
 6323TIP3    H240529   5.576   3.011   7.731  1.6911  0.7106  0.3413
 6324TIP3   OH240530   5.412   5.496   7.551  0.1494 -0.3887 -0.1258
 6324TIP3    H140531   5.413   5.554   7.627 -0.5778 -3.1840  2.2152
 6324TIP3    H240532   5.320   5.494   7.523 -0.3147 -2.0778  1.3201
 6325TIP3   OH240533   4.337   6.094   0.978 -0.2721 -0.3191 -0.0891
 6325TIP3    H140534   4.252   6.058   1.003 -0.4988 -0.1871 -0.6400
 6325TIP3    H240535   4.362   6.044   0.900 -0.7964  0.9644 -1.1222
 6326TIP3   OH240536   4.932   4.766   1.554 -0.0248 -0.3455  0.1742
 6326TIP3    H140537   4.924   4.808   1.469 -2.4597 -0.9009  0.0778
 6326TIP3    H240538   4.999   4.699   1.540  1.0108  0.8258 -0.7348
 6327TIP3   OH240539   4.123   4.934   0.161  0.0214 -0.9434  0.2880
 6327TIP3    H140540   4.165   4.904   0.241 -0.8806  0.3065  1.2708
 6327TIP3    H240541   4.189   4.991   0.119 -0.7004  1.3086  2.0039
 6328TIP3   OH240542   2.801   2.587   7.756  0.4912 -0.1316  0.2269
 6328TIP3    H140543   2.735   2.552   7.696  1.0915  0.0178 -0.5280
 6328TIP3    H240544   2.769   2.562   7.843 -0.5124 -0.1498 -0.1258
 6329TIP3   OH240545   2.272   0.490   1.242  0.0086  0.5414 -0.4973
 6329TIP3    H140546   2.186   0.449   1.234  0.2421 -0.4743  1.4923
 6329TIP3    H240547   2.256   0.570   1.293  0.3992 -0.5224  1.4045
 6330TIP3   OH240548   4.025   2.343   2.599  0.0632 -0.4195  0.1336
 6330TIP3    H140549   4.046   2.366   2.508  1.4648  2.1720  1.0070
 6330TIP3    H240550   4.062   2.255   2.611 -0.0068 -0.7416 -1.7398
 6331TIP3   OH240551   0.995   5.944   1.578  0.2781 -0.0945 -0.3754
 6331TIP3    H140552   1.005   5.915   1.487 -1.4692  0.0162 -0.6524
 6331TIP3    H240553   1.006   6.039   1.573  2.6914 -0.2958 -0.0129
 6332TIP3   OH240554   5.269   3.135   1.708  0.1397  0.1832  0.0869
 6332TIP3    H140555   5.296   3.152   1.798  0.4140  0.6888 -0.0883
 6332TIP3    H240556   5.311   3.203   1.656 -0.4125  0.1958 -0.3645
 6333TIP3   OH240557   1.463   3.972   1.452 -0.3283 -0.3666 -0.0246
 6333TIP3    H140558   1.414   4.038   1.502  0.9826 -0.5591  1.6301
 6333TIP3    H240559   1.494   3.911   1.519  0.6609 -1.2113 -1.2271
 6334TIP3   OH240560   4.827   0.310   7.849  0.0949 -0.3096 -0.5784
 6334TIP3    H140561   4.805   0.366   7.775  1.0070  2.2416  0.9684
 6334TIP3    H240562   4.920   0.291   7.837  0.2089 -0.0122 -0.1686
 6335TIP3   OH240563   2.207   3.675   7.584  0.5428  0.4350 -0.2679
 6335TIP3    H140564   2.241   3.595   7.543 -0.9041  0.0904 -0.8520
 6335TIP3    H240565   2.199   3.652   7.677  1.2742  0.3174 -0.2244
 6336TIP3   OH240566   2.113   6.388   6.714  0.5952  0.3307  0.4854
 6336TIP3    H140567   2.159   6.313   6.676  0.8572  1.1459 -0.9070
 6336TIP3    H240568   2.080   6.436   6.638  0.4245  1.6168  1.3396
 6337TIP3   OH240569   2.897   6.162   0.885 -0.3067  0.2992 -0.1622
 6337TIP3    H140570   2.981   6.124   0.912  0.4504  0.6028 -1.9594
 6337TIP3    H240571   2.836   6.136   0.954  1.0023 -0.9457  0.5920
 6338TIP3   OH240572   4.502   6.515   7.908  0.3097  0.5979  0.0511
 6338TIP3    H140573   4.412   6.539   7.889  0.0584 -0.0519  0.3918
 6338TIP3    H240574   4.512   6.534   8.002  0.0434 -0.7880  0.3753
 6339TIP3   OH240575   5.754   0.426   7.586 -0.1141 -0.4743  0.0225
 6339TIP3    H140576   5.713   0.396   7.504  0.2786 -0.4933 -0.1688
 6339TIP3    H240577   5.680   0.451   7.642 -0.3693  0.5643 -0.7272
 6340TIP3   OH240578   2.770   0.527   8.625  0.5663  0.2068 -0.5417
 6340TIP3    H140579   2.786   0.563   8.538 -0.5840  0.4747 -0.6545
 6340TIP3    H240580   2.820   0.445   8.626 -1.2875 -1.0727 -2.3688
 6341TIP3   OH240581   6.770   1.019   0.050 -0.4512  0.4995  0.2925
 6341TIP3    H140582   6.785   1.030   0.144  1.7599  0.9041 -0.0535
 6341TIP3    H240583   6.844   1.064   0.008 -0.2753 -1.3966 -1.5937
 6342TIP3   OH240584   5.009   2.651   0.366  0.1452  0.3908  0.3601
 6342TIP3    H140585   5.044   2.684   0.283  0.7888 -0.6705  0.1947
 6342TIP3    H240586   4.960   2.725   0.402  0.9698  1.3013 -0.3261
 6343TIP3   OH240587   4.086   3.651   1.155 -0.0340 -0.3800  0.4596
 6343TIP3    H140588   4.134   3.717   1.105  1.3361 -1.7207 -0.0307
 6343TIP3    H240589   4.125   3.653   1.242 -1.5504  1.0299  1.1781
 6344TIP3   OH240590   1.376   0.396   0.634 -0.5585 -0.9455 -0.3684
 6344TIP3    H140591   1.313   0.448   0.684 -0.6004 -1.5056  0.1832
 6344TIP3    H240592   1.437   0.459   0.598 -0.3136 -0.5428  0.7054
 6345TIP3   OH240593   4.517   6.349   6.836 -0.3860  0.3246 -0.0762
 6345TIP3    H140594   4.497   6.418   6.773 -2.3613 -0.7684 -0.7225
 6345TIP3    H240595   4.504   6.389   6.922 -1.1190  0.8760 -0.4406
 6346TIP3   OH240596   3.855   6.341   8.390 -0.1710 -0.3728 -0.0524
 6346TIP3    H140597   3.791   6.390   8.442 -0.4142 -1.8319  1.1112
 6346TIP3    H240598   3.805   6.307   8.316 -0.0157  1.0193 -0.8246
 6347TIP3   OH240599   3.343   6.516   8.062 -0.7370 -0.3656 -0.5579
 6347TIP3    H140600   3.343   6.539   7.969 -1.7803 -2.0134 -1.0038
 6347TIP3    H240601   3.354   6.421   8.063  2.9205 -0.1199  1.1513
 6348TIP3   OH240602   0.339   0.659   1.375  0.2184 -0.1704  0.4194
 6348TIP3    H140603   0.373   0.689   1.291  3.1129  0.0777  1.5649
 6348TIP3    H240604   0.315   0.567   1.360  0.1129  0.0336 -0.7888
 6349TIP3   OH240605   6.164   0.918   7.364 -0.5294 -0.2409 -0.3873
 6349TIP3    H140606   6.182   0.859   7.437 -0.1941  1.3804  0.8989
 6349TIP3    H240607   6.223   0.991   7.377  0.4687 -0.4490 -3.0464
 6350TIP3   OH240608   0.888   3.892   6.790  0.4362  0.7970  0.0654
 6350TIP3    H140609   0.876   3.917   6.698 -0.1494  1.7888  0.3986
 6350TIP3    H240610   0.838   3.957   6.839 -0.4490 -0.5575  1.0282
 6351TIP3   OH240611   5.996   5.853   8.571 -0.7207  0.4944 -0.0387
 6351TIP3    H140612   6.048   5.913   8.625 -0.2161  0.0356 -0.0100
 6351TIP3    H240613   5.999   5.891   8.484  1.8642 -0.8512 -0.6406
 6352TIP3   OH240614   5.116   1.882   8.625  0.3024 -0.1689  0.1215
 6352TIP3    H140615   5.167   1.804   8.606  0.7351 -0.0843  0.9210
 6352TIP3    H240616   5.076   1.905   8.541  1.5848 -0.2182 -0.5183
 6353TIP3   OH240617   3.944   3.604   2.217  0.4732 -0.1836 -0.4561
 6353TIP3    H140618   4.016   3.550   2.183 -0.2852  0.5977 -3.6164
 6353TIP3    H240619   3.981   3.645   2.295  2.7766 -1.3392 -0.8295
 6354TIP3   OH240620   4.647   6.776   8.155 -0.1959 -0.4197  0.4115
 6354TIP3    H140621   4.726   6.725   8.174 -0.2978 -0.4573  0.7390
 6354TIP3    H240622   4.647   6.846   8.221 -0.7458 -0.7658  0.7844
 6355TIP3   OH240623   4.297   4.236   2.290 -0.8948 -0.7562  0.0724
 6355TIP3    H140624   4.321   4.144   2.300  1.3107 -0.3478 -0.7862
 6355TIP3    H240625   4.349   4.281   2.357 -0.8236  0.0005 -0.4754
 6356TIP3   OH240626   2.131   2.234   0.072 -0.5340  0.0633 -0.1892
 6356TIP3    H140627   2.099   2.225  -0.018 -1.1444 -0.4712  0.0700
 6356TIP3    H240628   2.120   2.146   0.110  1.1447 -0.1253 -0.0385
 6357TIP3   OH240629   2.074   1.938   7.016 -0.3580 -0.5309 -0.1199
 6357TIP3    H140630   1.996   1.984   6.986  0.7299  1.0088 -0.7262
 6357TIP3    H240631   2.142   1.960   6.951  0.4433 -2.3119  0.0531
 6358TIP3   OH240632   1.985   1.944   0.158  0.2797 -0.0808  0.2965
 6358TIP3    H140633   2.012   1.864   0.113 -1.7950 -0.8932  0.4051
 6358TIP3    H240634   1.952   1.915   0.242 -0.7551  0.8358  0.2380
 6359TIP3   OH240635   0.781   4.383   7.029 -0.4742  0.4912 -0.4226
 6359TIP3    H140636   0.832   4.463   7.014  1.5897 -0.2049  2.1520
 6359TIP3    H240637   0.808   4.354   7.116 -1.9852 -2.4502 -0.8261
 6360TIP3   OH240638   0.517   0.215   6.886  0.0451 -0.0752 -0.5852
 6360TIP3    H140639   0.434   0.245   6.849  0.2844 -0.0537 -1.1092
 6360TIP3    H240640   0.516   0.249   6.976 -1.5020 -1.9591  0.1888
 6361TIP3   OH240641   3.581   5.057   7.851 -0.0356  0.2474  0.2357
 6361TIP3    H140642   3.628   5.041   7.933  0.4568  0.2011 -0.0503
 6361TIP3    H240643   3.549   4.970   7.825  0.6791  0.0916 -0.1406
 6362TIP3   OH240644   2.585   1.615   7.630 -0.3715  0.1360  0.7072
 6362TIP3    H140645   2.550   1.698   7.597  1.1033  1.4292  2.2426
 6362TIP3    H240646   2.652   1.591   7.567 -0.4381  0.3842  0.5383
 6363TIP3   OH240647   2.448   6.279   7.908 -0.4174 -0.1182  0.0838
 6363TIP3    H140648   2.542   6.282   7.925  0.1773 -1.5053 -2.4946
 6363TIP3    H240649   2.424   6.187   7.921 -1.2432  0.0493 -0.1481
 6364TIP3   OH240650   0.465   0.066   7.169  0.0293  0.0478 -0.1939
 6364TIP3    H140651   0.373   0.062   7.197  0.1671  1.8399  0.6971
 6364TIP3    H240652   0.463   0.037   7.078 -1.4900  0.4113 -0.3146
 6365TIP3   OH240653   0.803   5.091   2.314  0.0263 -0.2023 -0.4632
 6365TIP3    H140654   0.773   5.040   2.389  4.0571  0.8304  2.1771
 6365TIP3    H240655   0.748   5.169   2.315 -1.0224 -0.9211  0.4422
 6366TIP3   OH240656   6.682   4.890   7.874 -0.0578  0.0027 -0.0829
 6366TIP3    H140657   6.663   4.884   7.968 -0.5624  0.2588 -0.1651
 6366TIP3    H240658   6.665   4.981   7.852  0.5254  0.0540 -0.3266
 6367TIP3   OH240659   1.107   0.042   0.692  0.1572 -0.3334  0.5832
 6367TIP3    H140660   1.026   0.041   0.742  1.1878  0.5696  2.3712
 6367TIP3    H240661   1.082   0.078   0.607 -1.5466 -1.3782  0.6000
 6368TIP3   OH240662   0.057   2.097   7.292  0.0376 -0.4986  0.3091
 6368TIP3    H140663  -0.014   2.087   7.355 -1.9434 -0.2375 -1.7390
 6368TIP3    H240664   0.097   2.181   7.314 -1.7677  0.4326  0.1626
 6369TIP3   OH240665   6.507   5.235   2.130 -0.0669 -0.3844  0.1863
 6369TIP3    H140666   6.567   5.304   2.158 -1.0870  0.4962  0.3165
 6369TIP3    H240667   6.444   5.280   2.073  0.6906 -1.7090 -1.8213
 6370TIP3   OH240668   2.629   1.699   1.134 -0.1177  0.0970 -0.0310
 6370TIP3    H140669   2.542   1.680   1.100  0.3294 -2.1005 -0.0818
 6370TIP3    H240670   2.684   1.628   1.101  0.7726 -1.0653  3.5274
 6371TIP3   OH240671   1.153   5.157   0.901  0.3537 -0.0738 -0.1890
 6371TIP3    H140672   1.126   5.068   0.921  0.8250 -0.1195  0.2666
 6371TIP3    H240673   1.238   5.167   0.944  0.7072  0.3153 -0.9475
 6372TIP3   OH240674   3.987   4.997   1.479  0.2430 -0.2327  0.4820
 6372TIP3    H140675   4.038   5.029   1.554 -1.6726  0.3346  1.6019
 6372TIP3    H240676   3.896   5.002   1.508 -0.6865  1.4322 -2.4124
 6373TIP3   OH240677   0.758   0.826   1.690  0.2134 -0.4523  0.2832
 6373TIP3    H140678   0.835   0.791   1.735  1.2678 -0.5773 -1.4852
 6373TIP3    H240679   0.699   0.752   1.681  1.1183 -1.0876 -0.7579
 6374TIP3   OH240680   6.674   3.343   7.685 -0.5243  0.3838 -0.1863
 6374TIP3    H140681   6.737   3.407   7.652  0.7465  0.0377  1.4272
 6374TIP3    H240682   6.639   3.382   7.765 -0.4111 -0.5292  0.3281
 6375TIP3   OH240683   2.011   2.130   7.374 -0.0520  0.1095  0.1464
 6375TIP3    H140684   1.933   2.141   7.320  0.5990  0.1518 -0.8196
 6375TIP3    H240685   2.055   2.053   7.338  0.2032 -0.0787  0.8554
 6376TIP3   OH240686   4.543   5.091   8.453 -0.2330 -0.0542  0.0818
 6376TIP3    H140687   4.488   5.050   8.520 -0.0566  1.3511  1.1254
 6376TIP3    H240688   4.630   5.053   8.467 -0.4967 -0.8518 -0.3334
 6377TIP3   OH240689   3.127   2.440   0.321 -0.2094  0.5789 -0.1795
 6377TIP3    H140690   3.161   2.430   0.409 -1.7763 -0.3698  0.3578
 6377TIP3    H240691   3.086   2.527   0.320 -1.3080  0.0926  0.4646
 6378TIP3   OH240692   1.239   5.116   0.624  0.1770  0.6108  0.2188
 6378TIP3    H140693   1.289   5.198   0.623  0.8458  0.3392  3.2294
 6378TIP3    H240694   1.188   5.119   0.704 -0.2882 -1.6510  0.0819
 6379TIP3   OH240695   1.529   6.347   1.933 -0.2066  0.5941  0.2577
 6379TIP3    H140696   1.435   6.351   1.953  0.0708 -0.4404  1.9468
 6379TIP3    H240697   1.540   6.405   1.857 -2.2748  0.3599 -0.2744
 6380TIP3   OH240698   2.248   2.397   2.132  0.7936 -0.0180  0.4590
 6380TIP3    H140699   2.184   2.433   2.071  1.5573  0.0177 -0.3466
 6380TIP3    H240700   2.197   2.340   2.190 -0.0826  0.6550  0.3718
 6381TIP3   OH240701   4.914   3.105   8.297  0.2543 -0.3600 -0.2602
 6381TIP3    H140702   4.989   3.047   8.313 -0.6748 -1.7813 -0.8463
 6381TIP3    H240703   4.943   3.163   8.226  0.4921 -1.5653 -1.1919
 6382TIP3   OH240704   1.494   1.503   0.294 -0.0351 -0.7806 -0.4665
 6382TIP3    H140705   1.545   1.551   0.359 -1.3917 -0.3641  0.3309
 6382TIP3    H240706   1.448   1.436   0.344  0.3743 -1.7159 -1.2976
 6383TIP3   OH240707   0.840   2.541   0.110 -0.2970 -0.2957  0.0386
 6383TIP3    H140708   0.763   2.486   0.098 -1.3337  0.4004  2.7382
 6383TIP3    H240709   0.817   2.624   0.067 -0.8499 -0.2602  0.3955
 6384TIP3   OH240710   3.873   4.443   7.465 -0.1505 -0.2493  0.2747
 6384TIP3    H140711   3.920   4.443   7.382  1.4938  1.1440  1.1493
 6384TIP3    H240712   3.866   4.350   7.489 -1.4820 -0.7638 -1.7981
 6385TIP3   OH240713   1.351   0.477   8.020  0.2492 -0.5002  0.0782
 6385TIP3    H140714   1.344   0.556   7.967  0.2133 -0.3112  0.3627
 6385TIP3    H240715   1.384   0.410   7.960 -3.3889 -1.3455 -1.2547
 6386TIP3   OH240716   1.460   1.586   1.725  0.2457 -0.0092 -0.1591
 6386TIP3    H140717   1.504   1.668   1.704  0.7740 -0.3695 -0.5073
 6386TIP3    H240718   1.385   1.611   1.779  0.1295  0.7431 -0.6542
 6387TIP3   OH240719   5.994   2.902   8.417 -0.3076  0.2929  0.4641
 6387TIP3    H140720   5.979   2.996   8.403 -2.0440  0.2894  2.0432
 6387TIP3    H240721   6.090   2.893   8.413 -0.1630  1.8929 -0.9096
 6388TIP3   OH240722   4.544   4.277   1.717 -0.3661  0.0099  0.3771
 6388TIP3    H140723   4.475   4.232   1.668  0.3212 -0.1140 -0.5152
 6388TIP3    H240724   4.498   4.340   1.772 -1.1411  1.2329 -1.5490
 6389TIP3   OH240725   1.807   6.838   1.305  0.1845  0.3326 -0.7357
 6389TIP3    H140726   1.754   6.773   1.352  1.9392 -1.9365 -1.7015
 6389TIP3    H240727   1.882   6.853   1.362 -0.4971  2.0778 -0.2387
 6390TIP3   OH240728   0.619   3.829   7.041 -0.7400  0.4164 -0.3216
 6390TIP3    H140729   0.558   3.855   7.110 -0.5649 -0.9123  0.3817
 6390TIP3    H240730   0.622   3.733   7.047  2.1707  0.4684  0.3311
 6391TIP3   OH240731   3.461   2.037   0.326  0.2683  0.4957 -0.6126
 6391TIP3    H140732   3.415   2.013   0.245 -2.5100 -1.1963  1.3148
 6391TIP3    H240733   3.501   2.122   0.306 -1.9928  1.1035 -3.1552
 6392TIP3   OH240734   2.268   6.342   8.140  0.5249 -0.7132 -0.1298
 6392TIP3    H140735   2.208   6.409   8.108 -1.0280 -0.7892  2.4333
 6392TIP3    H240736   2.324   6.323   8.064 -0.7423  1.4749 -1.7343
 6393TIP3   OH240737   2.274   5.077   0.338  0.2692 -0.2455  0.2189
 6393TIP3    H140738   2.296   5.017   0.410  2.7446  1.8749  1.3916
 6393TIP3    H240739   2.346   5.140   0.336 -1.8448  2.3638 -1.3118
 6394TIP3   OH240740   1.070   1.136   7.335 -0.3997 -0.4228  0.3698
 6394TIP3    H140741   1.135   1.110   7.400  0.1991  0.0755 -0.0254
 6394TIP3    H240742   0.986   1.110   7.373  0.0684 -1.6128  0.6238
 6395TIP3   OH240743   0.272   6.818   7.421 -0.6410 -1.0376 -0.4888
 6395TIP3    H140744   0.223   6.736   7.430 -2.0132 -0.2476 -0.4841
 6395TIP3    H240745   0.363   6.793   7.436 -1.1815 -2.3062  0.9832
 6396TIP3   OH240746   5.228   1.596   8.282 -0.3582  0.5458 -0.5703
 6396TIP3    H140747   5.147   1.639   8.254  0.0092  0.3465 -2.0039
 6396TIP3    H240748   5.292   1.616   8.214  0.2109 -1.0955 -0.5828
 6397TIP3   OH240749   3.771   3.125   8.581 -0.1903 -0.0768  0.1808
 6397TIP3    H140750   3.756   3.220   8.578 -1.5225 -0.1868  1.9068
 6397TIP3    H240751   3.837   3.113   8.649  0.1720 -0.3906 -0.2184
 6398TIP3   OH240752   1.532   5.871   7.863  0.1323 -0.0442  0.2446
 6398TIP3    H140753   1.577   5.870   7.778 -2.4594 -0.2115 -1.2224
 6398TIP3    H240754   1.547   5.960   7.897  0.8290  0.1730 -0.5900
 6399TIP3   OH240755   0.075   5.287   1.139 -0.2566 -0.3451  0.6659
 6399TIP3    H140756   0.038   5.331   1.062  1.0795  0.7184  0.6083
 6399TIP3    H240757   0.169   5.285   1.123 -0.2691 -5.2249 -0.3706
 6400TIP3   OH240758   5.577   1.280   7.725 -0.2338  0.5287 -0.1094
 6400TIP3    H140759   5.537   1.201   7.762  3.2106 -2.2270 -1.7214
 6400TIP3    H240760   5.650   1.300   7.784 -0.1607  1.6568 -0.5443
 6401TIP3   OH240761   1.593   0.670   1.300 -0.0629  0.5436 -0.5568
 6401TIP3    H140762   1.508   0.666   1.255 -0.2349 -0.4329 -0.1476
 6401TIP3    H240763   1.575   0.640   1.389  1.0790 -1.7360 -1.0273
 6402TIP3   OH240764   6.826   5.111   8.075  0.0591  0.4365  0.4204
 6402TIP3    H140765   6.759   5.085   8.138 -0.7286 -1.9407 -1.2602
 6402TIP3    H240766   6.894   5.152   8.128 -1.3026  0.0834  2.5715
 6403TIP3   OH240767   3.506   1.433   7.324  0.6404  0.7691  0.3885
 6403TIP3    H140768   3.555   1.402   7.248 -0.4131  0.8234 -0.3401
 6403TIP3    H240769   3.415   1.413   7.304  0.1182  2.6049  0.7209
 6404TIP3   OH240770   3.092   5.901   0.941  0.0325 -0.1781  0.2674
 6404TIP3    H140771   3.173   5.944   0.913 -0.8340  1.4720  0.1577
 6404TIP3    H240772   3.117   5.810   0.955  1.4232 -0.2325 -1.9485
 6405TIP3   OH240773   1.449   2.373   1.266  0.1184 -0.3306 -0.1980
 6405TIP3    H140774   1.464   2.318   1.189  0.3639 -1.3218  0.5375
 6405TIP3    H240775   1.529   2.424   1.274 -0.2779  0.4576 -1.1336
 6406TIP3   OH240776   3.464   2.550   8.004  0.0081 -1.0515 -0.3527
 6406TIP3    H140777   3.404   2.544   8.078 -0.3894 -3.0119 -0.7795
 6406TIP3    H240778   3.511   2.467   8.004 -0.9997 -1.7410 -3.0792
 6407TIP3   OH240779   3.387   0.767   0.543  0.2005 -0.3526  0.2033
 6407TIP3    H140780   3.384   0.703   0.472  0.8030 -0.5253  0.3310
 6407TIP3    H240781   3.386   0.852   0.499  1.9184 -0.4507 -0.0936
 6408TIP3   OH240782   4.541   3.770   8.318  0.2926  0.4034 -0.0131
 6408TIP3    H140783   4.523   3.862   8.298  2.3633  0.9915  0.5440
 6408TIP3    H240784   4.616   3.772   8.377  1.3045 -1.6798 -1.0961
 6409TIP3   OH240785   4.407   5.539   0.516  0.7930 -0.1490 -0.0171
 6409TIP3    H140786   4.424   5.578   0.430 -1.0004  0.1473 -0.2778
 6409TIP3    H240787   4.314   5.517   0.514  0.7138 -0.1390  1.8584
 6410TIP3   OH240788   4.877   5.631   7.018 -0.1126  0.4105  0.1094
 6410TIP3    H140789   4.781   5.639   7.019 -0.2208 -0.7235  0.7603
 6410TIP3    H240790   4.900   5.629   6.925 -1.1681 -3.5951 -0.2486
 6411TIP3   OH240791   1.506   2.018   7.243  0.4612  0.9181  0.1949
 6411TIP3    H140792   1.440   2.082   7.216 -1.5971 -0.0663  2.4682
 6411TIP3    H240793   1.578   2.072   7.276  0.5013  2.0351 -1.6162
 6412TIP3   OH240794   2.647   3.300   0.056  0.0864 -0.3149  0.0210
 6412TIP3    H140795   2.555   3.292   0.031  0.1251  0.0983 -0.2764
 6412TIP3    H240796   2.649   3.372   0.119  0.4292  0.8804 -1.2986
 6413TIP3   OH240797   5.754   0.715   0.326 -0.1902 -0.5289 -0.2826
 6413TIP3    H140798   5.741   0.624   0.353 -2.4674 -0.4618 -0.9635
 6413TIP3    H240799   5.801   0.708   0.243  0.3727 -1.0240  0.0649
 6414TIP3   OH240800   1.968   0.066   1.578 -0.2688 -0.1267 -0.0526
 6414TIP3    H140801   2.041   0.088   1.637  0.4866 -0.9156 -0.6585
 6414TIP3    H240802   1.895   0.046   1.637  0.3875 -0.5964  0.6237
 6415TIP3   OH240803   4.231   6.817   6.547  0.2229 -0.3452  0.3673
 6415TIP3    H140804   4.184   6.900   6.557  0.9911  0.4651 -2.0021
 6415TIP3    H240805   4.266   6.799   6.635  0.9327  2.4255  0.7647
 6416TIP3   OH240806   4.109   2.393   6.717 -0.0954  0.0081 -0.0596
 6416TIP3    H140807   4.086   2.470   6.770 -0.7439 -0.0897 -0.1897
 6416TIP3    H240808   4.151   2.428   6.640  1.8550  0.1070  0.9988
 6417TIP3   OH240809   5.408   3.493   1.011  0.4321 -0.1268  0.4848
 6417TIP3    H140810   5.480   3.494   0.948  0.9478 -1.5572  1.0128
 6417TIP3    H240811   5.385   3.585   1.023  1.1397  0.2433 -0.8585
 6418TIP3   OH240812   0.557   6.435   1.294  0.8405 -0.5436 -0.0303
 6418TIP3    H140813   0.486   6.422   1.357  0.6361  0.2920 -0.0751
 6418TIP3    H240814   0.557   6.355   1.241 -1.1579  0.0929 -1.0831
 6419TIP3   OH240815   2.943   4.015   8.151 -0.0817  0.4427 -0.1609
 6419TIP3    H140816   2.868   4.073   8.139 -0.8921 -0.7207 -0.9918
 6419TIP3    H240817   2.947   3.965   8.069  1.1375 -0.0454  0.1824
 6420TIP3   OH240818   5.289   1.567   1.303  0.4511  0.5762  0.0297
 6420TIP3    H140819   5.359   1.509   1.331 -0.2606 -0.5715 -0.5027
 6420TIP3    H240820   5.210   1.513   1.303 -0.0661  1.2528 -1.4527
 6421TIP3   OH240821   5.980   6.827   1.209 -0.4468  0.1327  0.3129
 6421TIP3    H140822   6.051   6.807   1.270 -1.0714 -1.3190  0.6081
 6421TIP3    H240823   5.929   6.746   1.205 -1.7927  0.9825 -0.2898
 6422TIP3   OH240824   1.631   3.121   6.890  0.2005 -0.2511  0.8010
 6422TIP3    H140825   1.725   3.119   6.873  0.5332 -0.9682  2.5148
 6422TIP3    H240826   1.595   3.177   6.821  1.7207 -0.8316 -0.5310
 6423TIP3   OH240827   5.404   4.066   7.283  0.6240 -0.1307  0.0758
 6423TIP3    H140828   5.335   4.024   7.335  0.4087 -1.1145 -0.9699
 6423TIP3    H240829   5.475   4.003   7.280  1.8690  1.1055  1.6301
 6424TIP3   OH240830   0.171   2.065   7.845 -0.5902 -0.2777 -0.4623
 6424TIP3    H140831   0.184   2.080   7.751  0.3102 -1.9687 -0.6518
 6424TIP3    H240832   0.258   2.045   7.878 -0.8343  0.7032  0.8376
 6425TIP3   OH240833   5.937   5.488   1.571  0.3969  0.3250 -0.6075
 6425TIP3    H140834   5.922   5.477   1.477 -1.4947 -0.0722 -0.2963
 6425TIP3    H240835   6.032   5.501   1.578  1.0682 -2.5623 -2.2969
 6426TIP3   OH240836   6.213   3.716   8.602  0.1575  0.5428 -0.1618
 6426TIP3    H140837   6.157   3.659   8.655 -0.8313 -1.1337 -2.8203
 6426TIP3    H240838   6.269   3.656   8.553  1.2639  2.0325 -0.7995
 6427TIP3   OH240839   3.255   4.118   6.732 -0.4583 -0.4660  0.2180
 6427TIP3    H140840   3.223   4.166   6.809 -1.4354  0.8248 -0.9335
 6427TIP3    H240841   3.343   4.152   6.719 -0.8912  0.5643 -0.1782
 6428TIP3   OH240842   2.236   0.224   8.032 -0.1259 -0.1676  0.0285
 6428TIP3    H140843   2.287   0.155   8.075  1.1321  0.3195 -0.6343
 6428TIP3    H240844   2.165   0.177   7.988  1.0435 -1.1238 -0.8939
 6429TIP3   OH240845   1.280   6.791   8.504  0.2389 -0.4085 -0.2418
 6429TIP3    H140846   1.262   6.885   8.496  1.5120 -0.2674 -2.6063
 6429TIP3    H240847   1.225   6.750   8.437  2.0699 -0.8957 -1.5527
 6430TIP3   OH240848   3.192   4.558   0.591 -0.2349 -0.6853  0.5634
 6430TIP3    H140849   3.178   4.628   0.655  1.0933  0.1815 -0.0556
 6430TIP3    H240850   3.108   4.550   0.546 -0.0303  1.5374 -0.3263
 6431TIP3   OH240851   4.994   6.811   8.394 -0.1974 -0.0383 -0.1873
 6431TIP3    H140852   4.997   6.907   8.394 -3.0520  0.2465 -3.4128
 6431TIP3    H240853   5.026   6.787   8.307 -0.7747 -1.9015  0.0806
 6432TIP3   OH240854   3.291   2.556   1.882  0.4822 -0.8538  0.0943
 6432TIP3    H140855   3.264   2.563   1.974 -0.9256 -3.8089 -0.0053
 6432TIP3    H240856   3.386   2.565   1.885  0.5365 -1.6149  1.9390
 6433TIP3   OH240857   1.991   2.872   0.767  0.2020 -0.9269 -0.2167
 6433TIP3    H140858   1.939   2.800   0.802 -1.3954 -0.1064 -0.7927
 6433TIP3    H240859   2.082   2.845   0.780 -0.3498 -2.9424 -0.2462
 6434TIP3   OH240860   1.109   5.003   1.193  0.1759  0.7692 -0.1628
 6434TIP3    H140861   1.014   5.008   1.179  0.4042  1.3950 -1.6079
 6434TIP3    H240862   1.121   4.920   1.239 -0.9925  0.2172 -0.7967
 6435TIP3   OH240863   4.570   5.240   0.621  0.2634 -0.5867  0.3290
 6435TIP3    H140864   4.504   5.268   0.685 -0.2432 -0.6137 -0.1783
 6435TIP3    H240865   4.613   5.165   0.662  0.5482 -0.0656  1.0142
 6436TIP3   OH240866   5.886   2.900   1.660  0.1780 -0.5751 -0.1864
 6436TIP3    H140867   5.849   2.815   1.682  2.8148 -2.1116 -1.1433
 6436TIP3    H240868   5.944   2.883   1.585  2.8168  1.4982  1.1815
 6437TIP3   OH240869   0.078   6.046   8.376 -0.0527  0.2918 -0.1146
 6437TIP3    H140870   0.024   6.123   8.359 -1.4681 -0.4111  1.0724
 6437TIP3    H240871   0.154   6.080   8.423 -1.2000  0.8650  1.3954
 6438TIP3   OH240872   5.711   2.901   7.002 -0.5446 -0.7279 -0.5330
 6438TIP3    H140873   5.631   2.852   6.983 -1.2892 -0.1086  0.8729
 6438TIP3    H240874   5.706   2.978   6.946 -2.4763  0.8358  1.5873
 6439TIP3   OH240875   6.721   1.358   1.595  0.2470  0.6702  0.3625
 6439TIP3    H140876   6.696   1.391   1.508  1.6771  1.5946  0.2739
 6439TIP3    H240877   6.696   1.266   1.594 -1.1441  1.0140 -0.4661
 6440TIP3   OH240878   2.536   1.322   2.262  0.1665  0.0830 -0.7761
 6440TIP3    H140879   2.507   1.396   2.207  0.1033  1.1673  0.6679
 6440TIP3    H240880   2.473   1.320   2.334  1.4785  0.0745  0.4102
 6441TIP3   OH240881   3.127   3.446   8.589 -0.2129  0.1301 -0.1857
 6441TIP3    H140882   3.187   3.439   8.514 -0.4910  0.5867 -0.4560
 6441TIP3    H240883   3.176   3.409   8.662 -0.4892 -1.7402 -0.8913
 6442TIP3   OH240884   6.772   5.643   8.637 -0.3718 -0.0665 -0.2932
 6442TIP3    H140885   6.704   5.688   8.687 -1.8632 -0.8488 -1.5372
 6442TIP3    H240886   6.781   5.694   8.556  0.6376  0.1094 -0.0829
 6443TIP3   OH240887   0.422   2.587   2.044  0.1681 -0.0953  0.0329
 6443TIP3    H140888   0.372   2.572   1.964 -0.5280  0.8393  0.2864
 6443TIP3    H240889   0.509   2.551   2.024  0.5886  1.7591 -1.8265
 6444TIP3   OH240890   4.808   5.828   0.973  0.4037 -0.1429  0.5340
 6444TIP3    H140891   4.789   5.778   1.052  1.3936  0.5493  1.2350
 6444TIP3    H240892   4.879   5.780   0.931  0.8290  0.2356  0.8064
 6445TIP3   OH240893   1.730   1.922   8.453 -0.0482 -0.4652  0.2400
 6445TIP3    H140894   1.760   1.988   8.515 -1.2100  1.3155 -1.0113
 6445TIP3    H240895   1.797   1.853   8.457 -0.5436 -0.9695  4.1782
 6446TIP3   OH240896   4.138   1.041   0.992  0.1587 -0.1419 -0.2165
 6446TIP3    H140897   4.127   1.118   0.936  2.2566 -0.3065 -0.9466
 6446TIP3    H240898   4.129   0.967   0.932  1.1057 -0.3545 -0.1114
 6447TIP3   OH240899   3.261   2.709   1.039  0.6000  0.1561 -0.9431
 6447TIP3    H140900   3.218   2.638   1.086  0.5566  0.4297 -0.5592
 6447TIP3    H240901   3.354   2.699   1.059  0.6224  0.0674 -1.0859
 6448TIP3   OH240902   5.668   5.945   7.004  0.9594 -0.7011 -0.1520
 6448TIP3    H140903   5.684   5.916   6.914  2.0503 -0.2526 -0.1231
 6448TIP3    H240904   5.753   5.979   7.033 -0.1625  2.4045 -0.1549
 6449TIP3   OH240905   3.116   6.658   0.897  0.0978 -0.0775 -0.9128
 6449TIP3    H140906   3.115   6.587   0.961  1.7221  0.7909  0.1616
 6449TIP3    H240907   3.027   6.692   0.896  0.4781  1.5190  2.8863
 6450TIP3   OH240908   4.083   1.889   6.810 -0.4822 -0.3978 -0.4218
 6450TIP3    H140909   4.108   1.858   6.723  0.0260  1.3985 -0.9821
 6450TIP3    H240910   4.113   1.980   6.812 -4.1064  0.9540  0.0828
 6451TIP3   OH240911   1.851   0.976   8.413  0.0766 -0.7516  0.5579
 6451TIP3    H140912   1.863   0.965   8.507  1.3138  1.1671  0.6948
 6451TIP3    H240913   1.828   1.069   8.403 -0.2789 -0.9792 -1.0177
 6452TIP3   OH240914   2.570   2.385   8.612 -0.0140  0.0975 -0.1006
 6452TIP3    H140915   2.506   2.427   8.554 -1.5957  0.3621  1.7385
 6452TIP3    H240916   2.627   2.456   8.640  0.2617  0.1165 -0.6999
 6453TIP3   OH240917   2.843   3.593   1.714 -0.6250 -0.5898  0.4647
 6453TIP3    H140918   2.774   3.655   1.691  0.4794  0.9089  1.0341
 6453TIP3    H240919   2.924   3.637   1.689  0.2405 -1.5720  1.4115
 6454TIP3   OH240920   5.022   2.751   7.442  0.2575 -0.4430 -0.5453
 6454TIP3    H140921   5.014   2.842   7.412 -1.3024 -0.4270 -0.1743
 6454TIP3    H240922   4.997   2.699   7.366 -3.7496 -0.4019  0.5053
 6455TIP3   OH240923   3.435   1.412   1.914  0.1585 -0.5342 -0.7961
 6455TIP3    H140924   3.349   1.371   1.915 -0.2536  0.3047 -0.0239
 6455TIP3    H240925   3.445   1.450   2.002  1.1619 -0.3125 -0.9857
 6456TIP3   OH240926   0.194   0.348   8.128  0.2273 -0.1622  0.6968
 6456TIP3    H140927   0.201   0.439   8.158 -1.2112 -0.1585  1.0884
 6456TIP3    H240928   0.151   0.354   8.043 -1.4731 -0.5474  1.4843
 6457TIP3   OH240929   5.562   5.538   1.040  0.1852 -0.2096 -0.2916
 6457TIP3    H140930   5.545   5.629   1.066  1.1264 -0.2603  0.5582
 6457TIP3    H240931   5.651   5.540   1.006  0.7139 -1.0641  0.9995
 6458TIP3   OH240932   1.766   4.922   0.874  0.5159 -0.6839  0.6478
 6458TIP3    H140933   1.766   4.919   0.778  2.5471  0.3933  0.5460
 6458TIP3    H240934   1.797   4.835   0.900  1.3462 -0.5343  0.2292
 6459TIP3   OH240935   4.561   0.109   1.572 -0.9767 -0.1474 -0.2698
 6459TIP3    H140936   4.590   0.194   1.538 -0.8003 -1.0825 -2.6365
 6459TIP3    H240937   4.466   0.116   1.577 -0.9102  0.4430  0.3479
 6460TIP3   OH240938   3.791   1.430   7.387  0.3243  0.5873 -0.0131
 6460TIP3    H140939   3.712   1.380   7.365 -0.8506  0.0586  4.3247
 6460TIP3    H240940   3.860   1.364   7.394  0.4278  0.6032 -0.8076
 6461TIP3   OH240941   2.890   4.234   1.340 -0.3786 -0.0550  0.0394
 6461TIP3    H140942   2.851   4.227   1.428  0.2429 -4.1292  0.1670
 6461TIP3    H240943   2.979   4.266   1.356 -0.7718  0.7699  0.6863
 6462TIP3   OH240944   1.146   6.194   0.873  0.3715 -0.4503  0.2339
 6462TIP3    H140945   1.095   6.253   0.818  0.4253 -0.4334  0.2019
 6462TIP3    H240946   1.110   6.107   0.856 -0.6870 -0.2553  1.3773
 6463TIP3   OH240947   6.027   5.939   1.819  0.2109 -0.4821 -0.6075
 6463TIP3    H140948   6.037   5.858   1.869 -0.5486  0.7281  1.6515
 6463TIP3    H240949   6.080   6.003   1.866 -2.2829  1.2631  0.0582
 6464TIP3   OH240950   5.542   5.102   7.080  0.3461  0.3159 -0.0111
 6464TIP3    H140951   5.501   5.146   7.155  1.2292 -0.1275  0.7456
 6464TIP3    H240952   5.616   5.055   7.117  0.8509  0.1553 -1.1872
 6465TIP3   OH240953   5.740   4.434   7.100  0.4540 -0.1026  0.1439
 6465TIP3    H140954   5.772   4.453   7.012  1.1177 -0.2152  0.3564
 6465TIP3    H240955   5.652   4.398   7.086  0.7591 -0.6260 -0.5134
 6466TIP3   OH240956   3.314   1.205   6.898  0.2921 -0.5270 -0.1899
 6466TIP3    H140957   3.374   1.144   6.941  0.1713 -2.0015 -1.9721
 6466TIP3    H240958   3.308   1.279   6.958  3.9026 -0.2854  0.0826
 6467TIP3   OH240959   0.228   5.164   8.094 -0.5913  0.0245 -0.1092
 6467TIP3    H140960   0.296   5.170   8.027 -0.6247  0.3736 -0.1107
 6467TIP3    H240961   0.252   5.086   8.145 -1.6367 -1.3938 -1.6922
 6468TIP3   OH240962   0.299   5.040   0.443  0.2702 -0.2976 -0.0587
 6468TIP3    H140963   0.354   5.062   0.517 -0.3678 -0.4537  0.4715
 6468TIP3    H240964   0.210   5.057   0.473  0.0298  0.1558 -0.9687
 6469TIP3   OH240965   0.385   4.556   0.113 -0.5213  0.1631 -0.3974
 6469TIP3    H140966   0.479   4.571   0.100 -0.7751  1.7430 -0.6280
 6469TIP3    H240967   0.375   4.548   0.208 -0.0061 -1.3160 -0.4408
 6470TIP3   OH240968   3.608   5.968   0.321  0.2787 -0.0664 -0.5133
 6470TIP3    H140969   3.531   5.925   0.359  0.2903  0.5593  0.2544
 6470TIP3    H240970   3.611   5.937   0.231 -0.1887 -1.0174 -0.2117
 6471TIP3   OH240971   4.566   4.044   7.652 -0.4843 -0.1637 -0.2001
 6471TIP3    H140972   4.655   4.008   7.644 -0.2798  0.2257  0.2370
 6471TIP3    H240973   4.564   4.117   7.590 -0.8946 -0.8979 -1.0783
 6472TIP3   OH240974   0.888   2.147   7.959  0.5660 -0.1871 -0.6809
 6472TIP3    H140975   0.799   2.136   7.924  0.2064 -0.6166  0.3419
 6472TIP3    H240976   0.944   2.102   7.895  0.0353 -0.0286 -1.2665
 6473TIP3   OH240977   3.449   0.778   7.000 -0.3689 -0.1582  0.0237
 6473TIP3    H140978   3.359   0.802   6.977 -1.1118 -0.4041  2.3539
 6473TIP3    H240979   3.487   0.860   7.033  0.3919  0.0197 -1.2553
 6474TIP3   OH240980   0.408   6.613   0.430  0.2758 -0.6689  0.3628
 6474TIP3    H140981   0.497   6.596   0.399  0.3970 -1.5316  1.1162
 6474TIP3    H240982   0.375   6.526   0.454 -0.5955 -0.2931  0.5516
 6475TIP3   OH240983   2.601   4.934   1.413 -0.5848 -0.4214 -0.2994
 6475TIP3    H140984   2.678   4.988   1.395 -0.6939  0.5416  1.7731
 6475TIP3    H240985   2.607   4.862   1.351  1.8509 -0.2480 -0.3646
 6476TIP3   OH240986   4.271   0.657   8.197  0.3707  0.3601 -0.3559
 6476TIP3    H140987   4.350   0.672   8.250  1.1962  1.5111 -1.8372
 6476TIP3    H240988   4.297   0.589   8.135 -0.4659 -0.6852  0.3981
 6477TIP3   OH240989   2.972   1.368   6.964 -0.1278  0.3531 -0.1768
 6477TIP3    H140990   2.882   1.356   6.995 -0.1469 -1.0420 -0.7050
 6477TIP3    H240991   3.027   1.346   7.039 -0.2049  0.7261 -0.0048
 6478TIP3   OH240992   5.145   1.437   0.051 -0.6111 -0.7542  0.1063
 6478TIP3    H140993   5.146   1.401   0.140 -3.6693 -0.8266  0.1909
 6478TIP3    H240994   5.172   1.363  -0.004 -3.0879 -2.1409  0.6216
 6479TIP3   OH240995   0.575   6.178   0.930 -0.6636 -0.2333  0.3653
 6479TIP3    H140996   0.568   6.198   0.837 -0.2605 -0.8543  0.1943
 6479TIP3    H240997   0.656   6.128   0.938 -1.3286 -1.2672  0.8634
 6480TIP3   OH240998   5.956   6.744   8.312  0.4113 -0.5638  0.2361
 6480TIP3    H140999   6.021   6.815   8.307  0.0350 -0.2831 -0.9549
 6480TIP3    H241000   5.999   6.676   8.364  2.0075 -0.7244 -1.1980
 6481TIP3   OH241001   4.497   3.676   7.734 -0.3149  1.0554 -0.4930
 6481TIP3    H141002   4.480   3.590   7.694  0.9422  1.0056 -0.9736
 6481TIP3    H241003   4.413   3.702   7.772 -0.8161 -0.2111 -0.6777
 6482TIP3   OH241004   0.238   5.409   0.797  0.1937 -0.2533 -1.1245
 6482TIP3    H141005   0.222   5.411   0.703  1.1959 -2.4362 -1.4054
 6482TIP3    H241006   0.317   5.356   0.807 -0.2100 -0.5490  0.9846
 6483TIP3   OH241007   2.595   1.769   1.769 -0.4545  0.2563  0.1279
 6483TIP3    H141008   2.524   1.727   1.721 -1.0013  1.0666  0.2105
 6483TIP3    H241009   2.621   1.843   1.714 -0.8760  1.0106  0.9087
 6484TIP3   OH241010   6.827   6.831   0.250 -0.4046 -0.5994  0.0054
 6484TIP3    H141011   6.838   6.767   0.181  1.7515 -2.0574  1.5588
 6484TIP3    H241012   6.735   6.859   0.243 -1.1839 -3.1595 -1.3093
 6485TIP3   OH241013   1.945   4.148   0.731  0.2109 -0.0306  0.0121
 6485TIP3    H141014   1.926   4.229   0.682  0.1458  1.4725  2.3762
 6485TIP3    H241015   1.860   4.105   0.739  0.4414 -1.1094 -2.3980
 6486TIP3   OH241016   2.425   4.584   0.963  0.5384  0.5746  0.3463
 6486TIP3    H141017   2.430   4.494   0.995  0.8259  0.5161  0.1391
 6486TIP3    H241018   2.439   4.638   1.041 -3.1226  0.5440  1.2448
 6487TIP3   OH241019   4.366   0.969   6.495  0.5448 -0.0646 -0.1352
 6487TIP3    H141020   4.430   0.932   6.556 -0.1092  0.7292  1.0826
 6487TIP3    H241021   4.401   1.055   6.473  1.5183 -0.9118 -2.1002
 6488TIP3   OH241022   2.513   2.718   7.678 -0.4800  0.0894  0.1595
 6488TIP3    H141023   2.486   2.730   7.769 -0.3828  0.7132  0.1114
 6488TIP3    H241024   2.518   2.807   7.643 -0.5468 -0.1473 -0.4639
 6489TIP3   OH241025   2.184   2.765   0.472 -0.2911 -0.2211 -0.0619
 6489TIP3    H141026   2.191   2.737   0.563 -0.6448 -0.4675 -0.1055
 6489TIP3    H241027   2.089   2.767   0.455 -0.2103 -1.0147 -0.6788
 6490TIP3   OH241028   3.677   1.121   7.354 -0.0514  0.3681 -0.1591
 6490TIP3    H141029   3.766   1.157   7.347  0.8357 -1.2499  1.5501
 6490TIP3    H241030   3.647   1.149   7.441  0.0357 -1.4990  0.5396
 6491TIP3   OH241031   2.984   0.446   1.386 -0.4397 -0.2139 -0.3399
 6491TIP3    H141032   3.000   0.379   1.452 -1.6333 -0.6134 -0.4445
 6491TIP3    H241033   2.923   0.406   1.324 -1.4083  1.0487 -0.2491
 6492TIP3   OH241034   0.537   4.054   8.055 -0.3483 -0.2995 -0.5462
 6492TIP3    H141035   0.469   3.999   8.094  1.4869 -2.4523 -0.1257
 6492TIP3    H241036   0.572   4.001   7.983 -0.7890  1.8391 -2.4568
 6493TIP3   OH241037   5.845   4.788   1.207 -0.9377  0.1024 -0.3220
 6493TIP3    H141038   5.883   4.875   1.215 -0.0874 -0.2634 -0.3051
 6493TIP3    H241039   5.839   4.756   1.297  0.4075 -0.5475 -0.4524
 6494TIP3   OH241040   2.996   5.621   0.272  0.7999  0.8461 -0.0924
 6494TIP3    H141041   2.912   5.583   0.299 -0.5214  2.9926 -0.9479
 6494TIP3    H241042   3.047   5.545   0.243 -1.6752 -0.3794 -1.6870
 6495TIP3   OH241043   4.519   2.548   0.188 -0.5406  0.1902  0.4474
 6495TIP3    H141044   4.492   2.456   0.179  0.2456 -0.0093  0.0518
 6495TIP3    H241045   4.437   2.597   0.183 -0.7747 -0.3099 -1.8248
 6496TIP3   OH241046   6.329   5.131   0.329 -0.4426 -0.4132  0.5820
 6496TIP3    H141047   6.283   5.049   0.310 -0.8867  0.1759 -0.9789
 6496TIP3    H241048   6.262   5.187   0.367 -0.6723 -0.0612 -0.3217
 6497TIP3   OH241049   0.191   4.230   1.800 -0.7832 -0.1571  0.9145
 6497TIP3    H141050   0.116   4.284   1.827  0.7461  2.2603  0.6194
 6497TIP3    H241051   0.222   4.190   1.881 -0.7052  1.0787  1.5083
 6498TIP3   OH241052   4.705   5.591   7.893  0.0698 -0.0433 -0.8291
 6498TIP3    H141053   4.696   5.663   7.955  3.1563 -0.5889  0.4022
 6498TIP3    H241054   4.751   5.522   7.941  0.2962 -1.5172 -2.9808
 6499TIP3   OH241055   0.867   5.376   0.769 -0.0788  0.3624  0.4341
 6499TIP3    H141056   0.894   5.343   0.854 -1.4140  2.3049  1.7030
 6499TIP3    H241057   0.772   5.365   0.768 -0.3555  2.4624  0.1948
 6500TIP3   OH241058   3.132   1.871   7.459  0.2819 -0.2239  0.7403
 6500TIP3    H141059   3.058   1.839   7.408  1.1823 -1.1685 -0.0232
 6500TIP3    H241060   3.113   1.846   7.549 -0.4664 -0.1771  0.5960
 6501TIP3   OH241061   1.525   3.153   7.738  0.0746  0.0661 -0.0111
 6501TIP3    H141062   1.548   3.122   7.650 -0.2419  1.3141 -0.5465
 6501TIP3    H241063   1.444   3.203   7.726  0.4187  0.8688  0.8667
 6502TIP3   OH241064   4.342   5.694   1.242  0.3246 -0.1366  0.0568
 6502TIP3    H141065   4.393   5.678   1.321 -1.4860  0.3709  1.3764
 6502TIP3    H241066   4.268   5.634   1.248 -0.3476  0.5825 -0.7888
 6503TIP3   OH241067   3.672   2.369   8.115 -0.2814  0.1065 -0.4006
 6503TIP3    H141068   3.629   2.287   8.139  1.4699 -1.0506 -1.0896
 6503TIP3    H241069   3.700   2.407   8.198  1.0251 -1.2169 -0.2051
 6504TIP3   OH241070   1.629   3.174   2.212 -0.3073  0.6059 -0.6374
 6504TIP3    H141071   1.646   3.264   2.240  0.4692  0.4996 -0.7614
 6504TIP3    H241072   1.536   3.160   2.232 -0.6995  1.7675 -1.5332
 6505TIP3   OH241073   4.347   0.213   8.557  0.3904  0.4428  0.7611
 6505TIP3    H141074   4.413   0.238   8.492  0.7495 -0.0041  0.9501
 6505TIP3    H241075   4.393   0.213   8.640  0.2130 -0.1112  0.8628
 6506TIP3   OH241076   4.821   1.281   1.463  0.0480 -0.1480 -0.9434
 6506TIP3    H141077   4.784   1.223   1.529 -0.7390 -0.3994 -1.5889
 6506TIP3    H241078   4.838   1.363   1.510 -1.1397 -0.0938 -0.5780
 6507TIP3   OH241079   4.137   5.673   6.719 -0.0210 -0.3614 -0.0287
 6507TIP3    H141080   4.079   5.678   6.643 -0.8396 -0.4046  0.5833
 6507TIP3    H241081   4.080   5.645   6.791  0.3781  1.3159  0.9858
 6508TIP3   OH241082   4.669   4.307   0.920 -0.1862  0.6091  0.3180
 6508TIP3    H141083   4.579   4.287   0.947 -0.8498 -1.1634 -2.7405
 6508TIP3    H241084   4.659   4.342   0.831  2.0951  1.5718  0.3848
 6509TIP3   OH241085   6.119   6.586   1.064 -0.4592  0.1866 -0.3023
 6509TIP3    H141086   6.027   6.593   1.089 -0.0049 -1.0290  2.0046
 6509TIP3    H241087   6.136   6.665   1.013 -2.6384  0.6766 -0.3690
 6510TIP3   OH241088   6.142   2.804   0.703 -0.1316 -0.6069 -0.3465
 6510TIP3    H141089   6.176   2.893   0.705 -1.8716  0.1365 -1.4610
 6510TIP3    H241090   6.183   2.761   0.778 -0.1390  1.4553  0.9232
 6511TIP3   OH241091   0.167   3.218   1.959 -0.2022 -0.5719  0.5485
 6511TIP3    H141092   0.201   3.270   2.033  0.1168 -2.0008  1.4409
 6511TIP3    H241093   0.095   3.270   1.925  0.2088  0.5443  1.3086
 6512TIP3   OH241094   1.997   0.508   8.251 -0.0779  0.5700  0.0353
 6512TIP3    H141095   2.047   0.485   8.173  0.6040  0.1111  0.6002
 6512TIP3    H241096   2.060   0.503   8.323 -0.3085  2.4774  0.4347
 6513TIP3   OH241097   1.901   4.004   8.131 -0.5492  0.0610 -0.5418
 6513TIP3    H141098   1.965   3.967   8.192  0.9436  1.8507 -0.9331
 6513TIP3    H241099   1.820   4.010   8.182  0.1932 -0.1228  0.7039
 6514TIP3   OH241100   3.364   0.064   1.604 -0.2071  0.0338 -0.2680
 6514TIP3    H141101   3.436   0.086   1.546  0.3619 -1.6139 -0.2344
 6514TIP3    H241102   3.300   0.020   1.547 -0.6956  0.4644 -0.0701
 6515TIP3   OH241103   5.698   3.557   2.003  0.5393 -0.6235 -0.6463
 6515TIP3    H141104   5.791   3.576   1.989  0.9363 -1.3426  0.8097
 6515TIP3    H241105   5.697   3.500   2.079 -1.1055 -0.7461 -0.7329
 6516TIP3   OH241106   1.600   4.877   6.735 -0.5371  0.3229  0.2869
 6516TIP3    H141107   1.687   4.910   6.712 -0.6077 -0.6627 -1.6359
 6516TIP3    H241108   1.549   4.887   6.655 -2.2120  0.8448  1.3701
 6517TIP3   OH241109   6.095   5.242   0.807  0.2902  0.0209 -0.2036
 6517TIP3    H141110   6.139   5.158   0.816 -0.0198 -0.0584  0.6815
 6517TIP3    H241111   6.044   5.251   0.888 -1.6394 -0.0709 -1.3598
 6518TIP3   OH241112   3.474   0.131   8.332 -0.6939  0.1634 -0.2991
 6518TIP3    H141113   3.444   0.171   8.414  0.2585  0.9375 -0.3085
 6518TIP3    H241114   3.452   0.195   8.264 -1.0025 -0.2418 -0.5877
 6519TIP3   OH241115   4.265   3.453   0.271 -0.1391 -0.2518 -0.8980
 6519TIP3    H141116   4.234   3.363   0.277  2.5955 -1.2128  0.7649
 6519TIP3    H241117   4.274   3.469   0.177 -2.0702 -1.1242 -1.2750
 6520TIP3   OH241118   5.691   0.454   0.332  0.7193 -0.1595 -0.0398
 6520TIP3    H141119   5.761   0.399   0.298  1.2097  0.1529  0.4691
 6520TIP3    H241120   5.611   0.418   0.292  0.9592 -1.5974  0.7188
 6521TIP3   OH241121   0.555   2.780   6.765 -0.1515 -0.4405  0.2265
 6521TIP3    H141122   0.536   2.858   6.818  1.2292 -0.4247  0.7451
 6521TIP3    H241123   0.509   2.795   6.683 -1.6123 -0.0400  1.0727
 6522TIP3   OH241124   1.709   5.278   7.791 -0.4607  0.0326  0.6355
 6522TIP3    H141125   1.637   5.305   7.848 -1.7053 -0.6440 -0.5601
 6522TIP3    H241126   1.682   5.193   7.757  1.7139 -1.0782  1.4901
 6523TIP3   OH241127   1.066   5.925   0.824 -0.3351  0.3537  0.1901
 6523TIP3    H141128   1.057   5.902   0.731  0.8232  0.0696  0.1312
 6523TIP3    H241129   1.115   5.853   0.862 -0.5580  0.6064  0.9698
 6524TIP3   OH241130   5.781   0.120   0.391 -0.2248  0.2768  0.1074
 6524TIP3    H141131   5.861   0.067   0.388 -0.8122 -0.6127 -0.8010
 6524TIP3    H241132   5.782   0.162   0.476  0.6555 -0.6156  0.5528
 6525TIP3   OH241133   1.689   1.447   6.580  0.5557  0.1847 -0.0581
 6525TIP3    H141134   1.604   1.435   6.623  0.3293 -0.3542 -0.6443
 6525TIP3    H241135   1.702   1.367   6.529  2.2598 -0.5372  1.4342
 6526TIP3   OH241136   4.743   2.178   0.671  0.3661  0.3283 -0.2631
 6526TIP3    H141137   4.810   2.224   0.620 -0.7200  1.9302 -0.3492
 6526TIP3    H241138   4.700   2.247   0.721 -1.5203 -0.5613 -0.5742
 6527TIP3   OH241139   3.914   5.635   0.459  0.0776 -0.0011 -0.1903
 6527TIP3    H141140   3.878   5.584   0.386 -0.9215 -0.7153  0.7684
 6527TIP3    H241141   3.858   5.712   0.464 -1.0027 -0.8035  0.8941
 6528TIP3   OH241142   5.831   1.031   2.720 -0.4764 -0.5628  0.1137
 6528TIP3    H141143   5.765   0.996   2.661 -0.8123 -1.9798  1.2646
 6528TIP3    H241144   5.872   0.954   2.759 -0.6660  0.2837  2.1511
 6529TIP3   OH241145   4.053   4.636   1.806  0.0832  0.0453  0.1011
 6529TIP3    H141146   4.111   4.698   1.762 -0.0416 -0.5376 -0.8989
 6529TIP3    H241147   4.080   4.641   1.898 -0.0149  1.6664  0.0734
 6530TIP3   OH241148   0.325   4.836   8.489  0.1880  0.4456  0.2079
 6530TIP3    H141149   0.334   4.742   8.503  0.1919  0.1409 -1.6110
 6530TIP3    H241150   0.311   4.872   8.577 -2.8073 -1.5833  0.7114
 6531TIP3   OH241151   0.562   2.750   7.461 -0.0037 -0.4599 -0.2929
 6531TIP3    H141152   0.602   2.751   7.547  0.2506  0.0804 -0.4115
 6531TIP3    H241153   0.546   2.658   7.442  0.9593 -0.6666 -0.1389
 6532TIP3   OH241154   6.216   1.225   1.466 -0.3682 -0.1301 -0.1641
 6532TIP3    H141155   6.262   1.305   1.441 -1.5479  0.8753  0.7874
 6532TIP3    H241156   6.232   1.165   1.393  1.0183  0.7571 -0.6250
 6533TIP3   OH241157   1.295   0.697   7.583  0.3228 -0.8204 -0.2170
 6533TIP3    H141158   1.294   0.660   7.672  0.1146  0.4673  0.3391
 6533TIP3    H241159   1.362   0.766   7.587 -1.3719  0.9133 -0.3340
 6534TIP3   OH241160   2.200   4.800   7.845  0.1126 -0.2101 -0.7825
 6534TIP3    H141161   2.267   4.734   7.859  2.1053  0.8227 -4.1358
 6534TIP3    H241162   2.245   4.883   7.861 -1.1259  0.4665 -0.6870
 6535TIP3   OH241163   2.151   2.627   1.617  0.0703  0.0241  0.4949
 6535TIP3    H141164   2.133   2.593   1.705  1.1717  0.1415  0.7885
 6535TIP3    H241165   2.171   2.719   1.630  0.9470 -0.1151  0.2303
 6536TIP3   OH241166   2.899   4.857   0.601 -0.2081 -0.5176 -0.4694
 6536TIP3    H141167   2.851   4.922   0.550  1.9167  1.1960 -0.4197
 6536TIP3    H241168   2.966   4.825   0.542  0.5994 -0.4957  0.4143
 6537TIP3   OH241169   2.409   6.433   8.587 -0.0039 -0.3109  0.1814
 6537TIP3    H141170   2.378   6.360   8.640  0.9183 -0.3472  0.6906
 6537TIP3    H241171   2.352   6.432   8.510 -0.8649 -0.7299  0.8030
 6538TIP3   OH241172   5.340   5.398   7.954  0.5040 -0.0089 -0.6830
 6538TIP3    H141173   5.400   5.324   7.966  0.0938 -0.2615 -0.1628
 6538TIP3    H241174   5.297   5.408   8.039  0.4836  0.7698 -0.7765
 6539TIP3   OH241175   5.399   3.629   6.474 -0.1595  0.3656  0.5843
 6539TIP3    H141176   5.443   3.689   6.414 -0.0866  0.3895  0.6614
 6539TIP3    H241177   5.416   3.542   6.437 -0.7843  0.4273  0.1332
 6540TIP3   OH241178   5.288   5.971   0.609 -0.0063  0.2920 -0.2372
 6540TIP3    H141179   5.214   5.962   0.668 -2.1660  2.3491 -2.4247
 6540TIP3    H241180   5.356   5.916   0.647 -2.3258 -0.9958  2.3522
 6541TIP3   OH241181   2.586   0.072   0.745  0.3256 -0.2719  0.2707
 6541TIP3    H141182   2.670   0.093   0.704 -0.7664 -1.4766 -2.8844
 6541TIP3    H241183   2.602  -0.008   0.794  1.1405 -0.1683  0.1847
 6542TIP3   OH241184   4.223   1.510   0.208 -0.0910  0.3264  0.0189
 6542TIP3    H141185   4.128   1.513   0.215 -0.3484 -0.5105 -2.3023
 6542TIP3    H241186   4.242   1.547   0.122  1.6692  0.1801  0.3018
 6543TIP3   OH241187   5.647   0.234   8.174  0.2865 -0.3408  0.1436
 6543TIP3    H141188   5.728   0.243   8.225 -0.0548 -0.6502  0.7552
 6543TIP3    H241189   5.578   0.225   8.240 -0.1252 -1.1329 -0.3689
 6544TIP3   OH241190   0.403   4.923   6.893 -0.5810 -0.1474  0.2891
 6544TIP3    H141191   0.349   4.923   6.814 -1.0291  1.5758  0.5703
 6544TIP3    H241192   0.386   5.007   6.934  3.0668  0.9536 -0.1124
 6545TIP3   OH241193   4.648   5.688   7.144  0.2663 -0.3532  0.1672
 6545TIP3    H141194   4.566   5.679   7.097 -0.5721  1.9307  1.0134
 6545TIP3    H241195   4.640   5.628   7.218 -1.0651  0.4759  0.7314
 6546TIP3   OH241196   1.692   4.779   1.230 -0.3602 -0.1871 -0.1112
 6546TIP3    H141197   1.703   4.710   1.166  2.4368  1.1849 -1.3224
 6546TIP3    H241198   1.742   4.749   1.306 -0.6221 -0.2618  0.0304
 6547TIP3   OH241199   1.662   1.250   6.369  0.1929  0.1609 -0.3123
 6547TIP3    H141200   1.668   1.160   6.399 -1.4883  0.7444  2.0813
 6547TIP3    H241201   1.569   1.263   6.349  0.3722  1.4197 -0.4266
 6548TIP3   OH241202   1.227   2.984   0.171 -0.6011  0.1392  0.3180
 6548TIP3    H141203   1.277   2.915   0.127 -0.3254  0.7365 -0.3206
 6548TIP3    H241204   1.150   2.997   0.114  0.6485  2.1652 -1.0027
 6549TIP3   OH241205   3.359   1.527   2.152  0.4853  0.0195  0.1472
 6549TIP3    H141206   3.316   1.525   2.237 -1.1989 -0.1786 -0.6678
 6549TIP3    H241207   3.297   1.573   2.095  1.4080 -0.1855 -1.0549
 6550TIP3   OH241208   3.013   0.167   6.586  0.0399  0.6937  0.1290
 6550TIP3    H141209   3.049   0.135   6.504 -0.8976 -1.3111  0.4419
 6550TIP3    H241210   2.930   0.208   6.562  0.0691  0.6847  0.0121
 6551TIP3   OH241211   2.981   6.221   2.010  0.3156 -0.3922  0.6551
 6551TIP3    H141212   3.043   6.294   2.013 -0.2995  0.1249  3.0879
 6551TIP3    H241213   3.026   6.155   1.957  1.0792  1.5265 -1.2344
 6552TIP3   OH241214   0.143   6.113   7.492 -0.3519  0.2371  0.1137
 6552TIP3    H141215   0.103   6.175   7.553  0.2062 -0.2080  0.9745
 6552TIP3    H241216   0.117   6.027   7.526  1.1810 -0.0583  0.6277
 6553TIP3   OH241217   2.878   0.281   8.571 -0.1711  0.1565  0.3411
 6553TIP3    H141218   2.857   0.199   8.526  0.5009 -0.0601  0.4208
 6553TIP3    H241219   2.895   0.255   8.662  2.3934  0.0278 -0.1154
 6554TIP3   OH241220   2.324   1.684   7.349 -0.3401 -0.2401 -0.5175
 6554TIP3    H141221   2.312   1.628   7.272  0.1293 -1.5528  0.3247
 6554TIP3    H241222   2.413   1.717   7.341  0.1548 -1.3786  0.0648
 6555TIP3   OH241223   4.390   3.077   7.747 -0.3470 -0.7788  0.3126
 6555TIP3    H141224   4.481   3.061   7.774 -0.3424 -0.3810  0.5502
 6555TIP3    H241225   4.337   3.035   7.814 -0.3358 -0.5868  0.4437
 6556TIP3   OH241226   6.305   2.817   0.209  0.2156 -0.2523 -0.7551
 6556TIP3    H141227   6.211   2.811   0.225  0.5321  0.1469  1.5907
 6556TIP3    H241228   6.346   2.798   0.294  2.2495 -0.2047 -1.6569
 6557TIP3   OH241229   3.428   2.323   7.758 -0.7233  0.4427  0.0678
 6557TIP3    H141230   3.444   2.417   7.744 -2.7261  0.5962 -1.8421
 6557TIP3    H241231   3.333   2.314   7.747 -0.2924 -2.2130 -3.0847
 6558TIP3   OH241232   1.825   4.988   7.419 -0.3270  0.0316  0.1085
 6558TIP3    H141233   1.839   4.995   7.325 -0.5798 -0.7967  0.0064
 6558TIP3    H241234   1.807   4.896   7.435  0.2324  0.0586  1.0451
 6559TIP3   OH241235   3.572   1.001   6.530  0.2742  0.2823  0.0694
 6559TIP3    H141236   3.511   0.951   6.584 -0.7855  0.9762 -0.4495
 6559TIP3    H241237   3.596   0.940   6.460  0.3342 -0.0581  0.3803
 6560TIP3   OH241238   3.174   6.414   1.052  0.6723 -0.6908 -0.4110
 6560TIP3    H141239   3.121   6.393   0.975 -2.1802  1.0967  0.9339
 6560TIP3    H241240   3.162   6.338   1.110 -2.8563  0.7252  0.9957
 6561TIP3   OH241241   3.265   5.387   2.242 -0.2758 -0.4377 -0.3049
 6561TIP3    H141242   3.298   5.358   2.327 -0.0563 -0.2076 -0.3072
 6561TIP3    H241243   3.296   5.321   2.180  1.2532  0.3806 -0.4876
 6562TIP3   OH241244   0.161   2.323   8.491  0.4938 -0.0474  0.2943
 6562TIP3    H141245   0.117   2.282   8.417 -0.1450 -0.3439  0.8282
 6562TIP3    H241246   0.092   2.334   8.557  0.5037  2.4216 -0.0408
 6563TIP3   OH241247   0.518   6.173   8.619 -0.1800  0.3468  0.5756
 6563TIP3    H141248   0.545   6.109   8.686 -0.8884  0.4627  0.9842
 6563TIP3    H241249   0.583   6.164   8.550 -0.0206 -0.5080  0.8250
 6564TIP3   OH241250   1.486   6.373   0.562 -0.1704  0.3932  0.3249
 6564TIP3    H141251   1.508   6.297   0.617  1.2799 -0.5617 -1.4768
 6564TIP3    H241252   1.462   6.335   0.478  2.5235  1.9046 -1.2712
 6565TIP3   OH241253   5.801   3.617   0.269  0.4241  0.3330 -0.4488
 6565TIP3    H141254   5.730   3.679   0.282  0.9451  0.6575  1.1247
 6565TIP3    H241255   5.775   3.564   0.193 -1.7890 -0.0041  0.4959
 6566TIP3   OH241256   4.755   0.293   6.244 -0.3154  0.6074 -0.0657
 6566TIP3    H141257   4.715   0.331   6.165  0.0241  2.2004  0.5104
 6566TIP3    H241258   4.738   0.199   6.235 -3.6443  1.0941 -0.1853
 6567TIP3   OH241259   1.419   1.512   7.272 -0.3359  0.3131 -0.5181
 6567TIP3    H141260   1.372   1.498   7.354  0.4176  2.3950  0.3384
 6567TIP3    H241261   1.397   1.601   7.246  1.6624  0.7095 -1.0436
 6568TIP3   OH241262   3.623   2.280   8.383  0.1249  0.2507 -0.0569
 6568TIP3    H141263   3.630   2.375   8.382  1.8326  0.1509 -1.2556
 6568TIP3    H241264   3.702   2.250   8.428 -0.4344 -0.5962  0.3822
 6569TIP3   OH241265   5.795   5.088   1.262 -0.1038  0.0684 -0.1992
 6569TIP3    H141266   5.857   5.125   1.325 -1.0071 -2.3616  2.3065
 6569TIP3    H241267   5.709   5.100   1.302 -0.9593  0.3847 -2.0341
 6570TIP3   OH241268   1.617   5.602   1.269 -0.0758  0.2798  0.5427
 6570TIP3    H141269   1.674   5.649   1.208 -0.8448 -0.0051 -0.4287
 6570TIP3    H241270   1.673   5.584   1.345  0.6869  1.3181  0.2556
 6571TIP3   OH241271   1.746   6.484   8.545  0.7220 -0.4648 -0.3275
 6571TIP3    H141272   1.678   6.551   8.546 -0.5977 -1.6606  2.5115
 6571TIP3    H241273   1.733   6.437   8.462 -0.7486  0.4514 -0.6398
 6572TIP3   OH241274   2.100   4.488   0.243  0.3094 -0.1724  0.2197
 6572TIP3    H141275   2.191   4.473   0.270  0.6941  1.2426 -0.2214
 6572TIP3    H241276   2.105   4.497   0.147  0.0655  2.1364  0.3761
 6573TIP3   OH241277   6.728   6.509   7.370  0.0262  0.4378  1.0361
 6573TIP3    H141278   6.649   6.513   7.316  0.7780 -0.7604 -0.2194
 6573TIP3    H241279   6.696   6.518   7.460 -1.5826 -0.3686  0.5839
 6574TIP3   OH241280   4.987   2.869   6.793 -0.5959  0.2178 -0.2175
 6574TIP3    H141281   5.073   2.910   6.791 -0.9430  0.9582 -0.2117
 6574TIP3    H241282   4.941   2.907   6.718 -1.3344  0.7642  0.4984
 6575TIP3   OH241283   5.441   3.238   0.890 -0.3419 -0.1329 -0.3648
 6575TIP3    H141284   5.445   3.327   0.926 -1.8226  0.4958 -1.6321
 6575TIP3    H241285   5.526   3.226   0.848  1.4829 -0.9234  3.1794
 6576TIP3   OH241286   1.528   5.721   7.320  0.0085  0.1898  0.1990
 6576TIP3    H141287   1.532   5.816   7.322  1.2690  0.1432  0.4037
 6576TIP3    H241288   1.534   5.695   7.412 -0.1122 -0.0949  0.1269
 6577TIP3   OH241289   5.951   0.676   0.071 -0.0991  0.0670 -0.0045
 6577TIP3    H141290   5.897   0.720   0.006  2.4661 -3.0064 -4.8301
 6577TIP3    H241291   6.034   0.723   0.069  0.4146 -0.8214  0.1282
 6578TIP3   OH241292   3.356   4.218   0.149  0.1090 -0.0581  0.4326
 6578TIP3    H141293   3.423   4.282   0.175 -1.4935  1.1995  1.6366
 6578TIP3    H241294   3.275   4.267   0.147 -1.0092 -1.8181  0.2167
 6579TIP3   OH241295   4.238   4.088   8.080  0.1577 -0.1162  0.5581
 6579TIP3    H141296   4.305   4.089   8.012 -1.3221 -0.1178 -0.9675
 6579TIP3    H241297   4.225   4.181   8.101  1.4261 -0.1660  1.7376
 6580TIP3   OH241298   3.938   4.661   8.337 -0.3375  0.0478  0.8002
 6580TIP3    H141299   3.947   4.653   8.242  0.2181 -0.5343  0.8907
 6580TIP3    H241300   3.860   4.610   8.358 -2.0217  2.2835  0.3930
 6581TIP3   OH241301   3.577   0.086   2.144 -0.3344  0.4181 -0.1091
 6581TIP3    H141302   3.630   0.141   2.086  0.2037  2.2767  1.9950
 6581TIP3    H241303   3.490   0.126   2.141 -0.9198 -0.8742 -1.3284
 6582TIP3   OH241304   2.242   2.388   6.491 -0.1811 -0.2780 -0.5400
 6582TIP3    H141305   2.263   2.481   6.498  0.9386 -0.6195  1.5030
 6582TIP3    H241306   2.199   2.379   6.406 -1.2141  2.2610 -0.3693
 6583TIP3   OH241307   1.669   3.304   1.699  0.1273 -0.2137  0.0729
 6583TIP3    H141308   1.631   3.251   1.769  1.6172 -1.1402  0.2398
 6583TIP3    H241309   1.624   3.275   1.620 -0.5701 -0.1837  0.4496
 6584TIP3   OH241310   4.343   5.917   0.778 -0.4616  0.0242  0.3788
 6584TIP3    H141311   4.260   5.874   0.756  0.4312 -0.5830 -2.1156
 6584TIP3    H241312   4.402   5.845   0.800 -0.2620  0.3818  1.0576
 6585TIP3   OH241313   5.165   3.573   0.463 -0.0893  0.3739  1.1546
 6585TIP3    H141314   5.187   3.666   0.460  0.7045  0.2159  1.6200
 6585TIP3    H241315   5.127   3.560   0.549 -0.1652  0.2633  1.1042
 6586TIP3   OH241316   2.338   3.099   0.225 -0.2866  0.3591  0.1373
 6586TIP3    H141317   2.308   3.018   0.267  0.3416  0.8193  1.5432
 6586TIP3    H241318   2.258   3.140   0.192 -0.7210 -0.3844  0.2379
 6587TIP3   OH241319   6.129   5.438   8.137 -0.3760  0.4037 -0.6498
 6587TIP3    H141320   6.068   5.391   8.080 -1.1994 -0.2529  0.7379
 6587TIP3    H241321   6.077   5.463   8.213  1.0255  0.0838  0.4439
 6588TIP3   OH241322   3.204   1.557   0.229  0.6546 -0.0336  0.0317
 6588TIP3    H141323   3.163   1.500   0.164  0.3031 -0.5996  0.7353
 6588TIP3    H241324   3.186   1.646   0.198 -1.2526 -0.2574  0.3717
 6589TIP3   OH241325   4.299   4.347   0.769  0.0384 -0.0607 -0.0073
 6589TIP3    H141326   4.305   4.333   0.864  0.6511 -0.4003 -0.0920
 6589TIP3    H241327   4.222   4.403   0.758 -0.9996 -1.3464  0.5392
 6590TIP3   OH241328   2.957   5.348   1.612  0.2095  0.2080 -0.2537
 6590TIP3    H141329   2.993   5.345   1.523 -0.9649 -0.3668 -0.7372
 6590TIP3    H241330   2.911   5.265   1.621  1.2758 -0.2475  1.3341
 6591TIP3   OH241331   0.204   1.114   6.266 -0.5923  0.2088 -0.1947
 6591TIP3    H141332   0.180   1.048   6.202 -1.2688  0.4084 -0.1512
 6591TIP3    H241333   0.297   1.099   6.282 -0.9093 -1.2540  0.4193
 6592TIP3   OH241334   2.943   6.001   6.785 -0.5039  0.8741 -0.1678
 6592TIP3    H141335   2.978   5.930   6.731  1.6646 -0.1638  2.3974
 6592TIP3    H241336   3.009   6.070   6.780  0.0889  0.4866  1.5842
 6593TIP3   OH241337   4.792   6.174   0.514 -0.7099  0.5559 -0.1510
 6593TIP3    H141338   4.725   6.204   0.454  0.9063  0.7920 -1.9253
 6593TIP3    H241339   4.783   6.230   0.591 -0.9241  2.2728 -1.3793
 6594TIP3   OH241340   4.258   3.835   1.051  0.1835  0.4630 -0.3785
 6594TIP3    H141341   4.345   3.847   1.091 -0.0926 -1.2270  0.8632
 6594TIP3    H241342   4.276   3.810   0.961  1.0727 -0.8160  0.1169
 6595TIP3   OH241343   3.708   3.236   1.349 -0.0128 -0.0429 -0.4399
 6595TIP3    H141344   3.768   3.184   1.403 -1.3096 -0.2484  0.8719
 6595TIP3    H241345   3.722   3.203   1.260  0.3389 -1.5313  0.1324
 6596TIP3   OH241346   4.415   5.133   7.772  0.3091 -0.1793  0.1336
 6596TIP3    H141347   4.492   5.100   7.818  0.0126 -0.1262  0.6750
 6596TIP3    H241348   4.445   5.144   7.682  0.8878 -0.3156  0.2994
 6597TIP3   OH241349   3.286   6.156   1.519  0.3180 -0.1141  0.0993
 6597TIP3    H141350   3.287   6.076   1.572  1.7657  0.1092  0.4368
 6597TIP3    H241351   3.205   6.149   1.468 -0.7153 -0.7241  1.7348
 6598TIP3   OH241352   1.724   2.851   7.655 -0.2243 -0.1985  0.4722
 6598TIP3    H141353   1.779   2.779   7.624 -0.6075 -0.6948  0.9262
 6598TIP3    H241354   1.774   2.890   7.727  0.9471  1.3375 -1.0705
 6599TIP3   OH241355   5.577   1.349   8.289  0.0496  0.3417  0.0038
 6599TIP3    H141356   5.591   1.440   8.316  2.0222  0.3978 -1.0207
 6599TIP3    H241357   5.486   1.347   8.257 -0.6263  1.4823  1.7006
 6600TIP3   OH241358   5.361   2.514   0.009 -0.7893  0.1222  0.5381
 6600TIP3    H141359   5.297   2.444   0.018 -0.4486 -0.1848  0.6276
 6600TIP3    H241360   5.413   2.509   0.089  0.8305 -1.1580 -0.5288
 6601TIP3   OH241361   0.307   6.364   0.413  0.8535 -0.4448 -0.3239
 6601TIP3    H141362   0.344   6.363   0.325  0.8084 -2.3690 -0.3599
 6601TIP3    H241363   0.323   6.276   0.447 -0.3427 -0.1647  1.0762
 6602TIP3   OH241364   3.212   2.761   7.302 -0.1538 -0.0070 -0.0871
 6602TIP3    H141365   3.181   2.724   7.385 -0.7816  1.8982  0.5708
 6602TIP3    H241366   3.306   2.776   7.316 -0.2056  0.0670  0.1880
 6603TIP3   OH241367   1.575   3.918   1.128 -0.1764 -0.4287  0.2053
 6603TIP3    H141368   1.634   3.933   1.201 -0.4151  0.1091  0.2908
 6603TIP3    H241369   1.628   3.871   1.063  1.1151  2.1652 -0.7642
 6604TIP3   OH241370   2.095   2.165   7.647  0.5983 -0.1749 -0.1655
 6604TIP3    H141371   2.046   2.154   7.565  0.9652  1.2694 -0.6093
 6604TIP3    H241372   2.124   2.077   7.669  0.8128 -0.5466 -1.7991
 6605TIP3   OH241373   0.990   5.468   0.527 -0.0690 -0.1266 -0.3256
 6605TIP3    H141374   1.061   5.514   0.572  0.3922 -1.0256 -0.1060
 6605TIP3    H241375   0.945   5.420   0.596 -0.8084  0.3171 -0.4901
 6606TIP3   OH241376   5.921   1.175   8.255  0.1224  0.3384  0.5158
 6606TIP3    H141377   5.848   1.156   8.312 -0.1130  0.1898  0.1663
 6606TIP3    H241378   5.953   1.261   8.284  0.8050 -0.2850  1.6879
 6607TIP3   OH241379   4.793   3.047   1.272  0.1913  0.3682 -0.2576
 6607TIP3    H141380   4.874   2.995   1.275  0.2617  0.2970 -2.0059
 6607TIP3    H241381   4.736   3.006   1.337  1.2212 -0.1698  0.3440
 6608TIP3   OH241382   3.919   6.512   0.597  0.0943 -0.2634 -0.0324
 6608TIP3    H141383   3.981   6.482   0.664  0.4159  0.8241  0.1773
 6608TIP3    H241384   3.850   6.556   0.646 -0.5855 -1.0054 -0.3054
 6609TIP3   OH241385   1.820   1.983   0.531 -0.8239  0.2350 -0.0080
 6609TIP3    H141386   1.841   1.901   0.487 -0.8514 -0.9388  2.0105
 6609TIP3    H241387   1.764   1.957   0.604  1.1453  1.6659  2.1865
 6610TIP3   OH241388   1.218   4.237   1.881  0.2928 -0.0837  0.3371
 6610TIP3    H141389   1.210   4.320   1.835  2.9717 -0.2826 -0.6788
 6610TIP3    H241390   1.237   4.261   1.972  0.9429  0.4535  0.0702
 6611TIP3   OH241391   1.137   2.313   6.495  0.6682  0.2175 -0.7359
 6611TIP3    H141392   1.163   2.237   6.442 -0.4859  0.7829 -2.1851
 6611TIP3    H241393   1.194   2.384   6.465  1.2184  0.1312  0.0702
 6612TIP3   OH241394   3.714   5.722   8.471 -0.2760  0.3448  0.0071
 6612TIP3    H141395   3.771   5.772   8.411 -0.4911  0.9172  0.2711
 6612TIP3    H241396   3.775   5.672   8.525 -0.1013 -0.8025 -1.2144
 6613TIP3   OH241397   6.231   6.815   8.620  0.0631 -0.0768  0.0293
 6613TIP3    H141398   6.269   6.896   8.587  0.4061 -0.9620 -1.9074
 6613TIP3    H241399   6.171   6.843   8.689  1.8474  1.6015  0.9961
 6614TIP3   OH241400   0.835   0.719   6.214 -0.3008  0.3954 -0.4548
 6614TIP3    H141401   0.838   0.628   6.245 -1.1438  0.6749  0.4794
 6614TIP3    H241402   0.869   0.771   6.287  0.5594  0.8178 -1.1312
 6615TIP3   OH241403   3.959   1.306   1.259  0.0738 -0.0516 -0.1469
 6615TIP3    H141404   3.964   1.210   1.259  1.2877 -0.0139  0.1430
 6615TIP3    H241405   4.024   1.333   1.194 -1.2561  0.5686 -1.2708
 6616TIP3   OH241406   4.428   2.353   7.422 -0.0707  0.2552  0.2301
 6616TIP3    H141407   4.346   2.320   7.385 -0.0497  1.5343 -1.0499
 6616TIP3    H241408   4.451   2.290   7.490 -0.1642 -2.2079 -1.8832
 6617TIP3   OH241409   3.052   4.682   8.459 -0.6800  0.4434  0.1330
 6617TIP3    H141410   3.128   4.666   8.402 -0.1600 -1.6903  1.3245
 6617TIP3    H241411   3.090   4.707   8.543 -1.3666  0.7545  0.3572
 6618TIP3   OH241412   3.444   6.800   0.644  0.0931 -0.2452  0.2199
 6618TIP3    H141413   3.477   6.886   0.617 -0.9214  0.7133  1.8583
 6618TIP3    H241414   3.373   6.781   0.581 -0.7496  0.8954  0.7938
 6619TIP3   OH241415   1.257   5.474   7.475  0.2540 -0.2808  0.0210
 6619TIP3    H141416   1.255   5.543   7.541  1.0917  0.0295 -0.2775
 6619TIP3    H241417   1.335   5.423   7.496  0.0867 -0.6566 -0.2582
 6620TIP3   OH241418   6.510   5.251   0.736  0.1823  0.2045  0.4246
 6620TIP3    H141419   6.512   5.177   0.676  1.1799  0.4253  0.1650
 6620TIP3    H241420   6.471   5.322   0.685 -1.9543 -0.4377  1.0640
 6621TIP3   OH241421   2.349   3.150   1.631 -0.5603  0.0125  1.1401
 6621TIP3    H141422   2.364   3.108   1.546 -1.3215 -0.8468  1.4038
 6621TIP3    H241423   2.377   3.240   1.619 -0.6075 -0.1102 -0.0162
 6622TIP3   OH241424   1.968   5.796   7.611  0.0556  0.3827 -0.2608
 6622TIP3    H141425   2.039   5.773   7.551  1.7339  1.6924  1.1119
 6622TIP3    H241426   1.941   5.713   7.650 -0.3245 -0.3409 -1.9726
 6623TIP3   OH241427   5.743   4.086   2.162 -0.3128  0.3298  0.2431
 6623TIP3    H141428   5.652   4.057   2.160 -0.3624  0.3914  1.2732
 6623TIP3    H241429   5.739   4.180   2.146 -0.2945  0.1027 -1.2416
 6624TIP3   OH241430   0.855   1.465   0.150  0.2306 -0.1687 -0.1874
 6624TIP3    H141431   0.850   1.370   0.157 -0.5503 -0.2976 -1.9212
 6624TIP3    H241432   0.766   1.496   0.170  0.0821  0.0472 -1.1155
 6625TIP3   OH241433   6.545   6.423   2.346  0.0294  0.2914  0.7109
 6625TIP3    H141434   6.451   6.425   2.363 -0.1310 -1.5188  0.2131
 6625TIP3    H241435   6.585   6.424   2.433 -0.4929 -0.1087  0.9618
 6626TIP3   OH241436   3.961   2.348   8.184 -0.8219 -0.8023  0.2152
 6626TIP3    H141437   3.934   2.312   8.269 -1.1976  0.2947  0.5825
 6626TIP3    H241438   3.890   2.326   8.125 -0.7553 -1.2092  0.2851
 6627TIP3   OH241439   6.377   6.050   0.218 -0.0016 -0.7594 -0.0386
 6627TIP3    H141440   6.354   6.002   0.297 -2.4149  1.1872  0.5638
 6627TIP3    H241441   6.442   6.114   0.247 -1.0808  0.1297  0.4724
 6628TIP3   OH241442   5.319   2.191   0.306  0.1647 -0.1023 -0.2707
 6628TIP3    H141443   5.250   2.248   0.270 -1.0770 -1.4580 -0.1384
 6628TIP3    H241444   5.310   2.110   0.256  2.0226 -0.1475 -0.5840
 6629TIP3   OH241445   2.903   4.534   0.488 -0.1531 -0.1881  0.6149
 6629TIP3    H141446   2.922   4.555   0.396  0.4887  1.5352  1.1127
 6629TIP3    H241447   2.866   4.445   0.485  1.0884 -0.6899 -1.1663
 6630TIP3   OH241448   1.662   3.418   0.888  0.0313  0.7400 -0.4656
 6630TIP3    H141449   1.731   3.375   0.938  1.5459  3.2677 -0.1629
 6630TIP3    H241450   1.604   3.456   0.955 -1.2688 -0.7025 -0.7187
 6631TIP3   OH241451   3.060   2.748   1.454 -0.2878  0.3339 -0.1360
 6631TIP3    H141452   3.087   2.794   1.374 -0.4508 -0.1272 -0.4624
 6631TIP3    H241453   2.967   2.768   1.464  0.1300  1.9176  0.9863
 6632TIP3   OH241454   5.226   6.690   0.362 -0.3187  0.2804  0.7274
 6632TIP3    H141455   5.188   6.777   0.353 -3.1154 -0.9981 -0.9732
 6632TIP3    H241456   5.176   6.635   0.302  2.0917 -2.3098  0.8890
 6633TIP3   OH241457   0.713   4.417   7.847  0.5912 -0.3696 -0.5410
 6633TIP3    H141458   0.620   4.440   7.848  0.5118 -0.5362 -2.1265
 6633TIP3    H241459   0.717   4.336   7.796  1.7894  0.5254 -1.9424
 6634TIP3   OH241460   3.691   1.704   7.921  0.3125  0.2765  0.3387
 6634TIP3    H141461   3.718   1.779   7.867 -1.1813 -0.0056 -0.8840
 6634TIP3    H241462   3.634   1.653   7.863  0.0256 -0.9601  1.6647
 6635TIP3   OH241463   1.573   4.270   2.396 -0.0212 -0.7268 -0.2815
 6635TIP3    H141464   1.565   4.236   2.307 -3.0552  0.0299 -0.3937
 6635TIP3    H241465   1.639   4.340   2.389 -1.4266  0.4885 -2.3534
 6636TIP3   OH241466   0.320   2.865   1.704  0.1491  0.4918 -0.4337
 6636TIP3    H141467   0.271   2.923   1.762 -1.5291  0.2375 -1.5245
 6636TIP3    H241468   0.286   2.884   1.616  0.1008 -1.5697 -0.9172
 6637TIP3   OH241469   6.835   4.048   8.537  0.1472 -0.0014 -0.2663
 6637TIP3    H141470   6.878   4.133   8.527 -4.2117  2.2791 -2.5124
 6637TIP3    H241471   6.826   4.037   8.631 -0.5548  2.9879  0.1416
 6638TIP3   OH241472   4.290   4.487   7.929  0.1766 -0.0084  0.0536
 6638TIP3    H141473   4.314   4.506   8.020 -0.6493 -0.8838  0.4873
 6638TIP3    H241474   4.367   4.446   7.892  1.3726  2.4777 -0.3932
 6639TIP3   OH241475   4.041   2.814   1.519  0.1366 -0.3838  0.2906
 6639TIP3    H141476   3.992   2.892   1.545  0.3761 -0.5951  1.4433
 6639TIP3    H241477   3.997   2.742   1.565  1.8972 -0.4986  1.9477
 6640TIP3   OH241478   1.361   3.912   0.446  0.3272 -0.0685 -0.2522
 6640TIP3    H141479   1.321   3.977   0.389 -0.5905 -3.0108 -3.3074
 6640TIP3    H241480   1.304   3.908   0.522 -1.4453  0.4688 -1.4871
 6641TIP3   OH241481   6.126   5.437   8.562  0.8097  0.3480 -0.3597
 6641TIP3    H141482   6.104   5.475   8.647  0.2823  1.4859 -0.9809
 6641TIP3    H241483   6.136   5.343   8.579 -4.8958 -0.5372  0.0525
 6642TIP3   OH241484   3.222   5.090   0.922 -0.0313  0.1207 -0.1480
 6642TIP3    H141485   3.291   5.023   0.914  0.1988  0.4838 -1.5283
 6642TIP3    H241486   3.243   5.138   1.001  1.5928  0.5113 -0.7782
 6643TIP3   OH241487   6.357   1.338   0.063  0.0458  0.3204  0.5469
 6643TIP3    H141488   6.378   1.251   0.028 -1.5728  0.3443 -0.6103
 6643TIP3    H241489   6.417   1.349   0.137 -0.7707 -2.4552  1.7625
 6644TIP3   OH241490   0.680   3.255   5.994  0.7325 -0.9203  0.6003
 6644TIP3    H141491   0.650   3.305   6.069 -0.7426 -0.3885 -0.3014
 6644TIP3    H241492   0.731   3.318   5.942 -0.0195 -0.6973  0.1209
 6645TIP3   OH241493   1.462   3.086   7.448 -0.4844  0.3045 -0.0104
 6645TIP3    H141494   1.409   3.154   7.489  0.0607  0.8928 -0.2612
 6645TIP3    H241495   1.442   3.007   7.497 -0.5080  0.8117  0.8208
 6646TIP3   OH241496   6.279   6.176   1.112 -0.1902  0.3265  0.4417
 6646TIP3    H141497   6.183   6.168   1.111 -0.2293  0.7578 -0.2588
 6646TIP3    H241498   6.305   6.143   1.198 -0.9870  0.3642  0.7088
 6647TIP3   OH241499   2.966   4.547   1.188 -0.1497  0.2714 -0.4776
 6647TIP3    H141500   2.924   4.496   1.257 -0.8744  0.3401 -0.8631
 6647TIP3    H241501   3.029   4.602   1.234  0.4306 -0.7414 -0.0181
 6648TIP3   OH241502   1.752   5.773   1.772  0.0485 -0.1167  0.0183
 6648TIP3    H141503   1.678   5.833   1.759 -0.3466 -0.3712  1.0398
 6648TIP3    H241504   1.763   5.731   1.686  1.2623  2.3986 -1.1593
 6649TIP3   OH241505   3.591   0.130   0.959 -0.3480  0.3443 -0.0880
 6649TIP3    H141506   3.593   0.063   0.892 -1.2924  0.0866  0.1209
 6649TIP3    H241507   3.541   0.091   1.031 -1.0511  1.3008 -0.0270
 6650TIP3   OH241508   0.182   1.677   0.282 -0.6007  0.2179  0.3659
 6650TIP3    H141509   0.247   1.726   0.332  0.1573 -0.0780 -0.2990
 6650TIP3    H241510   0.148   1.612   0.344 -0.4779  0.5676  0.8036
 6651TIP3   OH241511   0.121   2.310   1.190  0.1099 -0.2768  0.5092
 6651TIP3    H141512   0.182   2.250   1.148  0.2404 -0.5678  1.1080
 6651TIP3    H241513   0.046   2.256   1.213 -0.5378  0.1450 -0.5270
 6652TIP3   OH241514   2.202   5.687   6.624  0.0149  0.0913 -0.2654
 6652TIP3    H141515   2.173   5.642   6.544 -0.2593 -0.1262 -0.0456
 6652TIP3    H241516   2.177   5.628   6.695  0.7186  0.0474 -0.0501
 6653TIP3   OH241517   4.872   4.772   0.724  0.0159  0.3136 -0.4130
 6653TIP3    H141518   4.794   4.737   0.767 -0.9943 -0.4608 -2.7143
 6653TIP3    H241519   4.938   4.775   0.792 -1.2118 -1.7486  0.9557
 6654TIP3   OH241520   3.636   1.418   1.250  0.4595  0.4382 -0.5666
 6654TIP3    H141521   3.551   1.463   1.255  0.7356  0.8835  0.5442
 6654TIP3    H241522   3.628   1.346   1.313  0.8923  0.4577 -0.4910
 6655TIP3   OH241523   3.657   6.425   0.978  0.1198  0.2423 -0.1539
 6655TIP3    H141524   3.650   6.330   0.986  1.1812  0.2263  0.9089
 6655TIP3    H241525   3.604   6.459   1.050 -1.9210  0.5461 -1.7293
 6656TIP3   OH241526   0.312   0.935   0.963  0.1660  0.7504  0.5319
 6656TIP3    H141527   0.385   0.980   0.921 -1.0225  0.4755 -2.0369
 6656TIP3    H241528   0.352   0.875   1.025  2.1178  0.5482 -0.8608
 6657TIP3   OH241529   2.848   6.207   7.640 -0.5086  0.1828 -0.0213
 6657TIP3    H141530   2.762   6.242   7.663 -0.4684  0.9408 -0.9346
 6657TIP3    H241531   2.843   6.193   7.545 -0.2809 -1.6651  0.2128
 6658TIP3   OH241532   6.816   1.524   0.185 -0.1516 -0.2680  0.1602
 6658TIP3    H141533   6.908   1.549   0.190 -0.2056  0.1790 -0.8425
 6658TIP3    H241534   6.787   1.521   0.276  0.3624  1.5097  0.4260
 6659TIP3   OH241535   1.838   0.781   1.384  0.4284 -0.3602  0.1598
 6659TIP3    H141536   1.831   0.875   1.370 -1.6628 -0.4215  0.4272
 6659TIP3    H241537   1.763   0.744   1.337  0.1969 -1.7053  1.4959
 6660TIP3   OH241538   0.273   0.378   0.834 -0.2224 -0.0637 -0.2947
 6660TIP3    H141539   0.287   0.468   0.805 -2.0691  0.7181  1.0165
 6660TIP3    H241540   0.335   0.366   0.905  0.4706 -0.0614 -0.8904
 6661TIP3   OH241541   2.966   0.845   6.683 -0.6035 -0.0028  0.1762
 6661TIP3    H141542   2.897   0.784   6.655  1.0421 -1.7145 -0.4043
 6661TIP3    H241543   3.029   0.844   6.611  0.8693  0.1108  1.4133
 6662TIP3   OH241544   0.682   4.502   1.596  0.7232 -0.5401  0.6039
 6662TIP3    H141545   0.754   4.459   1.644  1.1074  0.4111  0.9109
 6662TIP3    H241546   0.679   4.591   1.632  0.0547 -0.2516 -0.1295
 6663TIP3   OH241547   2.850   5.810   1.103 -0.5203  0.0397 -0.3096
 6663TIP3    H141548   2.827   5.887   1.155  0.5716 -0.5483  1.1036
 6663TIP3    H241549   2.944   5.818   1.087 -0.2247 -1.3904  0.5564
 6664TIP3   OH241550   5.194   4.269   7.216  0.2968 -1.2309  0.2414
 6664TIP3    H141551   5.213   4.176   7.201 -1.5590 -1.7810  1.0402
 6664TIP3    H241552   5.164   4.301   7.131 -1.0011 -1.8936  0.4340
 6665TIP3   OH241553   1.663   1.728   7.543  0.9503 -0.3495  0.4718
 6665TIP3    H141554   1.595   1.722   7.610  1.7640 -0.8065  1.2699
 6665TIP3    H241555   1.683   1.636   7.523  0.3811 -0.2286 -0.7603
 6666TIP3   OH241556   5.904   1.681   1.898 -0.2824 -0.2224 -0.5893
 6666TIP3    H141557   5.960   1.633   1.836  0.5552  0.1313 -0.1240
 6666TIP3    H241558   5.955   1.758   1.921 -0.3557 -0.5882  0.9245
 6667TIP3   OH241559   1.250   0.735   2.020  0.0149  0.3837 -0.3759
 6667TIP3    H141560   1.190   0.810   2.028  0.0689  0.3762  0.1384
 6667TIP3    H241561   1.200   0.670   1.971 -0.0745  0.7151 -0.7270
 6668TIP3   OH241562   0.620   0.208   0.391  0.2328  0.1931  0.0780
 6668TIP3    H141563   0.604   0.283   0.448 -1.8888 -0.6536  0.7053
 6668TIP3    H241564   0.615   0.243   0.302  1.6899  1.1811  0.3393
 6669TIP3   OH241565   1.777   2.384   0.939 -0.2825  0.1803  0.2908
 6669TIP3    H141566   1.738   2.432   0.866  0.6823  1.5719  0.6658
 6669TIP3    H241567   1.830   2.449   0.985 -1.0136 -0.6141  2.3487
 6670TIP3   OH241568   2.852   6.001   1.528  0.1185 -0.1990  0.7706
 6670TIP3    H141569   2.795   6.007   1.605  0.3079  0.4684  0.8637
 6670TIP3    H241570   2.806   5.941   1.469 -0.7470  0.4076  0.7949
 6671TIP3   OH241571   1.528   6.253   0.986  0.0313 -0.0820 -0.1141
 6671TIP3    H141572   1.594   6.322   0.991  0.4055 -0.4039 -0.5459
 6671TIP3    H241573   1.448   6.299   0.963  0.1964  0.2570 -0.0230
 6672TIP3   OH241574   2.342   4.911   0.587 -0.3811  0.2136 -0.1838
 6672TIP3    H141575   2.315   4.821   0.608 -1.6776  0.6490  0.0704
 6672TIP3    H241576   2.424   4.923   0.635  0.3860 -1.1725 -1.0502
 6673TIP3   OH241577   5.348   1.572   7.990  0.4516  0.2611  0.1212
 6673TIP3    H141578   5.323   1.634   7.921  1.9470  0.7850  0.0098
 6673TIP3    H241579   5.436   1.599   8.015  0.0958 -0.1991  1.9594
 6674TIP3   OH241580   0.425   2.256   0.516 -0.2417 -0.2898  0.3500
 6674TIP3    H141581   0.381   2.267   0.432 -0.8612 -1.0388  0.5539
 6674TIP3    H241582   0.364   2.293   0.580  0.0827 -0.0101  0.4983
 6675TIP3   OH241583   0.028   6.115   0.364 -0.8178  0.0772 -0.5053
 6675TIP3    H141584   0.001   6.064   0.440 -1.9772 -0.7150 -1.4037
 6675TIP3    H241585  -0.055   6.148   0.328 -0.2817  0.4700 -1.3973
 6676TIP3   OH241586   6.587   0.544   1.603  0.6406  0.2860  0.1578
 6676TIP3    H141587   6.544   0.617   1.648  2.7297  0.7288  1.5377
 6676TIP3    H241588   6.610   0.483   1.673 -0.0688 -1.2229 -0.8608
 6677TIP3   OH241589   0.989   4.579   7.681  0.5110  0.5407  0.5150
 6677TIP3    H141590   0.968   4.594   7.773 -0.0348  0.2886  0.4333
 6677TIP3    H241591   0.957   4.658   7.636 -0.0503  0.2671  0.4246
 6678TIP3   OH241592   0.247   2.138   1.854 -0.9149  0.2296 -0.1273
 6678TIP3    H141593   0.229   2.182   1.937 -1.9481  2.6050 -1.5184
 6678TIP3    H241594   0.165   2.094   1.831 -1.3490  1.3975 -0.8973
 6679TIP3   OH241595   0.606   3.953   0.784  0.2243  0.1645  0.6854
 6679TIP3    H141596   0.689   3.911   0.808 -0.2009  0.2211  2.3758
 6679TIP3    H241597   0.549   3.880   0.757  0.8652  0.1485 -0.7107
 6680TIP3   OH241598   0.962   2.581   7.938 -0.2551 -0.4173 -0.0880
 6680TIP3    H141599   0.919   2.543   7.862  0.5063 -0.2482 -0.6226
 6680TIP3    H241600   1.019   2.649   7.902 -0.0741 -0.1575  0.6571
 6681TIP3   OH241601   5.352   1.209   6.884 -0.0741 -0.5375  0.6185
 6681TIP3    H141602   5.398   1.202   6.800  1.2522 -1.7762  1.4107
 6681TIP3    H241603   5.408   1.267   6.937 -0.4779 -0.4218  0.9244
 6682TIP3   OH241604   0.042   2.393   0.816  0.1734 -0.1339 -0.0346
 6682TIP3    H141605   0.045   2.479   0.774  1.7212 -0.6463 -1.0723
 6682TIP3    H241606  -0.031   2.399   0.878  0.1161  1.8489 -0.2198
 6683TIP3   OH241607   3.791   4.143   8.518 -0.1045  0.0592  0.0807
 6683TIP3    H141608   3.834   4.102   8.593  1.1166 -0.6242 -0.9621
 6683TIP3    H241609   3.785   4.073   8.453  3.0501  1.6806 -2.1834
 6684TIP3   OH241610   5.800   6.221   7.943 -0.2468  0.0809  0.4696
 6684TIP3    H141611   5.834   6.265   7.866  0.7450  0.4868  1.1325
 6684TIP3    H241612   5.867   6.156   7.965 -1.6334 -1.7871 -0.4542
 6685TIP3   OH241613   4.433   1.261   6.482  0.1900 -0.6510 -0.0936
 6685TIP3    H141614   4.509   1.275   6.425  0.0025 -0.8994 -0.4084
 6685TIP3    H241615   4.438   1.331   6.547  0.1858 -0.1211 -0.6531
 6686TIP3   OH241616   4.990   5.315   7.150 -0.5662  0.1843  0.3936
 6686TIP3    H141617   4.947   5.394   7.116 -0.0912  1.0215  1.6614
 6686TIP3    H241618   4.932   5.244   7.123 -0.8447  0.9126 -1.0525
 6687TIP3   OH241619   0.409   3.973   7.369  0.1555 -0.1957 -0.0800
 6687TIP3    H141620   0.348   4.012   7.431  0.0156 -1.0620  0.3320
 6687TIP3    H241621   0.356   3.956   7.291  0.5040  1.6386 -0.7792
 6688TIP3   OH241622   2.668   1.055   8.329 -0.0975 -0.0797  0.3378
 6688TIP3    H141623   2.749   1.104   8.311 -0.3728  0.1840 -0.2029
 6688TIP3    H241624   2.660   0.996   8.255 -1.0396  0.7372 -0.2274
 6689TIP3   OH241625   5.778   1.406   8.613  0.0299 -0.1282  0.1306
 6689TIP3    H141626   5.722   1.469   8.569  0.6248 -0.1018 -0.6025
 6689TIP3    H241627   5.727   1.378   8.689 -1.3824 -0.8171 -1.0158
 6690TIP3   OH241628   5.268   2.467   1.811  0.1953 -0.0382  0.1097
 6690TIP3    H141629   5.234   2.380   1.834  0.3638 -0.2057 -0.2649
 6690TIP3    H241630   5.363   2.455   1.810  0.2965  0.4872  1.4080
 6691TIP3   OH241631   0.000   2.940   1.196 -0.4057  0.0552  0.5260
 6691TIP3    H141632   0.039   3.007   1.140 -1.4041  0.5083  0.3669
 6691TIP3    H241633  -0.067   2.898   1.142 -1.9925  1.0833  1.6102
 6692TIP3   OH241634   2.721   1.980   7.681 -0.3001 -0.6190  0.5651
 6692TIP3    H141635   2.748   1.990   7.590 -1.8080 -0.1268  0.1429
 6692TIP3    H241636   2.776   2.042   7.729  0.1414 -0.4938 -0.0858
 6693TIP3   OH241637   3.022   4.757   7.654 -0.0463 -0.2306  0.0737
 6693TIP3    H141638   2.990   4.697   7.586 -1.6591  0.3814  0.2452
 6693TIP3    H241639   2.972   4.837   7.640  2.2393  1.2249 -0.3129
 6694TIP3   OH241640   0.989   6.349   1.907  0.2666 -0.3046  0.1977
 6694TIP3    H141641   1.017   6.430   1.865  0.3087 -0.4682 -0.0911
 6694TIP3    H241642   1.069   6.307   1.937  0.3690 -0.9036 -0.8676
 6695TIP3   OH241643   4.693   2.844   8.598  0.0160  0.1391  0.0977
 6695TIP3    H141644   4.775   2.837   8.549  0.3250  0.1070  0.6144
 6695TIP3    H241645   4.718   2.886   8.681 -0.9013  2.5169 -0.7460
 6696TIP3   OH241646   1.049   3.780   0.113  0.4596 -0.5836 -0.0304
 6696TIP3    H141647   1.009   3.782   0.200  1.2369 -1.4061  0.3590
 6696TIP3    H241648   1.028   3.866   0.075  0.7169  0.0645  1.2355
 6697TIP3   OH241649   1.405   3.554   1.571 -0.2207  0.5237 -0.3239
 6697TIP3    H141650   1.323   3.515   1.600 -0.0264  0.0102 -0.4468
 6697TIP3    H241651   1.465   3.480   1.562  0.1545  0.8505 -0.5730
 6698TIP3   OH241652   4.770   5.068   7.515  0.6295  0.3084  0.0784
 6698TIP3    H141653   4.862   5.047   7.531  1.1989 -0.2451 -3.1191
 6698TIP3    H241654   4.765   5.163   7.525  1.0729  0.1502  2.0976
 6699TIP3   OH241655   1.876   2.553   6.438  0.4633 -0.4875  0.7073
 6699TIP3    H141656   1.810   2.602   6.389 -0.1975 -1.3629  0.6829
 6699TIP3    H241657   1.880   2.597   6.523 -1.2406 -1.2623  1.2466
 6700TIP3   OH241658   5.736   0.786   1.925 -0.1443 -1.0448  0.2581
 6700TIP3    H141659   5.757   0.693   1.916 -0.1894 -1.0332  0.0044
 6700TIP3    H241660   5.643   0.788   1.946  0.0986 -1.0967  1.4007
 6701TIP3   OH241661   5.096   4.571   1.432  0.3072 -0.5383 -0.2695
 6701TIP3    H141662   5.072   4.481   1.411  2.2030 -0.7023 -2.0653
 6701TIP3    H241663   5.175   4.564   1.485 -0.0008  0.0935  0.3039
 6702TIP3   OH241664   1.802   5.731   1.132 -0.2048 -0.0502  0.7725
 6702TIP3    H141665   1.876   5.717   1.072 -0.2628 -0.4137  0.7794
 6702TIP3    H241666   1.833   5.798   1.193 -0.7397  1.5765 -0.6585
 6703TIP3   OH241667   5.715   4.724   7.547  0.3948 -0.0817 -0.1401
 6703TIP3    H141668   5.643   4.749   7.604 -0.1603 -0.1076 -0.8182
 6703TIP3    H241669   5.673   4.684   7.471  1.1446 -0.5374 -0.3300
 6704TIP3   OH241670   6.012   5.819   6.687 -0.3554 -0.1070  0.7096
 6704TIP3    H141671   5.951   5.791   6.618 -0.5412 -0.9951  1.2276
 6704TIP3    H241672   5.997   5.914   6.695  1.6852  0.6707 -2.4706
 6705TIP3   OH241673   3.370   4.432   1.771 -0.1263 -0.2931 -0.4925
 6705TIP3    H141674   3.437   4.372   1.804 -0.2055  0.4201  1.0369
 6705TIP3    H241675   3.331   4.386   1.696 -0.4037 -2.3131  0.8219
 6706TIP3   OH241676   3.815   6.090   0.623 -0.1980 -0.2209  0.0936
 6706TIP3    H141677   3.901   6.077   0.662  0.4321  0.4517 -1.0214
 6706TIP3    H241678   3.809   6.184   0.608 -0.7252 -0.3664 -0.7060
 6707TIP3   OH241679   2.085   5.139   0.117 -0.2974 -0.0268 -0.1056
 6707TIP3    H141680   2.040   5.095   0.046 -2.2944 -0.6812  1.4745
 6707TIP3    H241681   2.054   5.095   0.196  2.2765  0.2825  1.1666
 6708TIP3   OH241682   6.025   1.952   8.337 -0.4232  0.0736 -0.0207
 6708TIP3    H141683   5.967   1.972   8.264 -1.0388  1.1843  0.7283
 6708TIP3    H241684   5.988   2.002   8.411  1.6860  1.1318  0.3958
 6709TIP3   OH241685   1.102   2.102   8.252  1.0026  0.0228  0.4746
 6709TIP3    H141686   1.159   2.042   8.300  2.6775  1.3282  0.2174
 6709TIP3    H241687   1.014   2.064   8.260  1.9208 -2.1911  0.6809
 6710TIP3   OH241688   1.846   1.519   1.016  0.1932  0.6549 -0.1954
 6710TIP3    H141689   1.838   1.489   0.925 -1.2073  1.7419 -0.4794
 6710TIP3    H241690   1.897   1.451   1.059 -0.9346 -0.9850 -1.2991
 6711TIP3   OH241691   3.146   0.331   7.345  0.0528 -0.4378 -0.3233
 6711TIP3    H141692   3.101   0.313   7.263 -0.2215 -1.8101  0.0875
 6711TIP3    H241693   3.226   0.279   7.341 -0.3183 -1.1201  0.5544
 6712TIP3   OH241694   0.456   4.032   6.225  0.4258 -0.8087 -0.3867
 6712TIP3    H141695   0.532   4.083   6.197  1.1791 -1.3927  0.5409
 6712TIP3    H241696   0.387   4.097   6.238  0.6362 -0.3125 -1.5870
 6713TIP3   OH241697   2.728   5.814   0.257 -0.3733  0.4691  0.0999
 6713TIP3    H141698   2.769   5.859   0.331  1.8218 -0.3114 -0.5290
 6713TIP3    H241699   2.773   5.729   0.254 -0.1167  0.6290 -2.3409
 6714TIP3   OH241700   6.720   0.370   1.032 -0.4150 -0.0909  0.0540
 6714TIP3    H141701   6.642   0.368   1.088 -1.1552  0.0903 -0.9456
 6714TIP3    H241702   6.770   0.293   1.058  0.0142  0.7988  2.0079
 6715TIP3   OH241703   5.494   6.372   0.505 -0.1239 -0.3884 -0.3339
 6715TIP3    H141704   5.404   6.383   0.537 -0.4639  2.1110 -1.9175
 6715TIP3    H241705   5.504   6.277   0.499 -2.8666 -0.7650 -0.6360
 6716TIP3   OH241706   4.498   5.382   6.890  0.3781 -0.3139 -0.7862
 6716TIP3    H141707   4.511   5.474   6.913  0.6223 -0.6889  0.7025
 6716TIP3    H241708   4.403   5.374   6.876  0.4214  0.2674 -1.4398
 6717TIP3   OH241709   1.481   1.825   8.505  0.0587  0.1167 -0.3675
 6717TIP3    H141710   1.561   1.870   8.531 -0.5758  1.3694 -0.5314
 6717TIP3    H241711   1.459   1.770   8.580 -0.5963  2.0785  0.9419
 6718TIP3   OH241712   3.781   1.397   1.019 -0.3253  0.0168  0.4103
 6718TIP3    H141713   3.832   1.478   1.022  0.1972 -0.3100  0.3492
 6718TIP3    H241714   3.746   1.388   1.107  0.3203 -0.1430  0.6533
 6719TIP3   OH241715   3.813   0.330   0.545  0.9126  0.1358  0.8829
 6719TIP3    H141716   3.743   0.393   0.557 -0.5404 -0.5417 -2.7656
 6719TIP3    H241717   3.885   0.380   0.508  0.3944 -0.0186 -0.3609
 6720TIP3   OH241718   2.843   5.899   0.490  0.2180 -0.1905  0.1628
 6720TIP3    H141719   2.837   5.986   0.531  1.6704 -0.4615  1.0447
 6720TIP3    H241720   2.867   5.841   0.562  0.5957 -1.0806 -0.6670
 6721TIP3   OH241721   1.024   5.962   1.172  0.3496  0.5532  0.5747
 6721TIP3    H141722   1.096   5.905   1.200  0.5104 -0.9111 -2.4475
 6721TIP3    H241723   0.960   5.903   1.134 -0.6754  2.1652 -0.3304
 6722TIP3   OH241724   4.693   1.300   6.340 -0.4405 -0.6968 -0.4241
 6722TIP3    H141725   4.683   1.260   6.254  0.1443  1.0042 -1.3405
 6722TIP3    H241726   4.769   1.358   6.330  0.9312 -1.9443  1.8374
 6723TIP3   OH241727   4.932   4.622   0.496  0.8054  0.0650  0.4401
 6723TIP3    H141728   4.845   4.600   0.463  1.0232  1.3343 -1.1165
 6723TIP3    H241729   4.916   4.677   0.572  0.2741 -0.8359  1.0015
 6724TIP3   OH241730   0.587   1.852   7.029  0.5251 -0.2039  0.3773
 6724TIP3    H141731   0.589   1.936   7.075  3.2307  0.2864 -0.4699
 6724TIP3    H241732   0.644   1.795   7.081  1.3148 -0.5038 -0.7766
 6725TIP3   OH241733   5.600   0.077   8.635  0.0059  0.2160 -0.1115
 6725TIP3    H141734   5.680   0.129   8.630 -0.1052  0.2948 -2.2510
 6725TIP3    H241735   5.629  -0.014   8.622 -0.0336 -0.0551  1.4790
 6726TIP3   OH241736   4.335   1.791   7.947 -0.0824 -0.7199 -0.0331
 6726TIP3    H141737   4.366   1.882   7.951  1.0523 -1.1211  0.8881
 6726TIP3    H241738   4.243   1.796   7.972 -0.7777  0.4671 -2.4364
 6727TIP3   OH241739   0.225   1.590   0.752  0.1437 -0.0731 -0.2586
 6727TIP3    H141740   0.295   1.528   0.728 -0.1383 -0.7936  0.7023
 6727TIP3    H241741   0.271   1.671   0.773  0.8515 -0.8541  1.4440
 6728TIP3   OH241742   4.303   5.464   0.980  0.4627 -0.9119  0.0883
 6728TIP3    H141743   4.389   5.505   0.972 -0.0093  0.2410  0.7159
 6728TIP3    H241744   4.305   5.420   1.066 -0.2479  0.8394  1.0500
 6729TIP3   OH241745   0.659   1.137   7.257  0.1106  0.1310  0.3418
 6729TIP3    H141746   0.741   1.119   7.303  0.7114  1.9031  0.0544
 6729TIP3    H241747   0.678   1.214   7.203 -1.7326  0.5814  0.2614
 6730TIP3   OH241748   4.862   0.004   1.444 -0.0650  0.0024  0.8309
 6730TIP3    H141749   4.828  -0.036   1.524 -1.1467 -0.0410  0.3802
 6730TIP3    H241750   4.789  -0.004   1.381  1.0417 -0.7260 -0.4152
 6731TIP3   OH241751   3.336   2.026   7.563  0.3177  0.2878  0.0334
 6731TIP3    H141752   3.340   2.095   7.497  2.6379 -0.9754 -1.2427
 6731TIP3    H241753   3.260   1.973   7.538 -0.4467  1.3526  0.0199
 6732TIP3   OH241754   1.273   3.765   1.757  0.3220 -0.3284 -0.1019
 6732TIP3    H141755   1.243   3.836   1.700  1.3931  0.6890  0.5516
 6732TIP3    H241756   1.357   3.739   1.721  0.0955 -1.0496 -0.1282
 6733TIP3   OH241757   5.175   2.930   1.148  0.1835  0.2626  0.0078
 6733TIP3    H141758   5.258   2.931   1.196  0.3499  0.4993 -0.2790
 6733TIP3    H241759   5.173   2.844   1.106  0.6066  0.5143 -0.5349
 6734TIP3   OH241760   3.960   0.023   0.940  0.1244  0.1375 -0.1835
 6734TIP3    H141761   3.972   0.096   0.880 -1.4052  0.0525 -0.6317
 6734TIP3    H241762   3.938   0.064   1.024 -2.9393  0.2543 -0.9327
 6735TIP3   OH241763   4.407   4.622   6.821 -0.4539 -0.8922  0.1062
 6735TIP3    H141764   4.475   4.671   6.868  1.0068 -1.0206 -1.7718
 6735TIP3    H241765   4.405   4.661   6.734 -2.9908 -0.7632  0.1565
 6736TIP3   OH241766   4.523   6.101   7.324 -0.2436 -0.3089 -0.0961
 6736TIP3    H141767   4.459   6.095   7.253  0.7427 -0.6821 -0.9729
 6736TIP3    H241768   4.528   6.011   7.359 -0.0351 -0.3264 -0.1726
 6737TIP3   OH241769   0.340   2.391   0.306 -0.2115  0.1530 -0.2618
 6737TIP3    H141770   0.298   2.445   0.373 -1.0328  1.2887 -1.6437
 6737TIP3    H241771   0.267   2.359   0.252  0.3817 -1.2824 -0.2596
 6738TIP3   OH241772   0.532   1.260   0.838  0.5917  0.5315 -0.2778
 6738TIP3    H141773   0.614   1.283   0.794  0.7216  0.1555 -0.2342
 6738TIP3    H241774   0.508   1.176   0.800 -0.3064  1.1105 -1.0348
 6739TIP3   OH241775   3.533   4.588   6.386  0.2835  0.2488 -0.2402
 6739TIP3    H141776   3.615   4.620   6.348  0.5722 -0.0808  0.0904
 6739TIP3    H241777   3.511   4.510   6.335  1.2004 -0.7772  0.8651
 6740TIP3   OH241778   5.256   4.913   1.577 -0.1315 -0.4041 -0.0702
 6740TIP3    H141779   5.201   4.842   1.543 -0.8866 -0.1421  0.5755
 6740TIP3    H241780   5.345   4.886   1.556 -0.4177 -1.4639 -0.0017
 6741TIP3   OH241781   2.875   5.934   7.693 -0.0995 -0.8051 -0.5397
 6741TIP3    H141782   2.863   6.027   7.676  0.7732 -0.4816  0.4563
 6741TIP3    H241783   2.793   5.893   7.667 -0.8314  0.3657 -0.1490
 6742TIP3   OH241784   1.992   0.188   2.320  0.3771  0.5347 -0.4609
 6742TIP3    H141785   1.928   0.259   2.319 -0.4907 -0.2275 -0.3974
 6742TIP3    H241786   2.000   0.161   2.229 -0.3189 -0.1623 -0.3310
 6743TIP3   OH241787   1.225   4.863   0.835  0.2515 -0.1209 -0.2195
 6743TIP3    H141788   1.261   4.836   0.919  0.4784  0.6374 -0.0683
 6743TIP3    H241789   1.299   4.900   0.787  0.1871 -0.8256 -0.8755
 6744TIP3   OH241790   3.473   0.531   6.597 -0.5212 -0.0755 -0.1567
 6744TIP3    H141791   3.453   0.440   6.576 -0.7702 -0.3456  1.1863
 6744TIP3    H241792   3.534   0.558   6.528  2.4793 -2.3725  1.3532
 6745TIP3   OH241793   1.183   3.636   7.978  0.0223  0.5430 -0.4752
 6745TIP3    H141794   1.158   3.574   8.047 -0.0582 -0.3919 -1.3261
 6745TIP3    H241795   1.119   3.707   7.985 -0.0182  0.4359  0.3748
 6746TIP3   OH241796   6.402   5.374   8.476  0.0448  0.3324  0.6058
 6746TIP3    H141797   6.318   5.360   8.519 -0.0398  0.4096  0.4653
 6746TIP3    H241798   6.393   5.330   8.392 -1.2726  3.5840 -1.1325
 6747TIP3   OH241799   1.603   0.749   7.688 -0.1807  0.1497 -0.2884
 6747TIP3    H141800   1.593   0.661   7.651 -2.6259  0.4711 -0.5727
 6747TIP3    H241801   1.604   0.807   7.613 -2.3146  0.5857 -0.0546
 6748TIP3   OH241802   6.329   5.265   8.239 -0.4605 -0.0255  0.0313
 6748TIP3    H141803   6.261   5.328   8.214  0.6831  0.8431 -1.0181
 6748TIP3    H241804   6.387   5.260   8.163 -0.3138 -2.1160  0.2082
 6749TIP3   OH241805   1.101   2.845   7.930 -0.3367 -0.0313  0.0806
 6749TIP3    H141806   1.026   2.891   7.894 -0.8886 -0.7593  0.2775
 6749TIP3    H241807   1.164   2.843   7.858 -0.3393  0.9242  0.0368
 6750TIP3   OH241808   0.210   1.636   7.932  0.2915 -0.1491 -1.0761
 6750TIP3    H141809   0.145   1.690   7.977 -1.2638 -3.1414  0.5840
 6750TIP3    H241810   0.223   1.679   7.848 -3.3400  1.0113 -1.1881
 6751TIP3   OH241811   0.072   2.132   6.866  0.3044  0.5040 -0.0606
 6751TIP3    H141812   0.022   2.106   6.789  2.0639 -0.0925 -1.0560
 6751TIP3    H241813   0.059   2.060   6.928  0.7900 -0.1917 -0.7415
 6752TIP3   OH241814   1.932   5.315   0.817  0.2876 -0.4256  0.1067
 6752TIP3    H141815   1.880   5.263   0.756 -0.5515 -0.6185  0.9631
 6752TIP3    H241816   2.013   5.333   0.770 -0.6360  0.0964 -1.3720
 6753TIP3   OH241817   4.259   3.132   1.289  0.4323 -0.5476  0.3251
 6753TIP3    H141818   4.350   3.137   1.317  0.2154 -1.1277  1.1507
 6753TIP3    H241819   4.250   3.203   1.225  1.2509  0.0151  0.8145
 6754TIP3   OH241820   4.952   5.934   0.024  0.2661  0.4462  0.5504
 6754TIP3    H141821   4.860   5.913   0.005  0.8996 -0.9895 -1.2037
 6754TIP3    H241822   4.947   6.002   0.091 -2.0968  1.2374 -0.3059
 6755TIP3   OH241823   2.199   6.175   7.025 -0.1484  0.2655  0.2703
 6755TIP3    H141824   2.234   6.096   7.066 -0.5694  0.1531  0.4222
 6755TIP3    H241825   2.236   6.175   6.937  0.9337  0.6220  0.7102
 6756TIP3   OH241826   4.856   0.988   0.630 -0.1686  0.7135 -0.1308
 6756TIP3    H141827   4.890   0.933   0.560  0.1728  1.4562 -0.5547
 6756TIP3    H241828   4.879   1.077   0.605 -3.2947  1.4003 -0.9557
 6757TIP3   OH241829   3.888   5.390   6.464 -0.2378  0.0783  0.0145
 6757TIP3    H141830   3.918   5.479   6.478 -1.1857  0.3330  0.4644
 6757TIP3    H241831   3.961   5.347   6.418  0.8418  0.6484  1.1394
 6758TIP3   OH241832   1.602   1.473   0.632 -0.0689  0.5353 -0.0271
 6758TIP3    H141833   1.633   1.564   0.635 -1.0828  0.9719 -1.5585
 6758TIP3    H241834   1.606   1.450   0.539 -1.2677 -0.4562  0.1449
 6759TIP3   OH241835   2.347   2.602   6.306  0.8943  0.2664 -0.3618
 6759TIP3    H141836   2.433   2.622   6.343  0.8393 -0.4197  0.1405
 6759TIP3    H241837   2.362   2.525   6.252  1.3263  2.1192 -3.1348
 6760TIP3   OH241838   3.480   1.696   0.680  0.3056  0.1418  0.1391
 6760TIP3    H141839   3.527   1.773   0.646  0.2376  2.5723  4.6764
 6760TIP3    H241840   3.546   1.651   0.734 -0.5258 -1.1133  0.1268
 6761TIP3   OH241841   2.777   3.142   0.398  0.5467  0.0857  0.5980
 6761TIP3    H141842   2.770   3.075   0.330  2.8419 -0.9639  1.3067
 6761TIP3    H241843   2.686   3.168   0.416 -0.2878 -1.7163 -0.7849
 6762TIP3   OH241844   2.876   5.289   0.019  0.1172 -0.1240 -0.5481
 6762TIP3    H141845   2.966   5.278   0.050  0.6935  0.4550 -1.9546
 6762TIP3    H241846   2.840   5.200   0.020 -0.0046 -0.1170  1.9820
 6763TIP3   OH241847   3.481   5.901   1.396  0.6330  0.4980  0.4818
 6763TIP3    H141848   3.439   5.920   1.480  0.7921 -0.1371  0.7166
 6763TIP3    H241849   3.532   5.821   1.413  0.1913  0.0165 -0.3723
 6764TIP3   OH241850   4.889   1.050   8.548 -0.7593  0.7488  0.4823
 6764TIP3    H141851   4.977   1.086   8.559 -0.7066  0.9320 -0.4506
 6764TIP3    H241852   4.831   1.119   8.580 -0.5582  0.4488  1.5272
 6765TIP3   OH241853   4.295   0.495   0.632  0.1311 -0.2176  0.2522
 6765TIP3    H141854   4.338   0.410   0.642  0.4085  0.0458  1.5636
 6765TIP3    H241855   4.311   0.540   0.715  0.3809  1.3086 -0.5753
 6766TIP3   OH241856   1.978   5.628   7.278 -0.2368  0.2393  0.2242
 6766TIP3    H141857   2.013   5.585   7.357  1.3663  1.5814  0.3017
 6766TIP3    H241858   2.042   5.607   7.210 -0.9477  0.1527 -0.4251
 6767TIP3   OH241859   3.144   1.459   7.369  0.2047 -0.2029  0.7671
 6767TIP3    H141860   3.186   1.375   7.352 -1.5158 -1.3631  1.8725
 6767TIP3    H241861   3.088   1.474   7.292 -0.2733 -0.6123  1.0270
 6768TIP3   OH241862   5.397   6.215   8.582  0.2760 -0.1505 -0.1567
 6768TIP3    H141863   5.331   6.285   8.580 -0.6077 -0.9439  0.4096
 6768TIP3    H241864   5.372   6.157   8.509 -0.3099 -1.0087  0.6917
 6769TIP3   OH241865   1.094   0.179   8.639 -0.3821 -0.0654 -0.2404
 6769TIP3    H141866   1.132   0.212   8.720 -0.8863 -0.2970  0.0951
 6769TIP3    H241867   1.057   0.094   8.663 -0.2878 -0.2561 -0.7764
 6770TIP3   OH241868   2.224   6.725   8.629  0.6099  0.6885  0.3770
 6770TIP3    H141869   2.144   6.677   8.648  0.1325  2.1670  2.4149
 6770TIP3    H241870   2.294   6.668   8.661  0.2113  0.3473  0.6491
 6771TIP3   OH241871   4.352   6.541   1.661  0.1878 -0.8155  0.1382
 6771TIP3    H141872   4.433   6.558   1.614  0.0394 -2.0459 -0.6172
 6771TIP3    H241873   4.380   6.520   1.750  0.4325  2.0966  0.8420
 6772TIP3   OH241874   5.535   2.963   7.443 -0.3615  0.3942 -0.0492
 6772TIP3    H141875   5.558   2.948   7.535  0.3381 -0.3123 -0.3251
 6772TIP3    H241876   5.619   2.977   7.399 -0.7443  1.4547 -0.4679
 6773TIP3   OH241877   3.712   1.283   2.032  0.1050  0.3873 -0.7721
 6773TIP3    H141878   3.798   1.253   2.061  0.1397 -0.2409 -1.4820
 6773TIP3    H241879   3.654   1.266   2.106 -0.2360 -3.1182 -1.6112
 6774TIP3   OH241880   4.805   1.209   1.037 -0.1389 -0.5852  0.3947
 6774TIP3    H141881   4.721   1.195   1.080 -0.2937 -0.3331  0.1813
 6774TIP3    H241882   4.795   1.169   0.950 -0.9050  1.5008 -0.5741
 6775TIP3   OH241883   3.848   0.108   7.800 -0.2965  0.2798  0.4372
 6775TIP3    H141884   3.789   0.046   7.759 -1.5664  1.0245  1.0866
 6775TIP3    H241885   3.851   0.082   7.892  0.3532  0.2860  0.4264
 6776TIP3   OH241886   0.998   0.133   6.606  0.0860  0.1598 -0.3272
 6776TIP3    H141887   0.965   0.045   6.587 -0.0164  0.2562 -0.6022
 6776TIP3    H241888   0.987   0.181   6.523 -0.2297  0.5434 -0.0671
 6777TIP3   OH241889   5.142   0.549   6.658 -0.5493  0.1678  0.1440
 6777TIP3    H141890   5.141   0.638   6.624 -2.2535 -0.7246 -2.3656
 6777TIP3    H241891   5.219   0.509   6.619  0.5284  0.6144  1.7001
 6778TIP3   OH241892   1.505   0.718   0.647 -0.0658 -0.8567  0.1440
 6778TIP3    H141893   1.516   0.680   0.733  1.9418 -1.2580 -0.2555
 6778TIP3    H241894   1.536   0.651   0.586 -0.2448 -0.0995 -0.8112
 6779TIP3   OH241895   6.057   1.755   6.712  0.4904  0.5368  0.1879
 6779TIP3    H141896   6.080   1.836   6.667 -1.1500  1.1326  0.3314
 6779TIP3    H241897   6.140   1.719   6.742  1.3018  1.8733 -0.3838
 6780TIP3   OH241898   1.745   4.323   1.312  0.5017  0.2594 -0.1465
 6780TIP3    H141899   1.724   4.230   1.300 -3.0583  1.1190 -2.1822
 6780TIP3    H241900   1.721   4.341   1.403 -0.1040 -0.5626 -0.1290
 6781TIP3   OH241901   0.521   4.712   7.009 -0.0356  0.5929  0.5757
 6781TIP3    H141902   0.479   4.780   6.957  1.3785  1.6936  0.8115
 6781TIP3    H241903   0.610   4.745   7.025  0.8110 -1.4738  0.3987
 6782TIP3   OH241904   5.203   3.213   8.422 -0.1765  0.2825 -0.3575
 6782TIP3    H141905   5.198   3.139   8.361 -0.5321 -0.7339  0.8598
 6782TIP3    H241906   5.210   3.173   8.508  0.8415  1.6901  0.2612
 6783TIP3   OH241907   0.561   3.541   2.642 -0.4679  0.3101 -0.3029
 6783TIP3    H141908   0.564   3.446   2.641 -0.1389  0.3185 -0.5062
 6783TIP3    H241909   0.483   3.564   2.592 -0.2077  0.1540 -0.7880
 6784TIP3   OH241910   5.062   5.715   8.236  0.0552  0.2121 -0.5151
 6784TIP3    H141911   5.036   5.720   8.145  2.1110 -0.5657 -1.2012
 6784TIP3    H241912   5.157   5.701   8.234  0.2292  0.5631  1.7415
 6785TIP3   OH241913   4.827   0.660   1.295  0.4037 -0.1236 -0.2374
 6785TIP3    H141914   4.775   0.740   1.308  1.0454  0.3662 -0.6339
 6785TIP3    H241915   4.914   0.692   1.273  0.4117 -0.9434 -1.4305
 6786TIP3   OH241916   6.161   6.798   0.861 -0.2161 -0.2442  0.3165
 6786TIP3    H141917   6.238   6.842   0.896 -0.3719  0.0004  0.3538
 6786TIP3    H241918   6.160   6.821   0.769 -0.1710 -0.3580  0.2869
 6787TIP3   OH241919   3.103   0.909   7.311  0.1930  0.0903  0.1710
 6787TIP3    H141920   3.030   0.893   7.370 -1.2595  0.1633 -1.5339
 6787TIP3    H241921   3.173   0.942   7.368 -1.2964  0.6421  1.7608
 6788TIP3   OH241922   2.935   6.599   6.588  0.0975  0.1487  0.0219
 6788TIP3    H141923   2.988   6.662   6.637  0.4611  0.5677 -0.8899
 6788TIP3    H241924   2.924   6.639   6.502 -1.0315 -0.3058 -0.0558
 6789TIP3   OH241925   5.257   3.760   7.307  0.4885  0.1440  0.4206
 6789TIP3    H141926   5.182   3.815   7.332 -1.8717 -1.5188 -2.2929
 6789TIP3    H241927   5.257   3.689   7.371  0.0653  0.4143  0.7281
 6790TIP3   OH241928   5.902   2.351   8.402  0.2110  0.0743  0.1122
 6790TIP3    H141929   5.853   2.276   8.437  0.2195  0.7858  1.6972
 6790TIP3    H241930   5.854   2.428   8.431  0.4368  0.7309 -1.1502
 6791TIP3   OH241931   2.803   3.917   1.778  0.2690 -0.0808  0.0691
 6791TIP3    H141932   2.733   3.851   1.772 -0.5965  0.8159  0.0752
 6791TIP3    H241933   2.796   3.950   1.867  1.8774 -1.2182  0.6640
 6792TIP3   OH241934   2.538   4.097   6.866 -0.0841  0.1210  0.8190
 6792TIP3    H141935   2.531   4.002   6.855  0.8607  0.1469 -0.2884
 6792TIP3    H241936   2.592   4.109   6.944  2.5537 -0.3710 -0.7970
 6793TIP3   OH241937   5.503   1.388   1.306 -0.4725  0.0667 -0.4894
 6793TIP3    H141938   5.527   1.375   1.398 -1.6172  2.0589  0.1458
 6793TIP3    H241939   5.527   1.305   1.263  2.7269  0.0664  1.0070
 6794TIP3   OH241940   2.442   1.288   0.992 -0.0494  0.3695  0.5540
 6794TIP3    H141941   2.371   1.259   0.936  1.8703  1.3858 -2.6885
 6794TIP3    H241942   2.512   1.224   0.979  0.0588 -0.0770  2.8858
 6795TIP3   OH241943   3.734   6.755   7.711  0.0519  0.1031 -0.6348
 6795TIP3    H141944   3.639   6.769   7.714  0.1651  0.8531  0.0415
 6795TIP3    H241945   3.744   6.667   7.677 -0.8612  0.3153 -1.5173
 6796TIP3   OH241946   0.077   6.487   0.551 -0.3147  0.2606  0.2301
 6796TIP3    H141947   0.152   6.433   0.528  0.4157  0.2057  2.4579
 6796TIP3    H241948   0.108   6.542   0.623 -1.2103  3.2733 -1.4984
 6797TIP3   OH241949   6.169   2.420   1.766  0.2426 -0.1732  0.0476
 6797TIP3    H141950   6.240   2.366   1.802 -0.2708 -0.5570  0.5111
 6797TIP3    H241951   6.101   2.357   1.743 -0.7480  0.3446  1.4758
 6798TIP3   OH241952   0.255   5.329   0.227 -0.0540 -0.4999 -0.2378
 6798TIP3    H141953   0.301   5.383   0.162  0.5372  2.0497  2.1210
 6798TIP3    H241954   0.163   5.356   0.219  0.1354  0.3836  0.4696
 6799TIP3   OH241955   2.468   2.597   0.659  0.4399 -0.0563 -0.3509
 6799TIP3    H141956   2.460   2.596   0.564 -0.5012  0.8714 -0.3035
 6799TIP3    H241957   2.404   2.533   0.689  0.2284  0.1604 -0.3300
 6800TIP3   OH241958   6.248   1.054   0.285  0.5026  0.2615 -0.1910
 6800TIP3    H141959   6.189   1.129   0.283  0.1441 -0.0244 -0.3328
 6800TIP3    H241960   6.237   1.018   0.373  1.5642  1.0758  0.3022
 6801TIP3   OH241961   2.097   3.336   7.577 -0.3820 -0.1874 -0.1471
 6801TIP3    H141962   2.150   3.273   7.626  0.7276  1.5709  1.0517
 6801TIP3    H241963   2.156   3.370   7.510 -0.4836  0.5850  0.1373
 6802TIP3   OH241964   1.561   0.334   8.515  0.6919 -0.1523  0.2867
 6802TIP3    H141965   1.528   0.253   8.476 -0.0861  0.2692  0.0382
 6802TIP3    H241966   1.590   0.309   8.602 -0.1139 -0.5825  0.4356
 6803TIP3   OH241967   3.684   4.639   2.259 -0.2591 -0.1431 -0.2106
 6803TIP3    H141968   3.675   4.565   2.198  0.3413 -0.2519 -0.1683
 6803TIP3    H241969   3.653   4.714   2.210 -1.2763 -0.4759 -0.1193
 6804TIP3   OH241970   4.701   5.447   0.119 -0.4929 -0.1483  0.2627
 6804TIP3    H141971   4.675   5.387   0.189 -2.1107 -0.0908 -0.2502
 6804TIP3    H241972   4.688   5.397   0.039  2.0389 -0.4647 -0.0301
 6805TIP3   OH241973   6.780   1.739   8.355 -0.2314 -0.5388 -0.2703
 6805TIP3    H141974   6.838   1.811   8.381 -1.2954 -0.2531  1.4646
 6805TIP3    H241975   6.701   1.782   8.323  0.1369 -0.9389 -1.8120
 6806TIP3   OH241976   2.788   0.737   1.784 -0.3422  0.2126  0.7542
 6806TIP3    H141977   2.772   0.689   1.866 -0.5528 -1.0621 -0.0171
 6806TIP3    H241978   2.731   0.695   1.720 -1.3504  2.2096  0.2755
 6807TIP3   OH241979   6.638   3.332   0.162 -0.0939  0.1160  0.1224
 6807TIP3    H141980   6.624   3.424   0.184 -1.6191  0.1938 -1.0354
 6807TIP3    H241981   6.565   3.285   0.204  0.3555 -0.4986  0.2382
 6808TIP3   OH241982   5.158   5.520   1.673 -0.1316  0.4823  0.0214
 6808TIP3    H141983   5.253   5.518   1.684  0.0472 -0.6332 -1.3922
 6808TIP3    H241984   5.127   5.439   1.716 -0.3676  0.5240 -0.0656
 6809TIP3   OH241985   3.504   3.586   0.176  0.5087 -0.3583 -0.1271
 6809TIP3    H141986   3.431   3.627   0.222 -0.0665 -1.5422  0.0458
 6809TIP3    H241987   3.465   3.513   0.128  1.6566 -1.4683  0.5470
 6810TIP3   OH241988   4.794   5.752   1.448 -0.8322  0.3621 -0.4077
 6810TIP3    H141989   4.807   5.664   1.482  1.7302  0.0251 -1.9535
 6810TIP3    H241990   4.807   5.810   1.523  0.1673 -0.4924  0.1023
 6811TIP3   OH241991   5.626   3.786   2.338  0.0248 -0.1972 -0.4667
 6811TIP3    H141992   5.608   3.694   2.320 -2.5698  0.3471 -0.9798
 6811TIP3    H241993   5.612   3.830   2.254  1.5483  0.6823 -0.3107
 6812TIP3   OH241994   0.472   5.146   2.102  0.3067  0.2487  0.1930
 6812TIP3    H141995   0.408   5.075   2.102 -0.0807  0.5597 -1.6003
 6812TIP3    H241996   0.485   5.166   2.194 -3.0293  0.9531  0.6232
 6813TIP3   OH241997   0.279   1.246   8.186 -0.3919 -0.2120  0.0787
 6813TIP3    H141998   0.344   1.269   8.119  0.1667  0.5029  0.8532
 6813TIP3    H241999   0.196   1.277   8.150  0.0938  1.4374  0.2965
 6814TIP3   OH242000   2.682   2.438   2.113 -0.2344 -0.4361 -0.3800
 6814TIP3    H142001   2.622   2.495   2.161  0.2122  0.6179 -1.0382
 6814TIP3    H242002   2.767   2.451   2.154 -0.3968 -1.7957  0.4380
 6815TIP3   OH242003   1.141   0.345   0.863 -0.5053  0.8210 -0.5104
 6815TIP3    H142004   1.079   0.320   0.795  0.0644  1.8749 -1.4383
 6815TIP3    H242005   1.180   0.427   0.832 -1.1702  2.0556  1.6725
 6816TIP3   OH242006   3.725   3.908   8.390 -0.7180 -0.0563  0.5758
 6816TIP3    H142007   3.637   3.878   8.415 -1.5625  1.3644 -0.4952
 6816TIP3    H242008   3.723   3.909   8.294  1.0080 -1.4051  0.4751
 6817TIP3   OH242009   0.323   3.061   7.952  0.3459  0.0713  0.5982
 6817TIP3    H142010   0.273   3.014   8.019  2.2804 -0.3883  1.7891
 6817TIP3    H242011   0.338   2.997   7.884 -0.3769  0.1190  0.3846
 6818TIP3   OH242012   2.739   2.611   1.606 -0.2542 -0.0677  0.3051
 6818TIP3    H142013   2.760   2.700   1.578 -0.6189 -0.5340 -1.5879
 6818TIP3    H242014   2.653   2.593   1.568  0.0915 -1.4369  0.1064
 6819TIP3   OH242015   3.698   1.627   8.582 -0.8094  1.0633  0.2479
 6819TIP3    H142016   3.649   1.626   8.664  1.2317  0.1495  1.5553
 6819TIP3    H242017   3.667   1.550   8.535 -0.8010  0.6279  0.9428
 6820TIP3   OH242018   3.461   6.293   0.599  0.4854 -0.6379 -0.0839
 6820TIP3    H142019   3.517   6.317   0.524  0.5576  0.6242  0.3517
 6820TIP3    H242020   3.417   6.375   0.623 -0.9980 -1.4423  0.0614
 6821TIP3   OH242021   0.654   4.795   1.015 -0.4112  0.0135 -0.2360
 6821TIP3    H142022   0.742   4.758   1.015 -1.1685 -1.9379  0.3075
 6821TIP3    H242023   0.644   4.833   1.102 -0.8243 -1.7745  0.5529
 6822TIP3   OH242024   6.617   2.009   1.951  0.3679  0.6151  0.5568
 6822TIP3    H142025   6.579   2.006   2.039 -0.4566 -0.2015  0.1856
 6822TIP3    H242026   6.654   2.097   1.944  1.5004  0.3107  2.1433
 6823TIP3   OH242027   1.077   0.016   1.738  0.0360 -0.5316  0.2849
 6823TIP3    H142028   1.164  -0.022   1.737  0.5932  0.5996  1.8722
 6823TIP3    H242029   1.067   0.052   1.826 -1.5230  0.4916 -0.2579
 6824TIP3   OH242030   5.725   5.384   7.822 -0.1547 -0.7024  0.0325
 6824TIP3    H142031   5.689   5.305   7.782 -0.1971 -0.3456 -0.6479
 6824TIP3    H242032   5.657   5.450   7.811  1.1661  0.3753 -2.5431
 6825TIP3   OH242033   2.765   4.565   0.794  0.2144  0.6125 -0.1601
 6825TIP3    H142034   2.707   4.627   0.749 -0.6790 -0.1486 -0.0959
 6825TIP3    H242035   2.743   4.480   0.756 -1.7680 -0.3436  2.7627
 6826TIP3   OH242036   6.246   6.005   1.384 -0.2176  0.1416  0.0873
 6826TIP3    H142037   6.257   5.952   1.463 -2.9440 -0.3634  0.2223
 6826TIP3    H242038   6.173   6.063   1.404  1.8761  3.2017 -0.5134
 6827TIP3   OH242039   4.332   5.113   1.050  0.4547 -0.5453  0.7048
 6827TIP3    H142040   4.382   5.062   0.988 -0.3643  0.7437 -1.1028
 6827TIP3    H242041   4.262   5.054   1.080  1.1335 -1.3206  0.7716
 6828TIP3   OH242042   4.549   0.552   7.066 -0.5506  0.0131 -0.1544
 6828TIP3    H142043   4.582   0.512   6.986 -1.2498  0.1992 -0.5359
 6828TIP3    H242044   4.589   0.500   7.136 -0.3447 -0.4718 -0.6237
 6829TIP3   OH242045   4.108   2.566   2.302  0.1952  0.9884  0.2216
 6829TIP3    H142046   4.079   2.641   2.355  1.4017  2.2287 -0.8102
 6829TIP3    H242047   4.185   2.598   2.255  0.4484 -0.7646 -0.6321
 6830TIP3   OH242048   6.204   6.837   1.378  0.5615  0.3847  0.1926
 6830TIP3    H142049   6.207   6.793   1.463  1.4419  0.5091  0.2372
 6830TIP3    H242050   6.191   6.929   1.399  1.6334  0.5421  0.2572
 6831TIP3   OH242051   6.705   6.853   7.293 -0.4385  0.6763  0.5724
 6831TIP3    H142052   6.692   6.918   7.224 -0.0262  2.0166  1.7210
 6831TIP3    H242053   6.665   6.774   7.258  0.2701  1.1392 -1.4515
 6832TIP3   OH242054   4.692   3.700   1.247 -0.1064  0.3031  0.5526
 6832TIP3    H142055   4.756   3.769   1.265  1.1043 -0.7346  0.4100
 6832TIP3    H242056   4.697   3.686   1.152 -1.0972  0.7083  0.4276
 6833TIP3   OH242057   3.989   3.857   8.239  0.4511  0.3067  0.0641
 6833TIP3    H142058   3.963   3.777   8.193  1.3487  0.6769 -1.1526
 6833TIP3    H242059   3.932   3.925   8.203  2.0854  0.8735 -1.6697
 6834TIP3   OH242060   6.474   2.584   7.396 -0.4605 -0.4106  0.1881
 6834TIP3    H142061   6.514   2.583   7.309  0.1813  2.3140  0.3485
 6834TIP3    H242062   6.548   2.595   7.456 -1.0507 -0.2084  0.8897
 6835TIP3   OH242063   2.899   5.539   0.640  0.0496  0.5194  0.3938
 6835TIP3    H142064   2.885   5.515   0.548  2.2668 -2.9471  0.7740
 6835TIP3    H242065   2.823   5.503   0.686  0.2084 -0.0559  0.2068
 6836TIP3   OH242066   4.278   1.926   1.469  0.0994  0.0388  0.2941
 6836TIP3    H142067   4.237   1.854   1.518  1.8348  0.2374  2.2165
 6836TIP3    H242068   4.361   1.890   1.438  0.8568  1.0552  1.0231
 6837TIP3   OH242069   4.960   3.142   7.008  0.0163  0.3823  0.8961
 6837TIP3    H142070   4.912   3.069   7.047  1.6807 -1.2903 -0.0131
 6837TIP3    H242071   4.911   3.163   6.929 -0.0483 -0.2992  0.7477
 6838TIP3   OH242072   6.571   3.035   8.520  0.3302  0.1287  0.1473
 6838TIP3    H142073   6.520   2.956   8.539  1.1881 -0.3009  0.7277
 6838TIP3    H242074   6.632   3.042   8.594  1.0941  0.6424 -0.5249
 6839TIP3   OH242075   1.799   5.050   1.338  0.0795  0.4649  0.1845
 6839TIP3    H142076   1.831   5.130   1.298 -0.0847 -0.1940 -1.3258
 6839TIP3    H242077   1.831   4.980   1.281 -1.2968 -0.4300  0.4516
 6840TIP3   OH242078   0.033   0.506   7.628  0.2785  0.0819 -0.0930
 6840TIP3    H142079  -0.042   0.457   7.596 -1.7113  2.3015  0.8790
 6840TIP3    H242080   0.099   0.498   7.559  0.4306 -4.3534  0.2401
 6841TIP3   OH242081   1.629   0.845   8.510  0.0635 -0.0937  0.3309
 6841TIP3    H142082   1.645   0.753   8.529 -0.1650 -0.5110 -1.2975
 6841TIP3    H242083   1.709   0.874   8.465  0.0433  0.4479  0.6381
 6842TIP3   OH242084   0.735   5.435   7.241  0.1171  0.1719  0.4521
 6842TIP3    H142085   0.770   5.349   7.218  0.0323  0.2839 -0.1302
 6842TIP3    H242086   0.652   5.416   7.284 -0.2428 -0.0278 -0.3023
 6843TIP3   OH242087   0.392   1.497   7.155 -0.8834  0.0082  0.0305
 6843TIP3    H142088   0.425   1.431   7.217 -1.2709 -1.2749 -1.0780
 6843TIP3    H242089   0.346   1.446   7.089 -2.8749  1.5520  0.1379
 6844TIP3   OH242090   5.994   6.203   8.292 -0.2615  0.0319  0.1891
 6844TIP3    H142091   5.995   6.107   8.290 -2.2467 -0.0014 -1.4436
 6844TIP3    H242092   6.038   6.229   8.211 -3.1107  0.3587 -1.3690
 6845TIP3   OH242093   5.330   5.016   7.893 -0.5733 -0.0433  0.3638
 6845TIP3    H142094   5.402   5.077   7.911 -0.8247 -0.1110  1.6984
 6845TIP3    H242095   5.281   5.058   7.822 -0.4613  1.0806  0.9280
 6846TIP3   OH242096   1.299   6.580   2.243 -0.3013 -0.0323  0.0334
 6846TIP3    H142097   1.391   6.606   2.245 -0.5101  0.8598 -0.9858
 6846TIP3    H242098   1.259   6.637   2.177 -0.7868 -3.0260 -2.4687
 6847TIP3   OH242099   0.644   1.845   0.253 -0.2984 -0.1132  0.2830
 6847TIP3    H142100   0.640   1.756   0.219  0.3073  0.7292 -2.2282
 6847TIP3    H242101   0.727   1.850   0.299 -0.8557 -1.1199  1.4676
 6848TIP3   OH242102   3.927   3.685   8.473  0.2690  0.7122  0.0074
 6848TIP3    H142103   3.881   3.663   8.554  1.2313  1.3740  0.7544
 6848TIP3    H242104   3.868   3.747   8.429 -1.4736 -1.5912 -1.1094
 6849TIP3   OH242105   3.010   6.341   7.818 -0.1625  0.5004 -0.1213
 6849TIP3    H142106   3.000   6.304   7.906  1.2955 -0.2905 -0.2689
 6849TIP3    H242107   2.950   6.289   7.764 -0.1149  0.1352  0.1702
 6850TIP3   OH242108   6.573   0.196   0.693 -0.0898 -0.2765  0.3316
 6850TIP3    H142109   6.504   0.174   0.755 -1.2764  1.8149 -0.1609
 6850TIP3    H242110   6.608   0.279   0.724  0.2550  0.1130 -1.0307
 6851TIP3   OH242111   3.731   3.218   7.192  0.7649 -0.5932  0.3270
 6851TIP3    H142112   3.804   3.157   7.206  1.0220 -0.4294 -0.2512
 6851TIP3    H242113   3.756   3.267   7.114 -0.0222 -0.6038  0.0647
 6852TIP3   OH242114   4.961   6.437   0.277 -0.1546  0.5532 -0.3631
 6852TIP3    H142115   4.925   6.497   0.341  0.6033 -0.0965  0.7046
 6852TIP3    H242116   4.887   6.384   0.248 -0.1492 -0.6634  1.6816
 6853TIP3   OH242117   5.191   4.201   7.633  0.4683 -0.2060 -0.2997
 6853TIP3    H142118   5.245   4.168   7.705  0.4755  0.0669 -0.1804
 6853TIP3    H242119   5.254   4.237   7.570  0.3647  1.2757  0.4207
 6854TIP3   OH242120   6.015   4.667   8.377  0.0161  0.0475  0.0508
 6854TIP3    H142121   6.100   4.686   8.339 -1.3486  2.0708 -2.2844
 6854TIP3    H242122   5.986   4.587   8.334 -0.1538  0.5566 -0.8016
 6855TIP3   OH242123   3.210   1.491   7.863  0.3777  0.2679 -0.2378
 6855TIP3    H142124   3.218   1.582   7.835  0.6028  0.3047 -0.0512
 6855TIP3    H242125   3.269   1.483   7.938 -1.6548  0.6679  1.4961
 6856TIP3   OH242126   0.799   4.844   7.722  0.7982 -0.1897  0.1368
 6856TIP3    H142127   0.736   4.775   7.744  2.2679 -1.0155  2.1751
 6856TIP3    H242128   0.813   4.835   7.628 -1.1670 -0.7929 -0.1326
 6857TIP3   OH242129   2.481   6.699   7.246 -0.5755 -0.2038 -0.6009
 6857TIP3    H142130   2.434   6.652   7.315  0.2389 -0.2703 -0.0730
 6857TIP3    H242131   2.537   6.760   7.294  1.6066 -1.7171 -1.0714
 6858TIP3   OH242132   0.311   5.439   8.148 -0.8212  0.3231  0.1066
 6858TIP3    H142133   0.380   5.427   8.213 -1.0565 -1.5237  0.0605
 6858TIP3    H242134   0.264   5.356   8.147 -1.3408  0.5945 -1.8198
 6859TIP3   OH242135   5.215   6.339   0.426 -1.2611  0.4151  0.3647
 6859TIP3    H142136   5.135   6.287   0.426 -1.1280  0.1410 -1.4651
 6859TIP3    H242137   5.230   6.360   0.334  1.0587  0.0252  0.5956
 6860TIP3   OH242138   4.151   3.807   1.388 -0.7348 -0.3443  0.5958
 6860TIP3    H142139   4.146   3.869   1.462  1.0365 -0.2414  0.6805
 6860TIP3    H242140   4.181   3.726   1.428  0.6019 -0.1857 -0.0297
 6861TIP3   OH242141   6.403   2.243   0.604 -0.1157  0.4563  0.2263
 6861TIP3    H142142   6.371   2.156   0.628 -2.9723  0.9647 -1.3120
 6861TIP3    H242143   6.462   2.227   0.531  0.7401 -0.2656  1.0387
 6862TIP3   OH242144   5.751   6.306   1.148  0.4193  0.4120 -0.6502
 6862TIP3    H142145   5.711   6.329   1.232 -0.1483 -1.9996 -0.1785
 6862TIP3    H242146   5.691   6.241   1.110  1.9104 -0.3790 -1.7612
 6863TIP3   OH242147   5.514   1.487   0.073 -0.6457  0.2839  0.2350
 6863TIP3    H142148   5.497   1.542   0.150  0.3780  0.3719  0.4097
 6863TIP3    H242149   5.470   1.404   0.093 -0.7686  0.4611  0.7151
 6864TIP3   OH242150   1.543   1.258   7.802  0.1431 -0.4038 -0.5413
 6864TIP3    H142151   1.613   1.196   7.783  0.6038  0.7362 -2.8114
 6864TIP3    H242152   1.469   1.228   7.749 -0.6475 -0.7527  0.7193
 6865TIP3   OH242153   5.865   6.521   7.170 -0.0473 -0.1643  0.0401
 6865TIP3    H142154   5.829   6.458   7.108 -0.2720  0.6193 -0.6333
 6865TIP3    H242155   5.957   6.494   7.181  0.0909 -0.1013 -0.9083
 6866TIP3   OH242156   0.856   3.258   1.221 -0.1263 -0.2642 -0.3796
 6866TIP3    H142157   0.776   3.310   1.217 -0.0420 -0.1694 -0.8611
 6866TIP3    H242158   0.836   3.189   1.285  0.1974  1.0706  1.2276
 6867TIP3   OH242159   6.310   1.904   7.536 -0.5069 -0.4137  0.2749
 6867TIP3    H142160   6.221   1.937   7.551 -0.3071  0.3295 -0.0890
 6867TIP3    H242161   6.314   1.822   7.584 -1.4621 -0.5668  0.1196
 6868TIP3   OH242162   2.708   0.603   1.160 -0.0163 -0.0245 -0.0678
 6868TIP3    H142163   2.665   0.669   1.106  1.0539  0.3667 -0.4822
 6868TIP3    H242164   2.638   0.562   1.210 -0.8993  0.3100 -1.0118
 6869TIP3   OH242165   6.447   1.650   8.282 -0.0595  0.6841 -0.1886
 6869TIP3    H142166   6.488   1.717   8.337  0.4677 -0.2802  0.6421
 6869TIP3    H242167   6.359   1.682   8.266 -0.4761  0.6917  1.8368
 6870TIP3   OH242168   0.366   4.927   7.510  0.6823 -0.0085  0.3260
 6870TIP3    H142169   0.415   4.917   7.428  0.7452  1.0930  0.2105
 6870TIP3    H242170   0.425   4.976   7.567  0.5829 -0.6531  0.9892
 6871TIP3   OH242171   5.058   5.635   7.228  0.0015  0.4223 -0.9468
 6871TIP3    H142172   4.987   5.627   7.164 -0.5779 -0.3587 -0.2256
 6871TIP3    H242173   5.107   5.553   7.221 -0.2667  0.1778 -0.1858
 6872TIP3   OH242174   2.111   5.037   1.238 -0.4898  0.4911 -0.7638
 6872TIP3    H142175   2.095   5.074   1.152 -0.1610  1.7875 -0.2838
 6872TIP3    H242176   2.090   4.944   1.228  1.6598  0.1148 -2.8472
 6873TIP3   OH242177   4.687   5.476   0.538  0.2118 -0.4501  0.5901
 6873TIP3    H142178   4.620   5.528   0.495  0.7350 -1.5890 -1.7656
 6873TIP3    H242179   4.640   5.398   0.569  0.0545 -0.1606  1.1076
 6874TIP3   OH242180   0.111   1.175   0.253 -0.1973 -0.2101 -0.2423
 6874TIP3    H142181   0.019   1.169   0.282 -0.1792  0.1667 -0.1028
 6874TIP3    H242182   0.138   1.084   0.242 -0.2537 -0.3670  0.7783
 6875TIP3   OH242183   0.525   3.882   0.287  0.0802  0.1027 -0.6434
 6875TIP3    H142184   0.452   3.925   0.330 -0.4461 -0.7185 -0.7032
 6875TIP3    H242185   0.569   3.952   0.238  0.1260  0.8557  0.4423
 6876TIP3   OH242186   0.812   1.956   0.585  0.4482  0.0402  0.0940
 6876TIP3    H142187   0.772   1.997   0.661  0.0632 -1.3686  0.6790
 6876TIP3    H242188   0.903   1.940   0.611 -0.4571 -3.5764  1.6901
 6877TIP3   OH242189   2.011   5.686   2.404 -0.7879 -0.0120 -0.1726
 6877TIP3    H142190   2.037   5.741   2.330 -1.5439  1.0530  0.3242
 6877TIP3    H242191   1.927   5.723   2.433 -1.1080 -1.1764  0.4460
 6878TIP3   OH242192   6.537   0.623   0.961 -0.2305 -0.0710  0.3146
 6878TIP3    H142193   6.607   0.666   1.009  0.7113  1.0337 -1.9309
 6878TIP3    H242194   6.572   0.536   0.940 -0.5536 -0.4681  1.3459
 6879TIP3   OH242195   0.412   5.027   1.063  0.0046  0.1903  0.4959
 6879TIP3    H142196   0.440   5.012   0.973 -0.7860 -1.4936  0.4950
 6879TIP3    H242197   0.378   5.117   1.063  1.7958  0.9131 -0.3927
 6880TIP3   OH242198   6.157   3.447   1.401  0.2491  0.0627  0.4611
 6880TIP3    H142199   6.183   3.495   1.480  2.2240  4.6649 -2.4960
 6880TIP3    H242200   6.068   3.477   1.383  1.0073  1.7916 -0.6829
 6881TIP3   OH242201   2.746   3.870   0.035 -0.4483 -0.2275  0.5302
 6881TIP3    H142202   2.749   3.926  -0.043 -0.8703  1.4209  1.6495
 6881TIP3    H242203   2.714   3.786   0.002 -1.4127  0.6665 -0.9445
 6882TIP3   OH242204   0.864   6.690   1.928  0.1351  0.1904 -0.4769
 6882TIP3    H142205   0.928   6.676   1.858 -0.4314 -1.8937 -0.6543
 6882TIP3    H242206   0.902   6.760   1.982  1.7831  0.1045 -1.4607
 6883TIP3   OH242207   1.834   4.728   7.423  0.1356 -0.5315 -0.1915
 6883TIP3    H142208   1.792   4.684   7.497  2.4751 -2.3306  0.1557
 6883TIP3    H242209   1.801   4.683   7.346 -1.7562  0.8822 -0.2838
 6884TIP3   OH242210   1.845   1.237   1.274  0.5777  0.0613 -0.3887
 6884TIP3    H142211   1.769   1.291   1.254  0.0534 -0.8787 -1.0421
 6884TIP3    H242212   1.918   1.298   1.280 -0.0465  0.8599 -0.8048
 6885TIP3   OH242213   3.789   3.796   1.550 -0.1362  0.5632  0.4039
 6885TIP3    H142214   3.846   3.722   1.525 -2.3816 -1.0051 -0.4170
 6885TIP3    H242215   3.795   3.800   1.645 -0.2520 -0.9683  0.4991
 6886TIP3   OH242216   4.966   6.809   2.438  0.6691 -0.0428 -0.2714
 6886TIP3    H142217   4.889   6.763   2.471  0.1607  0.7850 -0.2910
 6886TIP3    H242218   4.933   6.894   2.410  1.8281  0.8778  1.0449
 6887TIP3   OH242219   4.216   1.303   2.153  0.2515  0.5747  0.1278
 6887TIP3    H142220   4.246   1.359   2.225  0.8473  1.0301 -0.4729
 6887TIP3    H242221   4.223   1.358   2.075 -1.2273  0.3830 -0.1758
 6888TIP3   OH242222   4.002   1.723   1.681  0.4995  0.2757 -0.1288
 6888TIP3    H142223   3.989   1.815   1.702 -1.1123  0.2243 -0.7813
 6888TIP3    H242224   3.977   1.714   1.589 -0.0165 -0.9184  0.0991
 6889TIP3   OH242225   1.875   3.018   8.433  0.0374  0.3767  0.6494
 6889TIP3    H142226   1.874   2.964   8.354 -1.0297  0.5487  0.5373
 6889TIP3    H242227   1.863   3.107   8.401 -3.2583  0.2101  1.1446
 6890TIP3   OH242228   2.500   0.779   0.374 -0.5030  0.3733  0.6401
 6890TIP3    H142229   2.474   0.778   0.466 -0.3748 -0.4653  0.6684
 6890TIP3    H242230   2.596   0.778   0.376 -0.5040  0.0381  0.4900
 6891TIP3   OH242231   6.027   1.834   0.330 -0.1312 -0.2706 -0.1796
 6891TIP3    H142232   5.965   1.812   0.260  0.4141 -0.8244 -0.4886
 6891TIP3    H242233   5.973   1.879   0.395 -0.9112 -0.9432 -0.3405
 6892TIP3   OH242234   0.366   6.088   0.489 -0.1420 -0.0197  0.0389
 6892TIP3    H142235   0.296   6.104   0.553  1.5994 -0.1140  2.0729
 6892TIP3    H242236   0.346   6.001   0.453 -1.4150  0.2390  0.0641
 6893TIP3   OH242237   5.049   2.443   0.941  0.2452 -0.1137  0.7904
 6893TIP3    H142238   5.013   2.509   0.882  1.0694  1.5447  2.0402
 6893TIP3    H242239   4.981   2.376   0.947 -1.3038  1.3783  0.6701
 6894TIP3   OH242240   1.514   2.042   0.823  0.1726 -0.2912 -0.8345
 6894TIP3    H142241   1.436   2.088   0.852  0.4023  0.0828 -0.8003
 6894TIP3    H242242   1.562   2.107   0.771 -1.1576 -1.4778 -3.7490
 6895TIP3   OH242243   3.795   3.434   0.876 -0.1488 -0.0771  0.0331
 6895TIP3    H142244   3.719   3.492   0.885  0.1002  0.2659 -0.0657
 6895TIP3    H242245   3.780   3.388   0.793 -1.0755 -1.2332  0.8028
 6896TIP3   OH242246   5.572   4.948   1.556  0.1971  1.1260 -0.1710
 6896TIP3    H142247   5.636   4.911   1.617  2.1590  1.9749 -1.5813
 6896TIP3    H242248   5.565   5.040   1.581 -0.6202  0.9944  0.0892
 6897TIP3   OH242249   6.580   4.579   1.540 -0.0165 -0.2609 -0.5513
 6897TIP3    H142250   6.628   4.609   1.463 -0.5679  1.5771 -0.2173
 6897TIP3    H242251   6.574   4.655   1.597 -1.3506 -1.0396  0.4270
 6898TIP3   OH242252   4.226   3.831   7.018  0.5823 -0.5444 -0.3297
 6898TIP3    H142253   4.172   3.909   7.030  0.1879 -0.6992 -1.0194
 6898TIP3    H242254   4.216   3.782   7.099  0.7808  0.0843  0.0848
 6899TIP3   OH242255   5.045   6.300   7.635 -0.6385 -0.3317 -0.1756
 6899TIP3    H142256   5.097   6.235   7.587  0.7236 -0.9360  1.9947
 6899TIP3    H242257   4.987   6.338   7.568  2.1719 -0.0149 -2.6839
 6900TIP3   OH242258   2.722   5.867   6.951 -0.2532  0.3947 -0.1483
 6900TIP3    H142259   2.630   5.884   6.929 -0.7269 -1.1771  0.4656
 6900TIP3    H242260   2.771   5.897   6.874 -1.1506  2.3323 -0.0152
 6901TIP3   OH242261   1.284   6.210   8.369  0.4941 -0.1612 -0.4017
 6901TIP3    H142262   1.245   6.244   8.288 -1.6571 -1.3978  0.0378
 6901TIP3    H242263   1.329   6.130   8.343  0.6110 -0.0623 -0.5072
 6902TIP3   OH242264   2.959   2.957   0.439  0.2585 -0.2690  0.0643
 6902TIP3    H142265   2.920   3.044   0.428 -0.9636 -0.8863 -0.6822
 6902TIP3    H242266   2.960   2.942   0.533  2.5489  1.4295  0.4030
 6903TIP3   OH242267   0.213   6.228   1.242 -0.4625  0.0383 -0.3318
 6903TIP3    H142268   0.226   6.285   1.317 -1.9253  0.4836 -0.3863
 6903TIP3    H242269   0.301   6.195   1.221 -0.2024 -1.3520  2.5108
 6904TIP3   OH242270   5.184   4.769   1.213  0.0137  0.1250 -0.1927
 6904TIP3    H142271   5.127   4.739   1.284 -0.1724 -0.1518 -0.4564
 6904TIP3    H242272   5.224   4.850   1.246  1.3001 -0.9186  0.9362
 6905TIP3   OH242273   5.221   0.003   0.882 -0.1154 -0.2238 -0.1131
 6905TIP3    H142274   5.248  -0.089   0.883 -1.4177 -0.6609  2.0586
 6905TIP3    H242275   5.194   0.020   0.792  1.7886 -1.4157 -0.9750
 6906TIP3   OH242276   5.263   0.272   1.266  0.3903  0.6113  0.4462
 6906TIP3    H142277   5.321   0.196   1.270 -0.6655 -0.3140 -0.8658
 6906TIP3    H242278   5.178   0.238   1.294  0.0116  1.4323  0.3219
 6907TIP3   OH242279   1.928   1.309   1.848  0.4448 -0.4539  0.3990
 6907TIP3    H142280   1.895   1.389   1.889  0.6560 -1.3826  2.5096
 6907TIP3    H242281   2.024   1.318   1.853  0.5403 -1.7613  2.8256
 6908TIP3   OH242282   1.776   4.493   0.273 -0.3050  0.1032  0.5887
 6908TIP3    H142283   1.741   4.582   0.282 -1.3120 -0.1225 -0.8426
 6908TIP3    H242284   1.865   4.506   0.242 -0.7373  0.6226 -0.4976
 6909TIP3   OH242285   0.704   1.391   7.981 -0.0418 -0.2523  0.3049
 6909TIP3    H142286   0.621   1.433   7.960  0.4086  0.4783 -0.0709
 6909TIP3    H242287   0.760   1.464   8.010  0.5935 -0.6760  0.1508
 6910TIP3   OH242288   2.026   1.314   6.939 -0.2917  0.1600 -0.2348
 6910TIP3    H142289   2.118   1.305   6.965 -0.8493  0.5415  2.1162
 6910TIP3    H242290   1.999   1.225   6.916 -0.0273 -0.5023  1.7940
 6911TIP3   OH242291   5.436   5.199   0.755  0.3239 -0.2233 -0.2331
 6911TIP3    H142292   5.520   5.246   0.755 -0.3080  0.9695  0.7527
 6911TIP3    H242293   5.460   5.107   0.766  1.5976 -0.1633 -1.9966
 6912TIP3   OH242294   6.667   0.291   2.225 -0.0477 -0.4383  0.1999
 6912TIP3    H142295   6.623   0.206   2.222  2.7203 -1.9681 -2.5178
 6912TIP3    H242296   6.710   0.293   2.311  0.4412 -2.1417  0.0198
 6913TIP3   OH242297   0.617   5.362   7.951 -0.2607  0.0473 -0.1915
 6913TIP3    H142298   0.693   5.382   7.896 -0.1485  0.7908  0.2273
 6913TIP3    H242299   0.654   5.325   8.031 -0.3419  0.3562 -0.0101
 6914TIP3   OH242300   2.021   4.946   8.054 -0.3110  0.5288 -0.2681
 6914TIP3    H142301   2.079   4.879   8.017 -2.2323 -0.2554 -2.0360
 6914TIP3    H242302   2.001   5.004   7.981 -1.1998  1.1885  0.4752
 6915TIP3   OH242303   0.483   6.169   7.194 -0.4647  0.2425 -0.3818
 6915TIP3    H142304   0.556   6.222   7.162 -0.4178  0.4317  0.0403
 6915TIP3    H242305   0.518   6.124   7.271 -0.4909 -0.4376 -0.7549
 6916TIP3   OH242306   3.750   4.834   0.092 -0.1724  0.8884 -0.2568
 6916TIP3    H142307   3.709   4.755   0.129  0.6528  1.2975  1.6277
 6916TIP3    H242308   3.841   4.809   0.076  0.0956  1.4439  0.3564
 6917TIP3   OH242309   1.079   2.973   7.345 -0.3872 -0.2730 -0.1179
 6917TIP3    H142310   1.075   2.934   7.432 -3.0273  0.0544 -0.0028
 6917TIP3    H242311   1.048   3.063   7.357  2.1434  0.7920 -0.9639
 6918TIP3   OH242312   4.152   2.153   6.840  0.5096 -0.1418 -0.1029
 6918TIP3    H142313   4.246   2.147   6.857  0.4727 -0.0943  0.1230
 6918TIP3    H242314   4.140   2.241   6.803  0.5417 -0.1165 -0.0533
 6919TIP3   OH242315   3.479   5.659   8.230  0.3602  0.8855  0.1649
 6919TIP3    H142316   3.420   5.585   8.240  0.2310  0.9346 -0.2039
 6919TIP3    H242317   3.565   5.626   8.256  0.1451  0.8570  0.8425
 6920TIP3   OH242318   2.167   4.747   0.043 -0.4177 -0.1525  0.6436
 6920TIP3    H142319   2.134   4.663   0.011  1.6325 -0.2498 -1.5245
 6920TIP3    H242320   2.227   4.723   0.115 -1.5217 -0.3201  1.5360
 6921TIP3   OH242321   3.115   4.662   7.070 -0.5500  0.0401 -0.0201
 6921TIP3    H142322   3.041   4.603   7.060  0.0486 -0.6529 -0.5358
 6921TIP3    H242323   3.076   4.747   7.093 -1.5623 -0.0935 -1.1441
 6922TIP3   OH242324   2.339   5.813   2.192  0.4651 -0.2965 -0.8736
 6922TIP3    H142325   2.341   5.904   2.220 -0.9931 -0.8338  1.1650
 6922TIP3    H242326   2.257   5.804   2.144 -0.5528 -1.0345  0.9380
 6923TIP3   OH242327   2.145   3.134   6.656 -0.6060  0.4521 -0.2363
 6923TIP3    H142328   2.098   3.064   6.611 -1.2003  1.6448 -1.5589
 6923TIP3    H242329   2.225   3.146   6.604 -0.5323  0.7701 -0.0521
 6924TIP3   OH242330   1.922   4.643   2.373  0.2937 -0.4382  0.4060
 6924TIP3    H142331   1.913   4.726   2.419  1.5640 -0.3748  0.5513
 6924TIP3    H242332   1.832   4.610   2.367 -0.3258  1.2292 -0.2033
 6925TIP3   OH242333   1.682   3.924   8.258  0.1420  0.5768 -0.1571
 6925TIP3    H142334   1.605   3.907   8.314 -0.0165  0.2997 -0.4570
 6925TIP3    H242335   1.700   3.840   8.216  1.1781  0.4087  0.6089
 6926TIP3   OH242336   2.375   4.432   0.024 -0.1812 -0.4212 -0.4814
 6926TIP3    H142337   2.337   4.443  -0.064 -0.0428  0.0927 -0.4781
 6926TIP3    H242338   2.453   4.487   0.023 -0.5690  0.1505  0.2038
 6927TIP3   OH242339   2.123   3.320   7.047 -0.2100  0.0106 -0.2909
 6927TIP3    H142340   2.160   3.288   7.129  0.0412 -0.8147 -0.7035
 6927TIP3    H242341   2.048   3.262   7.031 -0.9030  0.8458 -0.1136
 6928TIP3   OH242342   5.864   5.533   0.636 -0.0246  0.0779  0.2053
 6928TIP3    H142343   5.804   5.605   0.652  0.9588  0.5503  1.9932
 6928TIP3    H242344   5.838   5.498   0.550 -3.2839 -0.2140  1.1997
 6929TIP3   OH242345   3.559   3.234   7.450  0.5590 -0.1724 -0.0496
 6929TIP3    H142346   3.630   3.237   7.386  0.3039  0.0372 -0.3281
 6929TIP3    H242347   3.603   3.229   7.535  0.8956 -1.7435 -0.2895
 6930TIP3   OH242348   2.119   4.196   6.513 -0.3242  0.0002  0.2036
 6930TIP3    H142349   2.211   4.219   6.528 -0.1809  1.7970 -2.7256
 6930TIP3    H242350   2.071   4.244   6.581  0.6183  2.8688 -1.0016
 6931TIP3   OH242351   1.459   1.775   0.746  0.2778 -0.3594 -0.6879
 6931TIP3    H142352   1.433   1.740   0.831 -0.1245 -0.3545 -0.8038
 6931TIP3    H242353   1.467   1.870   0.760  4.9739 -0.7333  0.5675
 6932TIP3   OH242354   0.620   2.468   6.717  0.0504 -0.1790 -0.0418
 6932TIP3    H142355   0.706   2.507   6.731  0.2371  0.6925 -2.8610
 6932TIP3    H242356   0.564   2.541   6.690 -0.9437 -1.0672 -0.5030
 6933TIP3   OH242357   1.876   2.366   8.636 -0.1058  0.1094  0.1173
 6933TIP3    H142358   1.949   2.394   8.581 -0.0807  1.5732  0.8374
 6933TIP3    H242359   1.907   2.380   8.726  0.0020 -2.6096  0.5652
 6934TIP3   OH242360   5.425   4.326   0.029 -0.4722 -0.0871 -0.0936
 6934TIP3    H142361   5.386   4.249   0.070 -0.3238 -1.4988 -2.4331
 6934TIP3    H242362   5.519   4.306   0.025 -0.2038  0.9319  0.6780
 6935TIP3   OH242363   3.286   3.133   1.013  0.0165 -1.1387 -0.0435
 6935TIP3    H142364   3.239   3.116   0.932  0.3014 -1.3917 -0.1546
 6935TIP3    H242365   3.368   3.086   1.004  0.1581 -0.9579  0.2859
 6936TIP3   OH242366   1.694   3.137   7.951  0.8040 -0.0169  0.3475
 6936TIP3    H142367   1.634   3.138   7.876 -0.1178 -1.1221  1.0223
 6936TIP3    H242368   1.781   3.148   7.913  0.2119  1.2318 -0.6989
 6937TIP3   OH242369   2.210   1.041   7.739 -0.8278 -0.0868 -0.2503
 6937TIP3    H142370   2.119   1.040   7.768 -0.5949 -2.1791  0.6114
 6937TIP3    H242371   2.250   0.968   7.786  0.2342 -2.1035 -3.9112
 6938TIP3   OH242372   2.599   3.701   0.662  0.3075  0.0058  0.3023
 6938TIP3    H142373   2.522   3.757   0.650 -0.1978 -0.5083  1.0904
 6938TIP3    H242374   2.572   3.636   0.727  0.9164 -1.1020 -0.5181
 6939TIP3   OH242375   4.665   6.306   7.282  0.0465  0.0476  0.2640
 6939TIP3    H142376   4.747   6.277   7.241 -0.1795 -1.1721  0.6212
 6939TIP3    H242377   4.611   6.227   7.284  0.2360 -0.1122  3.3193
 6940TIP3   OH242378   4.982   2.277   0.602  0.1161 -0.2753  0.0586
 6940TIP3    H142379   5.052   2.259   0.664  0.5406  3.0466  0.7561
 6940TIP3    H242380   5.015   2.351   0.551 -1.4283 -1.0175 -2.1627
 6941TIP3   OH242381   4.578   2.575   7.889 -0.0711  1.0483 -0.2221
 6941TIP3    H142382   4.561   2.557   7.982  1.8068  1.8099  0.3136
 6941TIP3    H242383   4.526   2.653   7.870  0.0085  1.2438  0.3436
 6942TIP3   OH242384   3.568   6.775   2.339  0.0550  0.4642  0.8438
 6942TIP3    H142385   3.489   6.818   2.373  1.4592  3.4694  0.6548
 6942TIP3    H242386   3.599   6.833   2.270  2.3124 -0.7281  0.7549
 6943TIP3   OH242387   2.626   1.993   1.070  0.3193  0.4868  0.0124
 6943TIP3    H142388   2.638   1.898   1.076 -0.6958  0.2743 -0.9764
 6943TIP3    H242389   2.547   2.011   1.120 -0.4362  0.5666 -1.1782
 6944TIP3   OH242390   3.753   3.690   0.060  0.2806  0.0309 -0.3131
 6944TIP3    H142391   3.681   3.652   0.111 -0.4731  1.2160 -0.4568
 6944TIP3    H242392   3.826   3.694   0.122 -0.2474  0.2743  0.3079
 6945TIP3   OH242393   0.072   3.474   1.092 -0.1545 -0.1084  0.4570
 6945TIP3    H142394   0.047   3.509   1.006  1.0136  0.0157  0.1574
 6945TIP3    H242395  -0.002   3.497   1.149 -0.3059  1.0831 -0.1894
 6946TIP3   OH242396   4.248   0.857   0.195 -0.2572  0.1650  0.0186
 6946TIP3    H142397   4.196   0.929   0.161 -0.1162 -0.1944 -0.9994
 6946TIP3    H242398   4.287   0.817   0.118  0.1904 -0.5999  0.6222
 6947TIP3   OH242399   3.626   5.663   7.224  0.1908 -0.3963  0.5083
 6947TIP3    H142400   3.598   5.572   7.221 -3.0497  0.4528 -3.0214
 6947TIP3    H242401   3.581   5.699   7.301  0.1058 -1.3606  0.9299
 6948TIP3   OH242402   1.296   0.868   0.863 -0.0350  0.0132  0.8887
 6948TIP3    H142403   1.355   0.944   0.869  1.8575 -1.1639 -1.0068
 6948TIP3    H242404   1.283   0.857   0.769 -0.9464 -1.5274  1.1741
 6949TIP3   OH242405   2.725   1.570   6.478 -0.4121  0.1705  0.2449
 6949TIP3    H142406   2.799   1.624   6.451 -1.1412  0.4922 -1.2424
 6949TIP3    H242407   2.670   1.564   6.399 -0.9705 -1.7137  0.7242
 6950TIP3   OH242408   5.601   1.679   0.530 -0.3065  0.3399  0.1904
 6950TIP3    H142409   5.662   1.753   0.524  0.0709 -0.0198 -0.4430
 6950TIP3    H242410   5.560   1.690   0.616 -0.9920  1.8510 -0.2892
 6951TIP3   OH242411   1.401   6.468   1.303 -0.1531  0.2635 -0.2550
 6951TIP3    H142412   1.492   6.457   1.276 -0.0573 -4.3634  0.9501
 6951TIP3    H242413   1.353   6.481   1.222  1.5210  3.5464 -0.8476
 6952TIP3   OH242414   2.986   2.805   6.385 -0.4224  0.1564 -0.2808
 6952TIP3    H142415   2.990   2.847   6.471 -2.8471 -0.1218  0.0176
 6952TIP3    H242416   2.961   2.714   6.403 -1.0563  0.1168 -1.2846
 6953TIP3   OH242417   4.336   4.149   1.209  0.2069  0.2250 -0.4548
 6953TIP3    H142418   4.368   4.059   1.211 -0.6219 -0.0831 -0.7023
 6953TIP3    H242419   4.244   4.142   1.184 -0.2854  1.0216  0.9716
 6954TIP3   OH242420   0.354   4.213   0.218  0.0910  0.4662  0.2188
 6954TIP3    H142421   0.316   4.143   0.271 -2.1574  1.1131 -0.4270
 6954TIP3    H242422   0.345   4.291   0.273  1.3256  0.5232  0.3818
 6955TIP3   OH242423   6.703   2.111   0.234 -0.1276 -0.3154  0.1246
 6955TIP3    H142424   6.727   2.190   0.186  0.4102 -0.0380  0.8458
 6955TIP3    H242425   6.767   2.045   0.205  1.7426  0.4804  2.2120
 6956TIP3   OH242426   0.904   1.135   8.329  0.0154 -0.4206 -0.0770
 6956TIP3    H142427   0.810   1.144   8.341  0.0899 -1.1328  1.1641
 6956TIP3    H242428   0.935   1.224   8.311 -1.0018 -0.3216 -1.5317
 6957TIP3   OH242429   3.444   6.860   6.470 -0.5056  0.5597  0.0842
 6957TIP3    H142430   3.412   6.783   6.424 -1.9928  0.9415  0.4343
 6957TIP3    H242431   3.419   6.846   6.561 -1.0935  1.5993  0.0956
 6958TIP3   OH242432   0.920   4.223   0.161  0.3494 -0.4208 -0.1202
 6958TIP3    H142433   1.001   4.255   0.201 -0.6467  1.0781  0.7875
 6958TIP3    H242434   0.887   4.157   0.223  0.8614 -1.0658 -0.5124
 6959TIP3   OH242435   4.964   5.271   0.528 -0.1757  0.5492  0.1409
 6959TIP3    H142436   5.010   5.187   0.525 -0.4695  0.3241  1.2278
 6959TIP3    H242437   4.957   5.290   0.622 -2.8694  0.2272  0.0923
 6960TIP3   OH242438   4.495   0.204   8.039  0.2987  0.1456 -0.2689
 6960TIP3    H142439   4.584   0.170   8.029  0.0160 -0.8610  0.5339
 6960TIP3    H242440   4.457   0.153   8.110 -0.8664  0.6951 -0.4704
 6961TIP3   OH242441   6.425   4.930   7.678  0.7226 -0.0271 -0.1808
 6961TIP3    H142442   6.508   4.951   7.635  1.5241 -0.4138  1.1030
 6961TIP3    H242443   6.413   4.836   7.662 -0.5411  0.3919 -2.0690
 6962TIP3   OH242444   2.817   4.654   1.817  0.4678  0.4308 -0.5542
 6962TIP3    H142445   2.756   4.726   1.833  1.5409  1.3525 -0.4579
 6962TIP3    H242446   2.866   4.680   1.739  0.9111 -0.1656 -0.4889
 6963TIP3   OH242447   6.228   4.419   0.136  0.4736 -0.3853 -0.0101
 6963TIP3    H142448   6.183   4.360   0.076 -0.2550 -1.6090  1.6760
 6963TIP3    H242449   6.191   4.505   0.117 -0.3346 -0.8818 -0.7523
 6964TIP3   OH242450   3.513   5.353   1.950  0.1588  0.1726  0.1912
 6964TIP3    H142451   3.570   5.372   2.025  1.9739 -0.2443 -1.0319
 6964TIP3    H242452   3.572   5.317   1.884 -1.8487 -2.0284 -0.4923
 6965TIP3   OH242453   5.972   0.721   1.248  0.1182 -0.0105  0.2425
 6965TIP3    H142454   5.905   0.780   1.214  0.3606 -0.2378 -0.6784
 6965TIP3    H242455   6.006   0.764   1.326 -1.6774 -0.2916  1.2220
 6966TIP3   OH242456   2.638   3.058   6.993  0.1689 -0.0268 -0.6573
 6966TIP3    H142457   2.543   3.048   6.986  0.2858 -1.1865 -0.8183
 6966TIP3    H242458   2.673   3.018   6.913  0.7870  0.4644 -0.6390
 6967TIP3   OH242459   3.871   6.066   7.687 -0.3026  0.4035  0.1124
 6967TIP3    H142460   3.886   5.972   7.694 -2.2363 -0.0237 -0.7178
 6967TIP3    H242461   3.880   6.085   7.594 -1.2166  0.7720  0.0877
 6968TIP3   OH242462   4.854   0.765   0.454 -0.2286  0.0667 -0.2122
 6968TIP3    H142463   4.859   0.679   0.497  2.0143  0.4418  0.4105
 6968TIP3    H242464   4.927   0.764   0.392 -0.0265  1.5938 -0.0244
 6969TIP3   OH242465   4.565   1.489   7.291  0.1008  0.6039  0.1378
 6969TIP3    H142466   4.588   1.397   7.281 -2.2940  0.0451 -1.1355
 6969TIP3    H242467   4.628   1.536   7.236  1.3443 -0.2424  0.7938
 6970TIP3   OH242468   5.393   2.921   0.886  0.4680  0.1105 -0.3802
 6970TIP3    H142469   5.334   2.917   0.811 -0.1780  0.0431  0.1114
 6970TIP3    H242470   5.440   3.003   0.876  1.4302 -0.5589 -1.6024
 6971TIP3   OH242471   2.552   3.187   2.633  0.4595 -0.2424 -0.9127
 6971TIP3    H142472   2.471   3.172   2.583  0.1728  0.2464 -0.6062
 6971TIP3    H242473   2.549   3.123   2.704 -0.9093  1.3782  0.5746
 6972TIP3   OH242474   3.328   1.669   8.629 -0.0957  0.3657 -0.0096
 6972TIP3    H142475   3.332   1.590   8.576 -0.4978 -0.3793  1.0618
 6972TIP3    H242476   3.240   1.704   8.614  0.1265  0.7083 -0.5855
 6973TIP3   OH242477   5.355   2.719   8.317  0.2527  0.4524  0.6571
 6973TIP3    H142478   5.349   2.624   8.311 -1.0603  0.5854 -0.9900
 6973TIP3    H242479   5.435   2.742   8.270  0.8103  0.1569  1.4403
 6974TIP3   OH242480   2.310   1.251   0.327  0.2878  0.2467 -0.2678
 6974TIP3    H142481   2.372   1.269   0.257  1.8875  0.2049  1.0866
 6974TIP3    H242482   2.294   1.157   0.322  1.0784  0.1004 -0.0271
 6975TIP3   OH242483   0.968   5.422   7.983 -0.6491  0.3062  0.1414
 6975TIP3    H142484   1.064   5.416   7.974 -0.4970  0.5221  1.4816
 6975TIP3    H242485   0.954   5.461   8.070 -1.9603  0.2980 -0.0480
 6976TIP3   OH242486   2.766   1.995   7.408  0.0357  0.0663 -0.1004
 6976TIP3    H142487   2.841   1.945   7.374 -0.6391 -0.9123 -0.1816
 6976TIP3    H242488   2.722   2.029   7.331 -0.5090 -0.7142 -0.1516
 6977TIP3   OH242489   2.068   2.414   0.409 -0.4464 -0.6465 -0.1173
 6977TIP3    H142490   2.121   2.441   0.334 -1.6774  0.1682 -0.7498
 6977TIP3    H242491   2.094   2.324   0.427 -0.3747 -0.9928 -1.7788
 6978TIP3   OH242492   5.515   1.604   1.103 -0.4541 -0.0456 -0.0507
 6978TIP3    H142493   5.464   1.538   1.057  2.1218 -1.5787 -0.9217
 6978TIP3    H242494   5.529   1.567   1.190  1.1737 -0.8383 -0.6084
 6979TIP3   OH242495   4.498   3.348   0.487  0.8745 -0.1327 -0.2501
 6979TIP3    H142496   4.437   3.281   0.517  1.1647 -0.4562 -0.3678
 6979TIP3    H242497   4.488   3.420   0.549  1.1682 -0.6267  0.3903
 6980TIP3   OH242498   2.191   4.345   7.184  0.0421 -0.3260  0.4519
 6980TIP3    H142499   2.248   4.347   7.261 -0.2628  0.3088  0.6722
 6980TIP3    H242500   2.182   4.252   7.164  0.3122 -0.4904  1.0485
 6981TIP3   OH242501   4.460   0.390   8.303  0.1458 -0.1906  0.3463
 6981TIP3    H142502   4.487   0.447   8.230  0.4778 -1.5340 -0.6293
 6981TIP3    H242503   4.514   0.311   8.293 -0.9684 -1.0829  1.0644
 6982TIP3   OH242504   3.789   2.868   7.238  0.2844 -0.0673 -0.7329
 6982TIP3    H142505   3.836   2.951   7.240  0.5149 -0.2000 -0.5864
 6982TIP3    H242506   3.753   2.858   7.326  0.9484 -0.5129 -0.5037
 6983TIP3   OH242507   5.800   1.938   0.467 -0.2522  0.0910 -0.0788
 6983TIP3    H142508   5.765   1.991   0.395  0.5932  1.0996  0.2245
 6983TIP3    H242509   5.756   1.972   0.545  0.9322  0.9774  0.2299
 6984TIP3   OH242510   5.558   3.163   7.863  0.4380  0.6234 -0.0963
 6984TIP3    H142511   5.479   3.192   7.907  0.8534  0.7371  0.5980
 6984TIP3    H242512   5.593   3.242   7.822  1.0200  0.9225  0.9269
 6985TIP3   OH242513   0.739   1.853   8.392 -0.4449  0.3469  0.6305
 6985TIP3    H142514   0.780   1.800   8.460  0.0234  1.1296  0.9724
 6985TIP3    H242515   0.707   1.789   8.327  1.6964 -0.2781  0.1117
 6986TIP3   OH242516   5.667   0.740   8.530 -0.2527 -0.1757  0.1897
 6986TIP3    H142517   5.622   0.670   8.577  0.2832 -0.2051  0.6690
 6986TIP3    H242518   5.694   0.801   8.599  1.0049 -0.4823 -0.0170
 6987TIP3   OH242519   5.414   4.406   1.081  0.2109 -0.0407  0.5181
 6987TIP3    H142520   5.329   4.448   1.100  0.5357  1.2552 -0.7244
 6987TIP3    H242521   5.418   4.404   0.986  1.3303 -0.6567  0.5702
 6988TIP3   OH242522   2.048   4.706   8.353 -0.2019  0.0163 -0.2637
 6988TIP3    H142523   1.986   4.634   8.362  1.5502 -1.6503 -0.8484
 6988TIP3    H242524   2.123   4.668   8.307  0.8581  2.1961 -0.4936
 6989TIP3   OH242525   4.497   4.618   1.154  0.1578  0.6063 -0.3652
 6989TIP3    H142526   4.571   4.597   1.210  1.1455  1.6453 -1.2452
 6989TIP3    H242527   4.429   4.555   1.179  1.8224 -1.3420 -0.5310
 6990TIP3   OH242528   5.174   1.372   7.965 -0.0831 -0.7792 -0.1468
 6990TIP3    H142529   5.111   1.384   7.895  0.6188 -1.3626 -0.8956
 6990TIP3    H242530   5.230   1.449   7.960 -0.0482 -0.8088 -0.2090
 6991TIP3   OH242531   3.657   2.079   0.670  0.7297 -0.1625 -0.1328
 6991TIP3    H142532   3.714   2.115   0.738 -0.0393  0.0551  0.4110
 6991TIP3    H242533   3.572   2.122   0.684  0.0796 -1.3909 -0.1335
 6992TIP3   OH242534   2.295   2.363   0.721  0.1056 -0.4806  0.3673
 6992TIP3    H142535   2.273   2.307   0.646 -1.4615  2.0625 -1.2120
 6992TIP3    H242536   2.227   2.346   0.785  1.4893 -2.7211  1.3678
 6993TIP3   OH242537   3.880   5.375   7.589  0.8718  0.3922 -0.1471
 6993TIP3    H142538   3.808   5.399   7.531  0.9031  0.9723  0.0540
 6993TIP3    H242539   3.879   5.279   7.589  1.0607  0.3794 -1.3310
 6994TIP3   OH242540   4.695   3.318   7.916  0.6124  0.1755  0.5413
 6994TIP3    H142541   4.701   3.224   7.932 -1.4166  0.2997  2.5251
 6994TIP3    H242542   4.713   3.359   8.000 -0.7660  1.4433  0.2669
 6995TIP3   OH242543   1.237   1.976   7.707  0.4706  0.3958 -0.2890
 6995TIP3    H142544   1.325   1.984   7.669  0.5145 -2.8577 -1.1977
 6995TIP3    H242545   1.251   1.984   7.801  1.6286  0.5569 -0.4582
 6996TIP3   OH242546   0.391   5.479   6.537  0.5370 -0.2220  0.4440
 6996TIP3    H142547   0.321   5.414   6.530 -0.3950  0.6337  1.4279
 6996TIP3    H242548   0.404   5.509   6.447  0.7320 -1.4798  0.0265
 6997TIP3   OH242549   0.220   4.070   1.150  0.6933  0.3440 -0.2258
 6997TIP3    H142550   0.305   4.051   1.110  1.2653  0.7920  0.7355
 6997TIP3    H242551   0.241   4.109   1.235 -0.4592  2.2356 -0.7472
 6998TIP3   OH242552   3.174   0.416   1.090 -0.1145 -0.5470 -0.0690
 6998TIP3    H142553   3.139   0.328   1.101 -1.1326 -0.2179 -0.5057
 6998TIP3    H242554   3.097   0.473   1.097  0.6662  0.4005  1.3603
 6999TIP3   OH242555   3.047   6.027   1.831 -0.4624 -0.5448  0.0233
 6999TIP3    H142556   3.000   5.960   1.881 -0.3931  0.2682  1.2410
 6999TIP3    H242557   3.140   6.011   1.851 -0.4725  0.2060  0.7505
 7000TIP3   OH242558   4.679   4.471   0.445 -0.0842  0.0006  0.2560
 7000TIP3    H142559   4.693   4.393   0.499 -1.6438 -2.1269 -2.1824
 7000TIP3    H242560   4.711   4.446   0.359 -0.3026  2.2391 -0.5366
 7001TIP3   OH242561   0.810   6.068   0.609 -0.6456  0.3009 -0.4113
 7001TIP3    H142562   0.868   6.062   0.686  0.5513 -0.2765 -1.3283
 7001TIP3    H242563   0.751   6.141   0.630 -0.8421 -0.3032  1.3694
 7002TIP3   OH242564   1.528   2.333   1.588 -0.3086 -0.2489 -0.5411
 7002TIP3    H142565   1.574   2.249   1.584 -0.9901 -0.5878 -1.8210
 7002TIP3    H242566   1.592   2.393   1.624 -0.3459 -1.6452  2.1135
 7003TIP3   OH242567   6.312   2.177   6.440  0.4774 -0.1997  0.0281
 7003TIP3    H142568   6.282   2.258   6.398  0.2923 -0.1749  0.2044
 7003TIP3    H242569   6.330   2.118   6.367  2.5979  0.6522 -0.2104
 7004TIP3   OH242570   0.700   2.745   7.743  0.5274 -0.1483 -0.2784
 7004TIP3    H142571   0.750   2.804   7.798  0.1394 -0.0580 -0.0210
 7004TIP3    H242572   0.761   2.674   7.722  0.4824 -0.5149  0.7949
 7005TIP3   OH242573   6.181   3.101   1.148  0.5146 -0.1693 -0.0759
 7005TIP3    H142574   6.104   3.117   1.093  0.2444  0.7973  0.5459
 7005TIP3    H242575   6.149   3.115   1.237  0.9202 -1.7980  0.3622
 7006TIP3   OH242576   6.332   0.152   7.443 -0.3204 -0.9132  0.3057
 7006TIP3    H142577   6.348   0.153   7.349  1.2081  1.1642  0.5034
 7006TIP3    H242578   6.354   0.063   7.471  0.6857 -1.1282 -1.0940
 7007TIP3   OH242579   5.058   4.354   8.134 -0.2770  0.4024  0.2872
 7007TIP3    H142580   5.083   4.311   8.052 -1.4667 -0.4770  0.3681
 7007TIP3    H242581   4.970   4.322   8.152 -0.0893  0.7149  1.8442
 7008TIP3   OH242582   5.995   6.003   7.929 -0.2274  0.2008  0.1263
 7008TIP3    H142583   6.017   5.923   7.976 -0.3358  1.0618  1.7050
 7008TIP3    H242584   5.934   5.974   7.861 -2.1697 -0.7895  2.1248
 7009TIP3   OH242585   5.644   6.782   8.269 -0.0381 -0.4059  0.2764
 7009TIP3    H142586   5.737   6.802   8.257  0.0644 -0.4211  1.0357
 7009TIP3    H242587   5.607   6.862   8.307 -0.2717 -0.5231  0.2930
 7010TIP3   OH242588   1.793   1.460   7.482 -0.3095 -1.0924 -0.0998
 7010TIP3    H142589   1.815   1.375   7.520 -0.4269 -1.5447 -0.9989
 7010TIP3    H242590   1.848   1.466   7.403  1.1082  0.5185  0.9470
 7011TIP3   OH242591   4.452   3.230   6.717  0.2760  0.3364 -0.1596
 7011TIP3    H142592   4.478   3.237   6.809  0.1899  0.6753 -0.1605
 7011TIP3    H242593   4.512   3.287   6.671 -0.1227  0.7083 -0.2274
 7012TIP3   OH242594   5.584   1.552   6.518  0.1542  0.5849 -0.5208
 7012TIP3    H142595   5.641   1.585   6.449  0.8140  0.3374 -0.1069
 7012TIP3    H242596   5.587   1.619   6.587 -0.7465  0.9801 -0.8399
 7013TIP3   OH242597   3.965   6.022   0.303  0.1634  0.0155 -0.2615
 7013TIP3    H142598   3.873   6.004   0.325  0.3770 -1.7629 -0.6874
 7013TIP3    H242599   4.008   6.033   0.388 -0.5300  1.5591 -0.0659
 7014TIP3   OH242600   0.985   2.009   7.583 -0.2250  0.5062  0.3416
 7014TIP3    H142601   1.074   2.036   7.606 -0.2057  0.3848  0.4111
 7014TIP3    H242602   0.950   1.969   7.663  0.1863 -0.7962 -0.0977
 7015TIP3   OH242603   0.831   4.692   0.353 -0.2441  0.7261 -0.1987
 7015TIP3    H142604   0.850   4.633   0.279 -0.3658  1.2973 -0.6860
 7015TIP3    H242605   0.836   4.780   0.315  0.2689  1.0508  0.6014
 7016TIP3   OH242606   0.840   2.744   8.534 -0.0236  0.4519 -0.7136
 7016TIP3    H142607   0.756   2.740   8.489 -0.4173  2.6339 -0.2612
 7016TIP3    H242608   0.903   2.764   8.465 -0.0558  0.1488 -0.8359
 7017TIP3   OH242609   6.073   1.220   2.686  0.0760 -0.1945  0.7083
 7017TIP3    H142610   5.989   1.203   2.729  0.4746 -1.4063  1.0473
 7017TIP3    H242611   6.129   1.254   2.756 -0.1506  0.7416  0.4537
 7018TIP3   OH242612   0.870   0.524   8.048  0.2770 -0.2343 -0.2532
 7018TIP3    H142613   0.883   0.594   7.984 -0.1147 -0.4864 -0.6189
 7018TIP3    H242614   0.775   0.519   8.059  0.3316 -0.3577  0.1633
 7019TIP3   OH242615   0.741   3.140   8.618  0.0477 -0.1908  0.2904
 7019TIP3    H142616   0.722   3.228   8.586 -0.1986 -0.8735 -1.5406
 7019TIP3    H242617   0.675   3.084   8.577  1.0758 -1.4370  0.2585
 7020TIP3   OH242618   2.137   5.033   2.308  0.2888 -0.3291 -0.0999
 7020TIP3    H142619   2.164   5.091   2.379  1.8939 -1.9783  0.7043
 7020TIP3    H242620   2.042   5.045   2.303  0.2897  0.7159  1.5048
 7021TIP3   OH242621   1.372   4.322   0.951  0.0949  0.2108  0.0266
 7021TIP3    H142622   1.338   4.303   0.863 -1.5799 -1.4752  0.9693
 7021TIP3    H242623   1.391   4.236   0.988 -1.7877  0.6781  2.2601
 7022TIP3   OH242624   4.188   2.022   0.599 -0.0781 -0.0394 -0.1385
 7022TIP3    H142625   4.242   1.944   0.587  0.5687 -0.4220  3.8766
 7022TIP3    H242626   4.098   1.990   0.585  0.3574 -0.6450 -1.7759
 7023TIP3   OH242627   6.020   1.043   0.634 -0.0187  0.4261 -0.5426
 7023TIP3    H142628   6.015   0.959   0.588 -1.6038  1.6929 -2.8761
 7023TIP3    H242629   5.930   1.057   0.666  0.5670  0.5915  1.1147
 7024TIP3   OH242630   3.378   5.357   7.957  0.3602 -0.2823 -0.0154
 7024TIP3    H142631   3.419   5.425   7.905  0.1183  1.0247  1.4394
 7024TIP3    H242632   3.371   5.282   7.897  1.4879  0.6379 -1.3662
 7025TIP3   OH242633   3.318   0.704   2.209 -0.3564  0.4502 -0.4268
 7025TIP3    H142634   3.331   0.753   2.290 -2.1885 -0.1167  0.2547
 7025TIP3    H242635   3.349   0.615   2.229 -1.9468 -0.0106  0.0817
 7026TIP3   OH242636   6.510   4.108   8.289 -0.1214 -0.8386  0.0547
 7026TIP3    H142637   6.468   4.163   8.223 -1.1482 -0.7553  0.7510
 7026TIP3    H242638   6.472   4.021   8.276 -1.9813 -0.3855  1.8478
 7027TIP3   OH242639   3.961   3.090   7.234  0.4929  0.0963 -0.7590
 7027TIP3    H142640   3.992   3.171   7.276  2.1133 -0.2718 -1.1737
 7027TIP3    H242641   4.041   3.040   7.218 -0.5175 -1.7601 -0.1891
 7028TIP3   OH242642   3.326   4.240   1.575  0.2612  0.1613  0.3315
 7028TIP3    H142643   3.404   4.196   1.541  1.5087  1.0889  1.9025
 7028TIP3    H242644   3.275   4.170   1.616  0.4878 -0.3654 -0.2608
 7029TIP3   OH242645   3.056   1.123   7.144 -0.3257 -0.1270  0.6278
 7029TIP3    H142646   3.048   1.040   7.191  0.3542 -0.5047  0.0901
 7029TIP3    H242647   3.067   1.098   7.053 -0.5975  0.5734  0.3956
 7030TIP3   OH242648   1.917   3.666   0.536 -0.4167  0.4800  0.0850
 7030TIP3    H142649   1.935   3.728   0.466  1.3267 -0.4828 -0.3831
 7030TIP3    H242650   1.884   3.588   0.491 -0.0165  0.1282  0.3916
 7031TIP3   OH242651   4.044   2.786   2.451 -0.6389  0.5219  0.3069
 7031TIP3    H142652   3.983   2.735   2.504 -0.9398  0.1474 -0.3849
 7031TIP3    H242653   4.014   2.877   2.461 -0.8700  0.4222  0.5429
 7032TIP3   OH242654   0.576   5.005   8.081  0.6183 -0.2167  0.1803
 7032TIP3    H142655   0.512   5.001   8.152  0.7236  0.8544  0.3506
 7032TIP3    H242656   0.524   5.030   8.004  0.2357 -2.8007 -0.5067
 7033TIP3   OH242657   2.561   0.357   1.844 -0.2134  0.2940  0.0311
 7033TIP3    H142658   2.628   0.358   1.776 -0.2888 -1.5114 -0.1045
 7033TIP3    H242659   2.610   0.362   1.926  0.0572 -0.2312 -0.0907
 7034TIP3   OH242660   6.705   0.781   6.746 -0.2912 -0.3717 -0.0746
 7034TIP3    H142661   6.703   0.691   6.713  0.4302 -1.0005  1.4827
 7034TIP3    H242662   6.630   0.786   6.805 -0.1184 -0.0702  0.1217
 7035TIP3   OH242663   1.809   0.650   8.393 -0.0137  0.2057 -0.3995
 7035TIP3    H142664   1.871   0.671   8.463 -0.3768  1.2165 -0.3657
 7035TIP3    H242665   1.864   0.617   8.322  0.5585  0.9269 -0.3066
 7036TIP3   OH242666   3.869   1.203   0.875 -0.3955  0.1417  0.5350
 7036TIP3    H142667   3.845   1.291   0.905 -0.0296 -0.2362  1.9984
 7036TIP3    H242668   3.965   1.206   0.868 -0.2891 -0.4418  1.6206
 7037TIP3   OH242669   5.627   6.600   6.439  0.0764  0.1814  0.1425
 7037TIP3    H142670   5.596   6.616   6.349  0.4277 -0.0777 -0.0259
 7037TIP3    H242671   5.706   6.547   6.428 -0.3773 -0.6107  0.6520
 7038TIP3   OH242672   0.475   1.845   1.414 -0.7169 -0.3596 -0.1416
 7038TIP3    H142673   0.495   1.786   1.487  0.5237  0.1475 -0.0440
 7038TIP3    H242674   0.459   1.786   1.339 -0.4403 -0.8370  0.1686
 7039TIP3   OH242675   6.717   2.255   1.870 -0.1856  0.0619 -0.2102
 7039TIP3    H142676   6.785   2.288   1.812 -0.7580  0.2255 -0.8073
 7039TIP3    H242677   6.747   2.277   1.958 -0.1865  1.5104 -0.5459
 7040TIP3   OH242678   4.107   5.505   0.810 -0.0661  0.9244 -0.0383
 7040TIP3    H142679   4.183   5.490   0.867  1.1787 -1.7865 -2.2026
 7040TIP3    H242680   4.039   5.447   0.845 -0.6545  2.1354  0.9097
 7041TIP3   OH242681   2.653   1.757   7.901  0.0895  0.6534  0.0352
 7041TIP3    H142682   2.694   1.776   7.816  0.7307  2.5551  0.7122
 7041TIP3    H242683   2.560   1.745   7.881  0.5000 -0.9361 -1.1616
 7042TIP3   OH242684   5.537   0.085   0.289  0.3636  0.2063 -0.2959
 7042TIP3    H142685   5.624   0.080   0.328  0.6059  0.2263 -0.8229
 7042TIP3    H242686   5.553   0.099   0.195 -0.1596 -1.7065 -0.7251
 7043TIP3   OH242687   3.084   4.667   1.739  0.3595 -0.0991 -0.0148
 7043TIP3    H142688   3.160   4.634   1.691  1.0886  0.2648  0.8642
 7043TIP3    H242689   3.057   4.594   1.794 -0.1879 -0.3616 -0.6214
 7044TIP3   OH242690   2.808   4.122   0.526  0.8618  0.5554 -0.1427
 7044TIP3    H142691   2.838   4.032   0.539 -0.2017  0.2897  0.5256
 7044TIP3    H242692   2.766   4.122   0.440  1.6615  0.6420 -0.5436
 7045TIP3   OH242693   0.416   6.384   0.137  0.1383 -0.1538  0.6135
 7045TIP3    H142694   0.371   6.456   0.093 -1.3153 -0.4345  1.5926
 7045TIP3    H242695   0.415   6.312   0.073  0.2335  0.1967  0.2100
 7046TIP3   OH242696   3.892   6.622   8.197  0.3249  0.2064 -0.3036
 7046TIP3    H142697   3.807   6.580   8.184  0.0830  1.3397 -3.0304
 7046TIP3    H242698   3.875   6.715   8.188  1.7568  0.5165 -0.0699
 7047TIP3   OH242699   5.675   2.115   7.366 -0.0166 -0.8980 -1.1401
 7047TIP3    H142700   5.597   2.087   7.414 -0.4361  1.3190 -0.3789
 7047TIP3    H242701   5.640   2.160   7.288  0.2011  2.7189  0.6242
 7048TIP3   OH242702   3.487   5.211   0.057  0.1418  0.0866 -0.0757
 7048TIP3    H142703   3.489   5.250  -0.030  2.6075  0.7458  0.1790
 7048TIP3    H242704   3.574   5.172   0.068  0.3859  1.0895  2.4904
 7049TIP3   OH242705   5.285   1.586   1.626 -0.0358  0.2299  0.6696
 7049TIP3    H142706   5.369   1.631   1.631 -0.4372  0.9193  1.5898
 7049TIP3    H242707   5.251   1.608   1.539  0.5719  0.2378  0.4304
 7050TIP3   OH242708   6.455   4.308   0.811  0.2118  0.5584 -0.3563
 7050TIP3    H142709   6.483   4.221   0.782 -0.6575  0.0851  0.1851
 7050TIP3    H242710   6.398   4.340   0.741 -2.0934 -0.6890  0.8390
 7051TIP3   OH242711   4.852   2.896   7.007  0.1538  0.4399  0.1085
 7051TIP3    H142712   4.764   2.925   6.983  0.6910  2.9015  0.8691
 7051TIP3    H242713   4.899   2.892   6.924 -0.8759 -1.9830 -0.4606
 7052TIP3   OH242714   2.530   2.957   7.547 -0.1343 -0.1570  0.2282
 7052TIP3    H142715   2.575   2.994   7.623  1.0184 -2.2327  0.6508
 7052TIP3    H242716   2.600   2.940   7.484 -0.8352 -0.0852 -0.5786
 7053TIP3   OH242717   2.391   4.213   6.556 -0.0782 -0.2169  0.1945
 7053TIP3    H142718   2.412   4.130   6.514 -0.3333  0.2346 -0.8672
 7053TIP3    H242719   2.432   4.279   6.500  0.3586  0.3694  1.1746
 7054TIP3   OH242720   5.517   4.811   7.697 -0.0652  0.1255  0.6168
 7054TIP3    H142721   5.470   4.870   7.637  0.2804  0.0022  0.2229
 7054TIP3    H242722   5.453   4.792   7.766 -0.9737 -0.8604 -0.4403
 7055TIP3   OH242723   5.276   1.755   1.911 -0.3604  0.5391 -0.3389
 7055TIP3    H142724   5.250   1.780   2.000 -0.6784  0.5446 -0.4324
 7055TIP3    H242725   5.371   1.765   1.910 -0.1937 -0.7533  0.4073
 7056TIP3   OH242726   3.095   2.879   7.092 -0.2058 -0.3195  0.2314
 7056TIP3    H142727   3.135   2.837   7.168 -0.4895 -0.3366  0.3737
 7056TIP3    H242728   3.161   2.940   7.060 -0.4650  0.4175  1.0921
 7057TIP3   OH242729   6.628   5.973   0.428 -0.5027 -0.1511  0.2282
 7057TIP3    H142730   6.630   5.978   0.524  0.9121 -0.7225  0.2538
 7057TIP3    H242731   6.537   5.950   0.407 -0.8807  0.1765  1.4099
 7058TIP3   OH242732   5.979   5.789   6.967  0.0484  0.2704 -0.2527
 7058TIP3    H142733   5.972   5.872   7.013 -1.2047 -0.1650  0.3998
 7058TIP3    H242734   5.978   5.813   6.874 -1.8152  0.9417 -0.1162
 7059TIP3   OH242735   1.838   5.411   6.861 -0.2489 -0.5048  0.0505
 7059TIP3    H142736   1.924   5.371   6.869  0.6127  1.3332  0.6081
 7059TIP3    H242737   1.857   5.503   6.841 -2.1011 -0.1862 -0.3989
 7060TIP3   OH242738   5.262   1.759   1.069 -0.1521 -0.2345 -0.2839
 7060TIP3    H142739   5.278   1.853   1.075  3.4790 -0.6188 -1.2902
 7060TIP3    H242740   5.278   1.726   1.157  0.9674 -0.1176 -0.4246
 7061TIP3   OH242741   0.085   4.167   6.483  0.0104 -0.2709 -0.2038
 7061TIP3    H142742   0.052   4.084   6.448  0.6349 -0.2283 -0.9120
 7061TIP3    H242743   0.135   4.142   6.560 -0.2246 -0.4977 -0.1215
 7062TIP3   OH242744   2.577   1.555   1.350 -0.9614  0.3153  0.5926
 7062TIP3    H142745   2.586   1.617   1.278  0.2618 -0.0074  0.4425
 7062TIP3    H242746   2.643   1.582   1.414 -0.2415 -0.9472  0.4253
 7063TIP3   OH242747   0.475   0.254   1.247  0.1846  0.4081 -0.3472
 7063TIP3    H142748   0.557   0.205   1.258  1.0975  1.7642 -0.7983
 7063TIP3    H242749   0.479   0.288   1.157 -0.9539  0.3708 -0.4303
 7064TIP3   OH242750   4.037   1.147   6.920  0.0798 -0.5518  0.3780
 7064TIP3    H142751   4.040   1.202   6.842 -1.2700 -1.4669 -0.3550
 7064TIP3    H242752   4.123   1.104   6.921  0.1334 -0.4930 -0.5798
 7065TIP3   OH242753   6.324   3.583   0.457  0.5202 -0.4246 -0.1306
 7065TIP3    H142754   6.236   3.565   0.423  0.2255 -0.5208  0.6711
 7065TIP3    H242755   6.311   3.653   0.521  1.2857  0.8086 -1.2890
 7066TIP3   OH242756   0.876   1.954   0.973  0.1769  0.0357  0.0571
 7066TIP3    H142757   0.938   2.006   0.923  1.1823 -1.3692 -0.2406
 7066TIP3    H242758   0.914   1.950   1.061 -0.1409  0.1987  0.2021
 7067TIP3   OH242759   2.336   6.841   1.185  0.7914 -0.7337  0.2899
 7067TIP3    H142760   2.270   6.877   1.244 -0.0879 -0.4771 -0.8369
 7067TIP3    H242761   2.295   6.763   1.147  0.8421 -0.1706 -0.9599
 7068TIP3   OH242762   2.110   0.263   1.750  0.1490 -0.6039 -0.0506
 7068TIP3    H142763   2.048   0.327   1.785  0.3076 -1.2685  1.5477
 7068TIP3    H242764   2.193   0.310   1.747 -0.3708  0.2962 -2.2181
 7069TIP3   OH242765   6.721   0.519   7.309 -0.1824  0.0520 -0.3684
 7069TIP3    H142766   6.688   0.478   7.389 -1.3018 -0.2291 -0.9436
 7069TIP3    H242767   6.815   0.500   7.309 -0.1850 -0.0255  0.8237
 7070TIP3   OH242768   0.721   2.104   8.630  0.7535 -0.7833 -0.5847
 7070TIP3    H142769   0.798   2.047   8.628 -0.4505 -2.5074  0.0492
 7070TIP3    H242770   0.647   2.045   8.646 -0.8481  0.6749 -2.0795
 7071TIP3   OH242771   2.115   4.133   1.133 -0.5722  0.2098 -0.1772
 7071TIP3    H142772   2.052   4.072   1.171  0.3800  0.3777  1.8126
 7071TIP3    H242773   2.087   4.144   1.042 -1.8339 -1.7535 -0.0761
 7072LIG      O42774   1.586   5.769   8.121 -0.3106 -0.1730  0.3241
 7072LIG     C142775   1.669   5.659   8.135 -0.2880  0.3568  0.0177
 7072LIG     C242776   1.678   5.598   7.995 -0.7280 -0.3000 -0.7521
 7072LIG     C342777   1.802   5.715   8.198 -0.4683 -0.0091 -0.0445
 7072LIG     H142778   1.625   5.583   8.203  0.4734 -0.1282 -0.0235
 7072LIG     H242779   1.760   5.523   7.991  0.6618  1.0834  0.2199
 7072LIG     H342780   1.695   5.675   7.916 -0.8282  0.1803 -0.3123
 7072LIG     H442781   1.581   5.546   7.981 -1.3776  0.8965 -0.8697
 7072LIG     H542782   1.833   5.811   8.151 -0.1347 -1.2115 -2.4411
 7072LIG     H642783   1.879   5.637   8.180  0.2215  0.3708  1.1589
 7072LIG     H742784   1.786   5.732   8.306  1.1385  0.7244  0.1075
 7072LIG     H842785   1.626   5.807   8.043 -0.9680 -0.3877 -0.1189
   6.87318   6.87318   8.65062
