Title t= 7700.00000 step= 3850000
42785
    1SAPS     N    1   4.275   3.578   6.991
    1SAPS   HN1    2   4.308   3.507   7.060
    1SAPS   HN2    3   4.335   3.662   7.002
    1SAPS   HN3    4   4.178   3.606   7.013
    1SAPS   C12    5   4.300   3.517   6.856
    1SAPS  H12A    6   4.286   3.593   6.781
    1SAPS   C13    7   4.444   3.462   6.844
    1SAPS  O13A    8   4.523   3.469   6.938
    1SAPS  O13B    9   4.482   3.411   6.733
    1SAPS   C11   10   4.196   3.398   6.830
    1SAPS  H11A   11   4.215   3.324   6.910
    1SAPS  H11B   12   4.224   3.369   6.726
    1SAPS     P   13   3.985   3.540   6.747
    1SAPS   O13   14   3.859   3.476   6.707
    1SAPS   O14   15   3.971   3.672   6.819
    1SAPS   O12   16   4.058   3.437   6.839
    1SAPS   O11   17   4.070   3.572   6.624
    1SAPS    C1   18   4.124   3.499   6.513
    1SAPS    HA   19   4.235   3.492   6.512
    1SAPS    HB   20   4.085   3.395   6.516
    1SAPS    C2   21   4.083   3.567   6.372
    1SAPS    HS   22   4.143   3.513   6.295
    1SAPS   O21   23   4.115   3.704   6.363
    1SAPS   C21   24   4.248   3.726   6.341
    1SAPS   O22   25   4.334   3.641   6.322
    1SAPS   C22   26   4.278   3.884   6.335
    1SAPS   H2R   27   4.180   3.935   6.334
    1SAPS   H2S   28   4.324   3.908   6.433
    1SAPS    C3   29   3.931   3.546   6.340
    1SAPS    HX   30   3.882   3.583   6.433
    1SAPS    HY   31   3.922   3.436   6.335
    1SAPS   O31   32   3.883   3.599   6.218
    1SAPS   C31   33   3.819   3.712   6.221
    1SAPS   O32   34   3.808   3.791   6.314
    1SAPS   C32   35   3.758   3.741   6.086
    1SAPS   H2X   36   3.682   3.819   6.108
    1SAPS   H2Y   37   3.695   3.652   6.063
    1SAPS   C23   38   4.370   3.929   6.221
    1SAPS   H3R   39   4.472   3.886   6.232
    1SAPS   H3S   40   4.387   4.039   6.229
    1SAPS   C24   41   4.326   3.886   6.078
    1SAPS   H4R   42   4.326   3.775   6.076
    1SAPS   H4S   43   4.407   3.926   6.013
    1SAPS   C25   44   4.194   3.929   6.025
    1SAPS   H5R   45   4.130   3.973   6.102
    1SAPS   C26   46   4.167   3.925   5.893
    1SAPS   H6R   47   4.071   3.971   5.864
    1SAPS   C27   48   4.249   3.874   5.778
    1SAPS   H7R   49   4.184   3.810   5.714
    1SAPS   H7S   50   4.324   3.800   5.814
    1SAPS   C28   51   4.335   3.964   5.706
    1SAPS   H8R   52   4.399   4.036   5.759
    1SAPS   C29   53   4.356   3.967   5.567
    1SAPS   H9R   54   4.438   4.031   5.531
    1SAPS  C210   55   4.290   3.876   5.467
    1SAPS  H10R   56   4.191   3.845   5.507
    1SAPS  H10S   57   4.356   3.787   5.461
    1SAPS  C211   58   4.273   3.948   5.333
    1SAPS  H11R   59   4.220   4.044   5.338
    1SAPS  C212   60   4.319   3.911   5.214
    1SAPS  H12R   61   4.275   3.960   5.126
    1SAPS  C213   62   4.390   3.784   5.189
    1SAPS  H13R   63   4.321   3.698   5.203
    1SAPS  H13S   64   4.461   3.766   5.272
    1SAPS  C214   65   4.447   3.769   5.045
    1SAPS  H14R   66   4.384   3.784   4.956
    1SAPS  C215   67   4.566   3.719   5.016
    1SAPS  H15R   68   4.604   3.720   4.913
    1SAPS  C216   69   4.663   3.671   5.122
    1SAPS  H16R   70   4.708   3.581   5.074
    1SAPS  H16S   71   4.605   3.641   5.212
    1SAPS  C217   72   4.781   3.774   5.139
    1SAPS  H17R   73   4.812   3.824   5.045
    1SAPS  H17S   74   4.880   3.727   5.158
    1SAPS  C218   75   4.762   3.882   5.249
    1SAPS  H18R   76   4.679   3.950   5.223
    1SAPS  H18S   77   4.853   3.946   5.255
    1SAPS  C219   78   4.737   3.820   5.385
    1SAPS  H19R   79   4.820   3.749   5.405
    1SAPS  H19S   80   4.646   3.757   5.389
    1SAPS  C220   81   4.726   3.924   5.500
    1SAPS  H20R   82   4.696   3.877   5.596
    1SAPS  H20S   83   4.654   4.001   5.466
    1SAPS  H20T   84   4.824   3.975   5.515
    1SAPS   C33   85   3.857   3.774   5.968
    1SAPS   H3X   86   3.947   3.710   5.969
    1SAPS   H3Y   87   3.885   3.882   5.965
    1SAPS   C34   88   3.782   3.738   5.836
    1SAPS   H4X   89   3.701   3.812   5.816
    1SAPS   H4Y   90   3.730   3.643   5.861
    1SAPS   C35   91   3.870   3.706   5.713
    1SAPS   H5X   92   3.916   3.606   5.727
    1SAPS   H5Y   93   3.950   3.783   5.705
    1SAPS   C36   94   3.805   3.703   5.575
    1SAPS   H6X   95   3.750   3.799   5.575
    1SAPS   H6Y   96   3.737   3.615   5.576
    1SAPS   C37   97   3.909   3.682   5.454
    1SAPS   H7X   98   3.981   3.604   5.489
    1SAPS   H7Y   99   3.963   3.777   5.436
    1SAPS   C38  100   3.849   3.642   5.314
    1SAPS   H8X  101   3.761   3.706   5.289
    1SAPS   H8Y  102   3.828   3.533   5.311
    1SAPS   C39  103   3.962   3.657   5.205
    1SAPS   H9X  104   4.032   3.572   5.219
    1SAPS   H9Y  105   4.006   3.758   5.216
    1SAPS  C310  106   3.906   3.637   5.068
    1SAPS  H10X  107   3.839   3.725   5.058
    1SAPS  H10Y  108   3.847   3.543   5.074
    1SAPS  C311  109   4.013   3.642   4.959
    1SAPS  H11X  110   4.090   3.716   4.993
    1SAPS  H11Y  111   3.969   3.682   4.866
    1SAPS  C312  112   4.077   3.515   4.916
    1SAPS  H12X  113   3.993   3.447   4.893
    1SAPS  H12Y  114   4.127   3.464   5.001
    1SAPS  C313  115   4.185   3.541   4.799
    1SAPS  H13X  116   4.261   3.608   4.844
    1SAPS  H13Y  117   4.145   3.603   4.715
    1SAPS  C314  118   4.258   3.412   4.747
    1SAPS  H14X  119   4.185   3.328   4.751
    1SAPS  H14Y  120   4.328   3.386   4.829
    1SAPS  C315  121   4.318   3.426   4.607
    1SAPS  H15X  122   4.390   3.342   4.592
    1SAPS  H15Y  123   4.368   3.524   4.614
    1SAPS  C316  124   4.213   3.418   4.497
    1SAPS  H16X  125   4.262   3.411   4.398
    1SAPS  H16Y  126   4.150   3.510   4.497
    1SAPS  C317  127   4.125   3.292   4.491
    1SAPS  H17X  128   4.070   3.288   4.588
    1SAPS  H17Y  129   4.195   3.206   4.482
    1SAPS  C318  130   4.026   3.277   4.369
    1SAPS  H18X  131   3.995   3.172   4.352
    1SAPS  H18Y  132   4.069   3.315   4.274
    1SAPS  H18Z  133   3.930   3.331   4.380
    2SAPS     N  134   4.464   5.593   6.835
    2SAPS   HN1  135   4.411   5.642   6.761
    2SAPS   HN2  136   4.564   5.615   6.818
    2SAPS   HN3  137   4.446   5.491   6.823
    2SAPS   C12  138   4.433   5.647   6.970
    2SAPS  H12A  139   4.327   5.630   6.985
    2SAPS   C13  140   4.520   5.590   7.083
    2SAPS  O13A  141   4.611   5.512   7.056
    2SAPS  O13B  142   4.502   5.634   7.200
    2SAPS   C11  143   4.424   5.800   6.973
    2SAPS  H11A  144   4.525   5.839   6.950
    2SAPS  H11B  145   4.396   5.834   7.074
    2SAPS     P  146   4.206   5.929   6.887
    2SAPS   O13  147   4.098   5.838   6.928
    2SAPS   O14  148   4.240   6.032   6.988
    2SAPS   O12  149   4.338   5.852   6.868
    2SAPS   O11  150   4.170   5.998   6.756
    2SAPS    C1  151   4.100   5.919   6.657
    2SAPS    HA  152   4.010   5.878   6.707
    2SAPS    HB  153   4.078   5.986   6.571
    2SAPS    C2  154   4.183   5.798   6.609
    2SAPS    HS  155   4.190   5.718   6.686
    2SAPS   O21  156   4.302   5.843   6.548
    2SAPS   C21  157   4.400   5.755   6.536
    2SAPS   O22  158   4.394   5.643   6.591
    2SAPS   C22  159   4.506   5.811   6.445
    2SAPS   H2R  160   4.541   5.901   6.501
    2SAPS   H2S  161   4.584   5.733   6.434
    2SAPS    C3  162   4.105   5.709   6.500
    2SAPS    HX  163   4.010   5.666   6.538
    2SAPS    HY  164   4.168   5.621   6.476
    2SAPS   O31  165   4.077   5.781   6.378
    2SAPS   C31  166   3.962   5.850   6.372
    2SAPS   O32  167   3.876   5.861   6.463
    2SAPS   C32  168   3.959   5.920   6.239
    2SAPS   H2X  169   4.022   6.011   6.251
    2SAPS   H2Y  170   3.856   5.961   6.226
    2SAPS   C23  171   4.442   5.874   6.320
    2SAPS   H3R  172   4.517   5.945   6.278
    2SAPS   H3S  173   4.350   5.930   6.348
    2SAPS   C24  174   4.399   5.777   6.204
    2SAPS   H4R  175   4.327   5.832   6.140
    2SAPS   H4S  176   4.342   5.698   6.258
    2SAPS   C25  177   4.518   5.715   6.126
    2SAPS   H5R  178   4.561   5.622   6.167
    2SAPS   C26  179   4.570   5.758   6.011
    2SAPS   H6R  180   4.650   5.701   5.962
    2SAPS   C27  181   4.531   5.877   5.931
    2SAPS   H7R  182   4.534   5.965   5.998
    2SAPS   H7S  183   4.427   5.858   5.899
    2SAPS   C28  184   4.626   5.922   5.818
    2SAPS   H8R  185   4.705   5.992   5.850
    2SAPS   C29  186   4.616   5.897   5.684
    2SAPS   H9R  187   4.691   5.940   5.616
    2SAPS  C210  188   4.503   5.826   5.607
    2SAPS  H10R  189   4.414   5.891   5.623
    2SAPS  H10S  190   4.478   5.730   5.659
    2SAPS  C211  191   4.526   5.799   5.464
    2SAPS  H11R  192   4.477   5.871   5.396
    2SAPS  C212  193   4.585   5.691   5.416
    2SAPS  H12R  194   4.597   5.701   5.307
    2SAPS  C213  195   4.653   5.579   5.491
    2SAPS  H13R  196   4.578   5.497   5.493
    2SAPS  H13S  197   4.676   5.606   5.596
    2SAPS  C214  198   4.769   5.508   5.428
    2SAPS  H14R  199   4.781   5.510   5.318
    2SAPS  C215  200   4.859   5.449   5.505
    2SAPS  H15R  201   4.943   5.398   5.455
    2SAPS  C216  202   4.868   5.457   5.659
    2SAPS  H16R  203   4.782   5.404   5.706
    2SAPS  H16S  204   4.861   5.565   5.682
    2SAPS  C217  205   4.993   5.389   5.714
    2SAPS  H17R  206   5.087   5.439   5.683
    2SAPS  H17S  207   5.007   5.292   5.663
    2SAPS  C218  208   4.979   5.367   5.871
    2SAPS  H18R  209   5.078   5.332   5.910
    2SAPS  H18S  210   4.901   5.289   5.879
    2SAPS  C219  211   4.930   5.482   5.948
    2SAPS  H19R  212   4.933   5.456   6.056
    2SAPS  H19S  213   4.826   5.505   5.916
    2SAPS  C220  214   5.030   5.602   5.926
    2SAPS  H20R  215   5.129   5.581   5.972
    2SAPS  H20S  216   4.983   5.686   5.980
    2SAPS  H20T  217   5.035   5.614   5.815
    2SAPS   C33  218   3.990   5.840   6.110
    2SAPS   H3X  219   3.919   5.755   6.099
    2SAPS   H3Y  220   4.096   5.808   6.120
    2SAPS   C34  221   3.967   5.933   5.996
    2SAPS   H4X  222   4.038   6.014   6.024
    2SAPS   H4Y  223   3.859   5.959   5.995
    2SAPS   C35  224   3.988   5.876   5.856
    2SAPS   H5X  225   3.908   5.806   5.825
    2SAPS   H5Y  226   4.078   5.812   5.842
    2SAPS   C36  227   3.997   5.981   5.753
    2SAPS   H6X  228   4.028   6.082   5.788
    2SAPS   H6Y  229   3.893   5.984   5.713
    2SAPS   C37  230   4.086   5.934   5.637
    2SAPS   H7X  231   4.052   5.836   5.599
    2SAPS   H7Y  232   4.189   5.927   5.679
    2SAPS   C38  233   4.096   6.034   5.530
    2SAPS   H8X  234   4.152   6.124   5.565
    2SAPS   H8Y  235   4.005   6.071   5.478
    2SAPS   C39  236   4.188   5.969   5.417
    2SAPS   H9X  237   4.155   5.867   5.390
    2SAPS   H9Y  238   4.293   5.959   5.454
    2SAPS  C310  239   4.188   6.060   5.297
    2SAPS  H10X  240   4.193   6.163   5.338
    2SAPS  H10Y  241   4.091   6.066   5.242
    2SAPS  C311  242   4.298   6.020   5.199
    2SAPS  H11X  243   4.293   5.912   5.170
    2SAPS  H11Y  244   4.402   6.017   5.239
    2SAPS  C312  245   4.289   6.121   5.083
    2SAPS  H12X  246   4.319   6.219   5.127
    2SAPS  H12Y  247   4.193   6.139   5.030
    2SAPS  C313  248   4.407   6.078   4.990
    2SAPS  H13X  249   4.389   5.974   4.958
    2SAPS  H13Y  250   4.501   6.080   5.051
    2SAPS  C314  251   4.426   6.175   4.873
    2SAPS  H14X  252   4.328   6.203   4.829
    2SAPS  H14Y  253   4.473   6.120   4.788
    2SAPS  C315  254   4.515   6.297   4.895
    2SAPS  H15X  255   4.598   6.278   4.966
    2SAPS  H15Y  256   4.449   6.373   4.942
    2SAPS  C316  257   4.575   6.358   4.771
    2SAPS  H16X  258   4.613   6.290   4.692
    2SAPS  H16Y  259   4.669   6.411   4.799
    2SAPS  C317  260   4.486   6.452   4.689
    2SAPS  H17X  261   4.457   6.526   4.766
    2SAPS  H17Y  262   4.404   6.400   4.635
    2SAPS  C318  263   4.570   6.529   4.583
    2SAPS  H18X  264   4.671   6.552   4.623
    2SAPS  H18Y  265   4.515   6.624   4.568
    2SAPS  H18Z  266   4.580   6.474   4.487
    3SAPS     N  267   4.698   3.900   6.888
    3SAPS   HN1  268   4.714   3.904   6.786
    3SAPS   HN2  269   4.706   3.999   6.919
    3SAPS   HN3  270   4.774   3.842   6.928
    3SAPS   C12  271   4.560   3.850   6.900
    3SAPS  H12A  272   4.555   3.747   6.867
    3SAPS   C13  273   4.505   3.834   7.035
    3SAPS  O13A  274   4.575   3.857   7.142
    3SAPS  O13B  275   4.383   3.796   7.051
    3SAPS   C11  276   4.467   3.929   6.803
    3SAPS  H11A  277   4.372   3.872   6.818
    3SAPS  H11B  278   4.510   3.902   6.704
    3SAPS     P  279   4.374   4.167   6.724
    3SAPS   O13  280   4.247   4.098   6.693
    3SAPS   O14  281   4.370   4.305   6.783
    3SAPS   O12  282   4.449   4.072   6.828
    3SAPS   O11  283   4.463   4.163   6.601
    3SAPS    C1  284   4.433   4.211   6.473
    3SAPS    HA  285   4.459   4.126   6.407
    3SAPS    HB  286   4.327   4.241   6.461
    3SAPS    C2  287   4.527   4.340   6.439
    3SAPS    HS  288   4.467   4.429   6.468
    3SAPS   O21  289   4.567   4.336   6.305
    3SAPS   C21  290   4.473   4.364   6.213
    3SAPS   O22  291   4.359   4.392   6.240
    3SAPS   C22  292   4.511   4.344   6.071
    3SAPS   H2R  293   4.421   4.348   6.006
    3SAPS   H2S  294   4.564   4.435   6.036
    3SAPS    C3  295   4.656   4.344   6.516
    3SAPS    HX  296   4.711   4.247   6.509
    3SAPS    HY  297   4.634   4.353   6.625
    3SAPS   O31  298   4.746   4.443   6.459
    3SAPS   C31  299   4.726   4.561   6.504
    3SAPS   O32  300   4.633   4.605   6.572
    3SAPS   C32  301   4.833   4.648   6.442
    3SAPS   H2X  302   4.930   4.616   6.485
    3SAPS   H2Y  303   4.820   4.755   6.469
    3SAPS   C23  304   4.596   4.218   6.049
    3SAPS   H3R  305   4.538   4.130   6.084
    3SAPS   H3S  306   4.684   4.238   6.114
    3SAPS   C24  307   4.629   4.210   5.902
    3SAPS   H4R  308   4.533   4.203   5.847
    3SAPS   H4S  309   4.686   4.117   5.883
    3SAPS   C25  310   4.701   4.334   5.846
    3SAPS   H5R  311   4.731   4.409   5.921
    3SAPS   C26  312   4.736   4.348   5.718
    3SAPS   H6R  313   4.794   4.439   5.698
    3SAPS   C27  314   4.709   4.245   5.602
    3SAPS   H7R  315   4.660   4.153   5.639
    3SAPS   H7S  316   4.804   4.209   5.557
    3SAPS   C28  317   4.617   4.299   5.496
    3SAPS   H8R  318   4.510   4.287   5.519
    3SAPS   C29  319   4.654   4.356   5.378
    3SAPS   H9R  320   4.577   4.377   5.302
    3SAPS  C210  321   4.797   4.364   5.326
    3SAPS  H10R  322   4.864   4.286   5.369
    3SAPS  H10S  323   4.841   4.461   5.356
    3SAPS  C211  324   4.805   4.358   5.174
    3SAPS  H11R  325   4.714   4.329   5.119
    3SAPS  C212  326   4.901   4.411   5.098
    3SAPS  H12R  327   4.902   4.403   4.989
    3SAPS  C213  328   5.027   4.479   5.146
    3SAPS  H13R  329   5.048   4.465   5.254
    3SAPS  H13S  330   5.005   4.587   5.138
    3SAPS  C214  331   5.141   4.455   5.043
    3SAPS  H14R  332   5.157   4.348   5.021
    3SAPS  C215  333   5.213   4.539   4.973
    3SAPS  H15R  334   5.288   4.500   4.902
    3SAPS  C216  335   5.206   4.689   4.986
    3SAPS  H16R  336   5.135   4.720   5.065
    3SAPS  H16S  337   5.173   4.739   4.892
    3SAPS  C217  338   5.341   4.747   5.015
    3SAPS  H17R  339   5.412   4.712   4.937
    3SAPS  H17S  340   5.378   4.719   5.116
    3SAPS  C218  341   5.343   4.897   5.004
    3SAPS  H18R  342   5.274   4.934   5.081
    3SAPS  H18S  343   5.296   4.924   4.907
    3SAPS  C219  344   5.489   4.963   5.007
    3SAPS  H19R  345   5.558   4.923   4.930
    3SAPS  H19S  346   5.458   5.068   4.987
    3SAPS  C220  347   5.533   4.956   5.149
    3SAPS  H20R  348   5.565   4.857   5.188
    3SAPS  H20S  349   5.460   4.995   5.223
    3SAPS  H20T  350   5.628   5.013   5.155
    3SAPS   C33  351   4.840   4.646   6.292
    3SAPS   H3X  352   4.860   4.542   6.258
    3SAPS   H3Y  353   4.932   4.701   6.262
    3SAPS   C34  354   4.718   4.711   6.233
    3SAPS   H4X  355   4.682   4.805   6.280
    3SAPS   H4Y  356   4.628   4.649   6.214
    3SAPS   C35  357   4.755   4.761   6.088
    3SAPS   H5X  358   4.789   4.867   6.094
    3SAPS   H5Y  359   4.835   4.692   6.053
    3SAPS   C36  360   4.633   4.752   5.983
    3SAPS   H6X  361   4.554   4.818   6.026
    3SAPS   H6Y  362   4.586   4.652   5.989
    3SAPS   C37  363   4.682   4.781   5.840
    3SAPS   H7X  364   4.754   4.698   5.821
    3SAPS   H7Y  365   4.744   4.873   5.846
    3SAPS   C38  366   4.570   4.789   5.729
    3SAPS   H8X  367   4.538   4.895   5.716
    3SAPS   H8Y  368   4.483   4.729   5.763
    3SAPS   C39  369   4.620   4.732   5.598
    3SAPS   H9X  370   4.637   4.626   5.627
    3SAPS   H9Y  371   4.721   4.769   5.572
    3SAPS  C310  372   4.538   4.756   5.464
    3SAPS  H10X  373   4.479   4.850   5.472
    3SAPS  H10Y  374   4.458   4.680   5.457
    3SAPS  C311  375   4.624   4.736   5.336
    3SAPS  H11X  376   4.688   4.648   5.358
    3SAPS  H11Y  377   4.686   4.826   5.320
    3SAPS  C312  378   4.533   4.703   5.217
    3SAPS  H12X  379   4.467   4.791   5.204
    3SAPS  H12Y  380   4.467   4.615   5.233
    3SAPS  C313  381   4.612   4.673   5.090
    3SAPS  H13X  382   4.690   4.604   5.126
    3SAPS  H13Y  383   4.678   4.757   5.061
    3SAPS  C314  384   4.527   4.621   4.971
    3SAPS  H14X  385   4.468   4.708   4.935
    3SAPS  H14Y  386   4.451   4.546   5.002
    3SAPS  C315  387   4.616   4.561   4.857
    3SAPS  H15X  388   4.656   4.464   4.893
    3SAPS  H15Y  389   4.702   4.627   4.833
    3SAPS  C316  390   4.533   4.529   4.731
    3SAPS  H16X  391   4.509   4.631   4.693
    3SAPS  H16Y  392   4.438   4.478   4.757
    3SAPS  C317  393   4.611   4.458   4.619
    3SAPS  H17X  394   4.664   4.366   4.653
    3SAPS  H17Y  395   4.695   4.525   4.591
    3SAPS  C318  396   4.533   4.427   4.492
    3SAPS  H18X  397   4.602   4.404   4.408
    3SAPS  H18Y  398   4.472   4.513   4.455
    3SAPS  H18Z  399   4.459   4.345   4.503
    4SAPS     N  400   1.339   1.884   7.063
    4SAPS   HN1  401   1.325   1.782   7.067
    4SAPS   HN2  402   1.279   1.916   6.984
    4SAPS   HN3  403   1.440   1.905   7.048
    4SAPS   C12  404   1.298   1.946   7.188
    4SAPS  H12A  405   1.195   1.917   7.206
    4SAPS   C13  406   1.376   1.894   7.310
    4SAPS  O13A  407   1.472   1.817   7.298
    4SAPS  O13B  408   1.322   1.904   7.422
    4SAPS   C11  409   1.322   2.100   7.183
    4SAPS  H11A  410   1.425   2.124   7.148
    4SAPS  H11B  411   1.323   2.151   7.282
    4SAPS     P  412   1.194   2.186   6.952
    4SAPS   O13  413   1.162   2.042   6.916
    4SAPS   O14  414   1.100   2.295   6.934
    4SAPS   O12  415   1.219   2.177   7.107
    4SAPS   O11  416   1.335   2.229   6.901
    4SAPS    C1  417   1.395   2.148   6.796
    4SAPS    HA  418   1.504   2.172   6.801
    4SAPS    HB  419   1.399   2.038   6.809
    4SAPS    C2  420   1.342   2.177   6.656
    4SAPS    HS  421   1.432   2.176   6.590
    4SAPS   O21  422   1.270   2.304   6.637
    4SAPS   C21  423   1.345   2.408   6.651
    4SAPS   O22  424   1.469   2.417   6.657
    4SAPS   C22  425   1.253   2.527   6.660
    4SAPS   H2R  426   1.164   2.489   6.714
    4SAPS   H2S  427   1.298   2.602   6.728
    4SAPS    C3  428   1.248   2.068   6.610
    4SAPS    HX  429   1.149   2.100   6.650
    4SAPS    HY  430   1.268   1.970   6.657
    4SAPS   O31  431   1.257   2.053   6.462
    4SAPS   C31  432   1.156   2.072   6.379
    4SAPS   O32  433   1.042   2.091   6.406
    4SAPS   C32  434   1.203   2.047   6.229
    4SAPS   H2X  435   1.154   1.948   6.218
    4SAPS   H2Y  436   1.314   2.034   6.225
    4SAPS   C23  437   1.213   2.586   6.515
    4SAPS   H3R  438   1.102   2.582   6.513
    4SAPS   H3S  439   1.251   2.510   6.443
    4SAPS   C24  440   1.268   2.721   6.486
    4SAPS   H4R  441   1.216   2.785   6.561
    4SAPS   H4S  442   1.230   2.751   6.385
    4SAPS   C25  443   1.422   2.731   6.487
    4SAPS   H5R  444   1.475   2.726   6.584
    4SAPS   C26  445   1.503   2.728   6.385
    4SAPS   H6R  446   1.611   2.733   6.408
    4SAPS   C27  447   1.463   2.708   6.233
    4SAPS   H7R  448   1.404   2.795   6.196
    4SAPS   H7S  449   1.387   2.628   6.227
    4SAPS   C28  450   1.571   2.661   6.140
    4SAPS   H8R  451   1.652   2.601   6.185
    4SAPS   C29  452   1.595   2.709   6.009
    4SAPS   H9R  453   1.688   2.686   5.955
    4SAPS  C210  454   1.498   2.799   5.943
    4SAPS  H10R  455   1.476   2.885   6.009
    4SAPS  H10S  456   1.415   2.726   5.928
    4SAPS  C211  457   1.540   2.848   5.810
    4SAPS  H11R  458   1.608   2.934   5.814
    4SAPS  C212  459   1.517   2.789   5.684
    4SAPS  H12R  460   1.546   2.843   5.593
    4SAPS  C213  461   1.434   2.668   5.649
    4SAPS  H13R  462   1.448   2.596   5.732
    4SAPS  H13S  463   1.463   2.601   5.565
    4SAPS  C214  464   1.288   2.701   5.643
    4SAPS  H14R  465   1.245   2.768   5.719
    4SAPS  C215  466   1.204   2.679   5.537
    4SAPS  H15R  467   1.102   2.720   5.542
    4SAPS  C216  468   1.247   2.620   5.400
    4SAPS  H16R  469   1.154   2.560   5.387
    4SAPS  H16S  470   1.338   2.556   5.409
    4SAPS  C217  471   1.256   2.731   5.285
    4SAPS  H17R  472   1.347   2.782   5.322
    4SAPS  H17S  473   1.161   2.789   5.290
    4SAPS  C218  474   1.278   2.668   5.154
    4SAPS  H18R  475   1.203   2.590   5.127
    4SAPS  H18S  476   1.375   2.616   5.167
    4SAPS  C219  477   1.319   2.765   5.044
    4SAPS  H19R  478   1.259   2.858   5.054
    4SAPS  H19S  479   1.276   2.733   4.947
    4SAPS  C220  480   1.465   2.794   5.029
    4SAPS  H20R  481   1.520   2.702   5.001
    4SAPS  H20S  482   1.521   2.836   5.115
    4SAPS  H20T  483   1.489   2.856   4.940
    4SAPS   C33  484   1.155   2.148   6.125
    4SAPS   H3X  485   1.047   2.172   6.129
    4SAPS   H3Y  486   1.170   2.104   6.024
    4SAPS   C34  487   1.242   2.276   6.133
    4SAPS   H4X  488   1.229   2.322   6.233
    4SAPS   H4Y  489   1.195   2.352   6.066
    4SAPS   C35  490   1.388   2.267   6.106
    4SAPS   H5X  491   1.434   2.213   6.192
    4SAPS   H5Y  492   1.429   2.371   6.115
    4SAPS   C36  493   1.425   2.198   5.973
    4SAPS   H6X  494   1.393   2.091   5.974
    4SAPS   H6Y  495   1.535   2.183   5.976
    4SAPS   C37  496   1.366   2.269   5.854
    4SAPS   H7X  497   1.408   2.372   5.849
    4SAPS   H7Y  498   1.257   2.291   5.866
    4SAPS   C38  499   1.389   2.207   5.711
    4SAPS   H8X  500   1.316   2.124   5.695
    4SAPS   H8Y  501   1.486   2.152   5.712
    4SAPS   C39  502   1.398   2.321   5.603
    4SAPS   H9X  503   1.482   2.390   5.628
    4SAPS   H9Y  504   1.298   2.368   5.598
    4SAPS  C310  505   1.423   2.277   5.457
    4SAPS  H10X  506   1.520   2.222   5.456
    4SAPS  H10Y  507   1.430   2.357   5.380
    4SAPS  C311  508   1.320   2.176   5.406
    4SAPS  H11X  509   1.218   2.219   5.397
    4SAPS  H11Y  510   1.308   2.103   5.489
    4SAPS  C312  511   1.359   2.107   5.275
    4SAPS  H12X  512   1.285   2.029   5.249
    4SAPS  H12Y  513   1.457   2.058   5.293
    4SAPS  C313  514   1.355   2.192   5.146
    4SAPS  H13X  515   1.413   2.286   5.159
    4SAPS  H13Y  516   1.256   2.243   5.143
    4SAPS  C314  517   1.375   2.118   5.011
    4SAPS  H14X  518   1.304   2.039   4.979
    4SAPS  H14Y  519   1.469   2.060   5.022
    4SAPS  C315  520   1.410   2.217   4.891
    4SAPS  H15X  521   1.442   2.154   4.806
    4SAPS  H15Y  522   1.498   2.273   4.928
    4SAPS  C316  523   1.297   2.304   4.844
    4SAPS  H16X  524   1.264   2.375   4.922
    4SAPS  H16Y  525   1.211   2.236   4.832
    4SAPS  C317  526   1.309   2.386   4.715
    4SAPS  H17X  527   1.209   2.427   4.688
    4SAPS  H17Y  528   1.358   2.324   4.636
    4SAPS  C318  529   1.417   2.496   4.724
    4SAPS  H18X  530   1.366   2.587   4.764
    4SAPS  H18Y  531   1.460   2.503   4.621
    4SAPS  H18Z  532   1.491   2.465   4.801
    5SAPS     N  533   5.001   4.238   7.180
    5SAPS   HN1  534   4.899   4.250   7.162
    5SAPS   HN2  535   5.039   4.167   7.114
    5SAPS   HN3  536   5.008   4.205   7.279
    5SAPS   C12  537   5.062   4.378   7.160
    5SAPS  H12A  538   5.018   4.450   7.226
    5SAPS   C13  539   5.207   4.383   7.199
    5SAPS  O13A  540   5.259   4.274   7.241
    5SAPS  O13B  541   5.275   4.486   7.192
    5SAPS   C11  542   5.054   4.431   7.019
    5SAPS  H11A  543   5.119   4.376   6.948
    5SAPS  H11B  544   5.086   4.537   7.013
    5SAPS     P  545   4.873   4.478   6.845
    5SAPS   O13  546   4.734   4.428   6.820
    5SAPS   O14  547   4.905   4.624   6.850
    5SAPS   O12  548   4.917   4.414   6.978
    5SAPS   O11  549   4.971   4.408   6.740
    5SAPS    C1  550   4.961   4.269   6.732
    5SAPS    HA  551   4.981   4.214   6.827
    5SAPS    HB  552   4.859   4.254   6.691
    5SAPS    C2  553   5.063   4.201   6.637
    5SAPS    HS  554   5.157   4.219   6.692
    5SAPS   O21  555   5.062   4.272   6.512
    5SAPS   C21  556   5.180   4.273   6.458
    5SAPS   O22  557   5.287   4.238   6.512
    5SAPS   C22  558   5.170   4.332   6.319
    5SAPS   H2R  559   5.191   4.441   6.327
    5SAPS   H2S  560   5.260   4.303   6.262
    5SAPS    C3  561   5.042   4.052   6.615
    5SAPS    HX  562   4.945   4.034   6.562
    5SAPS    HY  563   5.033   4.008   6.716
    5SAPS   O31  564   5.153   3.993   6.544
    5SAPS   C31  565   5.124   3.867   6.506
    5SAPS   O32  566   5.017   3.810   6.528
    5SAPS   C32  567   5.248   3.803   6.435
    5SAPS   H2X  568   5.224   3.698   6.411
    5SAPS   H2Y  569   5.332   3.824   6.504
    5SAPS   C23  570   5.044   4.308   6.240
    5SAPS   H3R  571   4.960   4.353   6.298
    5SAPS   H3S  572   5.019   4.202   6.218
    5SAPS   C24  573   5.050   4.385   6.106
    5SAPS   H4R  574   5.061   4.495   6.119
    5SAPS   H4S  575   4.953   4.387   6.051
    5SAPS   C25  576   5.156   4.321   6.016
    5SAPS   H5R  577   5.200   4.231   6.063
    5SAPS   C26  578   5.220   4.363   5.904
    5SAPS   H6R  579   5.289   4.295   5.852
    5SAPS   C27  580   5.175   4.492   5.828
    5SAPS   H7R  581   5.271   4.531   5.788
    5SAPS   H7S  582   5.118   4.559   5.896
    5SAPS   C28  583   5.076   4.434   5.717
    5SAPS   H8R  584   5.025   4.340   5.743
    5SAPS   C29  585   5.057   4.501   5.606
    5SAPS   H9R  586   4.995   4.453   5.528
    5SAPS  C210  587   5.139   4.615   5.562
    5SAPS  H10R  588   5.174   4.686   5.641
    5SAPS  H10S  589   5.075   4.678   5.496
    5SAPS  C211  590   5.246   4.570   5.471
    5SAPS  H11R  591   5.219   4.488   5.402
    5SAPS  C212  592   5.351   4.641   5.433
    5SAPS  H12R  593   5.420   4.607   5.355
    5SAPS  C213  594   5.389   4.780   5.482
    5SAPS  H13R  595   5.324   4.818   5.563
    5SAPS  H13S  596   5.370   4.850   5.398
    5SAPS  C214  597   5.530   4.783   5.532
    5SAPS  H14R  598   5.604   4.766   5.453
    5SAPS  C215  599   5.572   4.777   5.655
    5SAPS  H15R  600   5.680   4.769   5.677
    5SAPS  C216  601   5.490   4.783   5.781
    5SAPS  H16R  602   5.381   4.778   5.761
    5SAPS  H16S  603   5.503   4.887   5.820
    5SAPS  C217  604   5.517   4.675   5.888
    5SAPS  H17R  605   5.626   4.678   5.909
    5SAPS  H17S  606   5.497   4.575   5.843
    5SAPS  C218  607   5.427   4.689   6.015
    5SAPS  H18R  608   5.321   4.679   5.984
    5SAPS  H18S  609   5.435   4.796   6.043
    5SAPS  C219  610   5.462   4.589   6.115
    5SAPS  H19R  611   5.573   4.590   6.110
    5SAPS  H19S  612   5.417   4.488   6.098
    5SAPS  C220  613   5.395   4.643   6.239
    5SAPS  H20R  614   5.289   4.616   6.254
    5SAPS  H20S  615   5.400   4.753   6.247
    5SAPS  H20T  616   5.450   4.595   6.324
    5SAPS   C33  617   5.277   3.864   6.290
    5SAPS   H3X  618   5.366   3.815   6.244
    5SAPS   H3Y  619   5.284   3.974   6.293
    5SAPS   C34  620   5.158   3.834   6.196
    5SAPS   H4X  621   5.064   3.868   6.244
    5SAPS   H4Y  622   5.123   3.729   6.184
    5SAPS   C35  623   5.174   3.912   6.070
    5SAPS   H5X  624   5.204   4.017   6.090
    5SAPS   H5Y  625   5.074   3.899   6.021
    5SAPS   C36  626   5.264   3.847   5.967
    5SAPS   H6X  627   5.231   3.746   5.934
    5SAPS   H6Y  628   5.363   3.825   6.013
    5SAPS   C37  629   5.270   3.927   5.832
    5SAPS   H7X  630   5.317   3.864   5.754
    5SAPS   H7Y  631   5.338   4.014   5.831
    5SAPS   C38  632   5.137   3.960   5.761
    5SAPS   H8X  633   5.077   4.037   5.812
    5SAPS   H8Y  634   5.060   3.880   5.750
    5SAPS   C39  635   5.164   4.018   5.621
    5SAPS   H9X  636   5.264   4.064   5.631
    5SAPS   H9Y  637   5.095   4.102   5.595
    5SAPS  C310  638   5.145   3.912   5.514
    5SAPS  H10X  639   5.037   3.889   5.525
    5SAPS  H10Y  640   5.200   3.820   5.545
    5SAPS  C311  641   5.175   3.973   5.373
    5SAPS  H11X  642   5.132   4.074   5.355
    5SAPS  H11Y  643   5.134   3.902   5.299
    5SAPS  C312  644   5.328   3.981   5.339
    5SAPS  H12X  645   5.363   3.875   5.336
    5SAPS  H12Y  646   5.362   4.032   5.431
    5SAPS  C313  647   5.364   4.047   5.208
    5SAPS  H13X  648   5.473   4.032   5.194
    5SAPS  H13Y  649   5.340   4.155   5.217
    5SAPS  C314  650   5.288   3.990   5.090
    5SAPS  H14X  651   5.183   4.025   5.096
    5SAPS  H14Y  652   5.299   3.880   5.079
    5SAPS  C315  653   5.323   4.064   4.954
    5SAPS  H15X  654   5.298   4.171   4.973
    5SAPS  H15Y  655   5.258   4.028   4.872
    5SAPS  C316  656   5.473   4.054   4.919
    5SAPS  H16X  657   5.523   3.956   4.932
    5SAPS  H16Y  658   5.525   4.126   4.986
    5SAPS  C317  659   5.504   4.095   4.768
    5SAPS  H17X  660   5.470   4.015   4.698
    5SAPS  H17Y  661   5.615   4.099   4.762
    5SAPS  C318  662   5.434   4.230   4.729
    5SAPS  H18X  663   5.466   4.315   4.793
    5SAPS  H18Y  664   5.325   4.209   4.729
    5SAPS  H18Z  665   5.464   4.258   4.626
    6SAPS     N  666   1.940   4.109   6.584
    6SAPS   HN1  667   2.024   4.087   6.526
    6SAPS   HN2  668   1.912   4.031   6.647
    6SAPS   HN3  669   1.860   4.129   6.520
    6SAPS   C12  670   1.961   4.233   6.663
    6SAPS  H12A  671   1.938   4.316   6.599
    6SAPS   C13  672   1.871   4.246   6.790
    6SAPS  O13A  673   1.761   4.183   6.790
    6SAPS  O13B  674   1.876   4.343   6.871
    6SAPS   C11  675   2.113   4.245   6.702
    6SAPS  H11A  676   2.139   4.147   6.746
    6SAPS  H11B  677   2.121   4.319   6.785
    6SAPS     P  678   2.267   4.172   6.495
    6SAPS   O13  679   2.359   4.096   6.577
    6SAPS   O14  680   2.163   4.092   6.424
    6SAPS   O12  681   2.186   4.275   6.584
    6SAPS   O11  682   2.350   4.266   6.397
    6SAPS    C1  683   2.462   4.341   6.458
    6SAPS    HA  684   2.427   4.437   6.502
    6SAPS    HB  685   2.521   4.283   6.531
    6SAPS    C2  686   2.558   4.368   6.344
    6SAPS    HS  687   2.658   4.404   6.375
    6SAPS   O21  688   2.503   4.460   6.248
    6SAPS   C21  689   2.501   4.583   6.289
    6SAPS   O22  690   2.541   4.635   6.390
    6SAPS   C22  691   2.443   4.664   6.182
    6SAPS   H2R  692   2.342   4.619   6.170
    6SAPS   H2S  693   2.414   4.755   6.239
    6SAPS    C3  694   2.587   4.231   6.266
    6SAPS    HX  695   2.490   4.205   6.218
    6SAPS    HY  696   2.615   4.150   6.336
    6SAPS   O31  697   2.686   4.260   6.160
    6SAPS   C31  698   2.806   4.206   6.168
    6SAPS   O32  699   2.852   4.140   6.259
    6SAPS   C32  700   2.888   4.223   6.036
    6SAPS   H2X  701   2.985   4.275   6.052
    6SAPS   H2Y  702   2.832   4.290   5.968
    6SAPS   C23  703   2.529   4.687   6.058
    6SAPS   H3R  704   2.518   4.602   5.988
    6SAPS   H3S  705   2.638   4.682   6.077
    6SAPS   C24  706   2.490   4.821   5.987
    6SAPS   H4R  707   2.567   4.829   5.907
    6SAPS   H4S  708   2.514   4.907   6.053
    6SAPS   C25  709   2.351   4.831   5.932
    6SAPS   H5R  710   2.270   4.791   5.995
    6SAPS   C26  711   2.309   4.867   5.811
    6SAPS   H6R  712   2.201   4.884   5.794
    6SAPS   C27  713   2.395   4.912   5.698
    6SAPS   H7R  714   2.335   4.886   5.608
    6SAPS   H7S  715   2.489   4.853   5.696
    6SAPS   C28  716   2.421   5.062   5.696
    6SAPS   H8R  717   2.394   5.108   5.792
    6SAPS   C29  718   2.490   5.134   5.609
    6SAPS   H9R  719   2.504   5.243   5.617
    6SAPS  C210  720   2.543   5.079   5.477
    6SAPS  H10R  721   2.539   5.168   5.410
    6SAPS  H10S  722   2.470   5.002   5.446
    6SAPS  C211  723   2.687   5.034   5.491
    6SAPS  H11R  724   2.722   5.047   5.594
    6SAPS  C212  725   2.764   5.011   5.385
    6SAPS  H12R  726   2.868   4.984   5.409
    6SAPS  C213  727   2.728   5.014   5.231
    6SAPS  H13R  728   2.828   5.010   5.182
    6SAPS  H13S  729   2.681   5.109   5.200
    6SAPS  C214  730   2.651   4.901   5.179
    6SAPS  H14R  731   2.692   4.802   5.203
    6SAPS  C215  732   2.541   4.901   5.104
    6SAPS  H15R  733   2.503   4.805   5.064
    6SAPS  C216  734   2.471   5.018   5.046
    6SAPS  H16R  735   2.512   5.109   5.094
    6SAPS  H16S  736   2.361   5.015   5.066
    6SAPS  C217  737   2.485   5.034   4.893
    6SAPS  H17R  738   2.590   5.057   4.863
    6SAPS  H17S  739   2.426   5.125   4.874
    6SAPS  C218  740   2.432   4.923   4.804
    6SAPS  H18R  741   2.327   4.912   4.837
    6SAPS  H18S  742   2.481   4.825   4.820
    6SAPS  C219  743   2.428   4.971   4.656
    6SAPS  H19R  744   2.531   4.960   4.616
    6SAPS  H19S  745   2.388   5.074   4.648
    6SAPS  C220  746   2.331   4.888   4.568
    6SAPS  H20R  747   2.345   4.922   4.464
    6SAPS  H20S  748   2.229   4.908   4.607
    6SAPS  H20T  749   2.343   4.778   4.565
    6SAPS   C33  750   2.911   4.092   5.955
    6SAPS   H3X  751   2.821   4.033   5.929
    6SAPS   H3Y  752   2.973   4.027   6.020
    6SAPS   C34  753   2.983   4.118   5.822
    6SAPS   H4X  754   3.071   4.182   5.841
    6SAPS   H4Y  755   2.918   4.159   5.741
    6SAPS   C35  756   3.043   3.995   5.761
    6SAPS   H5X  757   2.958   3.926   5.747
    6SAPS   H5Y  758   3.114   3.943   5.829
    6SAPS   C36  759   3.130   4.018   5.637
    6SAPS   H6X  760   3.198   3.932   5.620
    6SAPS   H6Y  761   3.185   4.115   5.637
    6SAPS   C37  762   3.035   4.033   5.517
    6SAPS   H7X  763   2.975   4.126   5.528
    6SAPS   H7Y  764   2.974   3.941   5.512
    6SAPS   C38  765   3.118   4.035   5.387
    6SAPS   H8X  766   3.198   3.958   5.381
    6SAPS   H8Y  767   3.188   4.121   5.391
    6SAPS   C39  768   3.033   4.043   5.255
    6SAPS   H9X  769   2.984   4.143   5.252
    6SAPS   H9Y  770   2.955   3.968   5.280
    6SAPS  C310  771   3.120   4.023   5.128
    6SAPS  H10X  772   3.146   3.916   5.113
    6SAPS  H10Y  773   3.209   4.088   5.117
    6SAPS  C311  774   3.040   4.068   5.002
    6SAPS  H11X  775   3.021   4.178   5.007
    6SAPS  H11Y  776   2.945   4.012   5.005
    6SAPS  C312  777   3.110   4.044   4.870
    6SAPS  H12X  778   3.133   3.936   4.857
    6SAPS  H12Y  779   3.194   4.117   4.864
    6SAPS  C313  780   3.020   4.075   4.746
    6SAPS  H13X  781   2.975   4.176   4.739
    6SAPS  H13Y  782   2.930   4.010   4.746
    6SAPS  C314  783   3.088   4.052   4.613
    6SAPS  H14X  784   3.135   3.952   4.621
    6SAPS  H14Y  785   3.176   4.119   4.602
    6SAPS  C315  786   2.992   4.072   4.500
    6SAPS  H15X  787   2.937   4.164   4.532
    6SAPS  H15Y  788   2.918   3.989   4.493
    6SAPS  C316  789   3.067   4.089   4.371
    6SAPS  H16X  790   3.149   4.015   4.366
    6SAPS  H16Y  791   3.123   4.185   4.366
    6SAPS  C317  792   2.976   4.067   4.246
    6SAPS  H17X  793   2.953   3.959   4.238
    6SAPS  H17Y  794   3.043   4.101   4.164
    6SAPS  C318  795   2.850   4.160   4.247
    6SAPS  H18X  796   2.875   4.254   4.194
    6SAPS  H18Y  797   2.787   4.168   4.338
    6SAPS  H18Z  798   2.776   4.122   4.173
    7SAPS     N  799   2.719   0.522   7.022
    7SAPS   HN1  800   2.804   0.580   7.010
    7SAPS   HN2  801   2.698   0.506   7.122
    7SAPS   HN3  802   2.727   0.436   6.963
    7SAPS   C12  803   2.608   0.603   6.971
    7SAPS  H12A  804   2.518   0.577   7.026
    7SAPS   C13  805   2.615   0.758   6.985
    7SAPS  O13A  806   2.699   0.811   7.057
    7SAPS  O13B  807   2.520   0.820   6.934
    7SAPS   C11  808   2.574   0.575   6.824
    7SAPS  H11A  809   2.660   0.590   6.755
    7SAPS  H11B  810   2.508   0.655   6.784
    7SAPS     P  811   2.612   0.316   6.766
    7SAPS   O13  812   2.725   0.304   6.857
    7SAPS   O14  813   2.514   0.201   6.762
    7SAPS   O12  814   2.527   0.444   6.803
    7SAPS   O11  815   2.662   0.343   6.617
    7SAPS    C1  816   2.563   0.331   6.514
    7SAPS    HA  817   2.466   0.296   6.555
    7SAPS    HB  818   2.543   0.431   6.468
    7SAPS    C2  819   2.606   0.233   6.406
    7SAPS    HS  820   2.617   0.138   6.462
    7SAPS   O21  821   2.735   0.278   6.352
    7SAPS   C21  822   2.802   0.184   6.290
    7SAPS   O22  823   2.773   0.066   6.278
    7SAPS   C22  824   2.938   0.243   6.248
    7SAPS   H2R  825   2.969   0.321   6.320
    7SAPS   H2S  826   3.000   0.151   6.245
    7SAPS    C3  827   2.503   0.205   6.296
    7SAPS    HX  828   2.399   0.206   6.335
    7SAPS    HY  829   2.523   0.101   6.262
    7SAPS   O31  830   2.526   0.290   6.180
    7SAPS   C31  831   2.450   0.396   6.167
    7SAPS   O32  832   2.362   0.426   6.247
    7SAPS   C32  833   2.498   0.482   6.053
    7SAPS   H2X  834   2.485   0.428   5.957
    7SAPS   H2Y  835   2.604   0.505   6.076
    7SAPS   C23  836   2.933   0.316   6.112
    7SAPS   H3R  837   3.006   0.399   6.103
    7SAPS   H3S  838   2.837   0.372   6.100
    7SAPS   C24  839   2.949   0.228   5.984
    7SAPS   H4R  840   2.864   0.159   5.965
    7SAPS   H4S  841   3.043   0.170   5.976
    7SAPS   C25  842   2.941   0.316   5.859
    7SAPS   H5R  843   2.843   0.350   5.824
    7SAPS   C26  844   3.048   0.386   5.812
    7SAPS   H6R  845   3.026   0.437   5.717
    7SAPS   C27  846   3.193   0.373   5.855
    7SAPS   H7R  847   3.230   0.294   5.787
    7SAPS   H7S  848   3.202   0.342   5.961
    7SAPS   C28  849   3.274   0.498   5.819
    7SAPS   H8R  850   3.267   0.582   5.889
    7SAPS   C29  851   3.337   0.510   5.702
    7SAPS   H9R  852   3.387   0.604   5.676
    7SAPS  C210  853   3.345   0.399   5.596
    7SAPS  H10R  854   3.348   0.466   5.507
    7SAPS  H10S  855   3.253   0.338   5.581
    7SAPS  C211  856   3.469   0.309   5.604
    7SAPS  H11R  857   3.530   0.316   5.695
    7SAPS  C212  858   3.520   0.230   5.507
    7SAPS  H12R  859   3.609   0.167   5.523
    7SAPS  C213  860   3.467   0.219   5.368
    7SAPS  H13R  861   3.369   0.271   5.364
    7SAPS  H13S  862   3.446   0.111   5.351
    7SAPS  C214  863   3.567   0.269   5.259
    7SAPS  H14R  864   3.673   0.258   5.287
    7SAPS  C215  865   3.527   0.313   5.136
    7SAPS  H15R  866   3.600   0.347   5.061
    7SAPS  C216  867   3.388   0.308   5.081
    7SAPS  H16R  868   3.310   0.299   5.160
    7SAPS  H16S  869   3.362   0.226   5.011
    7SAPS  C217  870   3.353   0.434   5.005
    7SAPS  H17R  871   3.421   0.446   4.918
    7SAPS  H17S  872   3.362   0.522   5.072
    7SAPS  C218  873   3.210   0.432   4.955
    7SAPS  H18R  874   3.196   0.345   4.887
    7SAPS  H18S  875   3.204   0.519   4.885
    7SAPS  C219  876   3.104   0.456   5.058
    7SAPS  H19R  877   3.137   0.540   5.121
    7SAPS  H19S  878   3.087   0.365   5.119
    7SAPS  C220  879   2.971   0.484   4.985
    7SAPS  H20R  880   2.980   0.568   4.912
    7SAPS  H20S  881   2.897   0.515   5.061
    7SAPS  H20T  882   2.939   0.395   4.926
    7SAPS   C33  883   2.417   0.614   6.033
    7SAPS   H3X  884   2.427   0.660   6.133
    7SAPS   H3Y  885   2.313   0.585   6.008
    7SAPS   C34  886   2.472   0.709   5.933
    7SAPS   H4X  887   2.582   0.723   5.946
    7SAPS   H4Y  888   2.434   0.812   5.949
    7SAPS   C35  889   2.438   0.675   5.788
    7SAPS   H5X  890   2.491   0.579   5.768
    7SAPS   H5Y  891   2.481   0.750   5.718
    7SAPS   C36  892   2.293   0.673   5.757
    7SAPS   H6X  893   2.238   0.590   5.808
    7SAPS   H6Y  894   2.282   0.642   5.651
    7SAPS   C37  895   2.210   0.794   5.785
    7SAPS   H7X  896   2.230   0.843   5.883
    7SAPS   H7Y  897   2.103   0.764   5.774
    7SAPS   C38  898   2.236   0.908   5.690
    7SAPS   H8X  899   2.343   0.934   5.692
    7SAPS   H8Y  900   2.170   0.995   5.708
    7SAPS   C39  901   2.211   0.876   5.539
    7SAPS   H9X  902   2.119   0.813   5.529
    7SAPS   H9Y  903   2.280   0.802   5.493
    7SAPS  C310  904   2.201   1.000   5.443
    7SAPS  H10X  905   2.178   0.954   5.345
    7SAPS  H10Y  906   2.303   1.042   5.428
    7SAPS  C311  907   2.094   1.112   5.490
    7SAPS  H11X  908   2.103   1.139   5.598
    7SAPS  H11Y  909   1.992   1.076   5.467
    7SAPS  C312  910   2.098   1.240   5.403
    7SAPS  H12X  911   2.008   1.305   5.409
    7SAPS  H12Y  912   2.110   1.210   5.297
    7SAPS  C313  913   2.224   1.322   5.443
    7SAPS  H13X  914   2.318   1.267   5.424
    7SAPS  H13Y  915   2.224   1.342   5.552
    7SAPS  C314  916   2.229   1.447   5.352
    7SAPS  H14X  917   2.273   1.522   5.422
    7SAPS  H14Y  918   2.131   1.494   5.329
    7SAPS  C315  919   2.301   1.423   5.221
    7SAPS  H15X  920   2.250   1.355   5.149
    7SAPS  H15Y  921   2.400   1.376   5.243
    7SAPS  C316  922   2.317   1.560   5.143
    7SAPS  H16X  923   2.375   1.634   5.202
    7SAPS  H16Y  924   2.215   1.601   5.132
    7SAPS  C317  925   2.395   1.532   5.011
    7SAPS  H17X  926   2.351   1.465   4.934
    7SAPS  H17Y  927   2.492   1.490   5.044
    7SAPS  C318  928   2.429   1.667   4.942
    7SAPS  H18X  929   2.478   1.641   4.846
    7SAPS  H18Y  930   2.503   1.715   5.009
    7SAPS  H18Z  931   2.333   1.720   4.923
    8SAPS     N  932   1.633   1.360   6.597
    8SAPS   HN1  933   1.529   1.360   6.586
    8SAPS   HN2  934   1.665   1.439   6.537
    8SAPS   HN3  935   1.678   1.276   6.555
    8SAPS   C12  936   1.679   1.380   6.731
    8SAPS  H12A  937   1.639   1.465   6.784
    8SAPS   C13  938   1.667   1.258   6.825
    8SAPS  O13A  939   1.575   1.170   6.811
    8SAPS  O13B  940   1.725   1.255   6.936
    8SAPS   C11  941   1.829   1.407   6.722
    8SAPS  H11A  942   1.902   1.329   6.692
    8SAPS  H11B  943   1.866   1.425   6.825
    8SAPS     P  944   1.998   1.579   6.627
    8SAPS   O13  945   1.999   1.682   6.514
    8SAPS   O14  946   2.050   1.625   6.755
    8SAPS   O12  947   1.849   1.532   6.656
    8SAPS   O11  948   2.089   1.454   6.578
    8SAPS    C1  949   2.062   1.384   6.454
    8SAPS    HA  950   2.053   1.276   6.479
    8SAPS    HB  951   1.966   1.420   6.410
    8SAPS    C2  952   2.160   1.420   6.344
    8SAPS    HS  953   2.154   1.531   6.345
    8SAPS   O21  954   2.118   1.355   6.225
    8SAPS   C21  955   2.163   1.407   6.106
    8SAPS   O22  956   2.204   1.520   6.095
    8SAPS   C22  957   2.142   1.303   5.989
    8SAPS   H2R  958   2.145   1.198   6.025
    8SAPS   H2S  959   2.043   1.323   5.944
    8SAPS    C3  960   2.294   1.368   6.395
    8SAPS    HX  961   2.282   1.257   6.402
    8SAPS    HY  962   2.310   1.401   6.499
    8SAPS   O31  963   2.393   1.389   6.291
    8SAPS   C31  964   2.442   1.513   6.296
    8SAPS   O32  965   2.400   1.595   6.371
    8SAPS   C32  966   2.566   1.540   6.199
    8SAPS   H2X  967   2.589   1.445   6.147
    8SAPS   H2Y  968   2.645   1.568   6.272
    8SAPS   C23  969   2.244   1.318   5.878
    8SAPS   H3R  970   2.231   1.412   5.820
    8SAPS   H3S  971   2.227   1.241   5.800
    8SAPS   C24  972   2.394   1.304   5.920
    8SAPS   H4R  973   2.408   1.386   5.994
    8SAPS   H4S  974   2.460   1.330   5.834
    8SAPS   C25  975   2.426   1.174   5.983
    8SAPS   H5R  976   2.357   1.146   6.064
    8SAPS   C26  977   2.515   1.080   5.937
    8SAPS   H6R  978   2.524   0.986   5.994
    8SAPS   C27  979   2.620   1.111   5.834
    8SAPS   H7R  980   2.714   1.147   5.882
    8SAPS   H7S  981   2.577   1.193   5.772
    8SAPS   C28  982   2.653   1.001   5.736
    8SAPS   H8R  983   2.624   0.896   5.754
    8SAPS   C29  984   2.693   1.014   5.611
    8SAPS   H9R  985   2.731   0.931   5.550
    8SAPS  C210  986   2.719   1.138   5.530
    8SAPS  H10R  987   2.818   1.139   5.480
    8SAPS  H10S  988   2.720   1.226   5.599
    8SAPS  C211  989   2.609   1.163   5.430
    8SAPS  H11R  990   2.516   1.210   5.468
    8SAPS  C212  991   2.616   1.163   5.300
    8SAPS  H12R  992   2.523   1.176   5.242
    8SAPS  C213  993   2.732   1.104   5.221
    8SAPS  H13R  994   2.713   1.002   5.181
    8SAPS  H13S  995   2.822   1.093   5.285
    8SAPS  C214  996   2.789   1.191   5.110
    8SAPS  H14R  997   2.891   1.229   5.123
    8SAPS  C215  998   2.728   1.216   4.996
    8SAPS  H15R  999   2.786   1.278   4.926
    8SAPS  C216 1000   2.588   1.175   4.953
    8SAPS  H16R 1001   2.523   1.261   4.977
    8SAPS  H16S 1002   2.545   1.088   5.006
    8SAPS  C217 1003   2.581   1.138   4.802
    8SAPS  H17R 1004   2.663   1.067   4.783
    8SAPS  H17S 1005   2.595   1.231   4.742
    8SAPS  C218 1006   2.448   1.069   4.749
    8SAPS  H18R 1007   2.448   0.966   4.789
    8SAPS  H18S 1008   2.444   1.077   4.638
    8SAPS  C219 1009   2.321   1.150   4.791
    8SAPS  H19R 1010   2.332   1.242   4.730
    8SAPS  H19S 1011   2.322   1.178   4.898
    8SAPS  C220 1012   2.189   1.088   4.745
    8SAPS  H20R 1013   2.180   1.085   4.635
    8SAPS  H20S 1014   2.106   1.147   4.789
    8SAPS  H20T 1015   2.180   0.989   4.795
    8SAPS   C33 1016   2.548   1.634   6.083
    8SAPS   H3X 1017   2.501   1.729   6.119
    8SAPS   H3Y 1018   2.467   1.592   6.019
    8SAPS   C34 1019   2.674   1.671   6.003
    8SAPS   H4X 1020   2.748   1.650   6.083
    8SAPS   H4Y 1021   2.679   1.780   5.980
    8SAPS   C35 1022   2.692   1.579   5.888
    8SAPS   H5X 1023   2.683   1.472   5.917
    8SAPS   H5Y 1024   2.794   1.602   5.853
    8SAPS   C36 1025   2.601   1.608   5.766
    8SAPS   H6X 1026   2.598   1.715   5.738
    8SAPS   H6Y 1027   2.501   1.577   5.805
    8SAPS   C37 1028   2.646   1.524   5.635
    8SAPS   H7X 1029   2.627   1.419   5.664
    8SAPS   H7Y 1030   2.755   1.535   5.616
    8SAPS   C38 1031   2.575   1.556   5.506
    8SAPS   H8X 1032   2.477   1.604   5.531
    8SAPS   H8Y 1033   2.552   1.458   5.459
    8SAPS   C39 1034   2.659   1.632   5.406
    8SAPS   H9X 1035   2.696   1.724   5.454
    8SAPS   H9Y 1036   2.593   1.672   5.327
    8SAPS  C310 1037   2.779   1.547   5.344
    8SAPS  H10X 1038   2.765   1.440   5.321
    8SAPS  H10Y 1039   2.855   1.540   5.425
    8SAPS  C311 1040   2.847   1.617   5.231
    8SAPS  H11X 1041   2.955   1.594   5.218
    8SAPS  H11Y 1042   2.829   1.726   5.235
    8SAPS  C312 1043   2.793   1.574   5.098
    8SAPS  H12X 1044   2.682   1.577   5.099
    8SAPS  H12Y 1045   2.815   1.467   5.081
    8SAPS  C313 1046   2.859   1.657   4.988
    8SAPS  H13X 1047   2.968   1.640   5.003
    8SAPS  H13Y 1048   2.837   1.764   5.009
    8SAPS  C314 1049   2.830   1.627   4.839
    8SAPS  H14X 1050   2.729   1.672   4.831
    8SAPS  H14Y 1051   2.840   1.518   4.818
    8SAPS  C315 1052   2.927   1.688   4.738
    8SAPS  H15X 1053   3.027   1.652   4.770
    8SAPS  H15Y 1054   2.924   1.799   4.745
    8SAPS  C316 1055   2.909   1.644   4.596
    8SAPS  H16X 1056   2.806   1.657   4.554
    8SAPS  H16Y 1057   2.931   1.536   4.586
    8SAPS  C317 1058   3.007   1.712   4.495
    8SAPS  H17X 1059   3.104   1.661   4.512
    8SAPS  H17Y 1060   3.019   1.815   4.536
    8SAPS  C318 1061   2.959   1.715   4.358
    8SAPS  H18X 1062   2.950   1.608   4.327
    8SAPS  H18Y 1063   3.039   1.753   4.291
    8SAPS  H18Z 1064   2.858   1.760   4.346
    9SAPS     N 1065   0.441   4.449   6.719
    9SAPS   HN1 1066   0.481   4.500   6.638
    9SAPS   HN2 1067   0.419   4.350   6.695
    9SAPS   HN3 1068   0.351   4.492   6.746
    9SAPS   C12 1069   0.534   4.462   6.841
    9SAPS  H12A 1070   0.546   4.568   6.860
    9SAPS   C13 1071   0.473   4.399   6.965
    9SAPS  O13A 1072   0.358   4.349   6.958
    9SAPS  O13B 1073   0.541   4.383   7.071
    9SAPS   C11 1074   0.667   4.390   6.805
    9SAPS  H11A 1075   0.638   4.283   6.815
    9SAPS  H11B 1076   0.754   4.408   6.872
    9SAPS     P 1077   0.805   4.546   6.647
    9SAPS   O13 1078   0.746   4.662   6.713
    9SAPS   O14 1079   0.944   4.502   6.677
    9SAPS   O12 1080   0.713   4.426   6.672
    9SAPS   O11 1081   0.789   4.568   6.496
    9SAPS    C1 1082   0.828   4.472   6.401
    9SAPS    HA 1083   0.891   4.394   6.448
    9SAPS    HB 1084   0.741   4.421   6.354
    9SAPS    C2 1085   0.927   4.544   6.300
    9SAPS    HS 1086   1.023   4.574   6.348
    9SAPS   O21 1087   0.860   4.655   6.242
    9SAPS   C21 1088   0.941   4.746   6.189
    9SAPS   O22 1089   1.057   4.757   6.191
    9SAPS   C22 1090   0.840   4.834   6.110
    9SAPS   H2R 1091   0.783   4.760   6.050
    9SAPS   H2S 1092   0.769   4.882   6.182
    9SAPS    C3 1093   0.976   4.437   6.201
    9SAPS    HX 1094   0.883   4.395   6.157
    9SAPS    HY 1095   1.033   4.357   6.252
    9SAPS   O31 1096   1.043   4.506   6.092
    9SAPS   C31 1097   1.151   4.460   6.035
    9SAPS   O32 1098   1.199   4.350   6.070
    9SAPS   C32 1099   1.198   4.543   5.920
    9SAPS   H2X 1100   1.294   4.582   5.960
    9SAPS   H2Y 1101   1.141   4.639   5.910
    9SAPS   C23 1102   0.897   4.945   6.022
    9SAPS   H3R 1103   0.961   4.905   5.941
    9SAPS   H3S 1104   0.963   5.011   6.083
    9SAPS   C24 1105   0.792   5.038   5.971
    9SAPS   H4R 1106   0.829   5.134   5.931
    9SAPS   H4S 1107   0.743   5.066   6.066
    9SAPS   C25 1108   0.696   4.972   5.877
    9SAPS   H5R 1109   0.606   4.933   5.926
    9SAPS   C26 1110   0.723   4.953   5.747
    9SAPS   H6R 1111   0.647   4.907   5.682
    9SAPS   C27 1112   0.844   5.011   5.667
    9SAPS   H7R 1113   0.934   4.949   5.683
    9SAPS   H7S 1114   0.869   5.115   5.697
    9SAPS   C28 1115   0.823   5.010   5.522
    9SAPS   H8R 1116   0.719   4.991   5.491
    9SAPS   C29 1117   0.906   5.023   5.417
    9SAPS   H9R 1118   0.872   5.017   5.313
    9SAPS  C210 1119   1.055   5.043   5.439
    9SAPS  H10R 1120   1.062   5.124   5.515
    9SAPS  H10S 1121   1.089   5.092   5.345
    9SAPS  C211 1122   1.135   4.916   5.467
    9SAPS  H11R 1123   1.104   4.864   5.558
    9SAPS  C212 1124   1.245   4.870   5.401
    9SAPS  H12R 1125   1.284   4.772   5.429
    9SAPS  C213 1126   1.314   4.930   5.278
    9SAPS  H13R 1127   1.236   4.936   5.199
    9SAPS  H13S 1128   1.402   4.872   5.244
    9SAPS  C214 1129   1.362   5.069   5.312
    9SAPS  H14R 1130   1.287   5.139   5.354
    9SAPS  C215 1131   1.484   5.117   5.309
    9SAPS  H15R 1132   1.503   5.223   5.333
    9SAPS  C216 1133   1.604   5.039   5.257
    9SAPS  H16R 1134   1.583   4.969   5.174
    9SAPS  H16S 1135   1.649   4.987   5.345
    9SAPS  C217 1136   1.717   5.138   5.206
    9SAPS  H17R 1137   1.801   5.065   5.204
    9SAPS  H17S 1138   1.742   5.223   5.273
    9SAPS  C218 1139   1.677   5.194   5.063
    9SAPS  H18R 1140   1.752   5.271   5.034
    9SAPS  H18S 1141   1.578   5.243   5.072
    9SAPS  C219 1142   1.666   5.097   4.943
    9SAPS  H19R 1143   1.581   5.029   4.965
    9SAPS  H19S 1144   1.763   5.045   4.930
    9SAPS  C220 1145   1.627   5.178   4.815
    9SAPS  H20R 1146   1.525   5.220   4.828
    9SAPS  H20S 1147   1.627   5.110   4.727
    9SAPS  H20T 1148   1.705   5.254   4.795
    9SAPS   C33 1149   1.226   4.476   5.786
    9SAPS   H3X 1150   1.137   4.480   5.719
    9SAPS   H3Y 1151   1.264   4.372   5.793
    9SAPS   C34 1152   1.326   4.566   5.716
    9SAPS   H4X 1153   1.425   4.550   5.764
    9SAPS   H4Y 1154   1.317   4.676   5.732
    9SAPS   C35 1155   1.341   4.516   5.575
    9SAPS   H5X 1156   1.251   4.531   5.512
    9SAPS   H5Y 1157   1.350   4.405   5.582
    9SAPS   C36 1158   1.463   4.574   5.504
    9SAPS   H6X 1159   1.556   4.534   5.550
    9SAPS   H6Y 1160   1.444   4.682   5.521
    9SAPS   C37 1161   1.461   4.546   5.352
    9SAPS   H7X 1162   1.369   4.581   5.301
    9SAPS   H7Y 1163   1.463   4.435   5.345
    9SAPS   C38 1164   1.585   4.600   5.286
    9SAPS   H8X 1165   1.672   4.549   5.332
    9SAPS   H8Y 1166   1.590   4.705   5.321
    9SAPS   C39 1167   1.574   4.575   5.133
    9SAPS   H9X 1168   1.484   4.632   5.101
    9SAPS   H9Y 1169   1.554   4.468   5.110
    9SAPS  C310 1170   1.697   4.616   5.052
    9SAPS  H10X 1171   1.784   4.550   5.072
    9SAPS  H10Y 1172   1.721   4.718   5.089
    9SAPS  C311 1173   1.685   4.597   4.899
    9SAPS  H11X 1174   1.594   4.644   4.855
    9SAPS  H11Y 1175   1.690   4.487   4.885
    9SAPS  C312 1176   1.796   4.658   4.820
    9SAPS  H12X 1177   1.883   4.628   4.881
    9SAPS  H12Y 1178   1.782   4.767   4.804
    9SAPS  C313 1179   1.807   4.596   4.682
    9SAPS  H13X 1180   1.706   4.614   4.640
    9SAPS  H13Y 1181   1.807   4.485   4.686
    9SAPS  C314 1182   1.920   4.654   4.594
    9SAPS  H14X 1183   2.016   4.601   4.614
    9SAPS  H14Y 1184   1.944   4.758   4.625
    9SAPS  C315 1185   1.887   4.641   4.445
    9SAPS  H15X 1186   1.786   4.682   4.425
    9SAPS  H15Y 1187   1.893   4.532   4.421
    9SAPS  C316 1188   1.996   4.703   4.364
    9SAPS  H16X 1189   2.095   4.673   4.404
    9SAPS  H16Y 1190   1.993   4.811   4.387
    9SAPS  C317 1191   2.009   4.675   4.213
    9SAPS  H17X 1192   2.048   4.762   4.156
    9SAPS  H17Y 1193   1.905   4.654   4.180
    9SAPS  C318 1194   2.093   4.556   4.170
    9SAPS  H18X 1195   2.202   4.579   4.171
    9SAPS  H18Y 1196   2.053   4.510   4.078
    9SAPS  H18Z 1197   2.078   4.474   4.243
   10SAPS     N 1198   1.548   4.034   6.818
   10SAPS   HN1 1199   1.576   3.941   6.781
   10SAPS   HN2 1200   1.637   4.084   6.801
   10SAPS   HN3 1201   1.527   4.049   6.918
   10SAPS   C12 1202   1.442   4.103   6.735
   10SAPS  H12A 1203   1.358   4.036   6.724
   10SAPS   C13 1204   1.387   4.230   6.801
   10SAPS  O13A 1205   1.452   4.288   6.890
   10SAPS  O13B 1206   1.287   4.285   6.742
   10SAPS   C11 1207   1.506   4.131   6.592
   10SAPS  H11A 1208   1.587   4.204   6.613
   10SAPS  H11B 1209   1.425   4.183   6.538
   10SAPS     P 1210   1.624   4.041   6.378
   10SAPS   O13 1211   1.685   3.918   6.347
   10SAPS   O14 1212   1.526   4.092   6.279
   10SAPS   O12 1213   1.557   4.019   6.524
   10SAPS   O11 1214   1.729   4.150   6.415
   10SAPS    C1 1215   1.693   4.290   6.400
   10SAPS    HA 1216   1.588   4.310   6.429
   10SAPS    HB 1217   1.751   4.339   6.482
   10SAPS    C2 1218   1.723   4.363   6.263
   10SAPS    HS 1219   1.641   4.347   6.189
   10SAPS   O21 1220   1.832   4.306   6.197
   10SAPS   C21 1221   1.950   4.323   6.251
   10SAPS   O22 1222   1.978   4.376   6.356
   10SAPS   C22 1223   2.050   4.276   6.153
   10SAPS   H2R 1224   2.090   4.179   6.191
   10SAPS   H2S 1225   2.001   4.259   6.055
   10SAPS    C3 1226   1.730   4.520   6.290
   10SAPS    HX 1227   1.791   4.535   6.382
   10SAPS    HY 1228   1.623   4.545   6.308
   10SAPS   O31 1229   1.789   4.590   6.188
   10SAPS   C31 1230   1.716   4.596   6.073
   10SAPS   O32 1231   1.608   4.544   6.053
   10SAPS   C32 1232   1.785   4.676   5.961
   10SAPS   H2X 1233   1.817   4.767   6.016
   10SAPS   H2Y 1234   1.716   4.703   5.879
   10SAPS   C23 1235   2.172   4.377   6.131
   10SAPS   H3R 1236   2.220   4.396   6.230
   10SAPS   H3S 1237   2.127   4.474   6.100
   10SAPS   C24 1238   2.275   4.323   6.030
   10SAPS   H4R 1239   2.313   4.226   6.068
   10SAPS   H4S 1240   2.360   4.393   6.042
   10SAPS   C25 1241   2.241   4.304   5.883
   10SAPS   H5R 1242   2.139   4.271   5.860
   10SAPS   C26 1243   2.319   4.314   5.770
   10SAPS   H6R 1244   2.278   4.293   5.671
   10SAPS   C27 1245   2.467   4.345   5.771
   10SAPS   H7R 1246   2.530   4.261   5.735
   10SAPS   H7S 1247   2.506   4.382   5.868
   10SAPS   C28 1248   2.491   4.465   5.682
   10SAPS   H8R 1249   2.449   4.558   5.724
   10SAPS   C29 1250   2.555   4.475   5.562
   10SAPS   H9R 1251   2.570   4.572   5.513
   10SAPS  C210 1252   2.618   4.362   5.496
   10SAPS  H10R 1253   2.640   4.285   5.574
   10SAPS  H10S 1254   2.713   4.391   5.446
   10SAPS  C211 1255   2.523   4.300   5.405
   10SAPS  H11R 1256   2.427   4.274   5.452
   10SAPS  C212 1257   2.541   4.280   5.273
   10SAPS  H12R 1258   2.460   4.234   5.213
   10SAPS  C213 1259   2.661   4.315   5.193
   10SAPS  H13R 1260   2.749   4.304   5.259
   10SAPS  H13S 1261   2.671   4.424   5.173
   10SAPS  C214 1262   2.686   4.223   5.077
   10SAPS  H14R 1263   2.706   4.117   5.095
   10SAPS  C215 1264   2.693   4.264   4.946
   10SAPS  H15R 1265   2.708   4.184   4.871
   10SAPS  C216 1266   2.674   4.404   4.886
   10SAPS  H16R 1267   2.591   4.455   4.938
   10SAPS  H16S 1268   2.650   4.401   4.777
   10SAPS  C217 1269   2.806   4.482   4.908
   10SAPS  H17R 1270   2.898   4.435   4.869
   10SAPS  H17S 1271   2.825   4.500   5.016
   10SAPS  C218 1272   2.787   4.618   4.833
   10SAPS  H18R 1273   2.706   4.685   4.871
   10SAPS  H18S 1274   2.765   4.584   4.729
   10SAPS  C219 1275   2.907   4.719   4.816
   10SAPS  H19R 1276   3.005   4.671   4.835
   10SAPS  H19S 1277   2.890   4.806   4.884
   10SAPS  C220 1278   2.909   4.772   4.671
   10SAPS  H20R 1279   2.808   4.796   4.631
   10SAPS  H20S 1280   2.955   4.704   4.595
   10SAPS  H20T 1281   2.972   4.863   4.665
   10SAPS   C33 1282   1.914   4.599   5.912
   10SAPS   H3X 1283   1.894   4.491   5.900
   10SAPS   H3Y 1284   1.990   4.607   5.993
   10SAPS   C34 1285   1.964   4.669   5.788
   10SAPS   H4X 1286   1.993   4.776   5.802
   10SAPS   H4Y 1287   1.874   4.672   5.722
   10SAPS   C35 1288   2.084   4.607   5.711
   10SAPS   H5X 1289   2.063   4.498   5.704
   10SAPS   H5Y 1290   2.179   4.621   5.767
   10SAPS   C36 1291   2.088   4.661   5.567
   10SAPS   H6X 1292   2.079   4.772   5.566
   10SAPS   H6Y 1293   1.997   4.621   5.520
   10SAPS   C37 1294   2.206   4.616   5.487
   10SAPS   H7X 1295   2.232   4.509   5.500
   10SAPS   H7Y 1296   2.300   4.673   5.502
   10SAPS   C38 1297   2.168   4.639   5.337
   10SAPS   H8X 1298   2.130   4.741   5.314
   10SAPS   H8Y 1299   2.090   4.567   5.305
   10SAPS   C39 1300   2.283   4.613   5.243
   10SAPS   H9X 1301   2.317   4.509   5.265
   10SAPS   H9Y 1302   2.365   4.685   5.266
   10SAPS  C310 1303   2.225   4.617   5.106
   10SAPS  H10X 1304   2.197   4.723   5.087
   10SAPS  H10Y 1305   2.131   4.559   5.100
   10SAPS  C311 1306   2.315   4.563   4.997
   10SAPS  H11X 1307   2.339   4.459   5.024
   10SAPS  H11Y 1308   2.412   4.615   4.979
   10SAPS  C312 1309   2.251   4.554   4.858
   10SAPS  H12X 1310   2.235   4.659   4.826
   10SAPS  H12Y 1311   2.152   4.503   4.864
   10SAPS  C313 1312   2.339   4.472   4.752
   10SAPS  H13X 1313   2.350   4.365   4.781
   10SAPS  H13Y 1314   2.444   4.508   4.752
   10SAPS  C314 1315   2.293   4.486   4.606
   10SAPS  H14X 1316   2.265   4.592   4.586
   10SAPS  H14Y 1317   2.203   4.423   4.589
   10SAPS  C315 1318   2.398   4.441   4.501
   10SAPS  H15X 1319   2.356   4.396   4.408
   10SAPS  H15Y 1320   2.459   4.357   4.539
   10SAPS  C316 1321   2.483   4.561   4.458
   10SAPS  H16X 1322   2.539   4.605   4.543
   10SAPS  H16Y 1323   2.415   4.640   4.419
   10SAPS  C317 1324   2.581   4.530   4.339
   10SAPS  H17X 1325   2.522   4.544   4.246
   10SAPS  H17Y 1326   2.624   4.428   4.323
   10SAPS  C318 1327   2.694   4.635   4.328
   10SAPS  H18X 1328   2.658   4.740   4.324
   10SAPS  H18Y 1329   2.747   4.618   4.232
   10SAPS  H18Z 1330   2.772   4.622   4.406
   11SAPS     N 1331   3.064   2.740   2.304
   11SAPS   HN1 1332   3.113   2.707   2.389
   11SAPS   HN2 1333   3.035   2.839   2.317
   11SAPS   HN3 1334   2.980   2.678   2.301
   11SAPS   C12 1335   3.160   2.720   2.194
   11SAPS  H12A 1336   3.194   2.618   2.187
   11SAPS   C13 1337   3.094   2.746   2.058
   11SAPS  O13A 1338   2.987   2.810   2.050
   11SAPS  O13B 1339   3.158   2.716   1.953
   11SAPS   C11 1340   3.284   2.814   2.212
   11SAPS  H11A 1341   3.256   2.921   2.197
   11SAPS  H11B 1342   3.363   2.793   2.137
   11SAPS     P 1343   3.451   2.678   2.373
   11SAPS   O13 1344   3.376   2.557   2.415
   11SAPS   O14 1345   3.544   2.654   2.264
   11SAPS   O12 1346   3.344   2.791   2.342
   11SAPS   O11 1347   3.538   2.735   2.494
   11SAPS    C1 1348   3.498   2.739   2.630
   11SAPS    HA 1349   3.426   2.655   2.644
   11SAPS    HB 1350   3.577   2.728   2.708
   11SAPS    C2 1351   3.404   2.862   2.663
   11SAPS    HS 1352   3.302   2.841   2.626
   11SAPS   O21 1353   3.459   2.977   2.603
   11SAPS   C21 1354   3.368   3.075   2.581
   11SAPS   O22 1355   3.247   3.061   2.595
   11SAPS   C22 1356   3.437   3.203   2.540
   11SAPS   H2R 1357   3.546   3.190   2.560
   11SAPS   H2S 1358   3.410   3.216   2.434
   11SAPS    C3 1359   3.399   2.872   2.823
   11SAPS    HX 1360   3.343   2.968   2.835
   11SAPS    HY 1361   3.505   2.898   2.838
   11SAPS   O31 1362   3.358   2.754   2.890
   11SAPS   C31 1363   3.352   2.777   3.016
   11SAPS   O32 1364   3.363   2.886   3.075
   11SAPS   C32 1365   3.340   2.639   3.085
   11SAPS   H2X 1366   3.416   2.568   3.047
   11SAPS   H2Y 1367   3.236   2.608   3.058
   11SAPS   C23 1368   3.403   3.342   2.612
   11SAPS   H3R 1369   3.293   3.351   2.613
   11SAPS   H3S 1370   3.433   3.430   2.552
   11SAPS   C24 1371   3.461   3.350   2.756
   11SAPS   H4R 1372   3.449   3.451   2.802
   11SAPS   H4S 1373   3.572   3.343   2.767
   11SAPS   C25 1374   3.396   3.259   2.854
   11SAPS   H5R 1375   3.287   3.255   2.862
   11SAPS   C26 1376   3.465   3.198   2.956
   11SAPS   H6R 1377   3.408   3.154   3.040
   11SAPS   C27 1378   3.608   3.226   2.991
   11SAPS   H7R 1379   3.663   3.209   2.896
   11SAPS   H7S 1380   3.646   3.139   3.049
   11SAPS   C28 1381   3.629   3.359   3.051
   11SAPS   H8R 1382   3.568   3.433   2.996
   11SAPS   C29 1383   3.690   3.399   3.164
   11SAPS   H9R 1384   3.698   3.503   3.200
   11SAPS  C210 1385   3.758   3.304   3.255
   11SAPS  H10R 1386   3.856   3.351   3.282
   11SAPS  H10S 1387   3.771   3.201   3.217
   11SAPS  C211 1388   3.667   3.281   3.375
   11SAPS  H11R 1389   3.580   3.221   3.346
   11SAPS  C212 1390   3.689   3.316   3.507
   11SAPS  H12R 1391   3.604   3.305   3.575
   11SAPS  C213 1392   3.806   3.399   3.561
   11SAPS  H13R 1393   3.763   3.497   3.591
   11SAPS  H13S 1394   3.887   3.402   3.485
   11SAPS  C214 1395   3.851   3.328   3.685
   11SAPS  H14R 1396   3.813   3.225   3.699
   11SAPS  C215 1397   3.922   3.395   3.788
   11SAPS  H15R 1398   3.940   3.323   3.869
   11SAPS  C216 1399   3.985   3.530   3.795
   11SAPS  H16R 1400   3.957   3.585   3.702
   11SAPS  H16S 1401   4.095   3.519   3.798
   11SAPS  C217 1402   3.937   3.615   3.920
   11SAPS  H17R 1403   3.827   3.619   3.930
   11SAPS  H17S 1404   3.988   3.713   3.926
   11SAPS  C218 1405   3.979   3.548   4.054
   11SAPS  H18R 1406   4.090   3.547   4.053
   11SAPS  H18S 1407   3.934   3.446   4.056
   11SAPS  C219 1408   3.948   3.630   4.181
   11SAPS  H19R 1409   3.984   3.735   4.187
   11SAPS  H19S 1410   4.000   3.576   4.263
   11SAPS  C220 1411   3.798   3.614   4.214
   11SAPS  H20R 1412   3.766   3.681   4.296
   11SAPS  H20S 1413   3.767   3.508   4.226
   11SAPS  H20T 1414   3.725   3.642   4.135
   11SAPS   C33 1415   3.360   2.649   3.237
   11SAPS   H3X 1416   3.287   2.720   3.281
   11SAPS   H3Y 1417   3.457   2.702   3.249
   11SAPS   C34 1418   3.372   2.523   3.321
   11SAPS   H4X 1419   3.468   2.474   3.293
   11SAPS   H4Y 1420   3.287   2.453   3.308
   11SAPS   C35 1421   3.372   2.563   3.470
   11SAPS   H5X 1422   3.279   2.613   3.505
   11SAPS   H5Y 1423   3.451   2.640   3.481
   11SAPS   C36 1424   3.385   2.447   3.571
   11SAPS   H6X 1425   3.285   2.398   3.572
   11SAPS   H6Y 1426   3.412   2.494   3.668
   11SAPS   C37 1427   3.493   2.351   3.529
   11SAPS   H7X 1428   3.569   2.418   3.483
   11SAPS   H7Y 1429   3.454   2.279   3.454
   11SAPS   C38 1430   3.547   2.267   3.645
   11SAPS   H8X 1431   3.596   2.173   3.612
   11SAPS   H8Y 1432   3.466   2.225   3.709
   11SAPS   C39 1433   3.646   2.346   3.731
   11SAPS   H9X 1434   3.605   2.445   3.759
   11SAPS   H9Y 1435   3.735   2.366   3.668
   11SAPS  C310 1436   3.705   2.268   3.855
   11SAPS  H10X 1437   3.789   2.326   3.898
   11SAPS  H10Y 1438   3.761   2.176   3.827
   11SAPS  C311 1439   3.599   2.234   3.954
   11SAPS  H11X 1440   3.636   2.152   4.019
   11SAPS  H11Y 1441   3.511   2.209   3.891
   11SAPS  C312 1442   3.554   2.353   4.047
   11SAPS  H12X 1443   3.462   2.318   4.097
   11SAPS  H12Y 1444   3.533   2.447   3.991
   11SAPS  C313 1445   3.658   2.390   4.155
   11SAPS  H13X 1446   3.642   2.486   4.208
   11SAPS  H13Y 1447   3.752   2.387   4.096
   11SAPS  C314 1448   3.670   2.291   4.276
   11SAPS  H14X 1449   3.667   2.187   4.236
   11SAPS  H14Y 1450   3.583   2.303   4.344
   11SAPS  C315 1451   3.791   2.318   4.362
   11SAPS  H15X 1452   3.784   2.419   4.407
   11SAPS  H15Y 1453   3.869   2.318   4.283
   11SAPS  C316 1454   3.812   2.213   4.469
   11SAPS  H16X 1455   3.833   2.125   4.405
   11SAPS  H16Y 1456   3.723   2.203   4.535
   11SAPS  C317 1457   3.934   2.233   4.571
   11SAPS  H17X 1458   3.923   2.327   4.630
   11SAPS  H17Y 1459   4.031   2.224   4.516
   11SAPS  C318 1460   3.946   2.111   4.668
   11SAPS  H18X 1461   3.942   2.010   4.622
   11SAPS  H18Y 1462   3.860   2.116   4.739
   11SAPS  H18Z 1463   4.039   2.125   4.726
   12SAPS     N 1464   2.515   2.381   2.333
   12SAPS   HN1 1465   2.572   2.401   2.248
   12SAPS   HN2 1466   2.419   2.420   2.333
   12SAPS   HN3 1467   2.562   2.429   2.412
   12SAPS   C12 1468   2.516   2.227   2.356
   12SAPS  H12A 1469   2.489   2.203   2.457
   12SAPS   C13 1470   2.416   2.156   2.253
   12SAPS  O13A 1471   2.351   2.228   2.173
   12SAPS  O13B 1472   2.388   2.034   2.282
   12SAPS   C11 1473   2.656   2.164   2.327
   12SAPS  H11A 1474   2.687   2.198   2.226
   12SAPS  H11B 1475   2.654   2.053   2.326
   12SAPS     P 1476   2.897   2.169   2.404
   12SAPS   O13 1477   2.913   2.031   2.362
   12SAPS   O14 1478   2.969   2.269   2.321
   12SAPS   O12 1479   2.747   2.214   2.424
   12SAPS   O11 1480   2.953   2.189   2.551
   12SAPS    C1 1481   2.947   2.311   2.625
   12SAPS    HA 1482   3.053   2.329   2.652
   12SAPS    HB 1483   2.913   2.401   2.570
   12SAPS    C2 1484   2.870   2.288   2.763
   12SAPS    HS 1485   2.883   2.378   2.828
   12SAPS   O21 1486   2.911   2.175   2.834
   12SAPS   C21 1487   3.031   2.185   2.893
   12SAPS   O22 1488   3.084   2.291   2.918
   12SAPS   C22 1489   3.082   2.040   2.917
   12SAPS   H2R 1490   2.985   1.996   2.949
   12SAPS   H2S 1491   3.099   1.995   2.817
   12SAPS    C3 1492   2.716   2.283   2.742
   12SAPS    HX 1493   2.701   2.199   2.671
   12SAPS    HY 1494   2.680   2.378   2.697
   12SAPS   O31 1495   2.656   2.259   2.875
   12SAPS   C31 1496   2.613   2.138   2.891
   12SAPS   O32 1497   2.607   2.048   2.808
   12SAPS   C32 1498   2.567   2.123   3.035
   12SAPS   H2X 1499   2.521   2.215   3.075
   12SAPS   H2Y 1500   2.658   2.112   3.099
   12SAPS   C23 1501   3.203   2.024   3.010
   12SAPS   H3R 1502   3.294   2.062   2.958
   12SAPS   H3S 1503   3.227   1.916   3.011
   12SAPS   C24 1504   3.188   2.097   3.146
   12SAPS   H4R 1505   3.169   2.206   3.137
   12SAPS   H4S 1506   3.288   2.093   3.193
   12SAPS   C25 1507   3.087   2.031   3.241
   12SAPS   H5R 1508   3.019   1.967   3.182
   12SAPS   C26 1509   3.076   2.046   3.368
   12SAPS   H6R 1510   2.985   2.003   3.412
   12SAPS   C27 1511   3.147   2.124   3.472
   12SAPS   H7R 1512   3.075   2.133   3.557
   12SAPS   H7S 1513   3.169   2.228   3.442
   12SAPS   C28 1514   3.283   2.069   3.512
   12SAPS   H8R 1515   3.367   2.088   3.444
   12SAPS   C29 1516   3.310   2.003   3.622
   12SAPS   H9R 1517   3.414   1.969   3.630
   12SAPS  C210 1518   3.223   1.986   3.746
   12SAPS  H10R 1519   3.119   2.012   3.719
   12SAPS  H10S 1520   3.257   2.053   3.828
   12SAPS  C211 1521   3.224   1.845   3.804
   12SAPS  H11R 1522   3.165   1.774   3.744
   12SAPS  C212 1523   3.253   1.814   3.929
   12SAPS  H12R 1524   3.230   1.712   3.966
   12SAPS  C213 1525   3.307   1.905   4.039
   12SAPS  H13R 1526   3.237   1.988   4.063
   12SAPS  H13S 1527   3.397   1.962   4.006
   12SAPS  C214 1528   3.341   1.836   4.169
   12SAPS  H14R 1529   3.322   1.728   4.170
   12SAPS  C215 1530   3.375   1.893   4.288
   12SAPS  H15R 1531   3.394   1.822   4.370
   12SAPS  C216 1532   3.416   2.040   4.308
   12SAPS  H16R 1533   3.428   2.085   4.207
   12SAPS  H16S 1534   3.508   2.040   4.370
   12SAPS  C217 1535   3.309   2.127   4.376
   12SAPS  H17R 1536   3.353   2.229   4.386
   12SAPS  H17S 1537   3.291   2.101   4.482
   12SAPS  C218 1538   3.182   2.124   4.294
   12SAPS  H18R 1539   3.140   2.023   4.310
   12SAPS  H18S 1540   3.214   2.140   4.189
   12SAPS  C219 1541   3.078   2.234   4.318
   12SAPS  H19R 1542   3.114   2.335   4.288
   12SAPS  H19S 1543   3.058   2.246   4.427
   12SAPS  C220 1544   2.943   2.202   4.256
   12SAPS  H20R 1545   2.929   2.092   4.270
   12SAPS  H20S 1546   2.949   2.213   4.146
   12SAPS  H20T 1547   2.852   2.249   4.300
   12SAPS   C33 1548   2.460   2.014   3.044
   12SAPS   H3X 1549   2.494   1.921   2.994
   12SAPS   H3Y 1550   2.373   2.046   2.981
   12SAPS   C34 1551   2.403   1.982   3.180
   12SAPS   H4X 1552   2.485   1.934   3.237
   12SAPS   H4Y 1553   2.312   1.919   3.178
   12SAPS   C35 1554   2.361   2.104   3.259
   12SAPS   H5X 1555   2.308   2.171   3.189
   12SAPS   H5Y 1556   2.446   2.159   3.305
   12SAPS   C36 1557   2.257   2.069   3.367
   12SAPS   H6X 1558   2.174   2.002   3.336
   12SAPS   H6Y 1559   2.206   2.156   3.414
   12SAPS   C37 1560   2.318   1.977   3.476
   12SAPS   H7X 1561   2.417   2.023   3.494
   12SAPS   H7Y 1562   2.353   1.883   3.428
   12SAPS   C38 1563   2.233   1.967   3.603
   12SAPS   H8X 1564   2.127   1.951   3.575
   12SAPS   H8Y 1565   2.237   2.059   3.666
   12SAPS   C39 1566   2.294   1.857   3.685
   12SAPS   H9X 1567   2.405   1.847   3.686
   12SAPS   H9Y 1568   2.250   1.757   3.663
   12SAPS  C310 1569   2.255   1.863   3.832
   12SAPS  H10X 1570   2.146   1.865   3.852
   12SAPS  H10Y 1571   2.303   1.955   3.871
   12SAPS  C311 1572   2.303   1.738   3.905
   12SAPS  H11X 1573   2.407   1.707   3.879
   12SAPS  H11Y 1574   2.241   1.652   3.873
   12SAPS  C312 1575   2.276   1.756   4.057
   12SAPS  H12X 1576   2.257   1.657   4.103
   12SAPS  H12Y 1577   2.182   1.812   4.076
   12SAPS  C313 1578   2.391   1.822   4.132
   12SAPS  H13X 1579   2.425   1.916   4.083
   12SAPS  H13Y 1580   2.477   1.752   4.136
   12SAPS  C314 1581   2.369   1.860   4.284
   12SAPS  H14X 1582   2.307   1.773   4.315
   12SAPS  H14Y 1583   2.308   1.953   4.288
   12SAPS  C315 1584   2.502   1.873   4.369
   12SAPS  H15X 1585   2.558   1.964   4.339
   12SAPS  H15Y 1586   2.553   1.779   4.340
   12SAPS  C316 1587   2.471   1.878   4.522
   12SAPS  H16X 1588   2.416   1.784   4.545
   12SAPS  H16Y 1589   2.396   1.957   4.541
   12SAPS  C317 1590   2.592   1.869   4.619
   12SAPS  H17X 1591   2.642   1.775   4.589
   12SAPS  H17Y 1592   2.573   1.848   4.726
   12SAPS  C318 1593   2.688   1.981   4.596
   12SAPS  H18X 1594   2.659   2.087   4.613
   12SAPS  H18Y 1595   2.738   1.983   4.497
   12SAPS  H18Z 1596   2.775   1.969   4.664
   13SAPS     N 1597   5.497   0.477   2.296
   13SAPS   HN1 1598   5.567   0.551   2.316
   13SAPS   HN2 1599   5.405   0.515   2.325
   13SAPS   HN3 1600   5.513   0.386   2.344
   13SAPS   C12 1601   5.482   0.459   2.146
   13SAPS  H12A 1602   5.488   0.560   2.110
   13SAPS   C13 1603   5.600   0.383   2.069
   13SAPS  O13A 1604   5.706   0.360   2.126
   13SAPS  O13B 1605   5.586   0.353   1.947
   13SAPS   C11 1606   5.340   0.404   2.120
   13SAPS  H11A 1607   5.326   0.295   2.141
   13SAPS  H11B 1608   5.318   0.418   2.012
   13SAPS     P 1609   5.113   0.411   2.249
   13SAPS   O13 1610   5.011   0.409   2.144
   13SAPS   O14 1611   5.157   0.284   2.314
   13SAPS   O12 1612   5.244   0.484   2.188
   13SAPS   O11 1613   5.079   0.508   2.364
   13SAPS    C1 1614   5.006   0.629   2.339
   13SAPS    HA 1615   5.039   0.687   2.251
   13SAPS    HB 1616   4.900   0.602   2.319
   13SAPS    C2 1617   5.012   0.718   2.459
   13SAPS    HS 1618   5.118   0.747   2.474
   13SAPS   O21 1619   4.967   0.647   2.575
   13SAPS   C21 1620   5.052   0.636   2.672
   13SAPS   O22 1621   5.168   0.669   2.679
   13SAPS   C22 1622   4.984   0.555   2.783
   13SAPS   H2R 1623   4.896   0.613   2.817
   13SAPS   H2S 1624   4.955   0.450   2.762
   13SAPS    C3 1625   4.930   0.851   2.442
   13SAPS    HX 1626   4.820   0.831   2.444
   13SAPS    HY 1627   4.953   0.887   2.340
   13SAPS   O31 1628   4.979   0.938   2.543
   13SAPS   C31 1629   4.901   0.959   2.641
   13SAPS   O32 1630   4.785   0.916   2.655
   13SAPS   C32 1631   4.984   1.027   2.743
   13SAPS   H2X 1632   5.063   1.094   2.702
   13SAPS   H2Y 1633   5.043   0.944   2.788
   13SAPS   C23 1634   5.066   0.560   2.913
   13SAPS   H3R 1635   5.167   0.517   2.897
   13SAPS   H3S 1636   5.020   0.481   2.976
   13SAPS   C24 1637   5.079   0.691   2.991
   13SAPS   H4R 1638   5.130   0.767   2.928
   13SAPS   H4S 1639   5.147   0.670   3.077
   13SAPS   C25 1640   4.944   0.744   3.035
   13SAPS   H5R 1641   4.896   0.820   2.973
   13SAPS   C26 1642   4.878   0.711   3.153
   13SAPS   H6R 1643   4.779   0.754   3.175
   13SAPS   C27 1644   4.915   0.606   3.246
   13SAPS   H7R 1645   4.975   0.525   3.200
   13SAPS   H7S 1646   4.819   0.563   3.283
   13SAPS   C28 1647   5.003   0.670   3.349
   13SAPS   H8R 1648   5.098   0.709   3.310
   13SAPS   C29 1649   4.972   0.695   3.478
   13SAPS   H9R 1650   5.039   0.764   3.532
   13SAPS  C210 1651   4.838   0.657   3.539
   13SAPS  H10R 1652   4.859   0.577   3.613
   13SAPS  H10S 1653   4.767   0.623   3.461
   13SAPS  C211 1654   4.746   0.756   3.617
   13SAPS  H11R 1655   4.648   0.769   3.568
   13SAPS  C212 1656   4.774   0.836   3.728
   13SAPS  H12R 1657   4.691   0.904   3.754
   13SAPS  C213 1658   4.900   0.834   3.813
   13SAPS  H13R 1659   4.948   0.739   3.781
   13SAPS  H13S 1660   4.875   0.833   3.921
   13SAPS  C214 1661   4.994   0.952   3.805
   13SAPS  H14R 1662   5.008   0.985   3.701
   13SAPS  C215 1663   5.057   1.027   3.899
   13SAPS  H15R 1664   5.134   1.094   3.857
   13SAPS  C216 1665   5.047   1.002   4.048
   13SAPS  H16R 1666   5.144   0.964   4.086
   13SAPS  H16S 1667   4.960   0.935   4.062
   13SAPS  C217 1668   5.017   1.130   4.125
   13SAPS  H17R 1669   4.924   1.177   4.086
   13SAPS  H17S 1670   5.103   1.199   4.109
   13SAPS  C218 1671   4.990   1.114   4.279
   13SAPS  H18R 1672   5.075   1.061   4.326
   13SAPS  H18S 1673   4.907   1.041   4.291
   13SAPS  C219 1674   4.952   1.235   4.358
   13SAPS  H19R 1675   5.043   1.298   4.366
   13SAPS  H19S 1676   4.928   1.206   4.462
   13SAPS  C220 1677   4.838   1.316   4.289
   13SAPS  H20R 1678   4.762   1.244   4.251
   13SAPS  H20S 1679   4.882   1.380   4.210
   13SAPS  H20T 1680   4.783   1.383   4.358
   13SAPS   C33 1681   4.903   1.099   2.846
   13SAPS   H3X 1682   4.889   1.022   2.926
   13SAPS   H3Y 1683   4.806   1.134   2.807
   13SAPS   C34 1684   4.975   1.221   2.903
   13SAPS   H4X 1685   4.910   1.291   2.959
   13SAPS   H4Y 1686   5.012   1.288   2.822
   13SAPS   C35 1687   5.090   1.187   3.002
   13SAPS   H5X 1688   5.134   1.286   3.023
   13SAPS   H5Y 1689   5.166   1.128   2.945
   13SAPS   C36 1690   5.049   1.107   3.122
   13SAPS   H6X 1691   5.032   1.004   3.084
   13SAPS   H6Y 1692   4.951   1.142   3.161
   13SAPS   C37 1693   5.150   1.105   3.234
   13SAPS   H7X 1694   5.130   1.199   3.289
   13SAPS   H7Y 1695   5.253   1.100   3.191
   13SAPS   C38 1696   5.137   0.983   3.326
   13SAPS   H8X 1697   5.183   0.897   3.275
   13SAPS   H8Y 1698   5.029   0.959   3.337
   13SAPS   C39 1699   5.197   1.004   3.467
   13SAPS   H9X 1700   5.180   0.916   3.533
   13SAPS   H9Y 1701   5.153   1.091   3.520
   13SAPS  C310 1702   5.351   1.015   3.456
   13SAPS  H10X 1703   5.367   1.125   3.445
   13SAPS  H10Y 1704   5.390   0.971   3.362
   13SAPS  C311 1705   5.437   0.965   3.573
   13SAPS  H11X 1706   5.543   0.980   3.540
   13SAPS  H11Y 1707   5.434   0.857   3.599
   13SAPS  C312 1708   5.402   1.053   3.689
   13SAPS  H12X 1709   5.294   1.049   3.717
   13SAPS  H12Y 1710   5.413   1.159   3.657
   13SAPS  C313 1711   5.486   1.013   3.815
   13SAPS  H13X 1712   5.589   0.995   3.778
   13SAPS  H13Y 1713   5.455   0.914   3.855
   13SAPS  C314 1714   5.474   1.108   3.933
   13SAPS  H14X 1715   5.368   1.123   3.963
   13SAPS  H14Y 1716   5.507   1.208   3.899
   13SAPS  C315 1717   5.558   1.064   4.051
   13SAPS  H15X 1718   5.665   1.069   4.020
   13SAPS  H15Y 1719   5.528   0.965   4.090
   13SAPS  C316 1720   5.557   1.165   4.172
   13SAPS  H16X 1721   5.502   1.255   4.135
   13SAPS  H16Y 1722   5.661   1.196   4.197
   13SAPS  C317 1723   5.500   1.102   4.291
   13SAPS  H17X 1724   5.569   1.018   4.316
   13SAPS  H17Y 1725   5.405   1.054   4.260
   13SAPS  C318 1726   5.478   1.207   4.402
   13SAPS  H18X 1727   5.450   1.147   4.492
   13SAPS  H18Y 1728   5.395   1.270   4.362
   13SAPS  H18Z 1729   5.566   1.267   4.434
   14SAPS     N 1730   5.735   3.445   2.124
   14SAPS   HN1 1731   5.678   3.476   2.205
   14SAPS   HN2 1732   5.661   3.406   2.063
   14SAPS   HN3 1733   5.787   3.362   2.160
   14SAPS   C12 1734   5.818   3.539   2.044
   14SAPS  H12A 1735   5.858   3.614   2.111
   14SAPS   C13 1736   5.936   3.461   1.984
   14SAPS  O13A 1737   5.954   3.341   1.996
   14SAPS  O13B 1738   6.017   3.541   1.924
   14SAPS   C11 1739   5.732   3.622   1.935
   14SAPS  H11A 1740   5.688   3.549   1.863
   14SAPS  H11B 1741   5.805   3.694   1.894
   14SAPS     P 1742   5.535   3.779   1.920
   14SAPS   O13 1743   5.613   3.833   1.811
   14SAPS   O14 1744   5.418   3.699   1.877
   14SAPS   O12 1745   5.633   3.692   2.010
   14SAPS   O11 1746   5.485   3.893   2.022
   14SAPS    C1 1747   5.580   3.952   2.114
   14SAPS    HA 1748   5.673   3.996   2.071
   14SAPS    HB 1749   5.521   4.040   2.146
   14SAPS    C2 1750   5.612   3.873   2.244
   14SAPS    HS 1751   5.681   3.794   2.208
   14SAPS   O21 1752   5.493   3.820   2.293
   14SAPS   C21 1753   5.502   3.692   2.326
   14SAPS   O22 1754   5.605   3.624   2.320
   14SAPS   C22 1755   5.360   3.638   2.365
   14SAPS   H2R 1756   5.289   3.721   2.348
   14SAPS   H2S 1757   5.339   3.550   2.301
   14SAPS    C3 1758   5.700   3.949   2.349
   14SAPS    HX 1759   5.641   4.039   2.380
   14SAPS    HY 1760   5.786   4.000   2.301
   14SAPS   O31 1761   5.722   3.873   2.473
   14SAPS   C31 1762   5.847   3.831   2.486
   14SAPS   O32 1763   5.930   3.823   2.394
   14SAPS   C32 1764   5.874   3.801   2.631
   14SAPS   H2X 1765   5.827   3.880   2.693
   14SAPS   H2Y 1766   5.982   3.792   2.655
   14SAPS   C23 1767   5.370   3.587   2.513
   14SAPS   H3R 1768   5.393   3.667   2.586
   14SAPS   H3S 1769   5.455   3.516   2.524
   14SAPS   C24 1770   5.248   3.506   2.549
   14SAPS   H4R 1771   5.284   3.408   2.588
   14SAPS   H4S 1772   5.213   3.475   2.448
   14SAPS   C25 1773   5.144   3.579   2.624
   14SAPS   H5R 1774   5.119   3.679   2.586
   14SAPS   C26 1775   5.082   3.528   2.735
   14SAPS   H6R 1776   5.004   3.593   2.778
   14SAPS   C27 1777   5.106   3.398   2.809
   14SAPS   H7R 1778   5.146   3.320   2.741
   14SAPS   H7S 1779   5.011   3.352   2.842
   14SAPS   C28 1780   5.208   3.407   2.920
   14SAPS   H8R 1781   5.309   3.436   2.886
   14SAPS   C29 1782   5.185   3.417   3.051
   14SAPS   H9R 1783   5.268   3.438   3.120
   14SAPS  C210 1784   5.056   3.387   3.119
   14SAPS  H10R 1785   5.059   3.282   3.156
   14SAPS  H10S 1786   4.962   3.399   3.061
   14SAPS  C211 1787   5.028   3.481   3.233
   14SAPS  H11R 1788   5.032   3.590   3.213
   14SAPS  C212 1789   5.005   3.437   3.363
   14SAPS  H12R 1790   4.986   3.511   3.442
   14SAPS  C213 1791   5.013   3.298   3.427
   14SAPS  H13R 1792   5.095   3.289   3.501
   14SAPS  H13S 1793   5.030   3.215   3.355
   14SAPS  C214 1794   4.886   3.266   3.498
   14SAPS  H14R 1795   4.792   3.285   3.444
   14SAPS  C215 1796   4.874   3.213   3.618
   14SAPS  H15R 1797   4.773   3.201   3.660
   14SAPS  C216 1798   4.982   3.186   3.723
   14SAPS  H16R 1799   5.075   3.238   3.688
   14SAPS  H16S 1800   5.000   3.077   3.717
   14SAPS  C217 1801   4.939   3.231   3.869
   14SAPS  H17R 1802   4.889   3.331   3.864
   14SAPS  H17S 1803   5.023   3.246   3.940
   14SAPS  C218 1804   4.846   3.136   3.943
   14SAPS  H18R 1805   4.886   3.033   3.932
   14SAPS  H18S 1806   4.745   3.140   3.895
   14SAPS  C219 1807   4.849   3.158   4.095
   14SAPS  H19R 1808   4.840   3.262   4.133
   14SAPS  H19S 1809   4.950   3.125   4.127
   14SAPS  C220 1810   4.748   3.070   4.168
   14SAPS  H20R 1811   4.761   3.083   4.278
   14SAPS  H20S 1812   4.739   2.965   4.135
   14SAPS  H20T 1813   4.651   3.105   4.127
   14SAPS   C33 1814   5.804   3.669   2.667
   14SAPS   H3X 1815   5.839   3.582   2.608
   14SAPS   H3Y 1816   5.697   3.681   2.637
   14SAPS   C34 1817   5.809   3.636   2.819
   14SAPS   H4X 1818   5.912   3.614   2.854
   14SAPS   H4Y 1819   5.748   3.543   2.828
   14SAPS   C35 1820   5.741   3.753   2.897
   14SAPS   H5X 1821   5.648   3.770   2.840
   14SAPS   H5Y 1822   5.801   3.846   2.902
   14SAPS   C36 1823   5.694   3.706   3.038
   14SAPS   H6X 1824   5.639   3.610   3.041
   14SAPS   H6Y 1825   5.625   3.774   3.092
   14SAPS   C37 1826   5.814   3.690   3.130
   14SAPS   H7X 1827   5.857   3.792   3.138
   14SAPS   H7Y 1828   5.887   3.620   3.084
   14SAPS   C38 1829   5.789   3.640   3.271
   14SAPS   H8X 1830   5.885   3.652   3.325
   14SAPS   H8Y 1831   5.780   3.529   3.270
   14SAPS   C39 1832   5.676   3.707   3.350
   14SAPS   H9X 1833   5.582   3.666   3.308
   14SAPS   H9Y 1834   5.681   3.816   3.330
   14SAPS  C310 1835   5.688   3.677   3.497
   14SAPS  H10X 1836   5.627   3.739   3.567
   14SAPS  H10Y 1837   5.794   3.692   3.525
   14SAPS  C311 1838   5.664   3.530   3.538
   14SAPS  H11X 1839   5.736   3.462   3.487
   14SAPS  H11Y 1840   5.564   3.509   3.496
   14SAPS  C312 1841   5.665   3.498   3.687
   14SAPS  H12X 1842   5.619   3.399   3.710
   14SAPS  H12Y 1843   5.599   3.567   3.743
   14SAPS  C313 1844   5.805   3.474   3.740
   14SAPS  H13X 1845   5.877   3.556   3.719
   14SAPS  H13Y 1846   5.837   3.386   3.681
   14SAPS  C314 1847   5.802   3.452   3.891
   14SAPS  H14X 1848   5.899   3.409   3.927
   14SAPS  H14Y 1849   5.726   3.376   3.922
   14SAPS  C315 1850   5.770   3.583   3.969
   14SAPS  H15X 1851   5.679   3.619   3.917
   14SAPS  H15Y 1852   5.852   3.656   3.952
   14SAPS  C316 1853   5.759   3.571   4.119
   14SAPS  H16X 1854   5.864   3.557   4.155
   14SAPS  H16Y 1855   5.706   3.478   4.149
   14SAPS  C317 1856   5.693   3.688   4.185
   14SAPS  H17X 1857   5.586   3.686   4.158
   14SAPS  H17Y 1858   5.737   3.784   4.149
   14SAPS  C318 1859   5.689   3.680   4.343
   14SAPS  H18X 1860   5.654   3.576   4.360
   14SAPS  H18Y 1861   5.622   3.758   4.385
   14SAPS  H18Z 1862   5.788   3.679   4.393
   15SAPS     N 1863   3.817   3.012   2.022
   15SAPS   HN1 1864   3.785   3.106   2.055
   15SAPS   HN2 1865   3.728   2.960   2.018
   15SAPS   HN3 1866   3.856   2.975   2.111
   15SAPS   C12 1867   3.890   3.008   1.889
   15SAPS  H12A 1868   3.932   2.908   1.889
   15SAPS   C13 1869   3.828   3.051   1.751
   15SAPS  O13A 1870   3.712   3.096   1.746
   15SAPS  O13B 1871   3.904   3.060   1.652
   15SAPS   C11 1872   4.008   3.107   1.910
   15SAPS  H11A 1873   3.984   3.215   1.915
   15SAPS  H11B 1874   4.075   3.091   1.823
   15SAPS     P 1875   4.207   3.160   2.072
   15SAPS   O13 1876   4.295   3.060   2.140
   15SAPS   O14 1877   4.267   3.226   1.950
   15SAPS   O12 1878   4.072   3.088   2.035
   15SAPS   O11 1879   4.164   3.273   2.166
   15SAPS    C1 1880   4.034   3.313   2.225
   15SAPS    HA 1881   4.002   3.413   2.189
   15SAPS    HB 1882   3.968   3.230   2.193
   15SAPS    C2 1883   4.021   3.293   2.383
   15SAPS    HS 1884   4.052   3.388   2.433
   15SAPS   O21 1885   4.094   3.186   2.432
   15SAPS   C21 1886   4.225   3.223   2.454
   15SAPS   O22 1887   4.266   3.334   2.439
   15SAPS   C22 1888   4.306   3.115   2.518
   15SAPS   H2R 1889   4.339   3.051   2.433
   15SAPS   H2S 1890   4.397   3.167   2.552
   15SAPS    C3 1891   3.874   3.280   2.434
   15SAPS    HX 1892   3.829   3.179   2.420
   15SAPS    HY 1893   3.811   3.357   2.386
   15SAPS   O31 1894   3.858   3.309   2.578
   15SAPS   C31 1895   3.901   3.431   2.622
   15SAPS   O32 1896   3.947   3.520   2.556
   15SAPS   C32 1897   3.878   3.438   2.774
   15SAPS   H2X 1898   3.851   3.340   2.821
   15SAPS   H2Y 1899   3.783   3.490   2.799
   15SAPS   C23 1900   4.234   3.044   2.636
   15SAPS   H3R 1901   4.289   2.951   2.660
   15SAPS   H3S 1902   4.130   3.032   2.598
   15SAPS   C24 1903   4.221   3.125   2.765
   15SAPS   H4R 1904   4.170   3.219   2.736
   15SAPS   H4S 1905   4.323   3.141   2.804
   15SAPS   C25 1906   4.134   3.049   2.862
   15SAPS   H5R 1907   4.047   2.997   2.818
   15SAPS   C26 1908   4.156   3.016   2.992
   15SAPS   H6R 1909   4.083   2.952   3.044
   15SAPS   C27 1910   4.285   3.057   3.067
   15SAPS   H7R 1911   4.342   3.138   3.017
   15SAPS   H7S 1912   4.353   2.972   3.087
   15SAPS   C28 1913   4.239   3.102   3.204
   15SAPS   H8R 1914   4.170   3.188   3.202
   15SAPS   C29 1915   4.279   3.046   3.322
   15SAPS   H9R 1916   4.245   3.092   3.416
   15SAPS  C210 1917   4.371   2.927   3.342
   15SAPS  H10R 1918   4.366   2.851   3.261
   15SAPS  H10S 1919   4.344   2.879   3.438
   15SAPS  C211 1920   4.523   2.960   3.346
   15SAPS  H11R 1921   4.549   3.037   3.273
   15SAPS  C212 1922   4.605   2.928   3.446
   15SAPS  H12R 1923   4.711   2.955   3.437
   15SAPS  C213 1924   4.588   2.843   3.565
   15SAPS  H13R 1925   4.638   2.748   3.539
   15SAPS  H13S 1926   4.478   2.830   3.577
   15SAPS  C214 1927   4.649   2.892   3.697
   15SAPS  H14R 1928   4.684   2.996   3.701
   15SAPS  C215 1929   4.654   2.816   3.807
   15SAPS  H15R 1930   4.697   2.860   3.899
   15SAPS  C216 1931   4.620   2.668   3.818
   15SAPS  H16R 1932   4.712   2.611   3.843
   15SAPS  H16S 1933   4.582   2.624   3.723
   15SAPS  C217 1934   4.507   2.617   3.923
   15SAPS  H17R 1935   4.499   2.507   3.907
   15SAPS  H17S 1936   4.408   2.657   3.893
   15SAPS  C218 1937   4.537   2.636   4.068
   15SAPS  H18R 1938   4.545   2.739   4.109
   15SAPS  H18S 1939   4.633   2.588   4.098
   15SAPS  C219 1940   4.427   2.569   4.157
   15SAPS  H19R 1941   4.465   2.580   4.261
   15SAPS  H19S 1942   4.417   2.460   4.135
   15SAPS  C220 1943   4.299   2.644   4.144
   15SAPS  H20R 1944   4.322   2.750   4.117
   15SAPS  H20S 1945   4.242   2.636   4.239
   15SAPS  H20T 1946   4.235   2.606   4.062
   15SAPS   C33 1947   3.991   3.495   2.858
   15SAPS   H3X 1948   4.081   3.494   2.794
   15SAPS   H3Y 1949   4.009   3.428   2.945
   15SAPS   C34 1950   3.960   3.638   2.910
   15SAPS   H4X 1951   3.878   3.622   2.983
   15SAPS   H4Y 1952   3.919   3.683   2.817
   15SAPS   C35 1953   4.068   3.731   2.969
   15SAPS   H5X 1954   4.029   3.833   2.987
   15SAPS   H5Y 1955   4.155   3.745   2.902
   15SAPS   C36 1956   4.114   3.679   3.106
   15SAPS   H6X 1957   4.161   3.580   3.092
   15SAPS   H6Y 1958   4.018   3.664   3.161
   15SAPS   C37 1959   4.193   3.777   3.193
   15SAPS   H7X 1960   4.161   3.882   3.175
   15SAPS   H7Y 1961   4.298   3.766   3.161
   15SAPS   C38 1962   4.166   3.737   3.340
   15SAPS   H8X 1963   4.200   3.633   3.357
   15SAPS   H8Y 1964   4.056   3.730   3.354
   15SAPS   C39 1965   4.234   3.827   3.449
   15SAPS   H9X 1966   4.203   3.933   3.435
   15SAPS   H9Y 1967   4.345   3.818   3.437
   15SAPS  C310 1968   4.212   3.785   3.598
   15SAPS  H10X 1969   4.247   3.680   3.609
   15SAPS  H10Y 1970   4.104   3.796   3.620
   15SAPS  C311 1971   4.295   3.872   3.693
   15SAPS  H11X 1972   4.286   3.978   3.661
   15SAPS  H11Y 1973   4.405   3.872   3.675
   15SAPS  C312 1974   4.267   3.852   3.844
   15SAPS  H12X 1975   4.279   3.747   3.877
   15SAPS  H12Y 1976   4.160   3.876   3.861
   15SAPS  C313 1977   4.354   3.927   3.945
   15SAPS  H13X 1978   4.350   4.026   3.895
   15SAPS  H13Y 1979   4.464   3.912   3.946
   15SAPS  C314 1980   4.307   3.923   4.088
   15SAPS  H14X 1981   4.199   3.950   4.096
   15SAPS  H14Y 1982   4.367   3.980   4.161
   15SAPS  C315 1983   4.300   3.785   4.152
   15SAPS  H15X 1984   4.407   3.756   4.153
   15SAPS  H15Y 1985   4.233   3.709   4.106
   15SAPS  C316 1986   4.259   3.805   4.300
   15SAPS  H16X 1987   4.260   3.709   4.357
   15SAPS  H16Y 1988   4.154   3.838   4.289
   15SAPS  C317 1989   4.342   3.892   4.392
   15SAPS  H17X 1990   4.307   3.892   4.498
   15SAPS  H17Y 1991   4.334   3.999   4.365
   15SAPS  C318 1992   4.493   3.853   4.395
   15SAPS  H18X 1993   4.552   3.913   4.468
   15SAPS  H18Y 1994   4.545   3.864   4.297
   15SAPS  H18Z 1995   4.504   3.746   4.422
   16SAPS     N 1996   5.814   3.895   1.645
   16SAPS   HN1 1997   5.881   3.824   1.680
   16SAPS   HN2 1998   5.723   3.886   1.694
   16SAPS   HN3 1999   5.803   3.886   1.542
   16SAPS   C12 2000   5.869   4.031   1.678
   16SAPS  H12A 2001   5.946   4.056   1.606
   16SAPS   C13 2002   5.759   4.140   1.665
   16SAPS  O13A 2003   5.664   4.124   1.588
   16SAPS  O13B 2004   5.786   4.256   1.715
   16SAPS   C11 2005   5.944   4.045   1.817
   16SAPS  H11A 2006   5.871   4.004   1.890
   16SAPS  H11B 2007   5.970   4.152   1.828
   16SAPS     P 2008   6.190   4.008   1.879
   16SAPS   O13 2009   6.270   3.889   1.899
   16SAPS   O14 2010   6.256   4.118   1.818
   16SAPS   O12 2011   6.057   3.965   1.810
   16SAPS   O11 2012   6.139   4.064   2.014
   16SAPS    C1 2013   6.236   4.127   2.096
   16SAPS    HA 2014   6.321   4.059   2.120
   16SAPS    HB 2015   6.278   4.214   2.043
   16SAPS    C2 2016   6.157   4.188   2.217
   16SAPS    HS 2017   6.221   4.272   2.251
   16SAPS   O21 2018   6.134   4.087   2.314
   16SAPS   C21 2019   6.237   4.035   2.376
   16SAPS   O22 2020   6.350   4.080   2.359
   16SAPS   C22 2021   6.196   3.926   2.471
   16SAPS   H2R 2022   6.103   3.957   2.524
   16SAPS   H2S 2023   6.168   3.839   2.408
   16SAPS    C3 2024   6.021   4.242   2.178
   16SAPS    HX 2025   5.945   4.164   2.154
   16SAPS    HY 2026   6.053   4.297   2.087
   16SAPS   O31 2027   5.975   4.343   2.274
   16SAPS   C31 2028   5.862   4.318   2.335
   16SAPS   O32 2029   5.776   4.238   2.298
   16SAPS   C32 2030   5.844   4.409   2.460
   16SAPS   H2X 2031   5.818   4.513   2.430
   16SAPS   H2Y 2032   5.941   4.437   2.506
   16SAPS   C23 2033   6.299   3.887   2.585
   16SAPS   H3R 2034   6.400   3.874   2.543
   16SAPS   H3S 2035   6.277   3.790   2.633
   16SAPS   C24 2036   6.294   3.984   2.707
   16SAPS   H4R 2037   6.190   3.978   2.748
   16SAPS   H4S 2038   6.284   4.087   2.667
   16SAPS   C25 2039   6.399   3.954   2.809
   16SAPS   H5R 2040   6.504   3.960   2.777
   16SAPS   C26 2041   6.370   3.916   2.934
   16SAPS   H6R 2042   6.454   3.897   3.003
   16SAPS   C27 2043   6.240   3.893   3.007
   16SAPS   H7R 2044   6.166   3.849   2.936
   16SAPS   H7S 2045   6.195   3.985   3.050
   16SAPS   C28 2046   6.253   3.788   3.115
   16SAPS   H8R 2047   6.290   3.688   3.087
   16SAPS   C29 2048   6.229   3.811   3.242
   16SAPS   H9R 2049   6.262   3.735   3.314
   16SAPS  C210 2050   6.170   3.924   3.315
   16SAPS  H10R 2051   6.129   3.996   3.241
   16SAPS  H10S 2052   6.259   3.973   3.361
   16SAPS  C211 2053   6.074   3.888   3.434
   16SAPS  H11R 2054   5.972   3.874   3.395
   16SAPS  C212 2055   6.103   3.878   3.565
   16SAPS  H12R 2056   6.022   3.844   3.632
   16SAPS  C213 2057   6.236   3.887   3.633
   16SAPS  H13R 2058   6.255   3.995   3.652
   16SAPS  H13S 2059   6.324   3.873   3.567
   16SAPS  C214 2060   6.248   3.802   3.754
   16SAPS  H14R 2061   6.166   3.734   3.782
   16SAPS  C215 2062   6.345   3.795   3.848
   16SAPS  H15R 2063   6.326   3.738   3.939
   16SAPS  C216 2064   6.474   3.867   3.836
   16SAPS  H16R 2065   6.471   3.934   3.747
   16SAPS  H16S 2066   6.564   3.802   3.825
   16SAPS  C217 2067   6.513   3.947   3.960
   16SAPS  H17R 2068   6.431   4.014   3.994
   16SAPS  H17S 2069   6.599   4.006   3.921
   16SAPS  C218 2070   6.562   3.866   4.077
   16SAPS  H18R 2071   6.623   3.781   4.039
   16SAPS  H18S 2072   6.476   3.816   4.127
   16SAPS  C219 2073   6.634   3.952   4.183
   16SAPS  H19R 2074   6.566   4.037   4.207
   16SAPS  H19S 2075   6.727   3.984   4.131
   16SAPS  C220 2076   6.676   3.873   4.305
   16SAPS  H20R 2077   6.767   3.814   4.278
   16SAPS  H20S 2078   6.601   3.797   4.336
   16SAPS  H20T 2079   6.682   3.938   4.396
   16SAPS   C33 2080   5.738   4.359   2.565
   16SAPS   H3X 2081   5.644   4.324   2.516
   16SAPS   H3Y 2082   5.714   4.445   2.631
   16SAPS   C34 2083   5.790   4.241   2.644
   16SAPS   H4X 2084   5.895   4.252   2.679
   16SAPS   H4Y 2085   5.776   4.149   2.584
   16SAPS   C35 2086   5.694   4.208   2.763
   16SAPS   H5X 2087   5.731   4.116   2.813
   16SAPS   H5Y 2088   5.592   4.182   2.730
   16SAPS   C36 2089   5.695   4.317   2.868
   16SAPS   H6X 2090   5.680   4.419   2.828
   16SAPS   H6Y 2091   5.799   4.318   2.907
   16SAPS   C37 2092   5.593   4.301   2.983
   16SAPS   H7X 2093   5.496   4.333   2.941
   16SAPS   H7Y 2094   5.623   4.386   3.049
   16SAPS   C38 2095   5.588   4.162   3.053
   16SAPS   H8X 2096   5.564   4.079   2.984
   16SAPS   H8Y 2097   5.521   4.171   3.141
   16SAPS   C39 2098   5.725   4.115   3.114
   16SAPS   H9X 2099   5.803   4.110   3.035
   16SAPS   H9Y 2100   5.705   4.012   3.150
   16SAPS  C310 2101   5.768   4.187   3.244
   16SAPS  H10X 2102   5.831   4.273   3.214
   16SAPS  H10Y 2103   5.822   4.113   3.306
   16SAPS  C311 2104   5.663   4.230   3.351
   16SAPS  H11X 2105   5.600   4.145   3.382
   16SAPS  H11Y 2106   5.588   4.305   3.318
   16SAPS  C312 2107   5.735   4.285   3.474
   16SAPS  H12X 2108   5.656   4.320   3.543
   16SAPS  H12Y 2109   5.792   4.380   3.463
   16SAPS  C313 2110   5.817   4.178   3.553
   16SAPS  H13X 2111   5.919   4.172   3.510
   16SAPS  H13Y 2112   5.769   4.077   3.551
   16SAPS  C314 2113   5.852   4.227   3.692
   16SAPS  H14X 2114   5.765   4.249   3.756
   16SAPS  H14Y 2115   5.918   4.316   3.689
   16SAPS  C315 2116   5.916   4.109   3.768
   16SAPS  H15X 2117   6.003   4.071   3.710
   16SAPS  H15Y 2118   5.843   4.026   3.772
   16SAPS  C316 2119   5.965   4.138   3.913
   16SAPS  H16X 2120   5.893   4.175   3.989
   16SAPS  H16Y 2121   6.030   4.227   3.897
   16SAPS  C317 2122   6.045   4.025   3.985
   16SAPS  H17X 2123   6.146   4.007   3.942
   16SAPS  H17Y 2124   5.985   3.938   3.951
   16SAPS  C318 2125   6.050   4.042   4.135
   16SAPS  H18X 2126   6.066   4.146   4.172
   16SAPS  H18Y 2127   6.125   3.975   4.180
   16SAPS  H18Z 2128   5.956   4.009   4.185
   17SAPS     N 2129   1.681   1.937   1.880
   17SAPS   HN1 2130   1.653   1.847   1.925
   17SAPS   HN2 2131   1.781   1.936   1.852
   17SAPS   HN3 2132   1.662   2.006   1.956
   17SAPS   C12 2133   1.593   1.976   1.768
   17SAPS  H12A 2134   1.533   2.062   1.794
   17SAPS   C13 2135   1.669   2.009   1.640
   17SAPS  O13A 2136   1.793   1.999   1.632
   17SAPS  O13B 2137   1.598   2.051   1.541
   17SAPS   C11 2138   1.506   1.844   1.736
   17SAPS  H11A 2139   1.570   1.766   1.690
   17SAPS  H11B 2140   1.437   1.866   1.652
   17SAPS     P 2141   1.391   1.649   1.869
   17SAPS   O13 2142   1.247   1.630   1.876
   17SAPS   O14 2143   1.460   1.558   1.772
   17SAPS   O12 2144   1.432   1.800   1.850
   17SAPS   O11 2145   1.451   1.621   2.014
   17SAPS    C1 2146   1.504   1.730   2.095
   17SAPS    HA 2147   1.615   1.728   2.104
   17SAPS    HB 2148   1.492   1.832   2.053
   17SAPS    C2 2149   1.434   1.747   2.231
   17SAPS    HS 2150   1.441   1.852   2.267
   17SAPS   O21 2151   1.494   1.645   2.317
   17SAPS   C21 2152   1.574   1.687   2.412
   17SAPS   O22 2153   1.584   1.802   2.451
   17SAPS   C22 2154   1.652   1.569   2.469
   17SAPS   H2R 2155   1.589   1.477   2.472
   17SAPS   H2S 2156   1.735   1.555   2.397
   17SAPS    C3 2157   1.284   1.710   2.215
   17SAPS    HX 2158   1.281   1.598   2.216
   17SAPS    HY 2159   1.243   1.746   2.119
   17SAPS   O31 2160   1.206   1.757   2.325
   17SAPS   C31 2161   1.147   1.874   2.315
   17SAPS   O32 2162   1.164   1.951   2.225
   17SAPS   C32 2163   1.061   1.907   2.431
   17SAPS   H2X 2164   0.970   1.842   2.429
   17SAPS   H2Y 2165   1.041   2.015   2.417
   17SAPS   C23 2166   1.716   1.605   2.603
   17SAPS   H3R 2167   1.640   1.655   2.668
   17SAPS   H3S 2168   1.793   1.683   2.587
   17SAPS   C24 2169   1.766   1.478   2.672
   17SAPS   H4R 2170   1.683   1.404   2.674
   17SAPS   H4S 2171   1.802   1.501   2.774
   17SAPS   C25 2172   1.885   1.438   2.587
   17SAPS   H5R 2173   1.858   1.382   2.497
   17SAPS   C26 2174   2.015   1.462   2.604
   17SAPS   H6R 2175   2.081   1.419   2.528
   17SAPS   C27 2176   2.079   1.535   2.726
   17SAPS   H7R 2177   2.180   1.493   2.742
   17SAPS   H7S 2178   2.035   1.516   2.826
   17SAPS   C28 2179   2.079   1.679   2.695
   17SAPS   H8R 2180   2.158   1.708   2.624
   17SAPS   C29 2181   2.019   1.776   2.768
   17SAPS   H9R 2182   2.027   1.881   2.734
   17SAPS  C210 2183   1.941   1.757   2.896
   17SAPS  H10R 2184   1.916   1.651   2.920
   17SAPS  H10S 2185   1.837   1.795   2.887
   17SAPS  C211 2186   1.998   1.821   3.019
   17SAPS  H11R 2187   2.088   1.883   2.999
   17SAPS  C212 2188   1.979   1.790   3.151
   17SAPS  H12R 2189   2.023   1.855   3.228
   17SAPS  C213 2190   1.863   1.703   3.199
   17SAPS  H13R 2191   1.802   1.659   3.118
   17SAPS  H13S 2192   1.788   1.768   3.249
   17SAPS  C214 2193   1.917   1.593   3.288
   17SAPS  H14R 2194   1.933   1.618   3.394
   17SAPS  C215 2195   1.944   1.467   3.252
   17SAPS  H15R 2196   1.979   1.400   3.332
   17SAPS  C216 2197   1.965   1.417   3.110
   17SAPS  H16R 2198   2.040   1.480   3.059
   17SAPS  H16S 2199   1.874   1.424   3.045
   17SAPS  C217 2200   2.003   1.268   3.103
   17SAPS  H17R 2201   1.924   1.211   3.156
   17SAPS  H17S 2202   2.105   1.248   3.140
   17SAPS  C218 2203   1.994   1.212   2.962
   17SAPS  H18R 2204   2.071   1.246   2.889
   17SAPS  H18S 2205   1.894   1.238   2.922
   17SAPS  C219 2206   2.006   1.058   2.967
   17SAPS  H19R 2207   1.942   1.017   3.048
   17SAPS  H19S 2208   2.111   1.030   2.988
   17SAPS  C220 2209   1.966   1.000   2.831
   17SAPS  H20R 2210   1.890   1.061   2.777
   17SAPS  H20S 2211   1.927   0.898   2.853
   17SAPS  H20T 2212   2.055   0.974   2.771
   17SAPS   C33 2213   1.131   1.878   2.567
   17SAPS   H3X 2214   1.224   1.939   2.563
   17SAPS   H3Y 2215   1.162   1.773   2.581
   17SAPS   C34 2216   1.041   1.907   2.690
   17SAPS   H4X 2217   0.962   1.830   2.706
   17SAPS   H4Y 2218   1.000   2.008   2.670
   17SAPS   C35 2219   1.119   1.903   2.823
   17SAPS   H5X 2220   1.195   1.983   2.815
   17SAPS   H5Y 2221   1.171   1.805   2.828
   17SAPS   C36 2222   1.035   1.923   2.950
   17SAPS   H6X 2223   0.997   2.027   2.940
   17SAPS   H6Y 2224   1.096   1.925   3.042
   17SAPS   C37 2225   0.915   1.831   2.960
   17SAPS   H7X 2226   0.928   1.721   2.949
   17SAPS   H7Y 2227   0.847   1.865   2.879
   17SAPS   C38 2228   0.831   1.842   3.089
   17SAPS   H8X 2229   0.726   1.810   3.070
   17SAPS   H8Y 2230   0.817   1.950   3.110
   17SAPS   C39 2231   0.897   1.793   3.216
   17SAPS   H9X 2232   0.997   1.754   3.186
   17SAPS   H9Y 2233   0.839   1.709   3.259
   17SAPS  C310 2234   0.934   1.900   3.316
   17SAPS  H10X 2235   0.970   1.994   3.268
   17SAPS  H10Y 2236   1.017   1.853   3.374
   17SAPS  C311 2237   0.817   1.917   3.416
   17SAPS  H11X 2238   0.786   1.817   3.452
   17SAPS  H11Y 2239   0.729   1.964   3.366
   17SAPS  C312 2240   0.868   2.005   3.538
   17SAPS  H12X 2241   0.852   2.114   3.518
   17SAPS  H12Y 2242   0.974   1.972   3.538
   17SAPS  C313 2243   0.800   1.970   3.672
   17SAPS  H13X 2244   0.826   1.864   3.694
   17SAPS  H13Y 2245   0.690   1.979   3.656
   17SAPS  C314 2246   0.825   2.067   3.788
   17SAPS  H14X 2247   0.769   2.046   3.882
   17SAPS  H14Y 2248   0.798   2.171   3.759
   17SAPS  C315 2249   0.978   2.065   3.821
   17SAPS  H15X 2250   1.032   2.117   3.739
   17SAPS  H15Y 2251   1.018   1.961   3.820
   17SAPS  C316 2252   1.013   2.149   3.946
   17SAPS  H16X 2253   0.982   2.255   3.939
   17SAPS  H16Y 2254   1.123   2.153   3.957
   17SAPS  C317 2255   0.957   2.088   4.075
   17SAPS  H17X 2256   1.001   1.989   4.101
   17SAPS  H17Y 2257   0.847   2.071   4.065
   17SAPS  C318 2258   0.989   2.174   4.192
   17SAPS  H18X 2259   1.097   2.195   4.183
   17SAPS  H18Y 2260   0.970   2.131   4.293
   17SAPS  H18Z 2261   0.934   2.270   4.190
   18SAPS     N 2262   4.192   2.820   2.226
   18SAPS   HN1 2263   4.239   2.904   2.188
   18SAPS   HN2 2264   4.274   2.756   2.231
   18SAPS   HN3 2265   4.133   2.785   2.148
   18SAPS   C12 2266   4.117   2.827   2.354
   18SAPS  H12A 2267   4.168   2.908   2.405
   18SAPS   C13 2268   3.964   2.864   2.342
   18SAPS  O13A 2269   3.921   2.870   2.222
   18SAPS  O13B 2270   3.896   2.867   2.444
   18SAPS   C11 2271   4.137   2.685   2.413
   18SAPS  H11A 2272   4.093   2.602   2.355
   18SAPS  H11B 2273   4.086   2.685   2.512
   18SAPS     P 2274   4.313   2.519   2.501
   18SAPS   O13 2275   4.278   2.420   2.400
   18SAPS   O14 2276   4.449   2.511   2.557
   18SAPS   O12 2277   4.278   2.662   2.441
   18SAPS   O11 2278   4.214   2.503   2.626
   18SAPS    C1 2279   4.216   2.610   2.720
   18SAPS    HA 2280   4.251   2.705   2.674
   18SAPS    HB 2281   4.118   2.636   2.766
   18SAPS    C2 2282   4.307   2.572   2.835
   18SAPS    HS 2283   4.408   2.552   2.792
   18SAPS   O21 2284   4.245   2.466   2.904
   18SAPS   C21 2285   4.320   2.351   2.918
   18SAPS   O22 2286   4.438   2.341   2.881
   18SAPS   C22 2287   4.252   2.250   3.003
   18SAPS   H2R 2288   4.218   2.173   2.930
   18SAPS   H2S 2289   4.335   2.212   3.068
   18SAPS    C3 2290   4.333   2.688   2.930
   18SAPS    HX 2291   4.235   2.702   2.979
   18SAPS    HY 2292   4.371   2.780   2.880
   18SAPS   O31 2293   4.419   2.651   3.038
   18SAPS   C31 2294   4.552   2.643   3.014
   18SAPS   O32 2295   4.597   2.655   2.904
   18SAPS   C32 2296   4.627   2.608   3.146
   18SAPS   H2X 2297   4.691   2.695   3.170
   18SAPS   H2Y 2298   4.699   2.529   3.116
   18SAPS   C23 2299   4.135   2.287   3.092
   18SAPS   H3R 2300   4.055   2.330   3.028
   18SAPS   H3S 2301   4.166   2.367   3.163
   18SAPS   C24 2302   4.080   2.174   3.183
   18SAPS   H4R 2303   4.062   2.080   3.127
   18SAPS   H4S 2304   3.992   2.201   3.245
   18SAPS   C25 2305   4.190   2.135   3.278
   18SAPS   H5R 2306   4.266   2.070   3.233
   18SAPS   C26 2307   4.206   2.195   3.404
   18SAPS   H6R 2308   4.298   2.165   3.457
   18SAPS   C27 2309   4.122   2.284   3.485
   18SAPS   H7R 2310   4.054   2.222   3.548
   18SAPS   H7S 2311   4.043   2.341   3.432
   18SAPS   C28 2312   4.204   2.376   3.571
   18SAPS   H8R 2313   4.274   2.432   3.506
   18SAPS   C29 2314   4.207   2.376   3.698
   18SAPS   H9R 2315   4.273   2.447   3.748
   18SAPS  C210 2316   4.112   2.294   3.778
   18SAPS  H10R 2317   4.149   2.190   3.775
   18SAPS  H10S 2318   4.010   2.275   3.738
   18SAPS  C211 2319   4.103   2.350   3.915
   18SAPS  H11R 2320   4.078   2.457   3.915
   18SAPS  C212 2321   4.108   2.289   4.035
   18SAPS  H12R 2322   4.114   2.347   4.128
   18SAPS  C213 2323   4.121   2.139   4.044
   18SAPS  H13R 2324   4.224   2.103   4.026
   18SAPS  H13S 2325   4.067   2.086   3.963
   18SAPS  C214 2326   4.054   2.089   4.174
   18SAPS  H14R 2327   3.945   2.081   4.167
   18SAPS  C215 2328   4.102   2.063   4.292
   18SAPS  H15R 2329   4.030   2.017   4.361
   18SAPS  C216 2330   4.246   2.067   4.337
   18SAPS  H16R 2331   4.291   2.167   4.355
   18SAPS  H16S 2332   4.315   2.027   4.260
   18SAPS  C217 2333   4.254   1.982   4.460
   18SAPS  H17R 2334   4.218   1.879   4.437
   18SAPS  H17S 2335   4.183   2.019   4.538
   18SAPS  C218 2336   4.394   1.956   4.519
   18SAPS  H18R 2337   4.436   2.059   4.528
   18SAPS  H18S 2338   4.458   1.900   4.447
   18SAPS  C219 2339   4.388   1.895   4.658
   18SAPS  H19R 2340   4.301   1.931   4.718
   18SAPS  H19S 2341   4.472   1.923   4.724
   18SAPS  C220 2342   4.381   1.750   4.662
   18SAPS  H20R 2343   4.480   1.700   4.649
   18SAPS  H20S 2344   4.321   1.704   4.580
   18SAPS  H20T 2345   4.336   1.705   4.753
   18SAPS   C33 2346   4.541   2.558   3.264
   18SAPS   H3X 2347   4.462   2.491   3.222
   18SAPS   H3Y 2348   4.481   2.639   3.312
   18SAPS   C34 2349   4.625   2.480   3.365
   18SAPS   H4X 2350   4.704   2.537   3.418
   18SAPS   H4Y 2351   4.683   2.400   3.313
   18SAPS   C35 2352   4.547   2.410   3.483
   18SAPS   H5X 2353   4.473   2.337   3.444
   18SAPS   H5Y 2354   4.491   2.496   3.526
   18SAPS   C36 2355   4.624   2.335   3.587
   18SAPS   H6X 2356   4.706   2.400   3.624
   18SAPS   H6Y 2357   4.672   2.246   3.542
   18SAPS   C37 2358   4.539   2.290   3.703
   18SAPS   H7X 2359   4.456   2.226   3.664
   18SAPS   H7Y 2360   4.501   2.383   3.751
   18SAPS   C38 2361   4.615   2.205   3.810
   18SAPS   H8X 2362   4.710   2.259   3.829
   18SAPS   H8Y 2363   4.646   2.110   3.760
   18SAPS   C39 2364   4.545   2.180   3.947
   18SAPS   H9X 2365   4.491   2.083   3.940
   18SAPS   H9Y 2366   4.476   2.262   3.976
   18SAPS  C310 2367   4.650   2.174   4.054
   18SAPS  H10X 2368   4.685   2.274   4.089
   18SAPS  H10Y 2369   4.741   2.124   4.013
   18SAPS  C311 2370   4.608   2.091   4.181
   18SAPS  H11X 2371   4.568   1.995   4.141
   18SAPS  H11Y 2372   4.530   2.147   4.237
   18SAPS  C312 2373   4.730   2.042   4.253
   18SAPS  H12X 2374   4.817   2.041   4.183
   18SAPS  H12Y 2375   4.706   1.938   4.282
   18SAPS  C313 2376   4.755   2.124   4.391
   18SAPS  H13X 2377   4.834   2.062   4.439
   18SAPS  H13Y 2378   4.664   2.110   4.453
   18SAPS  C314 2379   4.791   2.268   4.363
   18SAPS  H14X 2380   4.709   2.311   4.300
   18SAPS  H14Y 2381   4.885   2.276   4.305
   18SAPS  C315 2382   4.803   2.348   4.485
   18SAPS  H15X 2383   4.880   2.302   4.552
   18SAPS  H15Y 2384   4.703   2.353   4.531
   18SAPS  C316 2385   4.853   2.493   4.473
   18SAPS  H16X 2386   4.952   2.499   4.422
   18SAPS  H16Y 2387   4.868   2.542   4.571
   18SAPS  C317 2388   4.767   2.580   4.376
   18SAPS  H17X 2389   4.657   2.576   4.387
   18SAPS  H17Y 2390   4.796   2.544   4.276
   18SAPS  C318 2391   4.809   2.725   4.373
   18SAPS  H18X 2392   4.778   2.776   4.466
   18SAPS  H18Y 2393   4.773   2.782   4.285
   18SAPS  H18Z 2394   4.921   2.726   4.372
   19SAPS     N 2395   3.835   4.814   2.050
   19SAPS   HN1 2396   3.896   4.848   2.127
   19SAPS   HN2 2397   3.763   4.882   2.019
   19SAPS   HN3 2398   3.791   4.726   2.085
   19SAPS   C12 2399   3.915   4.787   1.934
   19SAPS  H12A 2400   3.849   4.737   1.864
   19SAPS   C13 2401   3.981   4.914   1.863
   19SAPS  O13A 2402   3.947   5.033   1.897
   19SAPS  O13B 2403   4.012   4.889   1.742
   19SAPS   C11 2404   4.020   4.679   1.986
   19SAPS  H11A 2405   4.063   4.625   1.899
   19SAPS  H11B 2406   3.959   4.598   2.032
   19SAPS     P 2407   4.264   4.690   2.069
   19SAPS   O13 2408   4.281   4.576   1.976
   19SAPS   O14 2409   4.347   4.809   2.051
   19SAPS   O12 2410   4.112   4.733   2.074
   19SAPS   O11 2411   4.288   4.641   2.219
   19SAPS    C1 2412   4.229   4.711   2.336
   19SAPS    HA 2413   4.260   4.818   2.340
   19SAPS    HB 2414   4.118   4.711   2.337
   19SAPS    C2 2415   4.268   4.631   2.468
   19SAPS    HS 2416   4.208   4.538   2.479
   19SAPS   O21 2417   4.255   4.713   2.588
   19SAPS   C21 2418   4.130   4.732   2.621
   19SAPS   O22 2419   4.032   4.684   2.578
   19SAPS   C22 2420   4.124   4.849   2.723
   19SAPS   H2R 2421   4.035   4.818   2.783
   19SAPS   H2S 2422   4.210   4.844   2.793
   19SAPS    C3 2423   4.422   4.588   2.470
   19SAPS    HX 2424   4.477   4.685   2.462
   19SAPS    HY 2425   4.449   4.534   2.377
   19SAPS   O31 2426   4.464   4.501   2.579
   19SAPS   C31 2427   4.595   4.489   2.592
   19SAPS   O32 2428   4.678   4.531   2.516
   19SAPS   C32 2429   4.620   4.431   2.735
   19SAPS   H2X 2430   4.677   4.336   2.724
   19SAPS   H2Y 2431   4.524   4.400   2.782
   19SAPS   C23 2432   4.114   4.990   2.660
   19SAPS   H3R 2433   4.016   4.994   2.606
   19SAPS   H3S 2434   4.200   5.008   2.592
   19SAPS   C24 2435   4.114   5.093   2.772
   19SAPS   H4R 2436   4.116   5.193   2.725
   19SAPS   H4S 2437   4.213   5.081   2.820
   19SAPS   C25 2438   3.993   5.082   2.868
   19SAPS   H5R 2439   3.905   5.130   2.824
   19SAPS   C26 2440   3.985   5.033   2.995
   19SAPS   H6R 2441   3.885   5.033   3.040
   19SAPS   C27 2442   4.105   4.968   3.062
   19SAPS   H7R 2443   4.122   5.007   3.164
   19SAPS   H7S 2444   4.201   4.988   3.009
   19SAPS   C28 2445   4.094   4.815   3.079
   19SAPS   H8R 2446   4.128   4.755   2.993
   19SAPS   C29 2447   4.017   4.753   3.169
   19SAPS   H9R 2448   4.015   4.644   3.162
   19SAPS  C210 2449   3.929   4.807   3.280
   19SAPS  H10R 2450   3.827   4.825   3.241
   19SAPS  H10S 2451   3.964   4.905   3.320
   19SAPS  C211 2452   3.913   4.705   3.390
   19SAPS  H11R 2453   3.821   4.645   3.390
   19SAPS  C212 2454   4.000   4.690   3.496
   19SAPS  H12R 2455   3.984   4.598   3.554
   19SAPS  C213 2456   4.134   4.764   3.513
   19SAPS  H13R 2457   4.117   4.873   3.525
   19SAPS  H13S 2458   4.183   4.761   3.414
   19SAPS  C214 2459   4.222   4.706   3.615
   19SAPS  H14R 2460   4.269   4.612   3.584
   19SAPS  C215 2461   4.252   4.759   3.735
   19SAPS  H15R 2462   4.315   4.694   3.797
   19SAPS  C216 2463   4.201   4.884   3.801
   19SAPS  H16R 2464   4.187   4.971   3.734
   19SAPS  H16S 2465   4.274   4.902   3.883
   19SAPS  C217 2466   4.067   4.857   3.875
   19SAPS  H17R 2467   3.995   4.833   3.794
   19SAPS  H17S 2468   4.034   4.950   3.926
   19SAPS  C218 2469   4.079   4.748   3.980
   19SAPS  H18R 2470   4.060   4.804   4.073
   19SAPS  H18S 2471   4.168   4.684   3.996
   19SAPS  C219 2472   3.959   4.644   3.969
   19SAPS  H19R 2473   3.956   4.577   3.881
   19SAPS  H19S 2474   3.867   4.706   3.964
   19SAPS  C220 2475   3.937   4.547   4.088
   19SAPS  H20R 2476   3.840   4.494   4.092
   19SAPS  H20S 2477   3.941   4.605   4.183
   19SAPS  H20T 2478   4.018   4.471   4.087
   19SAPS   C33 2479   4.690   4.540   2.822
   19SAPS   H3X 2480   4.632   4.634   2.831
   19SAPS   H3Y 2481   4.792   4.562   2.782
   19SAPS   C34 2482   4.695   4.495   2.963
   19SAPS   H4X 2483   4.736   4.393   2.977
   19SAPS   H4Y 2484   4.595   4.488   3.009
   19SAPS   C35 2485   4.777   4.594   3.047
   19SAPS   H5X 2486   4.748   4.701   3.032
   19SAPS   H5Y 2487   4.881   4.581   3.012
   19SAPS   C36 2488   4.780   4.556   3.194
   19SAPS   H6X 2489   4.784   4.445   3.194
   19SAPS   H6Y 2490   4.683   4.594   3.234
   19SAPS   C37 2491   4.900   4.626   3.271
   19SAPS   H7X 2492   4.880   4.732   3.248
   19SAPS   H7Y 2493   4.997   4.599   3.222
   19SAPS   C38 2494   4.896   4.597   3.417
   19SAPS   H8X 2495   4.905   4.486   3.422
   19SAPS   H8Y 2496   4.798   4.613   3.467
   19SAPS   C39 2497   5.010   4.661   3.495
   19SAPS   H9X 2498   4.999   4.770   3.474
   19SAPS   H9Y 2499   5.107   4.635   3.446
   19SAPS  C310 2500   5.017   4.630   3.646
   19SAPS  H10X 2501   5.036   4.521   3.648
   19SAPS  H10Y 2502   4.920   4.651   3.697
   19SAPS  C311 2503   5.135   4.709   3.714
   19SAPS  H11X 2504   5.133   4.816   3.684
   19SAPS  H11Y 2505   5.232   4.670   3.676
   19SAPS  C312 2506   5.115   4.694   3.868
   19SAPS  H12X 2507   5.210   4.726   3.916
   19SAPS  H12Y 2508   5.105   4.587   3.898
   19SAPS  C313 2509   4.999   4.780   3.915
   19SAPS  H13X 2510   4.911   4.712   3.919
   19SAPS  H13Y 2511   4.988   4.859   3.838
   19SAPS  C314 2512   5.034   4.846   4.050
   19SAPS  H14X 2513   4.940   4.896   4.082
   19SAPS  H14Y 2514   5.121   4.913   4.038
   19SAPS  C315 2515   5.070   4.745   4.159
   19SAPS  H15X 2516   5.157   4.687   4.120
   19SAPS  H15Y 2517   4.981   4.678   4.166
   19SAPS  C316 2518   5.102   4.802   4.298
   19SAPS  H16X 2519   5.082   4.719   4.369
   19SAPS  H16Y 2520   5.023   4.878   4.319
   19SAPS  C317 2521   5.242   4.849   4.322
   19SAPS  H17X 2522   5.238   4.926   4.403
   19SAPS  H17Y 2523   5.291   4.903   4.239
   19SAPS  C318 2524   5.328   4.722   4.365
   19SAPS  H18X 2525   5.433   4.753   4.390
   19SAPS  H18Y 2526   5.341   4.646   4.286
   19SAPS  H18Z 2527   5.285   4.671   4.454
   20SAPS     N 2528   4.887   5.442   2.160
   20SAPS   HN1 2529   4.871   5.386   2.074
   20SAPS   HN2 2530   4.988   5.464   2.153
   20SAPS   HN3 2531   4.865   5.390   2.247
   20SAPS   C12 2532   4.809   5.566   2.159
   20SAPS  H12A 2533   4.815   5.614   2.062
   20SAPS   C13 2534   4.659   5.538   2.195
   20SAPS  O13A 2535   4.614   5.421   2.208
   20SAPS  O13B 2536   4.584   5.641   2.205
   20SAPS   C11 2537   4.872   5.656   2.276
   20SAPS  H11A 2538   4.859   5.604   2.374
   20SAPS  H11B 2539   4.815   5.750   2.286
   20SAPS     P 2540   5.089   5.810   2.252
   20SAPS   O13 2541   5.236   5.795   2.282
   20SAPS   O14 2542   5.063   5.883   2.123
   20SAPS   O12 2543   5.008   5.675   2.256
   20SAPS   O11 2544   5.017   5.899   2.356
   20SAPS    C1 2545   5.047   5.893   2.494
   20SAPS    HA 2546   5.053   5.790   2.537
   20SAPS    HB 2547   5.153   5.927   2.503
   20SAPS    C2 2548   4.958   5.990   2.580
   20SAPS    HS 2549   4.985   6.090   2.540
   20SAPS   O21 2550   4.987   5.977   2.720
   20SAPS   C21 2551   5.098   6.028   2.764
   20SAPS   O22 2552   5.186   6.086   2.703
   20SAPS   C22 2553   5.100   5.999   2.917
   20SAPS   H2R 2554   5.015   5.931   2.939
   20SAPS   H2S 2555   5.199   5.952   2.934
   20SAPS    C3 2556   4.805   5.966   2.551
   20SAPS    HX 2557   4.786   5.970   2.442
   20SAPS    HY 2558   4.756   6.055   2.596
   20SAPS   O31 2559   4.753   5.839   2.600
   20SAPS   C31 2560   4.707   5.831   2.724
   20SAPS   O32 2561   4.709   5.927   2.804
   20SAPS   C32 2562   4.642   5.691   2.748
   20SAPS   H2X 2563   4.721   5.615   2.730
   20SAPS   H2Y 2564   4.573   5.674   2.662
   20SAPS   C23 2565   5.073   6.133   3.002
   20SAPS   H3R 2566   5.006   6.186   2.931
   20SAPS   H3S 2567   5.170   6.185   3.017
   20SAPS   C24 2568   5.009   6.104   3.136
   20SAPS   H4R 2569   4.908   6.058   3.127
   20SAPS   H4S 2570   4.990   6.198   3.192
   20SAPS   C25 2571   5.091   6.001   3.222
   20SAPS   H5R 2572   5.146   5.924   3.167
   20SAPS   C26 2573   5.113   6.011   3.351
   20SAPS   H6R 2574   5.184   5.938   3.393
   20SAPS   C27 2575   5.056   6.116   3.445
   20SAPS   H7R 2576   4.967   6.163   3.398
   20SAPS   H7S 2577   5.135   6.191   3.464
   20SAPS   C28 2578   5.019   6.038   3.577
   20SAPS   H8R 2579   4.947   5.959   3.550
   20SAPS   C29 2580   5.068   6.053   3.702
   20SAPS   H9R 2581   5.016   5.995   3.780
   20SAPS  C210 2582   5.172   6.147   3.748
   20SAPS  H10R 2583   5.214   6.210   3.667
   20SAPS  H10S 2584   5.258   6.082   3.773
   20SAPS  C211 2585   5.124   6.239   3.860
   20SAPS  H11R 2586   5.105   6.342   3.827
   20SAPS  C212 2587   5.101   6.199   3.990
   20SAPS  H12R 2588   5.068   6.275   4.062
   20SAPS  C213 2589   5.123   6.057   4.041
   20SAPS  H13R 2590   5.110   5.981   3.962
   20SAPS  H13S 2591   5.050   6.031   4.121
   20SAPS  C214 2592   5.260   6.018   4.092
   20SAPS  H14R 2593   5.335   5.988   4.017
   20SAPS  C215 2594   5.304   6.005   4.218
   20SAPS  H15R 2595   5.397   5.951   4.242
   20SAPS  C216 2596   5.224   6.050   4.340
   20SAPS  H16R 2597   5.121   6.009   4.336
   20SAPS  H16S 2598   5.216   6.161   4.333
   20SAPS  C217 2599   5.298   6.016   4.465
   20SAPS  H17R 2600   5.367   6.100   4.490
   20SAPS  H17S 2601   5.365   5.928   4.450
   20SAPS  C218 2602   5.210   5.975   4.582
   20SAPS  H18R 2603   5.139   6.055   4.614
   20SAPS  H18S 2604   5.282   5.970   4.666
   20SAPS  C219 2605   5.125   5.852   4.551
   20SAPS  H19R 2606   5.192   5.787   4.489
   20SAPS  H19S 2607   5.038   5.888   4.493
   20SAPS  C220 2608   5.080   5.768   4.664
   20SAPS  H20R 2609   5.026   5.829   4.740
   20SAPS  H20S 2610   5.170   5.739   4.722
   20SAPS  H20T 2611   5.016   5.682   4.634
   20SAPS   C33 2612   4.564   5.667   2.882
   20SAPS   H3X 2613   4.631   5.682   2.969
   20SAPS   H3Y 2614   4.535   5.560   2.870
   20SAPS   C34 2615   4.429   5.737   2.883
   20SAPS   H4X 2616   4.382   5.718   2.784
   20SAPS   H4Y 2617   4.427   5.846   2.904
   20SAPS   C35 2618   4.341   5.682   2.998
   20SAPS   H5X 2619   4.318   5.580   2.959
   20SAPS   H5Y 2620   4.249   5.743   2.986
   20SAPS   C36 2621   4.412   5.686   3.138
   20SAPS   H6X 2622   4.440   5.793   3.152
   20SAPS   H6Y 2623   4.509   5.632   3.148
   20SAPS   C37 2624   4.322   5.649   3.265
   20SAPS   H7X 2625   4.298   5.541   3.252
   20SAPS   H7Y 2626   4.225   5.700   3.275
   20SAPS   C38 2627   4.398   5.672   3.399
   20SAPS   H8X 2628   4.467   5.758   3.391
   20SAPS   H8Y 2629   4.464   5.582   3.402
   20SAPS   C39 2630   4.309   5.684   3.521
   20SAPS   H9X 2631   4.238   5.598   3.527
   20SAPS   H9Y 2632   4.264   5.784   3.503
   20SAPS  C310 2633   4.390   5.699   3.649
   20SAPS  H10X 2634   4.468   5.778   3.648
   20SAPS  H10Y 2635   4.447   5.604   3.659
   20SAPS  C311 2636   4.298   5.715   3.765
   20SAPS  H11X 2637   4.212   5.644   3.761
   20SAPS  H11Y 2638   4.248   5.813   3.756
   20SAPS  C312 2639   4.364   5.700   3.901
   20SAPS  H12X 2640   4.447   5.772   3.919
   20SAPS  H12Y 2641   4.424   5.606   3.898
   20SAPS  C313 2642   4.263   5.718   4.012
   20SAPS  H13X 2643   4.191   5.634   3.999
   20SAPS  H13Y 2644   4.196   5.804   3.994
   20SAPS  C314 2645   4.333   5.713   4.139
   20SAPS  H14X 2646   4.398   5.803   4.151
   20SAPS  H14Y 2647   4.393   5.619   4.136
   20SAPS  C315 2648   4.252   5.704   4.274
   20SAPS  H15X 2649   4.319   5.672   4.356
   20SAPS  H15Y 2650   4.177   5.623   4.281
   20SAPS  C316 2651   4.193   5.844   4.322
   20SAPS  H16X 2652   4.121   5.879   4.245
   20SAPS  H16Y 2653   4.266   5.928   4.325
   20SAPS  C317 2654   4.132   5.830   4.461
   20SAPS  H17X 2655   4.046   5.761   4.448
   20SAPS  H17Y 2656   4.083   5.929   4.467
   20SAPS  C318 2657   4.221   5.808   4.581
   20SAPS  H18X 2658   4.323   5.852   4.569
   20SAPS  H18Y 2659   4.236   5.699   4.598
   20SAPS  H18Z 2660   4.176   5.849   4.675
   21CHL1    C3 2661   1.542   3.747   5.768
   21CHL1    H3 2662   1.610   3.833   5.788
   21CHL1    O3 2663   1.544   3.655   5.868
   21CHL1   H3' 2664   1.452   3.633   5.884
   21CHL1    C4 2665   1.402   3.804   5.746
   21CHL1   H4A 2666   1.339   3.713   5.744
   21CHL1   H4B 2667   1.367   3.841   5.845
   21CHL1    C5 2668   1.385   3.894   5.629
   21CHL1    C6 2669   1.350   4.023   5.642
   21CHL1    H6 2670   1.334   4.065   5.742
   21CHL1    C7 2671   1.332   4.114   5.518
   21CHL1   H7A 2672   1.232   4.162   5.511
   21CHL1   H7B 2673   1.403   4.200   5.523
   21CHL1    C8 2674   1.345   4.047   5.385
   21CHL1    H8 2675   1.248   3.996   5.367
   21CHL1   C14 2676   1.361   4.146   5.273
   21CHL1   H14 2677   1.462   4.190   5.283
   21CHL1   C15 2678   1.263   4.264   5.261
   21CHL1  H15A 2679   1.163   4.215   5.255
   21CHL1  H15B 2680   1.250   4.336   5.344
   21CHL1   C16 2681   1.291   4.324   5.122
   21CHL1  H16A 2682   1.189   4.336   5.081
   21CHL1  H16B 2683   1.332   4.427   5.114
   21CHL1   C17 2684   1.387   4.222   5.051
   21CHL1   H17 2685   1.489   4.263   5.063
   21CHL1   C13 2686   1.378   4.087   5.138
   21CHL1   C18 2687   1.253   4.008   5.081
   21CHL1  H18A 2688   1.273   3.968   4.979
   21CHL1  H18B 2689   1.232   3.924   5.151
   21CHL1  H18C 2690   1.162   4.070   5.088
   21CHL1   C12 2691   1.503   3.994   5.140
   21CHL1  H12A 2692   1.514   3.951   5.038
   21CHL1  H12B 2693   1.597   4.049   5.158
   21CHL1   C11 2694   1.482   3.883   5.240
   21CHL1  H11A 2695   1.395   3.820   5.211
   21CHL1  H11B 2696   1.568   3.813   5.232
   21CHL1    C9 2697   1.459   3.943   5.380
   21CHL1    H9 2698   1.550   4.004   5.401
   21CHL1   C10 2699   1.438   3.837   5.495
   21CHL1   C19 2700   1.329   3.736   5.443
   21CHL1  H19A 2701   1.288   3.668   5.520
   21CHL1  H19B 2702   1.238   3.790   5.410
   21CHL1  H19C 2703   1.372   3.668   5.366
   21CHL1    C1 2704   1.580   3.779   5.522
   21CHL1   H1A 2705   1.611   3.728   5.428
   21CHL1   H1B 2706   1.639   3.870   5.548
   21CHL1    C2 2707   1.593   3.682   5.638
   21CHL1   H2A 2708   1.697   3.645   5.648
   21CHL1   H2B 2709   1.527   3.594   5.621
   21CHL1   C20 2710   1.364   4.228   4.897
   21CHL1   H20 2711   1.267   4.186   4.864
   21CHL1   C21 2712   1.480   4.150   4.831
   21CHL1  H21A 2713   1.575   4.193   4.869
   21CHL1  H21B 2714   1.467   4.168   4.722
   21CHL1  H21C 2715   1.471   4.041   4.851
   21CHL1   C22 2716   1.369   4.377   4.849
   21CHL1  H22A 2717   1.289   4.442   4.891
   21CHL1  H22B 2718   1.466   4.412   4.889
   21CHL1   C23 2719   1.368   4.401   4.697
   21CHL1  H23A 2720   1.468   4.376   4.654
   21CHL1  H23B 2721   1.302   4.326   4.648
   21CHL1   C24 2722   1.323   4.546   4.657
   21CHL1  H24A 2723   1.256   4.590   4.734
   21CHL1  H24B 2724   1.418   4.600   4.675
   21CHL1   C25 2725   1.278   4.574   4.507
   21CHL1   H25 2726   1.181   4.521   4.499
   21CHL1   C26 2727   1.255   4.718   4.469
   21CHL1  H26A 2728   1.357   4.762   4.461
   21CHL1  H26B 2729   1.208   4.742   4.371
   21CHL1  H26C 2730   1.196   4.764   4.551
   21CHL1   C27 2731   1.384   4.509   4.419
   21CHL1  H27A 2732   1.365   4.400   4.420
   21CHL1  H27B 2733   1.364   4.547   4.317
   21CHL1  H27C 2734   1.486   4.537   4.451
   22CHL1    C3 2735   2.141   1.844   6.007
   22CHL1    H3 2736   2.124   1.953   6.018
   22CHL1    O3 2737   2.177   1.796   6.135
   22CHL1   H3' 2738   2.199   1.703   6.138
   22CHL1    C4 2739   2.009   1.782   5.971
   22CHL1   H4A 2740   2.017   1.672   5.979
   22CHL1   H4B 2741   1.939   1.823   6.046
   22CHL1    C5 2742   1.952   1.837   5.836
   22CHL1    C6 2743   1.832   1.895   5.822
   22CHL1    H6 2744   1.771   1.895   5.914
   22CHL1    C7 2745   1.783   1.937   5.685
   22CHL1   H7A 2746   1.679   1.897   5.680
   22CHL1   H7B 2747   1.770   2.045   5.663
   22CHL1    C8 2748   1.867   1.870   5.567
   22CHL1    H8 2749   1.854   1.761   5.552
   22CHL1   C14 2750   1.837   1.937   5.429
   22CHL1   H14 2751   1.866   2.043   5.447
   22CHL1   C15 2752   1.690   1.946   5.378
   22CHL1  H15A 2753   1.643   1.847   5.391
   22CHL1  H15B 2754   1.633   2.022   5.436
   22CHL1   C16 2755   1.712   1.987   5.229
   22CHL1  H16A 2756   1.649   1.921   5.166
   22CHL1  H16B 2757   1.689   2.095   5.217
   22CHL1   C17 2758   1.862   1.961   5.190
   22CHL1   H17 2759   1.908   2.061   5.184
   22CHL1   C13 2760   1.916   1.884   5.312
   22CHL1   C18 2761   1.894   1.735   5.288
   22CHL1  H18A 2762   1.915   1.666   5.373
   22CHL1  H18B 2763   1.786   1.726   5.261
   22CHL1  H18C 2764   1.950   1.707   5.196
   22CHL1   C12 2765   2.064   1.919   5.348
   22CHL1  H12A 2766   2.129   1.887   5.264
   22CHL1  H12B 2767   2.077   2.029   5.357
   22CHL1   C11 2768   2.109   1.857   5.475
   22CHL1  H11A 2769   2.113   1.747   5.457
   22CHL1  H11B 2770   2.212   1.893   5.497
   22CHL1    C9 2771   2.015   1.891   5.594
   22CHL1    H9 2772   2.020   2.000   5.613
   22CHL1   C10 2773   2.055   1.814   5.721
   22CHL1   C19 2774   2.067   1.667   5.685
   22CHL1  H19A 2775   2.100   1.613   5.777
   22CHL1  H19B 2776   1.973   1.618   5.650
   22CHL1  H19C 2777   2.154   1.644   5.620
   22CHL1    C1 2778   2.195   1.863   5.759
   22CHL1   H1A 2779   2.281   1.836   5.693
   22CHL1   H1B 2780   2.181   1.972   5.776
   22CHL1    C2 2781   2.248   1.819   5.901
   22CHL1   H2A 2782   2.341   1.873   5.929
   22CHL1   H2B 2783   2.260   1.709   5.912
   22CHL1   C20 2784   1.873   1.907   5.049
   22CHL1   H20 2785   1.827   1.807   5.033
   22CHL1   C21 2786   2.023   1.898   5.016
   22CHL1  H21A 2787   2.055   2.003   4.998
   22CHL1  H21B 2788   2.051   1.847   4.921
   22CHL1  H21C 2789   2.089   1.844   5.087
   22CHL1   C22 2790   1.793   1.998   4.944
   22CHL1  H22A 2791   1.684   2.008   4.961
   22CHL1  H22B 2792   1.841   2.098   4.954
   22CHL1   C23 2793   1.823   1.948   4.805
   22CHL1  H23A 2794   1.931   1.944   4.780
   22CHL1  H23B 2795   1.796   1.842   4.824
   22CHL1   C24 2796   1.748   2.021   4.687
   22CHL1  H24A 2797   1.744   1.953   4.600
   22CHL1  H24B 2798   1.646   2.057   4.710
   22CHL1   C25 2799   1.830   2.146   4.659
   22CHL1   H25 2800   1.841   2.198   4.756
   22CHL1   C26 2801   1.966   2.126   4.583
   22CHL1  H26A 2802   1.943   2.076   4.487
   22CHL1  H26B 2803   2.007   2.227   4.565
   22CHL1  H26C 2804   2.035   2.066   4.647
   22CHL1   C27 2805   1.763   2.259   4.582
   22CHL1  H27A 2806   1.654   2.267   4.606
   22CHL1  H27B 2807   1.817   2.354   4.601
   22CHL1  H27C 2808   1.765   2.232   4.474
   23CHL1    C3 2809   0.851   3.578   5.759
   23CHL1    H3 2810   0.839   3.687   5.773
   23CHL1    O3 2811   0.822   3.520   5.886
   23CHL1   H3' 2812   0.899   3.540   5.940
   23CHL1    C4 2813   0.736   3.540   5.663
   23CHL1   H4A 2814   0.719   3.431   5.675
   23CHL1   H4B 2815   0.650   3.598   5.704
   23CHL1    C5 2816   0.765   3.585   5.525
   23CHL1    C6 2817   0.681   3.672   5.461
   23CHL1    H6 2818   0.591   3.705   5.517
   23CHL1    C7 2819   0.694   3.706   5.308
   23CHL1   H7A 2820   0.594   3.692   5.264
   23CHL1   H7B 2821   0.720   3.814   5.295
   23CHL1    C8 2822   0.811   3.627   5.236
   23CHL1    H8 2823   0.765   3.532   5.200
   23CHL1   C14 2824   0.860   3.699   5.114
   23CHL1   H14 2825   0.903   3.792   5.156
   23CHL1   C15 2826   0.756   3.744   5.004
   23CHL1  H15A 2827   0.683   3.666   4.976
   23CHL1  H15B 2828   0.700   3.835   5.036
   23CHL1   C16 2829   0.844   3.785   4.881
   23CHL1  H16A 2830   0.799   3.736   4.793
   23CHL1  H16B 2831   0.842   3.896   4.868
   23CHL1   C17 2832   0.990   3.732   4.918
   23CHL1   H17 2833   1.042   3.816   4.969
   23CHL1   C13 2834   0.970   3.631   5.032
   23CHL1   C18 2835   0.928   3.493   4.976
   23CHL1  H18A 2836   0.853   3.509   4.895
   23CHL1  H18B 2837   1.008   3.424   4.941
   23CHL1  H18C 2838   0.877   3.443   5.060
   23CHL1   C12 2839   1.082   3.604   5.131
   23CHL1  H12A 2840   1.160   3.549   5.074
   23CHL1  H12B 2841   1.118   3.705   5.159
   23CHL1   C11 2842   1.048   3.531   5.265
   23CHL1  H11A 2843   1.045   3.420   5.259
   23CHL1  H11B 2844   1.140   3.555   5.322
   23CHL1    C9 2845   0.928   3.595   5.334
   23CHL1    H9 2846   0.965   3.697   5.357
   23CHL1   C10 2847   0.891   3.530   5.470
   23CHL1   C19 2848   0.857   3.383   5.441
   23CHL1  H19A 2849   0.952   3.329   5.424
   23CHL1  H19B 2850   0.805   3.338   5.528
   23CHL1  H19C 2851   0.798   3.358   5.351
   23CHL1    C1 2852   1.012   3.544   5.567
   23CHL1   H1A 2853   1.086   3.468   5.531
   23CHL1   H1B 2854   1.051   3.648   5.558
   23CHL1    C2 2855   0.980   3.517   5.715
   23CHL1   H2A 2856   1.067   3.557   5.772
   23CHL1   H2B 2857   0.974   3.407   5.726
   23CHL1   C20 2858   1.079   3.704   4.796
   23CHL1   H20 2859   1.031   3.629   4.729
   23CHL1   C21 2860   1.225   3.661   4.832
   23CHL1  H21A 2861   1.246   3.722   4.922
   23CHL1  H21B 2862   1.304   3.684   4.758
   23CHL1  H21C 2863   1.229   3.551   4.848
   23CHL1   C22 2864   1.098   3.838   4.711
   23CHL1  H22A 2865   1.001   3.893   4.710
   23CHL1  H22B 2866   1.173   3.901   4.763
   23CHL1   C23 2867   1.146   3.812   4.567
   23CHL1  H23A 2868   1.242   3.759   4.586
   23CHL1  H23B 2869   1.078   3.745   4.510
   23CHL1   C24 2870   1.164   3.948   4.501
   23CHL1  H24A 2871   1.065   3.996   4.482
   23CHL1  H24B 2872   1.214   4.018   4.572
   23CHL1   C25 2873   1.248   3.943   4.368
   23CHL1   H25 2874   1.340   3.882   4.381
   23CHL1   C26 2875   1.161   3.886   4.262
   23CHL1  H26A 2876   1.144   3.777   4.273
   23CHL1  H26B 2877   1.062   3.935   4.257
   23CHL1  H26C 2878   1.212   3.887   4.163
   23CHL1   C27 2879   1.286   4.090   4.336
   23CHL1  H27A 2880   1.355   4.127   4.415
   23CHL1  H27B 2881   1.341   4.096   4.240
   23CHL1  H27C 2882   1.196   4.155   4.326
   24CHL1    C3 2883   3.009   4.679   5.975
   24CHL1    H3 2884   3.017   4.789   5.963
   24CHL1    O3 2885   2.966   4.638   6.106
   24CHL1   H3' 2886   3.012   4.555   6.123
   24CHL1    C4 2887   2.911   4.632   5.868
   24CHL1   H4A 2888   2.874   4.529   5.888
   24CHL1   H4B 2889   2.820   4.694   5.879
   24CHL1    C5 2890   2.957   4.624   5.725
   24CHL1    C6 2891   2.892   4.689   5.623
   24CHL1    H6 2892   2.802   4.748   5.646
   24CHL1    C7 2893   2.934   4.698   5.482
   24CHL1   H7A 2894   2.849   4.676   5.415
   24CHL1   H7B 2895   2.979   4.796   5.454
   24CHL1    C8 2896   3.052   4.601   5.460
   24CHL1    H8 2897   3.001   4.502   5.462
   24CHL1   C14 2898   3.131   4.617   5.330
   24CHL1   H14 2899   3.189   4.711   5.337
   24CHL1   C15 2900   3.047   4.634   5.202
   24CHL1  H15A 2901   2.968   4.556   5.198
   24CHL1  H15B 2902   2.998   4.734   5.201
   24CHL1   C16 2903   3.150   4.612   5.088
   24CHL1  H16A 2904   3.109   4.541   5.013
   24CHL1  H16B 2905   3.187   4.705   5.039
   24CHL1   C17 2906   3.284   4.555   5.159
   24CHL1   H17 2907   3.347   4.645   5.175
   24CHL1   C13 2908   3.235   4.515   5.296
   24CHL1   C18 2909   3.176   4.369   5.285
   24CHL1  H18A 2910   3.113   4.356   5.195
   24CHL1  H18B 2911   3.267   4.305   5.291
   24CHL1  H18C 2912   3.116   4.336   5.373
   24CHL1   C12 2913   3.342   4.514   5.403
   24CHL1  H12A 2914   3.424   4.438   5.403
   24CHL1  H12B 2915   3.385   4.616   5.403
   24CHL1   C11 2916   3.283   4.504   5.542
   24CHL1  H11A 2917   3.247   4.399   5.542
   24CHL1  H11B 2918   3.365   4.523   5.614
   24CHL1    C9 2919   3.155   4.602   5.575
   24CHL1    H9 2920   3.197   4.705   5.578
   24CHL1   C10 2921   3.099   4.574   5.710
   24CHL1   C19 2922   3.093   4.418   5.732
   24CHL1  H19A 2923   3.192   4.367   5.730
   24CHL1  H19B 2924   3.041   4.395   5.828
   24CHL1  H19C 2925   3.022   4.376   5.659
   24CHL1    C1 2926   3.198   4.634   5.806
   24CHL1   H1A 2927   3.300   4.591   5.794
   24CHL1   H1B 2928   3.206   4.742   5.780
   24CHL1    C2 2929   3.149   4.622   5.948
   24CHL1   H2A 2930   3.224   4.679   6.007
   24CHL1   H2B 2931   3.150   4.515   5.981
   24CHL1   C20 2932   3.377   4.456   5.078
   24CHL1   H20 2933   3.365   4.353   5.117
   24CHL1   C21 2934   3.524   4.488   5.117
   24CHL1  H21A 2935   3.583   4.402   5.078
   24CHL1  H21B 2936   3.536   4.494   5.227
   24CHL1  H21C 2937   3.557   4.585   5.073
   24CHL1   C22 2938   3.349   4.451   4.931
   24CHL1  H22A 2939   3.242   4.423   4.921
   24CHL1  H22B 2940   3.377   4.548   4.885
   24CHL1   C23 2941   3.427   4.341   4.847
   24CHL1  H23A 2942   3.536   4.361   4.859
   24CHL1  H23B 2943   3.411   4.238   4.884
   24CHL1   C24 2944   3.400   4.346   4.696
   24CHL1  H24A 2945   3.296   4.318   4.671
   24CHL1  H24B 2946   3.422   4.452   4.669
   24CHL1   C25 2947   3.512   4.282   4.621
   24CHL1   H25 2948   3.607   4.317   4.666
   24CHL1   C26 2949   3.522   4.131   4.649
   24CHL1  H26A 2950   3.423   4.084   4.628
   24CHL1  H26B 2951   3.598   4.083   4.584
   24CHL1  H26C 2952   3.533   4.109   4.758
   24CHL1   C27 2953   3.510   4.309   4.465
   24CHL1  H27A 2954   3.514   4.418   4.446
   24CHL1  H27B 2955   3.588   4.248   4.415
   24CHL1  H27C 2956   3.414   4.272   4.421
   25CHL1    C3 2957   6.053   5.832   5.821
   25CHL1    H3 2958   6.131   5.910   5.825
   25CHL1    O3 2959   6.017   5.805   5.958
   25CHL1   H3' 2960   5.943   5.745   5.944
   25CHL1    C4 2961   5.923   5.864   5.750
   25CHL1   H4A 2962   5.855   5.778   5.768
   25CHL1   H4B 2963   5.884   5.950   5.809
   25CHL1    C5 2964   5.933   5.893   5.599
   25CHL1    C6 2965   5.880   6.008   5.543
   25CHL1    H6 2966   5.822   6.087   5.592
   25CHL1    C7 2967   5.891   6.037   5.399
   25CHL1   H7A 2968   5.789   6.068   5.371
   25CHL1   H7B 2969   5.959   6.124   5.390
   25CHL1    C8 2970   5.936   5.922   5.311
   25CHL1    H8 2971   5.851   5.856   5.284
   25CHL1   C14 2972   5.996   5.987   5.186
   25CHL1   H14 2973   6.074   6.061   5.214
   25CHL1   C15 2974   5.896   6.083   5.113
   25CHL1  H15A 2975   5.811   6.015   5.092
   25CHL1  H15B 2976   5.861   6.171   5.171
   25CHL1   C16 2977   5.966   6.105   4.978
   25CHL1  H16A 2978   5.889   6.092   4.899
   25CHL1  H16B 2979   6.015   6.204   4.972
   25CHL1   C17 2980   6.076   5.997   4.973
   25CHL1   H17 2981   6.170   6.041   5.012
   25CHL1   C13 2982   6.056   5.890   5.084
   25CHL1   C18 2983   5.953   5.793   5.026
   25CHL1  H18A 2984   5.907   5.721   5.097
   25CHL1  H18B 2985   5.876   5.852   4.972
   25CHL1  H18C 2986   5.998   5.730   4.947
   25CHL1   C12 2987   6.168   5.818   5.156
   25CHL1  H12A 2988   6.213   5.736   5.096
   25CHL1  H12B 2989   6.245   5.895   5.179
   25CHL1   C11 2990   6.120   5.752   5.282
   25CHL1  H11A 2991   6.046   5.671   5.263
   25CHL1  H11B 2992   6.204   5.698   5.331
   25CHL1    C9 2993   6.052   5.845   5.381
   25CHL1    H9 2994   6.123   5.928   5.398
   25CHL1   C10 2995   6.016   5.788   5.522
   25CHL1   C19 2996   5.918   5.668   5.507
   25CHL1  H19A 2997   5.839   5.696   5.435
   25CHL1  H19B 2998   5.976   5.586   5.460
   25CHL1  H19C 2999   5.878   5.635   5.606
   25CHL1    C1 3000   6.142   5.753   5.603
   25CHL1   H1A 3001   6.198   5.676   5.546
   25CHL1   H1B 3002   6.209   5.842   5.603
   25CHL1    C2 3003   6.116   5.713   5.760
   25CHL1   H2A 3004   6.217   5.692   5.802
   25CHL1   H2B 3005   6.048   5.626   5.769
   25CHL1   C20 3006   6.106   5.949   4.826
   25CHL1   H20 3007   6.017   5.889   4.797
   25CHL1   C21 3008   6.230   5.863   4.836
   25CHL1  H21A 3009   6.205   5.763   4.878
   25CHL1  H21B 3010   6.312   5.912   4.892
   25CHL1  H21C 3011   6.270   5.837   4.736
   25CHL1   C22 3012   6.120   6.068   4.734
   25CHL1  H22A 3013   6.108   6.033   4.629
   25CHL1  H22B 3014   6.035   6.135   4.755
   25CHL1   C23 3015   6.243   6.164   4.754
   25CHL1  H23A 3016   6.256   6.179   4.864
   25CHL1  H23B 3017   6.328   6.104   4.714
   25CHL1   C24 3018   6.230   6.305   4.679
   25CHL1  H24A 3019   6.178   6.267   4.588
   25CHL1  H24B 3020   6.158   6.358   4.744
   25CHL1   C25 3021   6.358   6.377   4.665
   25CHL1   H25 3022   6.408   6.393   4.763
   25CHL1   C26 3023   6.461   6.301   4.576
   25CHL1  H26A 3024   6.507   6.207   4.613
   25CHL1  H26B 3025   6.420   6.276   4.475
   25CHL1  H26C 3026   6.547   6.369   4.563
   25CHL1   C27 3027   6.328   6.518   4.611
   25CHL1  H27A 3028   6.414   6.585   4.633
   25CHL1  H27B 3029   6.307   6.507   4.502
   25CHL1  H27C 3030   6.234   6.560   4.652
   26CHL1    C3 3031   3.583   3.327   6.135
   26CHL1    H3 3032   3.555   3.431   6.110
   26CHL1    O3 3033   3.585   3.306   6.277
   26CHL1   H3' 3034   3.507   3.353   6.309
   26CHL1    C4 3035   3.488   3.222   6.086
   26CHL1   H4A 3036   3.514   3.118   6.116
   26CHL1   H4B 3037   3.391   3.240   6.137
   26CHL1    C5 3038   3.500   3.215   5.935
   26CHL1    C6 3039   3.383   3.234   5.873
   26CHL1    H6 3040   3.292   3.250   5.933
   26CHL1    C7 3041   3.368   3.240   5.719
   26CHL1   H7A 3042   3.290   3.162   5.706
   26CHL1   H7B 3043   3.331   3.337   5.680
   26CHL1    C8 3044   3.496   3.195   5.652
   26CHL1    H8 3045   3.492   3.084   5.646
   26CHL1   C14 3046   3.488   3.243   5.505
   26CHL1   H14 3047   3.478   3.353   5.513
   26CHL1   C15 3048   3.370   3.192   5.423
   26CHL1  H15A 3049   3.367   3.082   5.442
   26CHL1  H15B 3050   3.276   3.236   5.460
   26CHL1   C16 3051   3.416   3.225   5.278
   26CHL1  H16A 3052   3.413   3.130   5.219
   26CHL1  H16B 3053   3.348   3.301   5.234
   26CHL1   C17 3054   3.566   3.273   5.284
   26CHL1   H17 3055   3.562   3.382   5.306
   26CHL1   C13 3056   3.616   3.218   5.419
   26CHL1   C18 3057   3.637   3.064   5.398
   26CHL1  H18A 3058   3.661   3.008   5.491
   26CHL1  H18B 3059   3.552   3.018   5.343
   26CHL1  H18C 3060   3.730   3.044   5.341
   26CHL1   C12 3061   3.733   3.291   5.488
   26CHL1  H12A 3062   3.828   3.296   5.431
   26CHL1  H12B 3063   3.706   3.398   5.503
   26CHL1   C11 3064   3.753   3.241   5.630
   26CHL1  H11A 3065   3.767   3.132   5.618
   26CHL1  H11B 3066   3.851   3.270   5.675
   26CHL1    C9 3067   3.620   3.258   5.714
   26CHL1    H9 3068   3.604   3.368   5.713
   26CHL1   C10 3069   3.640   3.221   5.863
   26CHL1   C19 3070   3.702   3.076   5.868
   26CHL1  H19A 3071   3.662   2.991   5.808
   26CHL1  H19B 3072   3.805   3.084   5.829
   26CHL1  H19C 3073   3.706   3.054   5.977
   26CHL1    C1 3074   3.736   3.323   5.935
   26CHL1   H1A 3075   3.843   3.312   5.910
   26CHL1   H1B 3076   3.702   3.426   5.910
   26CHL1    C2 3077   3.734   3.308   6.092
   26CHL1   H2A 3078   3.806   3.373   6.146
   26CHL1   H2B 3079   3.768   3.210   6.130
   26CHL1   C20 3080   3.640   3.248   5.148
   26CHL1   H20 3081   3.627   3.147   5.103
   26CHL1   C21 3082   3.795   3.262   5.170
   26CHL1  H21A 3083   3.842   3.195   5.245
   26CHL1  H21B 3084   3.810   3.365   5.208
   26CHL1  H21C 3085   3.847   3.234   5.075
   26CHL1   C22 3086   3.595   3.340   5.036
   26CHL1  H22A 3087   3.489   3.316   5.010
   26CHL1  H22B 3088   3.591   3.449   5.059
   26CHL1   C23 3089   3.685   3.328   4.908
   26CHL1  H23A 3090   3.778   3.387   4.922
   26CHL1  H23B 3091   3.709   3.220   4.899
   26CHL1   C24 3092   3.605   3.372   4.784
   26CHL1  H24A 3093   3.514   3.308   4.783
   26CHL1  H24B 3094   3.570   3.478   4.790
   26CHL1   C25 3095   3.682   3.353   4.659
   26CHL1   H25 3096   3.748   3.264   4.659
   26CHL1   C26 3097   3.588   3.339   4.542
   26CHL1  H26A 3098   3.499   3.404   4.551
   26CHL1  H26B 3099   3.641   3.379   4.452
   26CHL1  H26C 3100   3.565   3.232   4.521
   26CHL1   C27 3101   3.774   3.477   4.631
   26CHL1  H27A 3102   3.704   3.562   4.616
   26CHL1  H27B 3103   3.830   3.486   4.726
   26CHL1  H27C 3104   3.849   3.460   4.550
   27CHL1    C3 3105   6.745   2.427   6.081
   27CHL1    H3 3106   6.644   2.463   6.052
   27CHL1    O3 3107   6.744   2.385   6.213
   27CHL1   H3' 3108   0.032   2.336   6.230
   27CHL1    C4 3109   0.001   2.311   5.986
   27CHL1   H4A 3110   0.090   2.266   6.035
   27CHL1   H4B 3111   6.720   2.229   5.997
   27CHL1    C5 3112   0.030   2.354   5.841
   27CHL1    C6 3113   6.765   2.299   5.729
   27CHL1    H6 3114   6.693   2.217   5.744
   27CHL1    C7 3115   6.791   2.334   5.588
   27CHL1   H7A 3116   6.785   2.256   5.510
   27CHL1   H7B 3117   6.714   2.410   5.562
   27CHL1    C8 3118   0.133   2.415   5.568
   27CHL1    H8 3119   0.224   2.353   5.581
   27CHL1   C14 3120   0.138   2.477   5.433
   27CHL1   H14 3121   0.051   2.546   5.432
   27CHL1   C15 3122   0.130   2.376   5.306
   27CHL1  H15A 3123   0.190   2.284   5.326
   27CHL1  H15B 3124   0.021   2.357   5.293
   27CHL1   C16 3125   0.183   2.459   5.189
   27CHL1  H16A 3126   0.269   2.401   5.149
   27CHL1  H16B 3127   0.106   2.487   5.113
   27CHL1   C17 3128   0.235   2.595   5.251
   27CHL1   H17 3129   0.143   2.656   5.241
   27CHL1   C13 3130   0.260   2.566   5.404
   27CHL1   C18 3131   0.388   2.482   5.414
   27CHL1  H18A 3132   0.476   2.550   5.415
   27CHL1  H18B 3133   0.406   2.427   5.508
   27CHL1  H18C 3134   0.393   2.418   5.323
   27CHL1   C12 3135   0.259   2.681   5.503
   27CHL1  H12A 3136   0.345   2.751   5.497
   27CHL1  H12B 3137   0.164   2.737   5.504
   27CHL1   C11 3138   0.257   2.626   5.647
   27CHL1  H11A 3139   0.356   2.584   5.673
   27CHL1  H11B 3140   0.249   2.712   5.717
   27CHL1    C9 3141   0.141   2.519   5.676
   27CHL1    H9 3142   0.046   2.577   5.669
   27CHL1   C10 3143   0.130   2.474   5.825
   27CHL1   C19 3144   0.266   2.414   5.880
   27CHL1  H19A 3145   0.341   2.496   5.883
   27CHL1  H19B 3146   0.260   2.366   5.980
   27CHL1  H19C 3147   0.314   2.342   5.810
   27CHL1    C1 3148   0.069   2.585   5.916
   27CHL1   H1A 3149   0.144   2.667   5.908
   27CHL1   H1B 3150   6.765   2.612   5.870
   27CHL1    C2 3151   0.048   2.544   6.065
   27CHL1   H2A 3152   0.014   2.631   6.125
   27CHL1   H2B 3153   0.147   2.520   6.108
   27CHL1   C20 3154   0.345   2.665   5.170
   27CHL1   H20 3155   0.446   2.624   5.193
   27CHL1   C21 3156   0.341   2.823   5.198
   27CHL1  H21A 3157   0.426   2.883   5.159
   27CHL1  H21B 3158   0.357   2.829   5.308
   27CHL1  H21C 3159   0.248   2.875   5.166
   27CHL1   C22 3160   0.327   2.643   5.015
   27CHL1  H22A 3161   0.362   2.539   4.996
   27CHL1  H22B 3162   0.220   2.654   4.987
   27CHL1   C23 3163   0.415   2.722   4.923
   27CHL1  H23A 3164   0.402   2.832   4.933
   27CHL1  H23B 3165   0.522   2.699   4.937
   27CHL1   C24 3166   0.378   2.697   4.782
   27CHL1  H24A 3167   0.400   2.591   4.757
   27CHL1  H24B 3168   0.270   2.722   4.780
   27CHL1   C25 3169   0.452   2.783   4.673
   27CHL1   H25 3170   0.422   2.743   4.574
   27CHL1   C26 3171   0.419   2.932   4.683
   27CHL1  H26A 3172   0.427   2.989   4.588
   27CHL1  H26B 3173   0.313   2.944   4.716
   27CHL1  H26C 3174   0.482   2.976   4.763
   27CHL1   C27 3175   0.603   2.756   4.671
   27CHL1  H27A 3176   0.643   2.792   4.768
   27CHL1  H27B 3177   0.649   2.814   4.588
   27CHL1  H27C 3178   0.640   2.652   4.657
   28CHL1    C3 3179   4.958   2.055   6.076
   28CHL1    H3 3180   4.916   2.156   6.058
   28CHL1    O3 3181   4.940   2.022   6.210
   28CHL1   H3' 3182   4.960   1.928   6.214
   28CHL1    C4 3183   4.866   1.962   5.982
   28CHL1   H4A 3184   4.880   1.854   6.006
   28CHL1   H4B 3185   4.761   1.987   6.009
   28CHL1    C5 3186   4.894   1.980   5.836
   28CHL1    C6 3187   4.799   2.016   5.755
   28CHL1    H6 3188   4.698   2.012   5.797
   28CHL1    C7 3189   4.824   2.017   5.607
   28CHL1   H7A 3190   4.749   1.959   5.549
   28CHL1   H7B 3191   4.818   2.125   5.583
   28CHL1    C8 3192   4.956   1.961   5.554
   28CHL1    H8 3193   4.956   1.850   5.550
   28CHL1   C14 3194   4.987   2.013   5.407
   28CHL1   H14 3195   5.001   2.122   5.419
   28CHL1   C15 3196   4.881   1.995   5.306
   28CHL1  H15A 3197   4.832   1.895   5.308
   28CHL1  H15B 3198   4.793   2.057   5.332
   28CHL1   C16 3199   4.955   2.020   5.179
   28CHL1  H16A 3200   4.924   1.937   5.112
   28CHL1  H16B 3201   4.932   2.118   5.132
   28CHL1   C17 3202   5.108   2.008   5.207
   28CHL1   H17 3203   5.146   2.110   5.227
   28CHL1   C13 3204   5.112   1.946   5.351
   28CHL1   C18 3205   5.116   1.793   5.347
   28CHL1  H18A 3206   5.149   1.746   5.442
   28CHL1  H18B 3207   5.020   1.744   5.321
   28CHL1  H18C 3208   5.197   1.759   5.278
   28CHL1   C12 3209   5.235   1.998   5.439
   28CHL1  H12A 3210   5.332   1.959   5.400
   28CHL1  H12B 3211   5.238   2.109   5.429
   28CHL1   C11 3212   5.214   1.969   5.595
   28CHL1  H11A 3213   5.229   1.859   5.608
   28CHL1  H11B 3214   5.295   2.020   5.651
   28CHL1    C9 3215   5.069   2.006   5.643
   28CHL1    H9 3216   5.073   2.117   5.638
   28CHL1   C10 3217   5.037   1.967   5.793
   28CHL1   C19 3218   5.077   1.817   5.823
   28CHL1  H19A 3219   5.056   1.781   5.926
   28CHL1  H19B 3220   5.026   1.753   5.747
   28CHL1  H19C 3221   5.187   1.808   5.808
   28CHL1    C1 3222   5.129   2.055   5.883
   28CHL1   H1A 3223   5.232   2.028   5.853
   28CHL1   H1B 3224   5.120   2.163   5.857
   28CHL1    C2 3225   5.111   2.035   6.037
   28CHL1   H2A 3226   5.173   2.104   6.098
   28CHL1   H2B 3227   5.139   1.929   6.054
   28CHL1   C20 3228   5.192   1.958   5.089
   28CHL1   H20 3229   5.169   1.853   5.062
   28CHL1   C21 3230   5.351   1.962   5.116
   28CHL1  H21A 3231   5.401   1.903   5.036
   28CHL1  H21B 3232   5.377   1.905   5.208
   28CHL1  H21C 3233   5.388   2.065   5.101
   28CHL1   C22 3234   5.148   2.020   4.957
   28CHL1  H22A 3235   5.046   1.988   4.930
   28CHL1  H22B 3236   5.138   2.129   4.974
   28CHL1   C23 3237   5.237   1.992   4.836
   28CHL1  H23A 3238   5.325   2.056   4.859
   28CHL1  H23B 3239   5.258   1.883   4.840
   28CHL1   C24 3240   5.188   2.039   4.703
   28CHL1  H24A 3241   5.104   1.978   4.663
   28CHL1  H24B 3242   5.150   2.143   4.715
   28CHL1   C25 3243   5.304   2.048   4.601
   28CHL1   H25 3244   5.383   2.115   4.641
   28CHL1   C26 3245   5.364   1.914   4.581
   28CHL1  H26A 3246   5.454   1.924   4.516
   28CHL1  H26B 3247   5.394   1.866   4.677
   28CHL1  H26C 3248   5.290   1.847   4.531
   28CHL1   C27 3249   5.256   2.103   4.466
   28CHL1  H27A 3250   5.196   2.027   4.413
   28CHL1  H27B 3251   5.193   2.193   4.479
   28CHL1  H27C 3252   5.336   2.131   4.395
   29CHL1    C3 3253   2.320   3.796   6.202
   29CHL1    H3 3254   2.388   3.709   6.206
   29CHL1    O3 3255   2.281   3.834   6.335
   29CHL1   H3' 3256   2.250   3.924   6.326
   29CHL1    C4 3257   2.387   3.923   6.143
   29CHL1   H4A 3258   2.325   4.015   6.147
   29CHL1   H4B 3259   2.477   3.947   6.205
   29CHL1    C5 3260   2.429   3.906   6.002
   29CHL1    C6 3261   2.558   3.931   5.961
   29CHL1    H6 3262   2.629   3.976   6.031
   29CHL1    C7 3263   2.605   3.909   5.819
   29CHL1   H7A 3264   2.660   4.002   5.793
   29CHL1   H7B 3265   2.684   3.830   5.820
   29CHL1    C8 3266   2.498   3.884   5.716
   29CHL1    H8 3267   2.466   3.987   5.689
   29CHL1   C14 3268   2.553   3.836   5.580
   29CHL1   H14 3269   2.593   3.732   5.592
   29CHL1   C15 3270   2.669   3.907   5.510
   29CHL1  H15A 3271   2.645   4.015   5.517
   29CHL1  H15B 3272   2.772   3.888   5.548
   29CHL1   C16 3273   2.652   3.860   5.360
   29CHL1  H16A 3274   2.647   3.952   5.299
   29CHL1  H16B 3275   2.744   3.804   5.331
   29CHL1   C17 3276   2.526   3.763   5.349
   29CHL1   H17 3277   2.571   3.667   5.380
   29CHL1   C13 3278   2.442   3.818   5.473
   29CHL1   C18 3279   2.368   3.948   5.431
   29CHL1  H18A 3280   2.354   4.016   5.517
   29CHL1  H18B 3281   2.431   4.012   5.366
   29CHL1  H18C 3282   2.266   3.927   5.393
   29CHL1   C12 3283   2.341   3.722   5.529
   29CHL1  H12A 3284   2.256   3.704   5.459
   29CHL1  H12B 3285   2.391   3.626   5.549
   29CHL1   C11 3286   2.277   3.765   5.662
   29CHL1  H11A 3287   2.217   3.857   5.644
   29CHL1  H11B 3288   2.213   3.680   5.693
   29CHL1    C9 3289   2.382   3.798   5.770
   29CHL1    H9 3290   2.430   3.701   5.797
   29CHL1   C10 3291   2.320   3.849   5.904
   29CHL1   C19 3292   2.215   3.962   5.885
   29CHL1  H19A 3293   2.254   4.058   5.846
   29CHL1  H19B 3294   2.130   3.929   5.822
   29CHL1  H19C 3295   2.176   3.988   5.986
   29CHL1    C1 3296   2.242   3.731   5.973
   29CHL1   H1A 3297   2.155   3.713   5.906
   29CHL1   H1B 3298   2.305   3.640   5.964
   29CHL1    C2 3299   2.202   3.755   6.119
   29CHL1   H2A 3300   2.150   3.665   6.159
   29CHL1   H2B 3301   2.127   3.837   6.114
   29CHL1   C20 3302   2.458   3.746   5.213
   29CHL1   H20 3303   2.412   3.841   5.178
   29CHL1   C21 3304   2.349   3.634   5.215
   29CHL1  H21A 3305   2.259   3.665   5.272
   29CHL1  H21B 3306   2.381   3.539   5.262
   29CHL1  H21C 3307   2.322   3.620   5.108
   29CHL1   C22 3308   2.571   3.718   5.106
   29CHL1  H22A 3309   2.670   3.768   5.113
   29CHL1  H22B 3310   2.597   3.611   5.115
   29CHL1   C23 3311   2.535   3.720   4.953
   29CHL1  H23A 3312   2.620   3.691   4.889
   29CHL1  H23B 3313   2.457   3.644   4.935
   29CHL1   C24 3314   2.496   3.868   4.910
   29CHL1  H24A 3315   2.395   3.898   4.945
   29CHL1  H24B 3316   2.562   3.937   4.968
   29CHL1   C25 3317   2.510   3.888   4.759
   29CHL1   H25 3318   2.613   3.862   4.724
   29CHL1   C26 3319   2.417   3.798   4.681
   29CHL1  H26A 3320   2.461   3.697   4.693
   29CHL1  H26B 3321   2.315   3.798   4.724
   29CHL1  H26C 3322   2.413   3.821   4.572
   29CHL1   C27 3323   2.485   4.037   4.724
   29CHL1  H27A 3324   2.578   4.098   4.737
   29CHL1  H27B 3325   2.460   4.046   4.616
   29CHL1  H27C 3326   2.400   4.069   4.788
   30CHL1    C3 3327   2.744   3.640   6.219
   30CHL1    H3 3328   2.660   3.704   6.184
   30CHL1    O3 3329   2.735   3.652   6.361
   30CHL1   H3' 3330   2.776   3.736   6.386
   30CHL1    C4 3331   2.726   3.492   6.179
   30CHL1   H4A 3332   2.820   3.452   6.223
   30CHL1   H4B 3333   2.647   3.439   6.236
   30CHL1    C5 3334   2.733   3.476   6.025
   30CHL1    C6 3335   2.635   3.429   5.948
   30CHL1    H6 3336   2.543   3.393   5.997
   30CHL1    C7 3337   2.645   3.438   5.801
   30CHL1   H7A 3338   2.602   3.339   5.774
   30CHL1   H7B 3339   2.575   3.506   5.748
   30CHL1    C8 3340   2.785   3.452   5.740
   30CHL1    H8 3341   2.851   3.366   5.763
   30CHL1   C14 3342   2.784   3.466   5.587
   30CHL1   H14 3343   2.725   3.558   5.566
   30CHL1   C15 3344   2.721   3.359   5.506
   30CHL1  H15A 3345   2.744   3.257   5.543
   30CHL1  H15B 3346   2.612   3.381   5.504
   30CHL1   C16 3347   2.787   3.373   5.369
   30CHL1  H16A 3348   2.836   3.275   5.353
   30CHL1  H16B 3349   2.701   3.381   5.298
   30CHL1   C17 3350   2.884   3.488   5.379
   30CHL1   H17 3351   2.821   3.577   5.355
   30CHL1   C13 3352   2.921   3.490   5.526
   30CHL1   C18 3353   3.023   3.375   5.555
   30CHL1  H18A 3354   2.999   3.288   5.489
   30CHL1  H18B 3355   3.124   3.406   5.522
   30CHL1  H18C 3356   3.029   3.341   5.660
   30CHL1   C12 3357   2.981   3.622   5.587
   30CHL1  H12A 3358   3.083   3.626   5.543
   30CHL1  H12B 3359   2.920   3.710   5.559
   30CHL1   C11 3360   2.991   3.618   5.740
   30CHL1  H11A 3361   3.078   3.557   5.772
   30CHL1  H11B 3362   3.016   3.725   5.759
   30CHL1    C9 3363   2.856   3.572   5.813
   30CHL1    H9 3364   2.788   3.659   5.802
   30CHL1   C10 3365   2.866   3.555   5.967
   30CHL1   C19 3366   2.992   3.477   6.002
   30CHL1  H19A 3367   3.089   3.525   5.978
   30CHL1  H19B 3368   2.992   3.471   6.113
   30CHL1  H19C 3369   3.000   3.374   5.960
   30CHL1    C1 3370   2.888   3.697   6.027
   30CHL1   H1A 3371   2.995   3.723   6.011
   30CHL1   H1B 3372   2.831   3.786   5.992
   30CHL1    C2 3373   2.876   3.695   6.173
   30CHL1   H2A 3374   2.884   3.803   6.198
   30CHL1   H2B 3375   2.954   3.636   6.227
   30CHL1   C20 3376   2.997   3.499   5.287
   30CHL1   H20 3377   3.097   3.465   5.322
   30CHL1   C21 3378   3.019   3.650   5.241
   30CHL1  H21A 3379   3.038   3.705   5.335
   30CHL1  H21B 3380   2.933   3.700   5.191
   30CHL1  H21C 3381   3.102   3.654   5.167
   30CHL1   C22 3382   2.979   3.397   5.171
   30CHL1  H22A 3383   2.980   3.292   5.206
   30CHL1  H22B 3384   2.885   3.400   5.111
   30CHL1   C23 3385   3.084   3.405   5.059
   30CHL1  H23A 3386   3.070   3.503   5.009
   30CHL1  H23B 3387   3.182   3.416   5.109
   30CHL1   C24 3388   3.095   3.283   4.960
   30CHL1  H24A 3389   3.111   3.191   5.019
   30CHL1  H24B 3390   2.998   3.274   4.907
   30CHL1   C25 3391   3.218   3.290   4.860
   30CHL1   H25 3392   3.298   3.343   4.916
   30CHL1   C26 3393   3.276   3.152   4.838
   30CHL1  H26A 3394   3.317   3.108   4.931
   30CHL1  H26B 3395   3.194   3.086   4.802
   30CHL1  H26C 3396   3.360   3.156   4.766
   30CHL1   C27 3397   3.185   3.364   4.727
   30CHL1  H27A 3398   3.150   3.467   4.751
   30CHL1  H27B 3399   3.267   3.378   4.654
   30CHL1  H27C 3400   3.101   3.309   4.678
   31CHL1    C3 3401   1.706   4.136   5.789
   31CHL1    H3 3402   1.624   4.077   5.743
   31CHL1    O3 3403   1.680   4.162   5.925
   31CHL1   H3' 3404   1.683   4.075   5.967
   31CHL1    C4 3405   1.845   4.070   5.775
   31CHL1   H4A 3406   1.919   4.141   5.816
   31CHL1   H4B 3407   1.845   3.972   5.828
   31CHL1    C5 3408   1.887   4.052   5.629
   31CHL1    C6 3409   1.921   3.929   5.579
   31CHL1    H6 3410   1.930   3.846   5.651
   31CHL1    C7 3411   1.964   3.910   5.439
   31CHL1   H7A 3412   2.063   3.858   5.445
   31CHL1   H7B 3413   1.891   3.850   5.381
   31CHL1    C8 3414   1.985   4.045   5.353
   31CHL1    H8 3415   2.086   4.088   5.369
   31CHL1   C14 3416   1.971   4.014   5.203
   31CHL1   H14 3417   1.867   3.984   5.176
   31CHL1   C15 3418   2.062   3.899   5.153
   31CHL1  H15A 3419   2.170   3.914   5.174
   31CHL1  H15B 3420   2.035   3.795   5.180
   31CHL1   C16 3421   2.052   3.923   4.997
   31CHL1  H16A 3422   2.152   3.918   4.949
   31CHL1  H16B 3423   1.995   3.844   4.944
   31CHL1   C17 3424   1.986   4.061   4.971
   31CHL1   H17 3425   1.878   4.045   4.952
   31CHL1   C13 3426   1.994   4.134   5.113
   31CHL1   C18 3427   2.135   4.192   5.134
   31CHL1  H18A 3428   2.158   4.287   5.082
   31CHL1  H18B 3429   2.134   4.214   5.243
   31CHL1  H18C 3430   2.216   4.121   5.108
   31CHL1   C12 3431   1.884   4.225   5.147
   31CHL1  H12A 3432   1.892   4.320   5.090
   31CHL1  H12B 3433   1.784   4.187   5.117
   31CHL1   C11 3434   1.893   4.268   5.293
   31CHL1  H11A 3435   1.982   4.330   5.315
   31CHL1  H11B 3436   1.800   4.324   5.317
   31CHL1    C9 3437   1.880   4.149   5.389
   31CHL1    H9 3438   1.785   4.095   5.370
   31CHL1   C10 3439   1.878   4.175   5.539
   31CHL1   C19 3440   2.000   4.263   5.566
   31CHL1  H19A 3441   2.098   4.229   5.529
   31CHL1  H19B 3442   1.987   4.359   5.512
   31CHL1  H19C 3443   1.997   4.293   5.673
   31CHL1    C1 3444   1.748   4.250   5.570
   31CHL1   H1A 3445   1.740   4.353   5.527
   31CHL1   H1B 3446   1.664   4.197   5.521
   31CHL1    C2 3447   1.716   4.268   5.721
   31CHL1   H2A 3448   1.618   4.320   5.725
   31CHL1   H2B 3449   1.793   4.333   5.766
   31CHL1   C20 3450   2.025   4.141   4.842
   31CHL1   H20 3451   2.129   4.170   4.864
   31CHL1   C21 3452   1.951   4.276   4.834
   31CHL1  H21A 3453   1.842   4.264   4.848
   31CHL1  H21B 3454   1.960   4.323   4.734
   31CHL1  H21C 3455   2.006   4.340   4.907
   31CHL1   C22 3456   2.028   4.054   4.713
   31CHL1  H22A 3457   2.085   3.962   4.738
   31CHL1  H22B 3458   1.925   4.022   4.688
   31CHL1   C23 3459   2.089   4.110   4.584
   31CHL1  H23A 3460   2.044   4.208   4.557
   31CHL1  H23B 3461   2.198   4.126   4.588
   31CHL1   C24 3462   2.073   4.018   4.464
   31CHL1  H24A 3463   2.111   3.916   4.485
   31CHL1  H24B 3464   1.966   4.004   4.439
   31CHL1   C25 3465   2.150   4.061   4.330
   31CHL1   H25 3466   2.122   3.978   4.262
   31CHL1   C26 3467   2.097   4.197   4.289
   31CHL1  H26A 3468   1.992   4.211   4.321
   31CHL1  H26B 3469   2.162   4.275   4.333
   31CHL1  H26C 3470   2.102   4.225   4.181
   31CHL1   C27 3471   2.302   4.063   4.343
   31CHL1  H27A 3472   2.348   3.967   4.377
   31CHL1  H27B 3473   2.348   4.093   4.246
   31CHL1  H27C 3474   2.335   4.149   4.405
   32CHL1    C3 3475   2.004   2.207   6.042
   32CHL1    H3 3476   1.979   2.108   6.000
   32CHL1    O3 3477   2.033   2.198   6.183
   32CHL1   H3' 3478   1.982   2.266   6.229
   32CHL1    C4 3479   2.125   2.263   5.975
   32CHL1   H4A 3480   2.151   2.356   6.030
   32CHL1   H4B 3481   2.206   2.189   5.991
   32CHL1    C5 3482   2.099   2.302   5.834
   32CHL1    C6 3483   2.189   2.276   5.744
   32CHL1    H6 3484   2.281   2.232   5.787
   32CHL1    C7 3485   2.185   2.304   5.597
   32CHL1   H7A 3486   2.279   2.352   5.563
   32CHL1   H7B 3487   2.178   2.206   5.545
   32CHL1    C8 3488   2.059   2.380   5.551
   32CHL1    H8 3489   2.090   2.487   5.561
   32CHL1   C14 3490   2.012   2.359   5.409
   32CHL1   H14 3491   1.993   2.250   5.400
   32CHL1   C15 3492   2.120   2.366   5.299
   32CHL1  H15A 3493   2.182   2.454   5.325
   32CHL1  H15B 3494   2.189   2.280   5.296
   32CHL1   C16 3495   2.033   2.386   5.174
   32CHL1  H16A 3496   2.062   2.485   5.133
   32CHL1  H16B 3497   2.054   2.306   5.099
   32CHL1   C17 3498   1.879   2.388   5.219
   32CHL1   H17 3499   1.849   2.282   5.210
   32CHL1   C13 3500   1.894   2.433   5.366
   32CHL1   C18 3501   1.917   2.585   5.368
   32CHL1  H18A 3502   1.959   2.610   5.468
   32CHL1  H18B 3503   1.981   2.618   5.284
   32CHL1  H18C 3504   1.819   2.636   5.370
   32CHL1   C12 3505   1.773   2.400   5.458
   32CHL1  H12A 3506   1.682   2.457   5.431
   32CHL1  H12B 3507   1.751   2.294   5.437
   32CHL1   C11 3508   1.806   2.426   5.606
   32CHL1  H11A 3509   1.805   2.536   5.623
   32CHL1  H11B 3510   1.727   2.383   5.671
   32CHL1    C9 3511   1.932   2.351   5.645
   32CHL1    H9 3512   1.916   2.243   5.626
   32CHL1   C10 3513   1.965   2.363   5.795
   32CHL1   C19 3514   1.995   2.509   5.840
   32CHL1  H19A 3515   1.902   2.569   5.826
   32CHL1  H19B 3516   2.026   2.524   5.946
   32CHL1  H19C 3517   2.078   2.552   5.781
   32CHL1    C1 3518   1.849   2.309   5.884
   32CHL1   H1A 3519   1.766   2.382   5.879
   32CHL1   H1B 3520   1.815   2.206   5.862
   32CHL1    C2 3521   1.882   2.292   6.030
   32CHL1   H2A 3522   1.798   2.248   6.088
   32CHL1   H2B 3523   1.905   2.391   6.075
   32CHL1   C20 3524   1.791   2.477   5.138
   32CHL1   H20 3525   1.795   2.585   5.166
   32CHL1   C21 3526   1.647   2.417   5.150
   32CHL1  H21A 3527   1.629   2.380   5.254
   32CHL1  H21B 3528   1.625   2.333   5.081
   32CHL1  H21C 3529   1.575   2.497   5.121
   32CHL1   C22 3530   1.826   2.479   4.988
   32CHL1  H22A 3531   1.936   2.478   4.968
   32CHL1  H22B 3532   1.782   2.390   4.939
   32CHL1   C23 3533   1.769   2.596   4.905
   32CHL1  H23A 3534   1.662   2.580   4.878
   32CHL1  H23B 3535   1.760   2.693   4.958
   32CHL1   C24 3536   1.852   2.619   4.771
   32CHL1  H24A 3537   1.955   2.636   4.809
   32CHL1  H24B 3538   1.845   2.537   4.696
   32CHL1   C25 3539   1.801   2.745   4.701
   32CHL1   H25 3540   1.818   2.825   4.776
   32CHL1   C26 3541   1.894   2.762   4.575
   32CHL1  H26A 3542   2.003   2.764   4.597
   32CHL1  H26B 3543   1.879   2.672   4.512
   32CHL1  H26C 3544   1.866   2.848   4.510
   32CHL1   C27 3545   1.651   2.731   4.663
   32CHL1  H27A 3546   1.643   2.645   4.594
   32CHL1  H27B 3547   1.581   2.721   4.749
   32CHL1  H27C 3548   1.623   2.822   4.606
   33CHL1    C3 3549   0.546   1.529   5.702
   33CHL1    H3 3550   0.652   1.497   5.693
   33CHL1    O3 3551   0.526   1.546   5.840
   33CHL1   H3' 3552   0.596   1.493   5.879
   33CHL1    C4 3553   0.526   1.664   5.637
   33CHL1   H4A 3554   0.425   1.697   5.670
   33CHL1   H4B 3555   0.603   1.732   5.680
   33CHL1    C5 3556   0.534   1.646   5.490
   33CHL1    C6 3557   0.627   1.711   5.419
   33CHL1    H6 3558   0.681   1.791   5.472
   33CHL1    C7 3559   0.638   1.700   5.273
   33CHL1   H7A 3560   0.659   1.802   5.235
   33CHL1   H7B 3561   0.717   1.626   5.249
   33CHL1    C8 3562   0.515   1.639   5.204
   33CHL1    H8 3563   0.431   1.712   5.201
   33CHL1   C14 3564   0.539   1.594   5.064
   33CHL1   H14 3565   0.618   1.517   5.079
   33CHL1   C15 3566   0.594   1.696   4.969
   33CHL1  H15A 3567   0.546   1.795   4.988
   33CHL1  H15B 3568   0.701   1.704   4.999
   33CHL1   C16 3569   0.583   1.631   4.827
   33CHL1  H16A 3570   0.539   1.714   4.767
   33CHL1  H16B 3571   0.691   1.623   4.801
   33CHL1   C17 3572   0.495   1.499   4.844
   33CHL1   H17 3573   0.566   1.413   4.847
   33CHL1   C13 3574   0.423   1.520   4.991
   33CHL1   C18 3575   0.303   1.610   4.972
   33CHL1  H18A 3576   0.219   1.545   4.940
   33CHL1  H18B 3577   0.273   1.653   5.070
   33CHL1  H18C 3578   0.315   1.692   4.898
   33CHL1   C12 3579   0.387   1.395   5.066
   33CHL1  H12A 3580   0.301   1.347   5.015
   33CHL1  H12B 3581   0.467   1.318   5.062
   33CHL1   C11 3582   0.358   1.427   5.216
   33CHL1  H11A 3583   0.264   1.484   5.204
   33CHL1  H11B 3584   0.338   1.334   5.272
   33CHL1    C9 3585   0.467   1.513   5.286
   33CHL1    H9 3586   0.554   1.444   5.275
   33CHL1   C10 3587   0.441   1.534   5.437
   33CHL1   C19 3588   0.292   1.587   5.446
   33CHL1  H19A 3589   0.264   1.614   5.550
   33CHL1  H19B 3590   0.292   1.674   5.377
   33CHL1  H19C 3591   0.215   1.511   5.420
   33CHL1    C1 3592   0.453   1.404   5.510
   33CHL1   H1A 3593   0.364   1.341   5.488
   33CHL1   H1B 3594   0.546   1.350   5.481
   33CHL1    C2 3595   0.450   1.420   5.664
   33CHL1   H2A 3596   0.480   1.323   5.710
   33CHL1   H2B 3597   0.349   1.452   5.696
   33CHL1   C20 3598   0.404   1.458   4.717
   33CHL1   H20 3599   0.352   1.364   4.747
   33CHL1   C21 3600   0.504   1.408   4.612
   33CHL1  H21A 3601   0.467   1.376   4.513
   33CHL1  H21B 3602   0.558   1.317   4.647
   33CHL1  H21C 3603   0.592   1.474   4.594
   33CHL1   C22 3604   0.300   1.559   4.656
   33CHL1  H22A 3605   0.222   1.595   4.727
   33CHL1  H22B 3606   0.361   1.645   4.620
   33CHL1   C23 3607   0.203   1.516   4.532
   33CHL1  H23A 3608   0.274   1.467   4.463
   33CHL1  H23B 3609   0.125   1.446   4.570
   33CHL1   C24 3610   0.119   1.632   4.465
   33CHL1  H24A 3611   0.055   1.683   4.539
   33CHL1  H24B 3612   0.191   1.710   4.434
   33CHL1   C25 3613   0.043   1.610   4.334
   33CHL1   H25 3614   0.002   1.709   4.307
   33CHL1   C26 3615   0.135   1.569   4.214
   33CHL1  H26A 3616   0.174   1.468   4.236
   33CHL1  H26B 3617   0.064   1.560   4.130
   33CHL1  H26C 3618   0.219   1.635   4.182
   33CHL1   C27 3619   6.717   1.513   4.340
   33CHL1  H27A 3620   6.749   1.406   4.339
   33CHL1  H27B 3621   6.663   1.531   4.435
   33CHL1  H27C 3622   6.645   1.523   4.256
   34CHL1    C3 3623   2.539   2.777   6.372
   34CHL1    H3 3624   2.646   2.798   6.352
   34CHL1    O3 3625   2.523   2.774   6.517
   34CHL1   H3' 3626   2.433   2.756   6.546
   34CHL1    C4 3627   2.446   2.882   6.314
   34CHL1   H4A 3628   2.339   2.868   6.341
   34CHL1   H4B 3629   2.492   2.979   6.345
   34CHL1    C5 3630   2.451   2.873   6.164
   34CHL1    C6 3631   2.487   2.977   6.095
   34CHL1    H6 3632   2.511   3.075   6.139
   34CHL1    C7 3633   2.498   2.980   5.944
   34CHL1   H7A 3634   2.457   3.073   5.899
   34CHL1   H7B 3635   2.608   2.976   5.928
   34CHL1    C8 3636   2.435   2.850   5.878
   34CHL1    H8 3637   2.324   2.850   5.877
   34CHL1   C14 3638   2.489   2.838   5.739
   34CHL1   H14 3639   2.597   2.820   5.756
   34CHL1   C15 3640   2.487   2.956   5.641
   34CHL1  H15A 3641   2.398   3.016   5.671
   34CHL1  H15B 3642   2.577   3.021   5.657
   34CHL1   C16 3643   2.496   2.901   5.498
   34CHL1  H16A 3644   2.419   2.940   5.428
   34CHL1  H16B 3645   2.591   2.932   5.449
   34CHL1   C17 3646   2.505   2.749   5.513
   34CHL1   H17 3647   2.613   2.734   5.532
   34CHL1   C13 3648   2.446   2.719   5.654
   34CHL1   C18 3649   2.295   2.720   5.635
   34CHL1  H18A 3650   2.258   2.635   5.574
   34CHL1  H18B 3651   2.242   2.724   5.733
   34CHL1  H18C 3652   2.275   2.814   5.579
   34CHL1   C12 3653   2.485   2.592   5.730
   34CHL1  H12A 3654   2.430   2.509   5.681
   34CHL1  H12B 3655   2.596   2.586   5.726
   34CHL1   C11 3656   2.439   2.593   5.879
   34CHL1  H11A 3657   2.332   2.567   5.888
   34CHL1  H11B 3658   2.482   2.502   5.926
   34CHL1    C9 3659   2.479   2.723   5.952
   34CHL1    H9 3660   2.589   2.735   5.955
   34CHL1   C10 3661   2.436   2.734   6.100
   34CHL1   C19 3662   2.287   2.678   6.107
   34CHL1  H19A 3663   2.266   2.686   6.216
   34CHL1  H19B 3664   2.215   2.733   6.043
   34CHL1  H19C 3665   2.279   2.570   6.080
   34CHL1    C1 3666   2.518   2.629   6.176
   34CHL1   H1A 3667   2.491   2.529   6.136
   34CHL1   H1B 3668   2.627   2.640   6.157
   34CHL1    C2 3669   2.507   2.630   6.328
   34CHL1   H2A 3670   2.573   2.558   6.381
   34CHL1   H2B 3671   2.399   2.624   6.357
   34CHL1   C20 3672   2.460   2.672   5.384
   34CHL1   H20 3673   2.350   2.679   5.375
   34CHL1   C21 3674   2.493   2.522   5.403
   34CHL1  H21A 3675   2.599   2.503   5.431
   34CHL1  H21B 3676   2.479   2.475   5.304
   34CHL1  H21C 3677   2.422   2.483   5.480
   34CHL1   C22 3678   2.544   2.713   5.266
   34CHL1  H22A 3679   2.558   2.824   5.268
   34CHL1  H22B 3680   2.635   2.652   5.282
   34CHL1   C23 3681   2.471   2.681   5.137
   34CHL1  H23A 3682   2.483   2.576   5.102
   34CHL1  H23B 3683   2.362   2.696   5.148
   34CHL1   C24 3684   2.520   2.773   5.025
   34CHL1  H24A 3685   2.529   2.880   5.053
   34CHL1  H24B 3686   2.621   2.726   5.020
   34CHL1   C25 3687   2.457   2.744   4.885
   34CHL1   H25 3688   2.446   2.634   4.876
   34CHL1   C26 3689   2.316   2.813   4.885
   34CHL1  H26A 3690   2.328   2.912   4.839
   34CHL1  H26B 3691   2.251   2.762   4.811
   34CHL1  H26C 3692   2.258   2.812   4.981
   34CHL1   C27 3693   2.550   2.793   4.777
   34CHL1  H27A 3694   2.632   2.717   4.769
   34CHL1  H27B 3695   2.495   2.807   4.682
   34CHL1  H27C 3696   2.608   2.885   4.800
   35CHL1    C3 3697   4.082   5.314   6.187
   35CHL1    H3 3698   4.168   5.256   6.146
   35CHL1    O3 3699   4.091   5.291   6.323
   35CHL1   H3' 3700   4.172   5.337   6.348
   35CHL1    C4 3701   4.113   5.465   6.152
   35CHL1   H4A 3702   4.037   5.526   6.206
   35CHL1   H4B 3703   4.213   5.489   6.194
   35CHL1    C5 3704   4.112   5.492   5.999
   35CHL1    C6 3705   4.224   5.553   5.949
   35CHL1    H6 3706   4.304   5.588   6.016
   35CHL1    C7 3707   4.247   5.560   5.796
   35CHL1   H7A 3708   4.277   5.665   5.777
   35CHL1   H7B 3709   4.330   5.492   5.767
   35CHL1    C8 3710   4.125   5.518   5.709
   35CHL1    H8 3711   4.054   5.603   5.709
   35CHL1   C14 3712   4.166   5.490   5.561
   35CHL1   H14 3713   4.226   5.397   5.564
   35CHL1   C15 3714   4.261   5.586   5.487
   35CHL1  H15A 3715   4.237   5.690   5.516
   35CHL1  H15B 3716   4.365   5.564   5.517
   35CHL1   C16 3717   4.229   5.553   5.334
   35CHL1  H16A 3718   4.214   5.644   5.273
   35CHL1  H16B 3719   4.320   5.506   5.290
   35CHL1   C17 3720   4.133   5.434   5.336
   35CHL1   H17 3721   4.200   5.347   5.346
   35CHL1   C13 3722   4.054   5.443   5.468
   35CHL1   C18 3723   3.940   5.554   5.459
   35CHL1  H18A 3724   3.858   5.528   5.389
   35CHL1  H18B 3725   3.894   5.577   5.558
   35CHL1  H18C 3726   3.982   5.647   5.415
   35CHL1   C12 3727   4.010   5.306   5.534
   35CHL1  H12A 3728   3.932   5.247   5.480
   35CHL1  H12B 3729   4.096   5.237   5.525
   35CHL1   C11 3730   3.962   5.323   5.677
   35CHL1  H11A 3731   3.867   5.381   5.678
   35CHL1  H11B 3732   3.941   5.221   5.714
   35CHL1    C9 3733   4.062   5.398   5.770
   35CHL1    H9 3734   4.143   5.325   5.790
   35CHL1   C10 3735   4.005   5.414   5.917
   35CHL1   C19 3736   3.876   5.498   5.916
   35CHL1  H19A 3737   3.794   5.428   5.888
   35CHL1  H19B 3738   3.853   5.528   6.020
   35CHL1  H19C 3739   3.880   5.588   5.851
   35CHL1    C1 3740   3.967   5.273   5.974
   35CHL1   H1A 3741   3.870   5.242   5.929
   35CHL1   H1B 3742   4.039   5.192   5.952
   35CHL1    C2 3743   3.956   5.269   6.122
   35CHL1   H2A 3744   3.926   5.164   6.145
   35CHL1   H2B 3745   3.875   5.335   6.159
   35CHL1   C20 3746   4.050   5.419   5.203
   35CHL1   H20 3747   3.978   5.503   5.191
   35CHL1   C21 3748   3.980   5.284   5.206
   35CHL1  H21A 3749   3.941   5.249   5.108
   35CHL1  H21B 3750   3.900   5.299   5.282
   35CHL1  H21C 3751   4.047   5.204   5.243
   35CHL1   C22 3752   4.143   5.422   5.078
   35CHL1  H22A 3753   4.208   5.511   5.094
   35CHL1  H22B 3754   4.203   5.329   5.089
   35CHL1   C23 3755   4.069   5.439   4.937
   35CHL1  H23A 3756   3.977   5.379   4.950
   35CHL1  H23B 3757   4.038   5.545   4.921
   35CHL1   C24 3758   4.151   5.392   4.811
   35CHL1  H24A 3759   4.240   5.456   4.794
   35CHL1  H24B 3760   4.181   5.292   4.846
   35CHL1   C25 3761   4.068   5.386   4.681
   35CHL1   H25 3762   4.030   5.488   4.659
   35CHL1   C26 3763   4.155   5.336   4.561
   35CHL1  H26A 3764   4.176   5.227   4.567
   35CHL1  H26B 3765   4.111   5.367   4.464
   35CHL1  H26C 3766   4.254   5.386   4.565
   35CHL1   C27 3767   3.943   5.299   4.702
   35CHL1  H27A 3768   3.880   5.348   4.780
   35CHL1  H27B 3769   3.887   5.293   4.606
   35CHL1  H27C 3770   3.979   5.198   4.729
   36CHL1    C3 3771   6.667   3.951   5.810
   36CHL1    H3 3772   6.624   4.050   5.786
   36CHL1    O3 3773   6.649   3.929   5.945
   36CHL1   H3' 3774   6.702   3.853   5.970
   36CHL1    C4 3775   6.593   3.848   5.731
   36CHL1   H4A 3776   6.614   3.747   5.772
   36CHL1   H4B 3777   6.484   3.864   5.749
   36CHL1    C5 3778   6.622   3.856   5.583
   36CHL1    C6 3779   6.533   3.871   5.481
   36CHL1    H6 3780   6.426   3.892   5.496
   36CHL1    C7 3781   6.569   3.875   5.333
   36CHL1   H7A 3782   6.490   3.824   5.273
   36CHL1   H7B 3783   6.562   3.980   5.300
   36CHL1    C8 3784   6.704   3.807   5.300
   36CHL1    H8 3785   6.682   3.698   5.306
   36CHL1   C14 3786   6.742   3.835   5.157
   36CHL1   H14 3787   6.757   3.945   5.144
   36CHL1   C15 3788   6.640   3.798   5.051
   36CHL1  H15A 3789   6.596   3.700   5.081
   36CHL1  H15B 3790   6.552   3.864   5.036
   36CHL1   C16 3791   6.734   3.778   4.926
   36CHL1  H16A 3792   6.722   3.681   4.874
   36CHL1  H16B 3793   6.713   3.854   4.848
   36CHL1   C17 3794   0.090   3.809   4.970
   36CHL1   H17 3795   0.096   3.919   4.954
   36CHL1   C13 3796   0.086   3.778   5.118
   36CHL1   C18 3797   0.076   3.620   5.143
   36CHL1  H18A 3798   0.085   3.603   5.252
   36CHL1  H18B 3799   6.769   3.583   5.111
   36CHL1  H18C 3800   0.157   3.568   5.087
   36CHL1   C12 3801   0.190   3.842   5.214
   36CHL1  H12A 3802   0.289   3.798   5.191
   36CHL1  H12B 3803   0.195   3.950   5.187
   36CHL1   C11 3804   0.162   3.830   5.364
   36CHL1  H11A 3805   0.175   3.721   5.379
   36CHL1  H11B 3806   0.233   3.890   5.425
   36CHL1    C9 3807   0.014   3.867   5.399
   36CHL1    H9 3808   0.014   3.977   5.384
   36CHL1   C10 3809   6.774   3.845   5.551
   36CHL1   C19 3810   0.023   3.700   5.585
   36CHL1  H19A 3811   0.132   3.683   5.577
   36CHL1  H19B 3812   6.787   3.673   5.688
   36CHL1  H19C 3813   6.784   3.621   5.513
   36CHL1    C1 3814   0.063   3.951   5.630
   36CHL1   H1A 3815   0.173   3.938   5.618
   36CHL1   H1B 3816   0.047   4.058   5.603
   36CHL1    C2 3817   0.034   3.937   5.780
   36CHL1   H2A 3818   0.072   4.028   5.830
   36CHL1   H2B 3819   0.065   3.839   5.824
   36CHL1   C20 3820   0.199   3.740   4.882
   36CHL1   H20 3821   0.177   3.631   4.887
   36CHL1   C21 3822   0.347   3.752   4.925
   36CHL1  H21A 3823   0.391   3.853   4.937
   36CHL1  H21B 3824   0.413   3.708   4.848
   36CHL1  H21C 3825   0.375   3.694   5.016
   36CHL1   C22 3826   0.168   3.786   4.734
   36CHL1  H22A 3827   0.227   3.729   4.659
   36CHL1  H22B 3828   0.065   3.756   4.705
   36CHL1   C23 3829   0.200   3.932   4.699
   36CHL1  H23A 3830   0.157   4.000   4.776
   36CHL1  H23B 3831   0.310   3.945   4.694
   36CHL1   C24 3832   0.147   3.969   4.560
   36CHL1  H24A 3833   0.141   3.892   4.480
   36CHL1  H24B 3834   0.038   3.978   4.578
   36CHL1   C25 3835   0.207   4.105   4.506
   36CHL1   H25 3836   0.310   4.083   4.469
   36CHL1   C26 3837   0.134   4.152   4.378
   36CHL1  H26A 3838   0.139   4.071   4.303
   36CHL1  H26B 3839   0.024   4.162   4.396
   36CHL1  H26C 3840   0.167   4.251   4.340
   36CHL1   C27 3841   0.210   4.215   4.608
   36CHL1  H27A 3842   0.251   4.308   4.562
   36CHL1  H27B 3843   0.106   4.249   4.628
   36CHL1  H27C 3844   0.268   4.187   4.698
   37CHL1    C3 3845   0.839   0.339   6.035
   37CHL1    H3 3846   0.784   0.415   5.976
   37CHL1    O3 3847   0.799   0.350   6.173
   37CHL1   H3' 3848   0.705   0.369   6.161
   37CHL1    C4 3849   0.793   0.200   5.994
   37CHL1   H4A 3850   0.857   0.135   6.057
   37CHL1   H4B 3851   0.688   0.202   6.031
   37CHL1    C5 3852   0.802   0.163   5.851
   37CHL1    C6 3853   0.707   0.118   5.771
   37CHL1    H6 3854   0.607   0.115   5.816
   37CHL1    C7 3855   0.733   0.052   5.636
   37CHL1   H7A 3856   0.691   6.742   5.633
   37CHL1   H7B 3857   0.683   0.123   5.566
   37CHL1    C8 3858   0.884   0.060   5.584
   37CHL1    H8 3859   0.920   6.752   5.617
   37CHL1   C14 3860   0.892   0.064   5.432
   37CHL1   H14 3861   0.855   0.165   5.403
   37CHL1   C15 3862   0.816   6.749   5.351
   37CHL1  H15A 3863   0.837   6.656   5.408
   37CHL1  H15B 3864   0.705   6.759   5.349
   37CHL1   C16 3865   0.879   6.749   5.215
   37CHL1  H16A 3866   0.896   6.642   5.189
   37CHL1  H16B 3867   0.813   0.004   5.139
   37CHL1   C17 3868   1.000   0.050   5.229
   37CHL1   H17 3869   0.953   0.145   5.196
   37CHL1   C13 3870   1.031   0.067   5.383
   37CHL1   C18 3871   1.116   6.734   5.421
   37CHL1  H18A 3872   1.223   6.760   5.411
   37CHL1  H18B 3873   1.099   6.716   5.529
   37CHL1  H18C 3874   1.086   6.642   5.366
   37CHL1   C12 3875   1.095   0.207   5.437
   37CHL1  H12A 3876   1.201   0.223   5.408
   37CHL1  H12B 3877   1.028   0.285   5.394
   37CHL1   C11 3878   1.094   0.209   5.593
   37CHL1  H11A 3879   1.172   0.142   5.634
   37CHL1  H11B 3880   1.119   0.313   5.623
   37CHL1    C9 3881   0.953   0.176   5.648
   37CHL1    H9 3882   0.896   0.261   5.604
   37CHL1   C10 3883   0.950   0.182   5.803
   37CHL1   C19 3884   1.035   0.068   5.863
   37CHL1  H19A 3885   1.006   6.755   5.852
   37CHL1  H19B 3886   1.143   0.089   5.844
   37CHL1  H19C 3887   1.042   0.068   5.974
   37CHL1    C1 3888   1.017   0.321   5.858
   37CHL1   H1A 3889   1.125   0.317   5.834
   37CHL1   H1B 3890   0.961   0.398   5.801
   37CHL1    C2 3891   0.986   0.360   6.006
   37CHL1   H2A 3892   1.017   0.465   6.023
   37CHL1   H2B 3893   1.048   0.292   6.069
   37CHL1   C20 3894   1.118   0.026   5.135
   37CHL1   H20 3895   1.200   6.759   5.180
   37CHL1   C21 3896   1.168   0.159   5.092
   37CHL1  H21A 3897   1.081   0.212   5.046
   37CHL1  H21B 3898   1.251   0.148   5.019
   37CHL1  H21C 3899   1.210   0.220   5.175
   37CHL1   C22 3900   1.089   6.731   5.006
   37CHL1  H22A 3901   1.030   6.643   5.040
   37CHL1  H22B 3902   1.021   6.785   4.937
   37CHL1   C23 3903   1.214   6.688   4.922
   37CHL1  H23A 3904   1.227   6.781   4.862
   37CHL1  H23B 3905   1.299   6.678   4.992
   37CHL1   C24 3906   1.201   6.577   4.821
   37CHL1  H24A 3907   1.131   6.507   4.872
   37CHL1  H24B 3908   1.163   6.609   4.722
   37CHL1   C25 3909   1.330   6.493   4.790
   37CHL1   H25 3910   1.304   6.418   4.712
   37CHL1   C26 3911   1.434   6.583   4.713
   37CHL1  H26A 3912   1.463   6.667   4.779
   37CHL1  H26B 3913   1.523   6.518   4.695
   37CHL1  H26C 3914   1.399   6.619   4.614
   37CHL1   C27 3915   1.387   6.426   4.919
   37CHL1  H27A 3916   1.429   6.500   4.991
   37CHL1  H27B 3917   1.314   6.353   4.959
   37CHL1  H27C 3918   1.471   6.361   4.886
   38CHL1    C3 3919   1.395   0.622   6.012
   38CHL1    H3 3920   1.496   0.647   5.975
   38CHL1    O3 3921   1.402   0.581   6.147
   38CHL1   H3' 3922   1.439   0.660   6.189
   38CHL1    C4 3923   1.324   0.757   6.011
   38CHL1   H4A 3924   1.219   0.756   6.048
   38CHL1   H4B 3925   1.373   0.820   6.087
   38CHL1    C5 3926   1.314   0.808   5.870
   38CHL1    C6 3927   1.365   0.930   5.839
   38CHL1    H6 3928   1.412   0.986   5.921
   38CHL1    C7 3929   1.346   0.992   5.699
   38CHL1   H7A 3930   1.327   1.101   5.709
   38CHL1   H7B 3931   1.449   0.990   5.657
   38CHL1    C8 3932   1.254   0.910   5.613
   38CHL1    H8 3933   1.155   0.935   5.656
   38CHL1   C14 3934   1.277   0.956   5.467
   38CHL1   H14 3935   1.380   0.926   5.440
   38CHL1   C15 3936   1.260   1.103   5.422
   38CHL1  H15A 3937   1.178   1.163   5.468
   38CHL1  H15B 3938   1.359   1.149   5.440
   38CHL1   C16 3939   1.225   1.107   5.274
   38CHL1  H16A 3940   1.125   1.147   5.246
   38CHL1  H16B 3941   1.307   1.165   5.227
   38CHL1   C17 3942   1.226   0.950   5.238
   38CHL1   H17 3943   1.333   0.930   5.214
   38CHL1   C13 3944   1.192   0.880   5.371
   38CHL1   C18 3945   1.043   0.910   5.410
   38CHL1  H18A 3946   1.014   0.855   5.502
   38CHL1  H18B 3947   1.030   1.019   5.424
   38CHL1  H18C 3948   0.975   0.865   5.334
   38CHL1   C12 3949   1.217   0.726   5.374
   38CHL1  H12A 3950   1.143   0.681   5.304
   38CHL1  H12B 3951   1.321   0.700   5.343
   38CHL1   C11 3952   1.201   0.666   5.517
   38CHL1  H11A 3953   1.091   0.656   5.529
   38CHL1  H11B 3954   1.248   0.566   5.523
   38CHL1    C9 3955   1.274   0.756   5.626
   38CHL1    H9 3956   1.381   0.750   5.598
   38CHL1   C10 3957   1.253   0.708   5.773
   38CHL1   C19 3958   1.105   0.691   5.798
   38CHL1  H19A 3959   1.040   0.776   5.770
   38CHL1  H19B 3960   1.066   0.605   5.739
   38CHL1  H19C 3961   1.092   0.668   5.906
   38CHL1    C1 3962   1.323   0.573   5.789
   38CHL1   H1A 3963   1.283   0.498   5.716
   38CHL1   H1B 3964   1.427   0.584   5.753
   38CHL1    C2 3965   1.340   0.514   5.931
   38CHL1   H2A 3966   1.404   0.424   5.940
   38CHL1   H2B 3967   1.235   0.497   5.964
   38CHL1   C20 3968   1.155   0.902   5.112
   38CHL1   H20 3969   1.051   0.876   5.140
   38CHL1   C21 3970   1.217   0.768   5.056
   38CHL1  H21A 3971   1.328   0.768   5.053
   38CHL1  H21B 3972   1.181   0.751   4.952
   38CHL1  H21C 3973   1.189   0.674   5.109
   38CHL1   C22 3974   1.148   1.006   4.994
   38CHL1  H22A 3975   1.062   0.972   4.931
   38CHL1  H22B 3976   1.115   1.107   5.026
   38CHL1   C23 3977   1.276   1.018   4.912
   38CHL1  H23A 3978   1.346   1.070   4.981
   38CHL1  H23B 3979   1.326   0.926   4.876
   38CHL1   C24 3980   1.253   1.103   4.789
   38CHL1  H24A 3981   1.188   1.040   4.725
   38CHL1  H24B 3982   1.217   1.206   4.808
   38CHL1   C25 3983   1.389   1.127   4.719
   38CHL1   H25 3984   1.440   1.028   4.725
   38CHL1   C26 3985   1.380   1.166   4.573
   38CHL1  H26A 3986   1.487   1.173   4.543
   38CHL1  H26B 3987   1.331   1.086   4.514
   38CHL1  H26C 3988   1.337   1.267   4.559
   38CHL1   C27 3989   1.484   1.225   4.802
   38CHL1  H27A 3990   1.570   1.250   4.736
   38CHL1  H27B 3991   1.427   1.320   4.805
   38CHL1  H27C 3992   1.494   1.193   4.908
   39CHL1    C3 3993   3.329   1.664   6.476
   39CHL1    H3 3994   3.437   1.671   6.501
   39CHL1    O3 3995   3.257   1.669   6.596
   39CHL1   H3' 3996   3.166   1.666   6.565
   39CHL1    C4 3997   3.279   1.777   6.382
   39CHL1   H4A 3998   3.169   1.785   6.386
   39CHL1   H4B 3999   3.322   1.865   6.435
   39CHL1    C5 4000   3.337   1.770   6.244
   39CHL1    C6 4001   3.402   1.875   6.194
   39CHL1    H6 4002   3.412   1.966   6.254
   39CHL1    C7 4003   3.465   1.886   6.056
   39CHL1   H7A 4004   3.420   1.974   6.006
   39CHL1   H7B 4005   3.575   1.895   6.068
   39CHL1    C8 4006   3.445   1.753   5.972
   39CHL1    H8 4007   3.348   1.770   5.921
   39CHL1   C14 4008   3.559   1.734   5.874
   39CHL1   H14 4009   3.651   1.703   5.929
   39CHL1   C15 4010   3.601   1.857   5.782
   39CHL1  H15A 4011   3.502   1.901   5.755
   39CHL1  H15B 4012   3.659   1.939   5.829
   39CHL1   C16 4013   3.655   1.796   5.652
   39CHL1  H16A 4014   3.582   1.817   5.571
   39CHL1  H16B 4015   3.758   1.831   5.632
   39CHL1   C17 4016   3.653   1.645   5.680
   39CHL1   H17 4017   3.747   1.617   5.732
   39CHL1   C13 4018   3.534   1.613   5.781
   39CHL1   C18 4019   3.400   1.618   5.700
   39CHL1  H18A 4020   3.395   1.543   5.619
   39CHL1  H18B 4021   3.307   1.614   5.760
   39CHL1  H18C 4022   3.388   1.714   5.645
   39CHL1   C12 4023   3.549   1.481   5.867
   39CHL1  H12A 4024   3.530   1.388   5.809
   39CHL1  H12B 4025   3.649   1.467   5.913
   39CHL1   C11 4026   3.441   1.494   5.977
   39CHL1  H11A 4027   3.347   1.482   5.920
   39CHL1  H11B 4028   3.458   1.402   6.036
   39CHL1    C9 4029   3.442   1.625   6.060
   39CHL1    H9 4030   3.537   1.630   6.117
   39CHL1   C10 4031   3.329   1.635   6.174
   39CHL1   C19 4032   3.187   1.629   6.113
   39CHL1  H19A 4033   3.106   1.628   6.190
   39CHL1  H19B 4034   3.163   1.713   6.045
   39CHL1  H19C 4035   3.196   1.531   6.061
   39CHL1    C1 4036   3.362   1.523   6.277
   39CHL1   H1A 4037   3.336   1.424   6.234
   39CHL1   H1B 4038   3.473   1.525   6.288
   39CHL1    C2 4039   3.287   1.525   6.414
   39CHL1   H2A 4040   3.321   1.443   6.482
   39CHL1   H2B 4041   3.177   1.510   6.412
   39CHL1   C20 4042   3.669   1.557   5.560
   39CHL1   H20 4043   3.568   1.548   5.515
   39CHL1   C21 4044   3.732   1.418   5.595
   39CHL1  H21A 4045   3.673   1.360   5.668
   39CHL1  H21B 4046   3.837   1.432   5.629
   39CHL1  H21C 4047   3.731   1.349   5.508
   39CHL1   C22 4048   3.754   1.625   5.447
   39CHL1  H22A 4049   3.728   1.729   5.418
   39CHL1  H22B 4050   3.860   1.639   5.479
   39CHL1   C23 4051   3.752   1.541   5.319
   39CHL1  H23A 4052   3.806   1.444   5.326
   39CHL1  H23B 4053   3.647   1.526   5.286
   39CHL1   C24 4054   3.820   1.604   5.195
   39CHL1  H24A 4055   3.803   1.714   5.186
   39CHL1  H24B 4056   3.927   1.585   5.216
   39CHL1   C25 4057   3.767   1.533   5.069
   39CHL1   H25 4058   3.764   1.424   5.091
   39CHL1   C26 4059   3.635   1.576   5.012
   39CHL1  H26A 4060   3.619   1.685   4.996
   39CHL1  H26B 4061   3.613   1.526   4.915
   39CHL1  H26C 4062   3.552   1.543   5.079
   39CHL1   C27 4063   3.879   1.546   4.960
   39CHL1  H27A 4064   3.974   1.563   5.014
   39CHL1  H27B 4065   3.873   1.452   4.901
   39CHL1  H27C 4066   3.856   1.639   4.903
   40CHL1    C3 4067   3.404   4.167   6.197
   40CHL1    H3 4068   3.416   4.057   6.200
   40CHL1    O3 4069   3.357   4.202   6.325
   40CHL1   H3' 4070   3.285   4.265   6.318
   40CHL1    C4 4071   3.534   4.235   6.164
   40CHL1   H4A 4072   3.508   4.342   6.161
   40CHL1   H4B 4073   3.608   4.215   6.245
   40CHL1    C5 4074   3.595   4.197   6.030
   40CHL1    C6 4075   3.715   4.138   6.017
   40CHL1    H6 4076   3.774   4.111   6.105
   40CHL1    C7 4077   3.785   4.116   5.881
   40CHL1   H7A 4078   3.893   4.141   5.884
   40CHL1   H7B 4079   3.783   4.006   5.865
   40CHL1    C8 4080   3.711   4.177   5.760
   40CHL1    H8 4081   3.743   4.283   5.754
   40CHL1   C14 4082   3.753   4.115   5.628
   40CHL1   H14 4083   3.713   4.012   5.632
   40CHL1   C15 4084   3.903   4.104   5.584
   40CHL1  H15A 4085   3.952   4.203   5.593
   40CHL1  H15B 4086   3.962   4.028   5.639
   40CHL1   C16 4087   3.899   4.062   5.435
   40CHL1  H16A 4088   3.964   4.129   5.374
   40CHL1  H16B 4089   3.928   3.957   5.414
   40CHL1   C17 4090   3.749   4.077   5.392
   40CHL1   H17 4091   3.706   3.975   5.393
   40CHL1   C13 4092   3.680   4.168   5.501
   40CHL1   C18 4093   3.717   4.313   5.477
   40CHL1  H18A 4094   3.827   4.330   5.470
   40CHL1  H18B 4095   3.667   4.357   5.388
   40CHL1  H18C 4096   3.679   4.388   5.550
   40CHL1   C12 4097   3.526   4.149   5.519
   40CHL1  H12A 4098   3.471   4.199   5.436
   40CHL1  H12B 4099   3.495   4.043   5.512
   40CHL1   C11 4100   3.480   4.216   5.646
   40CHL1  H11A 4101   3.507   4.324   5.637
   40CHL1  H11B 4102   3.370   4.225   5.662
   40CHL1    C9 4103   3.556   4.164   5.776
   40CHL1    H9 4104   3.533   4.057   5.795
   40CHL1   C10 4105   3.506   4.238   5.904
   40CHL1   C19 4106   3.508   4.394   5.888
   40CHL1  H19A 4107   3.444   4.434   5.807
   40CHL1  H19B 4108   3.483   4.453   5.979
   40CHL1  H19C 4109   3.612   4.420   5.859
   40CHL1    C1 4110   3.361   4.189   5.939
   40CHL1   H1A 4111   3.281   4.222   5.871
   40CHL1   H1B 4112   3.340   4.082   5.918
   40CHL1    C2 4113   3.311   4.214   6.078
   40CHL1   H2A 4114   3.217   4.158   6.098
   40CHL1   H2B 4115   3.279   4.321   6.079
   40CHL1   C20 4116   3.731   4.120   5.248
   40CHL1   H20 4117   3.774   4.221   5.230
   40CHL1   C21 4118   3.577   4.141   5.210
   40CHL1  H21A 4119   3.570   4.147   5.099
   40CHL1  H21B 4120   3.543   4.238   5.253
   40CHL1  H21C 4121   3.510   4.057   5.236
   40CHL1   C22 4122   3.785   4.011   5.147
   40CHL1  H22A 4123   3.887   3.990   5.184
   40CHL1  H22B 4124   3.721   3.920   5.159
   40CHL1   C23 4125   3.803   4.051   4.995
   40CHL1  H23A 4126   3.707   4.064   4.942
   40CHL1  H23B 4127   3.854   4.149   4.982
   40CHL1   C24 4128   3.879   3.945   4.916
   40CHL1  H24A 4129   3.958   3.899   4.978
   40CHL1  H24B 4130   3.807   3.860   4.911
   40CHL1   C25 4131   3.923   3.987   4.771
   40CHL1   H25 4132   3.834   4.033   4.723
   40CHL1   C26 4133   4.043   4.083   4.764
   40CHL1  H26A 4134   4.067   4.118   4.661
   40CHL1  H26B 4135   4.021   4.177   4.820
   40CHL1  H26C 4136   4.133   4.038   4.812
   40CHL1   C27 4137   3.954   3.861   4.684
   40CHL1  H27A 4138   4.052   3.811   4.700
   40CHL1  H27B 4139   3.875   3.784   4.692
   40CHL1  H27C 4140   3.951   3.889   4.577
   41CHL1    C3 4141   0.357   4.656   5.784
   41CHL1    H3 4142   0.461   4.686   5.808
   41CHL1    O3 4143   0.305   4.597   5.900
   41CHL1   H3' 4144   0.325   4.647   5.980
   41CHL1    C4 4145   0.273   4.774   5.754
   41CHL1   H4A 4146   0.167   4.751   5.730
   41CHL1   H4B 4147   0.260   4.837   5.844
   41CHL1    C5 4148   0.323   4.848   5.637
   41CHL1    C6 4149   0.366   4.975   5.642
   41CHL1    H6 4150   0.353   5.028   5.737
   41CHL1    C7 4151   0.411   5.053   5.522
   41CHL1   H7A 4152   0.371   5.157   5.516
   41CHL1   H7B 4153   0.521   5.064   5.523
   41CHL1    C8 4154   0.387   4.995   5.386
   41CHL1    H8 4155   0.279   5.003   5.364
   41CHL1   C14 4156   0.470   5.072   5.277
   41CHL1   H14 4157   0.578   5.062   5.300
   41CHL1   C15 4158   0.443   5.218   5.245
   41CHL1  H15A 4159   0.333   5.238   5.242
   41CHL1  H15B 4160   0.488   5.288   5.319
   41CHL1   C16 4161   0.491   5.234   5.101
   41CHL1  H16A 4162   0.400   5.261   5.042
   41CHL1  H16B 4163   0.569   5.311   5.086
   41CHL1   C17 4164   0.553   5.100   5.054
   41CHL1   H17 4165   0.655   5.094   5.097
   41CHL1   C13 4166   0.467   4.997   5.137
   41CHL1   C18 4167   0.325   4.981   5.090
   41CHL1  H18A 4168   0.324   4.908   5.006
   41CHL1  H18B 4169   0.258   4.939   5.168
   41CHL1  H18C 4170   0.278   5.079   5.066
   41CHL1   C12 4171   0.520   4.854   5.156
   41CHL1  H12A 4172   0.526   4.802   5.058
   41CHL1  H12B 4173   0.623   4.874   5.193
   41CHL1   C11 4174   0.436   4.768   5.259
   41CHL1  H11A 4175   0.343   4.748   5.201
   41CHL1  H11B 4176   0.497   4.679   5.287
   41CHL1    C9 4177   0.416   4.842   5.398
   41CHL1    H9 4178   0.515   4.852   5.447
   41CHL1   C10 4179   0.332   4.766   5.505
   41CHL1   C19 4180   0.182   4.737   5.449
   41CHL1  H19A 4181   0.200   4.690   5.350
   41CHL1  H19B 4182   0.120   4.668   5.511
   41CHL1  H19C 4183   0.129   4.833   5.430
   41CHL1    C1 4184   0.400   4.632   5.534
   41CHL1   H1A 4185   0.376   4.569   5.446
   41CHL1   H1B 4186   0.511   4.626   5.537
   41CHL1    C2 4187   0.356   4.563   5.665
   41CHL1   H2A 4188   0.403   4.466   5.689
   41CHL1   H2B 4189   0.253   4.525   5.648
   41CHL1   C20 4190   0.562   5.079   4.900
   41CHL1   H20 4191   0.588   4.973   4.880
   41CHL1   C21 4192   0.683   5.170   4.870
   41CHL1  H21A 4193   0.710   5.158   4.763
   41CHL1  H21B 4194   0.776   5.146   4.927
   41CHL1  H21C 4195   0.667   5.278   4.889
   41CHL1   C22 4196   0.448   5.114   4.804
   41CHL1  H22A 4197   0.350   5.102   4.856
   41CHL1  H22B 4198   0.455   5.220   4.773
   41CHL1   C23 4199   0.453   5.013   4.690
   41CHL1  H23A 4200   0.544   5.016   4.626
   41CHL1  H23B 4201   0.444   4.905   4.717
   41CHL1   C24 4202   0.340   5.047   4.593
   41CHL1  H24A 4203   0.241   5.026   4.639
   41CHL1  H24B 4204   0.338   5.156   4.568
   41CHL1   C25 4205   0.339   4.966   4.459
   41CHL1   H25 4206   0.439   4.963   4.411
   41CHL1   C26 4207   0.315   4.807   4.488
   41CHL1  H26A 4208   0.323   4.744   4.397
   41CHL1  H26B 4209   0.390   4.773   4.562
   41CHL1  H26C 4210   0.224   4.786   4.547
   41CHL1   C27 4211   0.242   5.006   4.339
   41CHL1  H27A 4212   0.141   4.958   4.340
   41CHL1  H27B 4213   0.235   5.116   4.330
   41CHL1  H27C 4214   0.287   4.972   4.244
   42CHL1    C3 4215   5.519   3.430   6.297
   42CHL1    H3 4216   5.410   3.427   6.320
   42CHL1    O3 4217   5.602   3.410   6.414
   42CHL1   H3' 4218   5.685   3.408   6.366
   42CHL1    C4 4219   5.543   3.302   6.211
   42CHL1   H4A 4220   5.653   3.300   6.195
   42CHL1   H4B 4221   5.533   3.216   6.280
   42CHL1    C5 4222   5.471   3.305   6.077
   42CHL1    C6 4223   5.385   3.208   6.043
   42CHL1    H6 4224   5.354   3.134   6.119
   42CHL1    C7 4225   5.314   3.203   5.914
   42CHL1   H7A 4226   5.324   3.101   5.870
   42CHL1   H7B 4227   5.205   3.223   5.915
   42CHL1    C8 4228   5.367   3.305   5.807
   42CHL1    H8 4229   5.462   3.260   5.773
   42CHL1   C14 4230   5.267   3.335   5.691
   42CHL1   H14 4231   5.178   3.383   5.737
   42CHL1   C15 4232   5.208   3.215   5.616
   42CHL1  H15A 4233   5.291   3.143   5.601
   42CHL1  H15B 4234   5.127   3.162   5.669
   42CHL1   C16 4235   5.157   3.266   5.486
   42CHL1  H16A 4236   5.189   3.193   5.409
   42CHL1  H16B 4237   5.047   3.252   5.481
   42CHL1   C17 4238   5.198   3.421   5.476
   42CHL1   H17 4239   5.110   3.468   5.525
   42CHL1   C13 4240   5.316   3.436   5.579
   42CHL1   C18 4241   5.442   3.383   5.518
   42CHL1  H18A 4242   5.520   3.350   5.590
   42CHL1  H18B 4243   5.418   3.289   5.464
   42CHL1  H18C 4244   5.475   3.464   5.450
   42CHL1   C12 4245   5.335   3.567   5.646
   42CHL1  H12A 4246   5.378   3.635   5.569
   42CHL1  H12B 4247   5.239   3.604   5.687
   42CHL1   C11 4248   5.433   3.564   5.771
   42CHL1  H11A 4249   5.530   3.536   5.726
   42CHL1  H11B 4250   5.451   3.660   5.825
   42CHL1    C9 4251   5.407   3.442   5.873
   42CHL1    H9 4252   5.316   3.479   5.923
   42CHL1   C10 4253   5.498   3.435   5.999
   42CHL1   C19 4254   5.641   3.420   5.941
   42CHL1  H19A 4255   5.649   3.341   5.863
   42CHL1  H19B 4256   5.679   3.513   5.895
   42CHL1  H19C 4257   5.708   3.389   6.025
   42CHL1    C1 4258   5.479   3.555   6.099
   42CHL1   H1A 4259   5.508   3.645   6.042
   42CHL1   H1B 4260   5.370   3.557   6.122
   42CHL1    C2 4261   5.551   3.556   6.230
   42CHL1   H2A 4262   5.536   3.638   6.303
   42CHL1   H2B 4263   5.657   3.558   6.198
   42CHL1   C20 4264   5.209   3.467   5.334
   42CHL1   H20 4265   5.296   3.429   5.274
   42CHL1   C21 4266   5.232   3.621   5.329
   42CHL1  H21A 4267   5.145   3.672   5.375
   42CHL1  H21B 4268   5.256   3.660   5.228
   42CHL1  H21C 4269   5.331   3.648   5.371
   42CHL1   C22 4270   5.088   3.422   5.245
   42CHL1  H22A 4271   5.052   3.318   5.258
   42CHL1  H22B 4272   5.006   3.487   5.281
   42CHL1   C23 4273   5.111   3.447   5.095
   42CHL1  H23A 4274   5.166   3.542   5.079
   42CHL1  H23B 4275   5.170   3.363   5.053
   42CHL1   C24 4276   4.984   3.453   5.013
   42CHL1  H24A 4277   4.925   3.358   5.018
   42CHL1  H24B 4278   4.935   3.542   5.058
   42CHL1   C25 4279   5.005   3.494   4.867
   42CHL1   H25 4280   5.059   3.590   4.880
   42CHL1   C26 4281   5.101   3.398   4.803
   42CHL1  H26A 4282   5.067   3.293   4.798
   42CHL1  H26B 4283   5.121   3.436   4.700
   42CHL1  H26C 4284   5.205   3.401   4.843
   42CHL1   C27 4285   4.877   3.505   4.784
   42CHL1  H27A 4286   4.889   3.526   4.676
   42CHL1  H27B 4287   4.826   3.406   4.794
   42CHL1  H27C 4288   4.806   3.577   4.830
   43CHL1    C3 4289   6.050   1.613   6.200
   43CHL1    H3 4290   5.963   1.544   6.210
   43CHL1    O3 4291   6.106   1.620   6.328
   43CHL1   H3' 4292   6.184   1.674   6.313
   43CHL1    C4 4293   6.149   1.551   6.096
   43CHL1   H4A 4294   6.244   1.608   6.093
   43CHL1   H4B 4295   6.165   1.447   6.134
   43CHL1    C5 4296   6.094   1.538   5.957
   43CHL1    C6 4297   6.076   1.424   5.891
   43CHL1    H6 4298   6.116   1.328   5.925
   43CHL1    C7 4299   6.018   1.409   5.754
   43CHL1   H7A 4300   6.068   1.322   5.705
   43CHL1   H7B 4301   5.911   1.384   5.768
   43CHL1    C8 4302   6.017   1.545   5.685
   43CHL1    H8 4303   6.118   1.561   5.641
   43CHL1   C14 4304   5.919   1.535   5.559
   43CHL1   H14 4305   5.816   1.515   5.596
   43CHL1   C15 4306   5.946   1.430   5.459
   43CHL1  H15A 4307   6.053   1.432   5.431
   43CHL1  H15B 4308   5.910   1.330   5.492
   43CHL1   C16 4309   5.862   1.477   5.340
   43CHL1  H16A 4310   5.925   1.455   5.251
   43CHL1  H16B 4311   5.764   1.426   5.329
   43CHL1   C17 4312   5.827   1.629   5.353
   43CHL1   H17 4313   5.721   1.634   5.385
   43CHL1   C13 4314   5.909   1.669   5.481
   43CHL1   C18 4315   6.049   1.709   5.430
   43CHL1  H18A 4316   6.035   1.804   5.375
   43CHL1  H18B 4317   6.117   1.732   5.516
   43CHL1  H18C 4318   6.088   1.635   5.357
   43CHL1   C12 4319   5.852   1.773   5.576
   43CHL1  H12A 4320   5.842   1.874   5.529
   43CHL1  H12B 4321   5.753   1.735   5.610
   43CHL1   C11 4322   5.931   1.794   5.703
   43CHL1  H11A 4323   6.022   1.849   5.672
   43CHL1  H11B 4324   5.876   1.865   5.768
   43CHL1    C9 4325   5.964   1.658   5.779
   43CHL1    H9 4326   5.861   1.628   5.808
   43CHL1   C10 4327   6.047   1.676   5.907
   43CHL1   C19 4328   6.173   1.763   5.887
   43CHL1  H19A 4329   6.245   1.716   5.817
   43CHL1  H19B 4330   6.126   1.854   5.845
   43CHL1  H19C 4331   6.220   1.789   5.984
   43CHL1    C1 4332   5.947   1.736   6.012
   43CHL1   H1A 4333   5.913   1.834   5.972
   43CHL1   H1B 4334   5.854   1.675   6.019
   43CHL1    C2 4335   6.005   1.749   6.155
   43CHL1   H2A 4336   5.926   1.778   6.228
   43CHL1   H2B 4337   6.088   1.823   6.160
   43CHL1   C20 4338   5.829   1.706   5.219
   43CHL1   H20 4339   5.932   1.699   5.178
   43CHL1   C21 4340   5.774   1.853   5.244
   43CHL1  H21A 4341   5.831   1.910   5.321
   43CHL1  H21B 4342   5.668   1.845   5.276
   43CHL1  H21C 4343   5.785   1.915   5.153
   43CHL1   C22 4344   5.751   1.623   5.112
   43CHL1  H22A 4345   5.789   1.519   5.101
   43CHL1  H22B 4346   5.650   1.605   5.154
   43CHL1   C23 4347   5.737   1.689   4.978
   43CHL1  H23A 4348   5.658   1.764   4.996
   43CHL1  H23B 4349   5.828   1.749   4.955
   43CHL1   C24 4350   5.689   1.599   4.858
   43CHL1  H24A 4351   5.782   1.554   4.816
   43CHL1  H24B 4352   5.616   1.526   4.900
   43CHL1   C25 4353   5.620   1.662   4.735
   43CHL1   H25 4354   5.520   1.693   4.771
   43CHL1   C26 4355   5.689   1.793   4.694
   43CHL1  H26A 4356   5.794   1.768   4.669
   43CHL1  H26B 4357   5.639   1.821   4.599
   43CHL1  H26C 4358   5.694   1.875   4.769
   43CHL1   C27 4359   5.590   1.576   4.608
   43CHL1  H27A 4360   5.679   1.530   4.560
   43CHL1  H27B 4361   5.529   1.489   4.643
   43CHL1  H27C 4362   5.528   1.629   4.533
   44CHL1    C3 4363   6.636   2.949   5.708
   44CHL1    H3 4364   6.533   2.977   5.678
   44CHL1    O3 4365   6.639   2.900   5.843
   44CHL1   H3' 4366   6.726   2.917   5.880
   44CHL1    C4 4367   6.693   2.838   5.617
   44CHL1   H4A 4368   6.793   2.798   5.644
   44CHL1   H4B 4369   6.628   2.751   5.640
   44CHL1    C5 4370   6.685   2.882   5.469
   44CHL1    C6 4371   6.612   2.815   5.384
   44CHL1    H6 4372   6.560   2.724   5.416
   44CHL1    C7 4373   6.603   2.864   5.242
   44CHL1   H7A 4374   6.604   2.776   5.174
   44CHL1   H7B 4375   6.498   2.895   5.224
   44CHL1    C8 4376   6.717   2.959   5.193
   44CHL1    H8 4377   0.011   2.891   5.184
   44CHL1   C14 4378   6.688   3.018   5.057
   44CHL1   H14 4379   6.594   3.077   5.056
   44CHL1   C15 4380   6.678   2.923   4.941
   44CHL1  H15A 4381   6.769   2.859   4.945
   44CHL1  H15B 4382   6.588   2.858   4.952
   44CHL1   C16 4383   6.686   3.005   4.817
   44CHL1  H16A 4384   6.773   2.968   4.759
   44CHL1  H16B 4385   6.590   2.991   4.763
   44CHL1   C17 4386   6.728   3.142   4.866
   44CHL1   H17 4387   6.635   3.197   4.889
   44CHL1   C13 4388   6.792   3.126   5.010
   44CHL1   C18 4389   0.134   3.055   5.003
   44CHL1  H18A 4390   0.150   2.991   4.914
   44CHL1  H18B 4391   0.211   3.135   4.999
   44CHL1  H18C 4392   0.141   3.007   5.103
   44CHL1   C12 4393   6.788   3.245   5.110
   44CHL1  H12A 4394   0.079   3.314   5.087
   44CHL1  H12B 4395   6.690   3.297   5.106
   44CHL1   C11 4396   0.021   3.188   5.259
   44CHL1  H11A 4397   0.131   3.172   5.266
   44CHL1  H11B 4398   0.002   3.281   5.317
   44CHL1    C9 4399   6.724   3.070   5.302
   44CHL1    H9 4400   6.623   3.115   5.296
   44CHL1   C10 4401   6.753   3.017   5.447
   44CHL1   C19 4402   0.111   2.992   5.445
   44CHL1  H19A 4403   0.143   2.940   5.538
   44CHL1  H19B 4404   0.152   2.939   5.356
   44CHL1  H19C 4405   0.162   3.091   5.453
   44CHL1    C1 4406   6.718   3.121   5.559
   44CHL1   H1A 4407   6.761   3.222   5.540
   44CHL1   H1B 4408   6.609   3.135   5.544
   44CHL1    C2 4409   6.728   3.072   5.706
   44CHL1   H2A 4410   6.676   3.134   5.783
   44CHL1   H2B 4411   0.040   3.047   5.734
   44CHL1   C20 4412   0.020   3.229   4.774
   44CHL1   H20 4413   0.128   3.212   4.796
   44CHL1   C21 4414   6.791   3.382   4.814
   44CHL1  H21A 4415   0.093   3.432   4.785
   44CHL1  H21B 4416   6.780   3.409   4.921
   44CHL1  H21C 4417   6.718   3.433   4.747
   44CHL1   C22 4418   6.772   3.217   4.628
   44CHL1  H22A 4419   0.035   3.297   4.574
   44CHL1  H22B 4420   0.017   3.125   4.578
   44CHL1   C23 4421   6.623   3.257   4.592
   44CHL1  H23A 4422   6.549   3.199   4.653
   44CHL1  H23B 4423   6.606   3.365   4.614
   44CHL1   C24 4424   6.586   3.245   4.449
   44CHL1  H24A 4425   6.608   3.140   4.422
   44CHL1  H24B 4426   6.481   3.275   4.429
   44CHL1   C25 4427   6.669   3.333   4.359
   44CHL1   H25 4428   6.778   3.317   4.375
   44CHL1   C26 4429   6.631   3.291   4.214
   44CHL1  H26A 4430   6.654   3.363   4.133
   44CHL1  H26B 4431   6.675   3.192   4.190
   44CHL1  H26C 4432   6.520   3.291   4.212
   44CHL1   C27 4433   6.639   3.486   4.380
   44CHL1  H27A 4434   6.668   3.552   4.296
   44CHL1  H27B 4435   6.529   3.504   4.384
   44CHL1  H27C 4436   6.701   3.527   4.462
   45CHL1    C3 4437   6.241   4.304   5.940
   45CHL1    H3 4438   6.161   4.381   5.938
   45CHL1    O3 4439   6.267   4.259   6.073
   45CHL1   H3' 4440   6.353   4.217   6.072
   45CHL1    C4 4441   6.197   4.190   5.854
   45CHL1   H4A 4442   6.270   4.107   5.869
   45CHL1   H4B 4443   6.106   4.153   5.904
   45CHL1    C5 4444   6.182   4.215   5.709
   45CHL1    C6 4445   6.060   4.196   5.649
   45CHL1    H6 4446   5.977   4.155   5.708
   45CHL1    C7 4447   6.041   4.220   5.500
   45CHL1   H7A 4448   6.024   4.122   5.452
   45CHL1   H7B 4449   5.959   4.289   5.469
   45CHL1    C8 4450   6.171   4.258   5.427
   45CHL1    H8 4451   6.220   4.163   5.394
   45CHL1   C14 4452   6.137   4.331   5.299
   45CHL1   H14 4453   6.093   4.425   5.342
   45CHL1   C15 4454   6.027   4.269   5.207
   45CHL1  H15A 4455   6.050   4.162   5.188
   45CHL1  H15B 4456   5.925   4.286   5.247
   45CHL1   C16 4457   6.036   4.352   5.080
   45CHL1  H16A 4458   6.031   4.278   4.997
   45CHL1  H16B 4459   5.956   4.425   5.057
   45CHL1   C17 4460   6.168   4.436   5.083
   45CHL1   H17 4461   6.148   4.540   5.117
   45CHL1   C13 4462   6.249   4.370   5.198
   45CHL1   C18 4463   6.328   4.249   5.142
   45CHL1  H18A 4464   6.262   4.193   5.072
   45CHL1  H18B 4465   6.412   4.289   5.081
   45CHL1  H18C 4466   6.363   4.178   5.220
   45CHL1   C12 4467   6.340   4.456   5.276
   45CHL1  H12A 4468   6.429   4.488   5.217
   45CHL1  H12B 4469   6.290   4.556   5.281
   45CHL1   C11 4470   6.382   4.402   5.418
   45CHL1  H11A 4471   6.443   4.313   5.389
   45CHL1  H11B 4472   6.445   4.484   5.459
   45CHL1    C9 4473   6.262   4.348   5.505
   45CHL1    H9 4474   6.203   4.436   5.537
   45CHL1   C10 4475   6.298   4.286   5.639
   45CHL1   C19 4476   6.412   4.182   5.607
   45CHL1  H19A 4477   6.389   4.131   5.512
   45CHL1  H19B 4478   6.508   4.236   5.592
   45CHL1  H19C 4479   6.418   4.107   5.689
   45CHL1    C1 4480   6.356   4.392   5.726
   45CHL1   H1A 4481   6.457   4.415   5.686
   45CHL1   H1B 4482   6.293   4.484   5.724
   45CHL1    C2 4483   6.369   4.371   5.888
   45CHL1   H2A 4484   6.380   4.470   5.937
   45CHL1   H2B 4485   6.455   4.306   5.912
   45CHL1   C20 4486   6.233   4.456   4.943
   45CHL1   H20 4487   6.274   4.359   4.910
   45CHL1   C21 4488   6.353   4.554   4.948
   45CHL1  H21A 4489   6.318   4.654   4.979
   45CHL1  H21B 4490   6.402   4.555   4.848
   45CHL1  H21C 4491   6.431   4.517   5.018
   45CHL1   C22 4492   6.139   4.501   4.823
   45CHL1  H22A 4493   6.046   4.442   4.831
   45CHL1  H22B 4494   6.106   4.607   4.836
   45CHL1   C23 4495   6.189   4.473   4.684
   45CHL1  H23A 4496   6.289   4.518   4.665
   45CHL1  H23B 4497   6.208   4.364   4.684
   45CHL1   C24 4498   6.097   4.524   4.575
   45CHL1  H24A 4499   5.996   4.481   4.591
   45CHL1  H24B 4500   6.081   4.633   4.590
   45CHL1   C25 4501   6.146   4.496   4.431
   45CHL1   H25 4502   6.230   4.567   4.414
   45CHL1   C26 4503   6.200   4.350   4.409
   45CHL1  H26A 4504   6.125   4.272   4.435
   45CHL1  H26B 4505   6.245   4.333   4.309
   45CHL1  H26C 4506   6.286   4.338   4.478
   45CHL1   C27 4507   6.032   4.533   4.340
   45CHL1  H27A 4508   6.062   4.553   4.235
   45CHL1  H27B 4509   5.957   4.451   4.341
   45CHL1  H27C 4510   5.973   4.622   4.371
   46CHL1    C3 4511   2.069   5.860   6.437
   46CHL1    H3 4512   2.103   5.965   6.438
   46CHL1    O3 4513   2.076   5.803   6.566
   46CHL1   H3' 4514   2.087   5.710   6.544
   46CHL1    C4 4515   1.921   5.869   6.403
   46CHL1   H4A 4516   1.876   5.770   6.424
   46CHL1   H4B 4517   1.868   5.927   6.482
   46CHL1    C5 4518   1.904   5.934   6.266
   46CHL1    C6 4519   1.833   6.055   6.245
   46CHL1    H6 4520   1.773   6.097   6.327
   46CHL1    C7 4521   1.809   6.111   6.104
   46CHL1   H7A 4522   1.702   6.138   6.093
   46CHL1   H7B 4523   1.859   6.211   6.099
   46CHL1    C8 4524   1.860   6.026   5.980
   46CHL1    H8 4525   1.783   5.948   5.962
   46CHL1   C14 4526   1.867   6.096   5.849
   46CHL1   H14 4527   1.936   6.180   5.870
   46CHL1   C15 4528   1.735   6.153   5.797
   46CHL1  H15A 4529   1.648   6.085   5.806
   46CHL1  H15B 4530   1.714   6.252   5.842
   46CHL1   C16 4531   1.780   6.173   5.653
   46CHL1  H16A 4532   1.695   6.143   5.588
   46CHL1  H16B 4533   1.798   6.280   5.632
   46CHL1   C17 4534   1.916   6.114   5.622
   46CHL1   H17 4535   1.995   6.190   5.640
   46CHL1   C13 4536   1.930   6.010   5.736
   46CHL1   C18 4537   1.842   5.887   5.700
   46CHL1  H18A 4538   1.895   5.816   5.633
   46CHL1  H18B 4539   1.820   5.823   5.789
   46CHL1  H18C 4540   1.741   5.909   5.659
   46CHL1   C12 4541   2.074   5.976   5.766
   46CHL1  H12A 4542   2.115   5.911   5.686
   46CHL1  H12B 4543   2.136   6.069   5.766
   46CHL1   C11 4544   2.077   5.907   5.906
   46CHL1  H11A 4545   2.021   5.812   5.890
   46CHL1  H11B 4546   2.184   5.893   5.935
   46CHL1    C9 4547   1.989   5.962   6.025
   46CHL1    H9 4548   2.049   6.051   6.054
   46CHL1   C10 4549   1.976   5.867   6.146
   46CHL1   C19 4550   1.904   5.742   6.102
   46CHL1  H19A 4551   1.899   5.676   6.192
   46CHL1  H19B 4552   1.795   5.763   6.093
   46CHL1  H19C 4553   1.947   5.680   6.020
   46CHL1    C1 4554   2.121   5.838   6.199
   46CHL1   H1A 4555   2.167   5.774   6.121
   46CHL1   H1B 4556   2.174   5.936   6.198
   46CHL1    C2 4557   2.135   5.771   6.339
   46CHL1   H2A 4558   2.243   5.782   6.363
   46CHL1   H2B 4559   2.090   5.669   6.342
   46CHL1   C20 4560   1.919   6.073   5.475
   46CHL1   H20 4561   1.841   5.998   5.453
   46CHL1   C21 4562   2.051   6.004   5.442
   46CHL1  H21A 4563   2.061   5.909   5.499
   46CHL1  H21B 4564   2.138   6.067   5.472
   46CHL1  H21C 4565   2.061   5.982   5.334
   46CHL1   C22 4566   1.892   6.186   5.372
   46CHL1  H22A 4567   1.789   6.227   5.384
   46CHL1  H22B 4568   1.963   6.270   5.389
   46CHL1   C23 4569   1.889   6.136   5.226
   46CHL1  H23A 4570   1.986   6.095   5.191
   46CHL1  H23B 4571   1.820   6.050   5.216
   46CHL1   C24 4572   1.841   6.252   5.138
   46CHL1  H24A 4573   1.755   6.302   5.188
   46CHL1  H24B 4574   1.922   6.327   5.133
   46CHL1   C25 4575   1.811   6.224   4.988
   46CHL1   H25 4576   1.720   6.164   4.965
   46CHL1   C26 4577   1.793   6.354   4.911
   46CHL1  H26A 4578   1.881   6.421   4.923
   46CHL1  H26B 4579   1.772   6.320   4.807
   46CHL1  H26C 4580   1.708   6.415   4.948
   46CHL1   C27 4581   1.923   6.149   4.926
   46CHL1  H27A 4582   1.939   6.045   4.962
   46CHL1  H27B 4583   1.912   6.133   4.816
   46CHL1  H27C 4584   2.021   6.197   4.949
   47CHL1    C3 4585   3.582   4.774   6.225
   47CHL1    H3 4586   3.509   4.693   6.206
   47CHL1    O3 4587   3.608   4.782   6.360
   47CHL1   H3' 4588   3.691   4.829   6.373
   47CHL1    C4 4589   3.724   4.749   6.160
   47CHL1   H4A 4590   3.784   4.836   6.194
   47CHL1   H4B 4591   3.761   4.651   6.196
   47CHL1    C5 4592   3.723   4.750   6.005
   47CHL1    C6 4593   3.777   4.654   5.934
   47CHL1    H6 4594   3.833   4.575   5.987
   47CHL1    C7 4595   3.774   4.641   5.784
   47CHL1   H7A 4596   3.875   4.611   5.748
   47CHL1   H7B 4597   3.707   4.559   5.751
   47CHL1    C8 4598   3.722   4.767   5.722
   47CHL1    H8 4599   3.804   4.841   5.729
   47CHL1   C14 4600   3.681   4.759   5.571
   47CHL1   H14 4601   3.596   4.687   5.567
   47CHL1   C15 4602   3.785   4.698   5.477
   47CHL1  H15A 4603   3.880   4.752   5.494
   47CHL1  H15B 4604   3.795   4.589   5.497
   47CHL1   C16 4605   3.734   4.733   5.338
   47CHL1  H16A 4606   3.819   4.779   5.282
   47CHL1  H16B 4607   3.692   4.646   5.285
   47CHL1   C17 4608   3.617   4.841   5.362
   47CHL1   H17 4609   3.526   4.779   5.350
   47CHL1   C13 4610   3.627   4.891   5.504
   47CHL1   C18 4611   3.731   5.005   5.523
   47CHL1  H18A 4612   3.696   5.105   5.488
   47CHL1  H18B 4613   3.752   5.010   5.632
   47CHL1  H18C 4614   3.826   4.984   5.470
   47CHL1   C12 4615   3.495   4.921   5.579
   47CHL1  H12A 4616   3.447   5.017   5.552
   47CHL1  H12B 4617   3.421   4.840   5.560
   47CHL1   C11 4618   3.522   4.938   5.727
   47CHL1  H11A 4619   3.575   5.034   5.741
   47CHL1  H11B 4620   3.419   4.940   5.769
   47CHL1    C9 4621   3.605   4.824   5.797
   47CHL1    H9 4622   3.535   4.738   5.806
   47CHL1   C10 4623   3.637   4.860   5.944
   47CHL1   C19 4624   3.726   4.990   5.945
   47CHL1  H19A 4625   3.654   5.072   5.967
   47CHL1  H19B 4626   3.798   4.996   6.029
   47CHL1  H19C 4627   3.779   5.011   5.849
   47CHL1    C1 4628   3.508   4.885   6.019
   47CHL1   H1A 4629   3.465   4.979   5.980
   47CHL1   H1B 4630   3.429   4.808   6.004
   47CHL1    C2 4631   3.526   4.900   6.169
   47CHL1   H2A 4632   3.426   4.922   6.214
   47CHL1   H2B 4633   3.594   4.983   6.196
   47CHL1   C20 4634   3.613   4.939   5.246
   47CHL1   H20 4635   3.711   4.992   5.244
   47CHL1   C21 4636   3.504   5.049   5.269
   47CHL1  H21A 4637   3.513   5.127   5.190
   47CHL1  H21B 4638   3.511   5.099   5.368
   47CHL1  H21C 4639   3.400   5.011   5.267
   47CHL1   C22 4640   3.603   4.882   5.109
   47CHL1  H22A 4641   3.684   4.813   5.079
   47CHL1  H22B 4642   3.510   4.822   5.100
   47CHL1   C23 4643   3.615   4.986   4.997
   47CHL1  H23A 4644   3.540   5.067   5.011
   47CHL1  H23B 4645   3.715   5.035   5.004
   47CHL1   C24 4646   3.580   4.938   4.853
   47CHL1  H24A 4647   3.578   5.027   4.787
   47CHL1  H24B 4648   3.664   4.868   4.833
   47CHL1   C25 4649   3.441   4.873   4.833
   47CHL1   H25 4650   3.431   4.781   4.895
   47CHL1   C26 4651   3.319   4.956   4.870
   47CHL1  H26A 4652   3.226   4.897   4.850
   47CHL1  H26B 4653   3.314   4.968   4.980
   47CHL1  H26C 4654   3.316   5.056   4.821
   47CHL1   C27 4655   3.427   4.820   4.689
   47CHL1  H27A 4656   3.512   4.754   4.660
   47CHL1  H27B 4657   3.342   4.755   4.662
   47CHL1  H27C 4658   3.419   4.909   4.622
   48CHL1    C3 4659   0.980   5.492   6.080
   48CHL1    H3 4660   0.920   5.585   6.091
   48CHL1    O3 4661   1.002   5.457   6.214
   48CHL1   H3' 4662   1.074   5.394   6.209
   48CHL1    C4 4663   0.902   5.392   5.995
   48CHL1   H4A 4664   0.949   5.291   6.000
   48CHL1   H4B 4665   0.804   5.382   6.046
   48CHL1    C5 4666   0.892   5.430   5.850
   48CHL1    C6 4667   0.770   5.430   5.795
   48CHL1    H6 4668   0.685   5.409   5.861
   48CHL1    C7 4669   0.748   5.445   5.641
   48CHL1   H7A 4670   0.689   5.361   5.598
   48CHL1   H7B 4671   0.684   5.531   5.612
   48CHL1    C8 4672   0.885   5.448   5.567
   48CHL1    H8 4673   0.916   5.344   5.543
   48CHL1   C14 4674   0.871   5.511   5.428
   48CHL1   H14 4675   0.840   5.617   5.444
   48CHL1   C15 4676   0.772   5.440   5.335
   48CHL1  H15A 4677   0.789   5.331   5.347
   48CHL1  H15B 4678   0.666   5.455   5.366
   48CHL1   C16 4679   0.806   5.488   5.192
   48CHL1  H16A 4680   0.813   5.399   5.125
   48CHL1  H16B 4681   0.733   5.550   5.136
   48CHL1   C17 4682   0.933   5.586   5.207
   48CHL1   H17 4683   0.897   5.686   5.240
   48CHL1   C13 4684   0.997   5.542   5.342
   48CHL1   C18 4685   1.082   5.418   5.313
   48CHL1  H18A 4686   1.139   5.374   5.397
   48CHL1  H18B 4687   1.015   5.343   5.264
   48CHL1  H18C 4688   1.166   5.430   5.241
   48CHL1   C12 4689   1.087   5.643   5.419
   48CHL1  H12A 4690   1.180   5.668   5.362
   48CHL1  H12B 4691   1.019   5.727   5.444
   48CHL1   C11 4692   1.127   5.573   5.557
   48CHL1  H11A 4693   1.197   5.488   5.539
   48CHL1  H11B 4694   1.186   5.651   5.609
   48CHL1    C9 4695   0.998   5.531   5.639
   48CHL1    H9 4696   0.938   5.621   5.663
   48CHL1   C10 4697   1.021   5.475   5.775
   48CHL1   C19 4698   1.097   5.342   5.757
   48CHL1  H19A 4699   1.049   5.262   5.695
   48CHL1  H19B 4700   1.195   5.355   5.706
   48CHL1  H19C 4701   1.112   5.293   5.856
   48CHL1    C1 4702   1.097   5.573   5.873
   48CHL1   H1A 4703   1.192   5.595   5.820
   48CHL1   H1B 4704   1.027   5.659   5.872
   48CHL1    C2 4705   1.118   5.527   6.019
   48CHL1   H2A 4706   1.156   5.606   6.086
   48CHL1   H2B 4707   1.178   5.434   6.034
   48CHL1   C20 4708   1.020   5.608   5.083
   48CHL1   H20 4709   1.122   5.636   5.116
   48CHL1   C21 4710   0.971   5.737   5.006
   48CHL1  H21A 4711   1.019   5.745   4.906
   48CHL1  H21B 4712   0.862   5.718   4.999
   48CHL1  H21C 4713   0.986   5.831   5.063
   48CHL1   C22 4714   1.044   5.485   4.990
   48CHL1  H22A 4715   1.065   5.392   5.046
   48CHL1  H22B 4716   0.950   5.467   4.934
   48CHL1   C23 4717   1.160   5.498   4.894
   48CHL1  H23A 4718   1.149   5.603   4.858
   48CHL1  H23B 4719   1.250   5.489   4.959
   48CHL1   C24 4720   1.183   5.407   4.772
   48CHL1  H24A 4721   1.180   5.303   4.810
   48CHL1  H24B 4722   1.090   5.412   4.711
   48CHL1   C25 4723   1.320   5.430   4.696
   48CHL1   H25 4724   1.397   5.437   4.775
   48CHL1   C26 4725   1.368   5.314   4.602
   48CHL1  H26A 4726   1.474   5.342   4.584
   48CHL1  H26B 4727   1.362   5.221   4.663
   48CHL1  H26C 4728   1.300   5.326   4.515
   48CHL1   C27 4729   1.323   5.561   4.610
   48CHL1  H27A 4730   1.281   5.651   4.659
   48CHL1  H27B 4731   1.429   5.593   4.599
   48CHL1  H27C 4732   1.278   5.543   4.511
   49CHL1    C3 4733   4.223   4.107   2.736
   49CHL1    H3 4734   4.121   4.112   2.780
   49CHL1    O3 4735   4.199   4.083   2.596
   49CHL1   H3' 4736   4.284   4.081   2.551
   49CHL1    C4 4737   4.302   4.240   2.756
   49CHL1   H4A 4738   4.396   4.223   2.700
   49CHL1   H4B 4739   4.251   4.325   2.706
   49CHL1    C5 4740   4.333   4.261   2.909
   49CHL1    C6 4741   4.299   4.379   2.972
   49CHL1    H6 4742   4.253   4.459   2.912
   49CHL1    C7 4743   4.327   4.410   3.115
   49CHL1   H7A 4744   4.368   4.511   3.131
   49CHL1   H7B 4745   4.235   4.403   3.177
   49CHL1    C8 4746   4.418   4.308   3.173
   49CHL1    H8 4747   4.518   4.335   3.133
   49CHL1   C14 4748   4.419   4.323   3.331
   49CHL1   H14 4749   4.319   4.288   3.362
   49CHL1   C15 4750   4.451   4.464   3.387
   49CHL1  H15A 4751   4.505   4.516   3.305
   49CHL1  H15B 4752   4.350   4.511   3.390
   49CHL1   C16 4753   4.509   4.436   3.529
   49CHL1  H16A 4754   4.611   4.480   3.522
   49CHL1  H16B 4755   4.448   4.476   3.613
   49CHL1   C17 4756   4.523   4.280   3.543
   49CHL1   H17 4757   4.429   4.246   3.592
   49CHL1   C13 4758   4.521   4.223   3.402
   49CHL1   C18 4759   4.660   4.227   3.332
   49CHL1  H18A 4760   4.693   4.331   3.351
   49CHL1  H18B 4761   4.730   4.154   3.379
   49CHL1  H18C 4762   4.651   4.208   3.223
   49CHL1   C12 4763   4.461   4.075   3.379
   49CHL1  H12A 4764   4.510   3.988   3.426
   49CHL1  H12B 4765   4.357   4.088   3.418
   49CHL1   C11 4766   4.446   4.047   3.228
   49CHL1  H11A 4767   4.549   4.023   3.195
   49CHL1  H11B 4768   4.399   3.948   3.214
   49CHL1    C9 4769   4.380   4.163   3.138
   49CHL1    H9 4770   4.277   4.154   3.177
   49CHL1   C10 4771   4.394   4.142   2.988
   49CHL1   C19 4772   4.541   4.114   2.944
   49CHL1  H19A 4773   4.546   4.104   2.833
   49CHL1  H19B 4774   4.608   4.196   2.977
   49CHL1  H19C 4775   4.589   4.019   2.978
   49CHL1    C1 4776   4.303   4.017   2.957
   49CHL1   H1A 4777   4.365   3.935   3.000
   49CHL1   H1B 4778   4.204   4.021   3.008
   49CHL1    C2 4779   4.287   3.986   2.807
   49CHL1   H2A 4780   4.219   3.901   2.786
   49CHL1   H2B 4781   4.378   3.968   2.746
   49CHL1   C20 4782   4.637   4.242   3.636
   49CHL1   H20 4783   4.735   4.258   3.586
   49CHL1   C21 4784   4.644   4.088   3.651
   49CHL1  H21A 4785   4.687   4.052   3.555
   49CHL1  H21B 4786   4.549   4.038   3.682
   49CHL1  H21C 4787   4.719   4.060   3.728
   49CHL1   C22 4788   4.627   4.325   3.769
   49CHL1  H22A 4789   4.653   4.432   3.751
   49CHL1  H22B 4790   4.530   4.316   3.822
   49CHL1   C23 4791   4.739   4.286   3.873
   49CHL1  H23A 4792   4.734   4.178   3.898
   49CHL1  H23B 4793   4.845   4.289   3.838
   49CHL1   C24 4794   4.722   4.367   4.011
   49CHL1  H24A 4795   4.742   4.473   3.988
   49CHL1  H24B 4796   4.617   4.377   4.043
   49CHL1   C25 4797   4.811   4.324   4.127
   49CHL1   H25 4798   4.807   4.397   4.211
   49CHL1   C26 4799   4.763   4.190   4.174
   49CHL1  H26A 4800   4.841   4.149   4.242
   49CHL1  H26B 4801   4.664   4.190   4.226
   49CHL1  H26C 4802   4.746   4.118   4.091
   49CHL1   C27 4803   4.960   4.307   4.083
   49CHL1  H27A 4804   4.987   4.400   4.028
   49CHL1  H27B 4805   5.024   4.314   4.173
   49CHL1  H27C 4806   4.971   4.214   4.022
   50CHL1    C3 4807   4.078   1.375   2.980
   50CHL1    H3 4808   3.990   1.421   2.930
   50CHL1    O3 4809   4.189   1.359   2.885
   50CHL1   H3' 4810   4.273   1.371   2.929
   50CHL1    C4 4811   4.125   1.464   3.103
   50CHL1   H4A 4812   4.225   1.430   3.139
   50CHL1   H4B 4813   4.138   1.567   3.063
   50CHL1    C5 4814   4.030   1.466   3.219
   50CHL1    C6 4815   3.989   1.584   3.272
   50CHL1    H6 4816   4.012   1.678   3.220
   50CHL1    C7 4817   3.899   1.590   3.391
   50CHL1   H7A 4818   3.933   1.660   3.470
   50CHL1   H7B 4819   3.799   1.631   3.366
   50CHL1    C8 4820   3.884   1.452   3.463
   50CHL1    H8 4821   3.980   1.445   3.518
   50CHL1   C14 4822   3.764   1.442   3.553
   50CHL1   H14 4823   3.673   1.429   3.491
   50CHL1   C15 4824   3.737   1.562   3.639
   50CHL1  H15A 4825   3.828   1.603   3.688
   50CHL1  H15B 4826   3.692   1.643   3.577
   50CHL1   C16 4827   3.635   1.510   3.742
   50CHL1  H16A 4828   3.655   1.543   3.846
   50CHL1  H16B 4829   3.534   1.555   3.729
   50CHL1   C17 4830   3.633   1.356   3.731
   50CHL1   H17 4831   3.545   1.326   3.670
   50CHL1   C13 4832   3.761   1.328   3.649
   50CHL1   C18 4833   3.879   1.323   3.749
   50CHL1  H18A 4834   3.898   1.416   3.807
   50CHL1  H18B 4835   3.865   1.235   3.815
   50CHL1  H18C 4836   3.976   1.306   3.697
   50CHL1   C12 4837   3.749   1.203   3.562
   50CHL1  H12A 4838   3.739   1.113   3.627
   50CHL1  H12B 4839   3.654   1.210   3.506
   50CHL1   C11 4840   3.861   1.198   3.457
   50CHL1  H11A 4841   3.957   1.166   3.503
   50CHL1  H11B 4842   3.841   1.111   3.391
   50CHL1    C9 4843   3.879   1.332   3.370
   50CHL1    H9 4844   3.789   1.354   3.308
   50CHL1   C10 4845   3.995   1.325   3.269
   50CHL1   C19 4846   4.116   1.258   3.334
   50CHL1  H19A 4847   4.207   1.277   3.273
   50CHL1  H19B 4848   4.138   1.295   3.436
   50CHL1  H19C 4849   4.102   1.148   3.336
   50CHL1    C1 4850   3.948   1.229   3.148
   50CHL1   H1A 4851   3.931   1.128   3.190
   50CHL1   H1B 4852   3.849   1.269   3.117
   50CHL1    C2 4853   4.043   1.233   3.034
   50CHL1   H2A 4854   4.011   1.165   2.952
   50CHL1   H2B 4855   4.136   1.184   3.069
   50CHL1   C20 4856   3.617   1.286   3.873
   50CHL1   H20 4857   3.692   1.323   3.946
   50CHL1   C21 4858   3.618   1.129   3.855
   50CHL1  H21A 4859   3.720   1.101   3.821
   50CHL1  H21B 4860   3.539   1.091   3.787
   50CHL1  H21C 4861   3.585   1.080   3.949
   50CHL1   C22 4862   3.481   1.336   3.934
   50CHL1  H22A 4863   3.477   1.447   3.926
   50CHL1  H22B 4864   3.400   1.274   3.891
   50CHL1   C23 4865   3.467   1.310   4.088
   50CHL1  H23A 4866   3.462   1.200   4.100
   50CHL1  H23B 4867   3.553   1.360   4.137
   50CHL1   C24 4868   3.338   1.366   4.145
   50CHL1  H24A 4869   3.327   1.476   4.132
   50CHL1  H24B 4870   3.258   1.324   4.081
   50CHL1   C25 4871   3.308   1.341   4.301
   50CHL1   H25 4872   3.308   1.230   4.312
   50CHL1   C26 4873   3.407   1.401   4.395
   50CHL1  H26A 4874   3.511   1.372   4.369
   50CHL1  H26B 4875   3.418   1.512   4.391
   50CHL1  H26C 4876   3.379   1.366   4.496
   50CHL1   C27 4877   3.167   1.388   4.337
   50CHL1  H27A 4878   3.091   1.323   4.289
   50CHL1  H27B 4879   3.152   1.380   4.447
   50CHL1  H27C 4880   3.148   1.497   4.324
   51CHL1    C3 4881   3.846   2.773   2.983
   51CHL1    H3 4882   3.925   2.849   2.969
   51CHL1    O3 4883   3.811   2.730   2.857
   51CHL1   H3' 4884   3.802   2.811   2.806
   51CHL1    C4 4885   3.911   2.662   3.062
   51CHL1   H4A 4886   3.843   2.573   3.058
   51CHL1   H4B 4887   3.998   2.624   3.005
   51CHL1    C5 4888   3.938   2.678   3.208
   51CHL1    C6 4889   4.058   2.673   3.253
   51CHL1    H6 4890   4.140   2.639   3.188
   51CHL1    C7 4891   4.096   2.710   3.391
   51CHL1   H7A 4892   4.176   2.641   3.426
   51CHL1   H7B 4893   4.140   2.811   3.384
   51CHL1    C8 4894   3.982   2.733   3.491
   51CHL1    H8 4895   3.949   2.635   3.531
   51CHL1   C14 4896   4.024   2.815   3.611
   51CHL1   H14 4897   4.046   2.917   3.570
   51CHL1   C15 4898   4.141   2.764   3.687
   51CHL1  H15A 4899   4.144   2.653   3.693
   51CHL1  H15B 4900   4.238   2.787   3.638
   51CHL1   C16 4901   4.135   2.820   3.827
   51CHL1  H16A 4902   4.140   2.733   3.896
   51CHL1  H16B 4903   4.226   2.881   3.847
   51CHL1   C17 4904   4.004   2.892   3.832
   51CHL1   H17 4905   4.034   2.992   3.791
   51CHL1   C13 4906   3.919   2.838   3.718
   51CHL1   C18 4907   3.853   2.704   3.764
   51CHL1  H18A 4908   3.762   2.722   3.825
   51CHL1  H18B 4909   3.820   2.645   3.676
   51CHL1  H18C 4910   3.929   2.640   3.813
   51CHL1   C12 4911   3.819   2.936   3.654
   51CHL1  H12A 4912   3.732   2.964   3.717
   51CHL1  H12B 4913   3.864   3.035   3.632
   51CHL1   C11 4914   3.766   2.860   3.526
   51CHL1  H11A 4915   3.701   2.776   3.559
   51CHL1  H11B 4916   3.691   2.925   3.475
   51CHL1    C9 4917   3.879   2.813   3.414
   51CHL1    H9 4918   3.919   2.910   3.377
   51CHL1   C10 4919   3.819   2.748   3.294
   51CHL1   C19 4920   3.729   2.629   3.337
   51CHL1  H19A 4921   3.758   2.558   3.417
   51CHL1  H19B 4922   3.622   2.658   3.341
   51CHL1  H19C 4923   3.730   2.561   3.248
   51CHL1    C1 4924   3.745   2.858   3.206
   51CHL1   H1A 4925   3.643   2.870   3.250
   51CHL1   H1B 4926   3.791   2.958   3.219
   51CHL1    C2 4927   3.722   2.815   3.057
   51CHL1   H2A 4928   3.681   2.898   2.996
   51CHL1   H2B 4929   3.655   2.727   3.053
   51CHL1   C20 4930   3.938   2.927   3.966
   51CHL1   H20 4931   3.830   2.937   3.944
   51CHL1   C21 4932   4.002   3.055   4.019
   51CHL1  H21A 4933   4.104   3.043   4.063
   51CHL1  H21B 4934   3.940   3.095   4.101
   51CHL1  H21C 4935   4.007   3.137   3.944
   51CHL1   C22 4936   3.946   2.816   4.074
   51CHL1  H22A 4937   3.879   2.735   4.038
   51CHL1  H22B 4938   4.045   2.772   4.099
   51CHL1   C23 4939   3.891   2.855   4.214
   51CHL1  H23A 4940   3.964   2.926   4.259
   51CHL1  H23B 4941   3.804   2.923   4.201
   51CHL1   C24 4942   3.867   2.739   4.305
   51CHL1  H24A 4943   3.797   2.663   4.263
   51CHL1  H24B 4944   3.958   2.684   4.336
   51CHL1   C25 4945   3.809   2.787   4.436
   51CHL1   H25 4946   3.866   2.871   4.482
   51CHL1   C26 4947   3.667   2.837   4.418
   51CHL1  H26A 4948   3.613   2.827   4.515
   51CHL1  H26B 4949   3.678   2.945   4.391
   51CHL1  H26C 4950   3.611   2.792   4.333
   51CHL1   C27 4951   3.803   2.666   4.528
   51CHL1  H27A 4952   3.795   2.696   4.634
   51CHL1  H27B 4953   3.716   2.601   4.504
   51CHL1  H27C 4954   3.895   2.603   4.520
   52CHL1    C3 4955   3.307   4.206   2.827
   52CHL1    H3 4956   3.318   4.315   2.845
   52CHL1    O3 4957   3.329   4.176   2.692
   52CHL1   H3' 4958   3.414   4.219   2.681
   52CHL1    C4 4959   3.408   4.132   2.919
   52CHL1   H4A 4960   3.409   4.030   2.875
   52CHL1   H4B 4961   3.502   4.188   2.897
   52CHL1    C5 4962   3.376   4.141   3.067
   52CHL1    C6 4963   3.456   4.202   3.152
   52CHL1    H6 4964   3.547   4.247   3.111
   52CHL1    C7 4965   3.438   4.194   3.300
   52CHL1   H7A 4966   3.537   4.163   3.341
   52CHL1   H7B 4967   3.421   4.295   3.343
   52CHL1    C8 4968   3.321   4.098   3.333
   52CHL1    H8 4969   3.357   3.994   3.327
   52CHL1   C14 4970   3.282   4.143   3.475
   52CHL1   H14 4971   3.245   4.247   3.466
   52CHL1   C15 4972   3.380   4.150   3.593
   52CHL1  H15A 4973   3.456   4.070   3.587
   52CHL1  H15B 4974   3.435   4.246   3.590
   52CHL1   C16 4975   3.305   4.140   3.723
   52CHL1  H16A 4976   3.345   4.056   3.784
   52CHL1  H16B 4977   3.312   4.234   3.783
   52CHL1   C17 4978   3.159   4.112   3.679
   52CHL1   H17 4979   3.110   4.209   3.661
   52CHL1   C13 4980   3.171   4.055   3.536
   52CHL1   C18 4981   3.218   3.902   3.543
   52CHL1  H18A 4982   3.149   3.831   3.595
   52CHL1  H18B 4983   3.236   3.856   3.443
   52CHL1  H18C 4984   3.319   3.901   3.588
   52CHL1   C12 4985   3.050   4.065   3.447
   52CHL1  H12A 4986   2.964   4.009   3.491
   52CHL1  H12B 4987   3.034   4.175   3.455
   52CHL1   C11 4988   3.081   4.029   3.306
   52CHL1  H11A 4989   3.122   3.926   3.314
   52CHL1  H11B 4990   2.986   4.049   3.251
   52CHL1    C9 4991   3.202   4.114   3.245
   52CHL1    H9 4992   3.172   4.220   3.249
   52CHL1   C10 4993   3.237   4.087   3.093
   52CHL1   C19 4994   3.232   3.928   3.058
   52CHL1  H19A 4995   3.251   3.911   2.950
   52CHL1  H19B 4996   3.302   3.882   3.131
   52CHL1  H19C 4997   3.127   3.896   3.078
   52CHL1    C1 4998   3.132   4.156   3.007
   52CHL1   H1A 4999   3.033   4.105   3.014
   52CHL1   H1B 5000   3.113   4.262   3.034
   52CHL1    C2 5001   3.170   4.161   2.857
   52CHL1   H2A 5002   3.092   4.227   2.814
   52CHL1   H2B 5003   3.152   4.061   2.812
   52CHL1   C20 5004   3.063   4.043   3.774
   52CHL1   H20 5005   2.976   4.007   3.715
   52CHL1   C21 5006   3.015   4.157   3.870
   52CHL1  H21A 5007   2.944   4.100   3.933
   52CHL1  H21B 5008   2.966   4.234   3.806
   52CHL1  H21C 5009   3.090   4.205   3.937
   52CHL1   C22 5010   3.122   3.928   3.867
   52CHL1  H22A 5011   3.185   3.862   3.804
   52CHL1  H22B 5012   3.197   3.967   3.939
   52CHL1   C23 5013   3.014   3.834   3.925
   52CHL1  H23A 5014   2.929   3.889   3.970
   52CHL1  H23B 5015   2.976   3.764   3.848
   52CHL1   C24 5016   3.073   3.739   4.033
   52CHL1  H24A 5017   3.171   3.713   3.989
   52CHL1  H24B 5018   3.092   3.800   4.124
   52CHL1   C25 5019   3.000   3.605   4.058
   52CHL1   H25 5020   2.975   3.563   3.958
   52CHL1   C26 5021   3.084   3.506   4.140
   52CHL1  H26A 5022   3.110   3.541   4.242
   52CHL1  H26B 5023   3.026   3.416   4.167
   52CHL1  H26C 5024   3.182   3.485   4.093
   52CHL1   C27 5025   2.872   3.637   4.130
   52CHL1  H27A 5026   2.808   3.550   4.155
   52CHL1  H27B 5027   2.904   3.690   4.222
   52CHL1  H27C 5028   2.813   3.706   4.066
   53CHL1    C3 5029   3.334   3.071   3.540
   53CHL1    H3 5030   3.394   3.137   3.606
   53CHL1    O3 5031   3.361   3.119   3.409
   53CHL1   H3' 5032   3.313   3.061   3.349
   53CHL1    C4 5033   3.381   2.928   3.561
   53CHL1   H4A 5034   3.319   2.871   3.489
   53CHL1   H4B 5035   3.490   2.931   3.538
   53CHL1    C5 5036   3.349   2.880   3.701
   53CHL1    C6 5037   3.446   2.832   3.781
   53CHL1    H6 5038   3.545   2.810   3.739
   53CHL1    C7 5039   3.429   2.783   3.925
   53CHL1   H7A 5040   3.488   2.689   3.936
   53CHL1   H7B 5041   3.476   2.857   3.993
   53CHL1    C8 5042   3.276   2.767   3.953
   53CHL1    H8 5043   3.251   2.674   3.897
   53CHL1   C14 5044   3.255   2.738   4.103
   53CHL1   H14 5045   3.297   2.824   4.160
   53CHL1   C15 5046   3.337   2.625   4.173
   53CHL1  H15A 5047   3.323   2.529   4.119
   53CHL1  H15B 5048   3.446   2.645   4.177
   53CHL1   C16 5049   3.272   2.616   4.315
   53CHL1  H16A 5050   3.240   2.511   4.333
   53CHL1  H16B 5051   3.350   2.647   4.388
   53CHL1   C17 5052   3.145   2.707   4.312
   53CHL1   H17 5053   3.173   2.802   4.361
   53CHL1   C13 5054   3.117   2.734   4.161
   53CHL1   C18 5055   3.047   2.611   4.103
   53CHL1  H18A 5056   3.068   2.605   3.994
   53CHL1  H18B 5057   3.085   2.513   4.140
   53CHL1  H18C 5058   2.937   2.611   4.122
   53CHL1   C12 5059   3.046   2.862   4.124
   53CHL1  H12A 5060   2.942   2.882   4.155
   53CHL1  H12B 5061   3.110   2.937   4.175
   53CHL1   C11 5062   3.052   2.894   3.969
   53CHL1  H11A 5063   2.995   2.810   3.923
   53CHL1  H11B 5064   3.003   2.989   3.940
   53CHL1    C9 5065   3.196   2.886   3.909
   53CHL1    H9 5066   3.252   2.968   3.958
   53CHL1   C10 5067   3.209   2.910   3.755
   53CHL1   C19 5068   3.118   2.806   3.680
   53CHL1  H19A 5069   3.012   2.841   3.689
   53CHL1  H19B 5070   3.141   2.801   3.572
   53CHL1  H19C 5071   3.134   2.706   3.724
   53CHL1    C1 5072   3.170   3.052   3.727
   53CHL1   H1A 5073   3.069   3.085   3.759
   53CHL1   H1B 5074   3.238   3.117   3.786
   53CHL1    C2 5075   3.181   3.090   3.575
   53CHL1   H2A 5076   3.165   3.199   3.584
   53CHL1   H2B 5077   3.117   3.032   3.504
   53CHL1   C20 5078   3.031   2.633   4.401
   53CHL1   H20 5079   3.025   2.534   4.351
   53CHL1   C21 5080   2.909   2.720   4.391
   53CHL1  H21A 5081   2.929   2.822   4.430
   53CHL1  H21B 5082   2.822   2.681   4.447
   53CHL1  H21C 5083   2.888   2.736   4.283
   53CHL1   C22 5084   3.062   2.613   4.551
   53CHL1  H22A 5085   3.157   2.556   4.563
   53CHL1  H22B 5086   3.079   2.714   4.595
   53CHL1   C23 5087   2.957   2.535   4.628
   53CHL1  H23A 5088   2.875   2.610   4.633
   53CHL1  H23B 5089   2.927   2.445   4.570
   53CHL1   C24 5090   2.985   2.480   4.764
   53CHL1  H24A 5091   3.075   2.414   4.758
   53CHL1  H24B 5092   3.016   2.566   4.827
   53CHL1   C25 5093   2.874   2.410   4.836
   53CHL1   H25 5094   2.908   2.352   4.924
   53CHL1   C26 5095   2.758   2.489   4.882
   53CHL1  H26A 5096   2.685   2.439   4.950
   53CHL1  H26B 5097   2.800   2.582   4.925
   53CHL1  H26C 5098   2.693   2.526   4.799
   53CHL1   C27 5099   2.821   2.296   4.743
   53CHL1  H27A 5100   2.786   2.206   4.797
   53CHL1  H27B 5101   2.737   2.318   4.674
   53CHL1  H27C 5102   2.913   2.263   4.689
   54CHL1    C3 5103   2.708   3.339   3.152
   54CHL1    H3 5104   2.717   3.411   3.236
   54CHL1    O3 5105   2.755   3.397   3.030
   54CHL1   H3' 5106   2.780   3.322   2.976
   54CHL1    C4 5107   2.795   3.217   3.178
   54CHL1   H4A 5108   2.787   3.141   3.097
   54CHL1   H4B 5109   2.902   3.248   3.178
   54CHL1    C5 5110   2.745   3.136   3.303
   54CHL1    C6 5111   2.834   3.110   3.407
   54CHL1    H6 5112   2.938   3.145   3.391
   54CHL1    C7 5113   2.809   3.026   3.521
   54CHL1   H7A 5114   2.890   2.951   3.536
   54CHL1   H7B 5115   2.807   3.092   3.610
   54CHL1    C8 5116   2.673   2.957   3.521
   54CHL1    H8 5117   2.686   2.862   3.465
   54CHL1   C14 5118   2.626   2.918   3.659
   54CHL1   H14 5119   2.612   3.014   3.714
   54CHL1   C15 5120   2.737   2.840   3.742
   54CHL1  H15A 5121   2.778   2.767   3.669
   54CHL1  H15B 5122   2.812   2.912   3.782
   54CHL1   C16 5123   2.648   2.781   3.852
   54CHL1  H16A 5124   2.655   2.670   3.861
   54CHL1  H16B 5125   2.684   2.807   3.953
   54CHL1   C17 5126   2.494   2.816   3.815
   54CHL1   H17 5127   2.471   2.910   3.868
   54CHL1   C13 5128   2.489   2.843   3.666
   54CHL1   C18 5129   2.500   2.705   3.588
   54CHL1  H18A 5130   2.400   2.655   3.587
   54CHL1  H18B 5131   2.522   2.719   3.480
   54CHL1  H18C 5132   2.573   2.638   3.638
   54CHL1   C12 5133   2.386   2.931   3.600
   54CHL1  H12A 5134   2.288   2.878   3.594
   54CHL1  H12B 5135   2.376   3.023   3.662
   54CHL1   C11 5136   2.428   2.971   3.458
   54CHL1  H11A 5137   2.437   2.889   3.384
   54CHL1  H11B 5138   2.347   3.035   3.418
   54CHL1    C9 5139   2.564   3.046   3.453
   54CHL1    H9 5140   2.564   3.133   3.523
   54CHL1   C10 5141   2.604   3.096   3.303
   54CHL1   C19 5142   2.574   2.987   3.197
   54CHL1  H19A 5143   2.467   2.977   3.167
   54CHL1  H19B 5144   2.637   3.006   3.107
   54CHL1  H19C 5145   2.603   2.882   3.218
   54CHL1    C1 5146   2.520   3.224   3.277
   54CHL1   H1A 5147   2.418   3.182   3.262
   54CHL1   H1B 5148   2.523   3.296   3.362
   54CHL1    C2 5149   2.562   3.290   3.146
   54CHL1   H2A 5150   2.501   3.378   3.117
   54CHL1   H2B 5151   2.561   3.219   3.060
   54CHL1   C20 5152   2.402   2.712   3.875
   54CHL1   H20 5153   2.424   2.615   3.825
   54CHL1   C21 5154   2.257   2.740   3.835
   54CHL1  H21A 5155   2.189   2.673   3.891
   54CHL1  H21B 5156   2.235   2.729   3.726
   54CHL1  H21C 5157   2.240   2.846   3.861
   54CHL1   C22 5158   2.409   2.692   4.030
   54CHL1  H22A 5159   2.340   2.610   4.059
   54CHL1  H22B 5160   2.512   2.658   4.054
   54CHL1   C23 5161   2.376   2.823   4.102
   54CHL1  H23A 5162   2.460   2.892   4.078
   54CHL1  H23B 5163   2.277   2.860   4.069
   54CHL1   C24 5164   2.389   2.807   4.258
   54CHL1  H24A 5165   2.498   2.795   4.272
   54CHL1  H24B 5166   2.376   2.910   4.299
   54CHL1   C25 5167   2.295   2.707   4.324
   54CHL1   H25 5168   2.330   2.608   4.287
   54CHL1   C26 5169   2.334   2.703   4.473
   54CHL1  H26A 5170   2.444   2.687   4.479
   54CHL1  H26B 5171   2.294   2.790   4.529
   54CHL1  H26C 5172   2.284   2.624   4.533
   54CHL1   C27 5173   2.143   2.730   4.289
   54CHL1  H27A 5174   2.107   2.825   4.332
   54CHL1  H27B 5175   2.113   2.723   4.182
   54CHL1  H27C 5176   2.088   2.645   4.335
   55CHL1    C3 5177   3.981   6.049   3.117
   55CHL1    H3 5178   3.938   6.149   3.140
   55CHL1    O3 5179   4.031   6.065   2.987
   55CHL1   H3' 5180   3.959   6.043   2.928
   55CHL1    C4 5181   4.100   6.007   3.205
   55CHL1   H4A 5182   4.138   5.906   3.180
   55CHL1   H4B 5183   4.190   6.071   3.198
   55CHL1    C5 5184   4.053   6.002   3.349
   55CHL1    C6 5185   4.096   6.088   3.439
   55CHL1    H6 5186   4.173   6.159   3.407
   55CHL1    C7 5187   4.050   6.086   3.579
   55CHL1   H7A 5188   4.136   6.088   3.649
   55CHL1   H7B 5189   3.984   6.173   3.600
   55CHL1    C8 5190   3.979   5.950   3.610
   55CHL1    H8 5191   4.056   5.871   3.618
   55CHL1   C14 5192   3.910   5.962   3.749
   55CHL1   H14 5193   3.829   6.038   3.741
   55CHL1   C15 5194   3.996   6.006   3.871
   55CHL1  H15A 5195   4.086   5.941   3.870
   55CHL1  H15B 5196   4.032   6.111   3.866
   55CHL1   C16 5197   3.913   5.966   3.999
   55CHL1  H16A 5198   3.981   5.909   4.065
   55CHL1  H16B 5199   3.868   6.055   4.049
   55CHL1   C17 5200   3.791   5.884   3.941
   55CHL1   H17 5201   3.710   5.958   3.928
   55CHL1   C13 5202   3.828   5.840   3.797
   55CHL1   C18 5203   3.911   5.708   3.806
   55CHL1  H18A 5204   3.985   5.708   3.889
   55CHL1  H18B 5205   3.832   5.635   3.836
   55CHL1  H18C 5206   3.964   5.678   3.713
   55CHL1   C12 5207   3.715   5.817   3.689
   55CHL1  H12A 5208   3.649   5.730   3.707
   55CHL1  H12B 5209   3.656   5.911   3.678
   55CHL1   C11 5210   3.776   5.805   3.548
   55CHL1  H11A 5211   3.831   5.709   3.539
   55CHL1  H11B 5212   3.699   5.807   3.468
   55CHL1    C9 5213   3.877   5.917   3.507
   55CHL1    H9 5214   3.807   6.004   3.512
   55CHL1   C10 5215   3.933   5.904   3.364
   55CHL1   C19 5216   3.974   5.760   3.345
   55CHL1  H19A 5217   4.021   5.747   3.245
   55CHL1  H19B 5218   4.043   5.727   3.426
   55CHL1  H19C 5219   3.886   5.691   3.344
   55CHL1    C1 5220   3.819   5.927   3.262
   55CHL1   H1A 5221   3.741   5.847   3.266
   55CHL1   H1B 5222   3.763   6.021   3.281
   55CHL1    C2 5223   3.868   5.936   3.115
   55CHL1   H2A 5224   3.788   5.972   3.048
   55CHL1   H2B 5225   3.895   5.839   3.067
   55CHL1   C20 5226   3.728   5.781   4.035
   55CHL1   H20 5227   3.795   5.693   4.047
   55CHL1   C21 5228   3.587   5.737   3.988
   55CHL1  H21A 5229   3.534   5.675   4.064
   55CHL1  H21B 5230   3.600   5.669   3.901
   55CHL1  H21C 5231   3.533   5.832   3.967
   55CHL1   C22 5232   3.713   5.847   4.178
   55CHL1  H22A 5233   3.814   5.872   4.215
   55CHL1  H22B 5234   3.648   5.934   4.157
   55CHL1   C23 5235   3.651   5.758   4.287
   55CHL1  H23A 5236   3.540   5.762   4.275
   55CHL1  H23B 5237   3.686   5.653   4.284
   55CHL1   C24 5238   3.678   5.814   4.425
   55CHL1  H24A 5239   3.782   5.852   4.428
   55CHL1  H24B 5240   3.616   5.906   4.430
   55CHL1   C25 5241   3.637   5.724   4.548
   55CHL1   H25 5242   3.544   5.676   4.511
   55CHL1   C26 5243   3.741   5.618   4.572
   55CHL1  H26A 5244   3.749   5.544   4.488
   55CHL1  H26B 5245   3.832   5.680   4.584
   55CHL1  H26C 5246   3.724   5.568   4.670
   55CHL1   C27 5247   3.624   5.802   4.676
   55CHL1  H27A 5248   3.609   5.735   4.763
   55CHL1  H27B 5249   3.721   5.850   4.702
   55CHL1  H27C 5250   3.546   5.881   4.679
   56CHL1    C3 5251   5.639   1.773   2.667
   56CHL1    H3 5252   5.582   1.868   2.677
   56CHL1    O3 5253   5.655   1.719   2.536
   56CHL1   H3' 5254   5.562   1.704   2.519
   56CHL1    C4 5255   5.785   1.810   2.717
   56CHL1   H4A 5256   5.837   1.715   2.691
   56CHL1   H4B 5257   5.833   1.889   2.656
   56CHL1    C5 5258   5.784   1.836   2.866
   56CHL1    C6 5259   5.847   1.953   2.905
   56CHL1    H6 5260   5.896   2.025   2.837
   56CHL1    C7 5261   5.863   1.994   3.048
   56CHL1   H7A 5262   5.971   2.007   3.071
   56CHL1   H7B 5263   5.807   2.086   3.074
   56CHL1    C8 5264   5.822   1.879   3.148
   56CHL1    H8 5265   5.904   1.806   3.163
   56CHL1   C14 5266   5.785   1.944   3.283
   56CHL1   H14 5267   5.698   2.011   3.268
   56CHL1   C15 5268   5.895   2.030   3.351
   56CHL1  H15A 5269   5.995   1.989   3.325
   56CHL1  H15B 5270   5.878   2.129   3.303
   56CHL1   C16 5271   5.843   2.039   3.494
   56CHL1  H16A 5272   5.927   2.008   3.558
   56CHL1  H16B 5273   5.811   2.140   3.529
   56CHL1   C17 5274   5.729   1.931   3.517
   56CHL1   H17 5275   5.627   1.974   3.508
   56CHL1   C13 5276   5.741   1.848   3.388
   56CHL1   C18 5277   5.857   1.746   3.407
   56CHL1  H18A 5278   5.863   1.677   3.320
   56CHL1  H18B 5279   5.955   1.796   3.419
   56CHL1  H18C 5280   5.833   1.681   3.493
   56CHL1   C12 5281   5.615   1.774   3.340
   56CHL1  H12A 5282   5.601   1.687   3.408
   56CHL1  H12B 5283   5.525   1.840   3.337
   56CHL1   C11 5284   5.643   1.703   3.198
   56CHL1  H11A 5285   5.718   1.622   3.210
   56CHL1  H11B 5286   5.549   1.650   3.171
   56CHL1    C9 5287   5.696   1.805   3.096
   56CHL1    H9 5288   5.625   1.891   3.090
   56CHL1   C10 5289   5.709   1.736   2.956
   56CHL1   C19 5290   5.793   1.606   2.965
   56CHL1  H19A 5291   5.880   1.620   3.034
   56CHL1  H19B 5292   5.726   1.533   3.016
   56CHL1  H19C 5293   5.827   1.548   2.876
   56CHL1    C1 5294   5.569   1.705   2.898
   56CHL1   H1A 5295   5.528   1.612   2.942
   56CHL1   H1B 5296   5.509   1.797   2.914
   56CHL1    C2 5297   5.569   1.665   2.750
   56CHL1   H2A 5298   5.461   1.655   2.724
   56CHL1   H2B 5299   5.621   1.567   2.740
   56CHL1   C20 5300   5.740   1.863   3.654
   56CHL1   H20 5301   5.842   1.818   3.652
   56CHL1   C21 5302   5.626   1.759   3.664
   56CHL1  H21A 5303   5.645   1.665   3.607
   56CHL1  H21B 5304   5.529   1.802   3.631
   56CHL1  H21C 5305   5.630   1.721   3.768
   56CHL1   C22 5306   5.737   1.961   3.777
   56CHL1  H22A 5307   5.810   2.038   3.744
   56CHL1  H22B 5308   5.637   2.009   3.788
   56CHL1   C23 5309   5.777   1.889   3.909
   56CHL1  H23A 5310   5.681   1.842   3.939
   56CHL1  H23B 5311   5.854   1.810   3.898
   56CHL1   C24 5312   5.823   1.990   4.010
   56CHL1  H24A 5313   5.925   2.026   3.982
   56CHL1  H24B 5314   5.755   2.078   4.009
   56CHL1   C25 5315   5.824   1.945   4.163
   56CHL1   H25 5316   5.725   1.894   4.169
   56CHL1   C26 5317   5.921   1.836   4.213
   56CHL1  H26A 5318   6.024   1.875   4.218
   56CHL1  H26B 5319   5.896   1.791   4.311
   56CHL1  H26C 5320   5.928   1.752   4.140
   56CHL1   C27 5321   5.824   2.059   4.267
   56CHL1  H27A 5322   5.911   2.124   4.242
   56CHL1  H27B 5323   5.733   2.122   4.276
   56CHL1  H27C 5324   5.842   2.034   4.374
   57CHL1    C3 5325   4.610   6.771   2.944
   57CHL1    H3 5326   4.651   0.075   2.978
   57CHL1    O3 5327   4.655   6.733   2.810
   57CHL1   H3' 5328   4.604   6.656   2.783
   57CHL1    C4 5329   4.671   6.666   3.035
   57CHL1   H4A 5330   4.641   6.571   2.987
   57CHL1   H4B 5331   4.782   6.657   3.027
   57CHL1    C5 5332   4.625   6.683   3.179
   57CHL1    C6 5333   4.711   6.697   3.278
   57CHL1    H6 5334   4.820   6.696   3.259
   57CHL1    C7 5335   4.671   6.728   3.419
   57CHL1   H7A 5336   4.740   6.676   3.489
   57CHL1   H7B 5337   4.688   0.040   3.450
   57CHL1    C8 5338   4.529   6.676   3.451
   57CHL1    H8 5339   4.528   6.566   3.440
   57CHL1   C14 5340   4.483   6.721   3.587
   57CHL1   H14 5341   4.502   0.036   3.570
   57CHL1   C15 5342   4.575   6.681   3.703
   57CHL1  H15A 5343   4.599   6.574   3.681
   57CHL1  H15B 5344   4.668   6.742   3.709
   57CHL1   C16 5345   4.490   6.693   3.832
   57CHL1  H16A 5346   4.482   6.594   3.882
   57CHL1  H16B 5347   4.535   6.770   3.898
   57CHL1   C17 5348   4.346   6.740   3.777
   57CHL1   H17 5349   4.358   0.058   3.772
   57CHL1   C13 5350   4.341   6.696   3.630
   57CHL1   C18 5351   4.306   6.541   3.623
   57CHL1  H18A 5352   4.326   6.505   3.520
   57CHL1  H18B 5353   4.375   6.488   3.693
   57CHL1  H18C 5354   4.203   6.513   3.652
   57CHL1   C12 5355   4.260   6.780   3.527
   57CHL1  H12A 5356   4.153   6.751   3.541
   57CHL1  H12B 5357   4.274   0.096   3.543
   57CHL1   C11 5358   4.297   6.744   3.379
   57CHL1  H11A 5359   4.257   6.641   3.370
   57CHL1  H11B 5360   4.235   0.011   3.309
   57CHL1    C9 5361   4.446   6.743   3.345
   57CHL1    H9 5362   4.474   0.058   3.346
   57CHL1   C10 5363   4.473   6.698   3.202
   57CHL1   C19 5364   4.417   6.551   3.186
   57CHL1  H19A 5365   4.306   6.554   3.193
   57CHL1  H19B 5366   4.434   6.515   3.082
   57CHL1  H19C 5367   4.445   6.474   3.260
   57CHL1    C1 5368   4.409   0.006   3.104
   57CHL1   H1A 5369   4.298   0.019   3.109
   57CHL1   H1B 5370   4.453   0.104   3.131
   57CHL1    C2 5371   4.456   6.782   2.955
   57CHL1   H2A 5372   4.413   0.075   2.899
   57CHL1   H2B 5373   4.399   6.699   2.910
   57CHL1   C20 5374   4.238   6.717   3.882
   57CHL1   H20 5375   4.201   6.612   3.884
   57CHL1   C21 5376   4.110   6.783   3.826
   57CHL1  H21A 5377   4.047   6.735   3.749
   57CHL1  H21B 5378   4.118   0.098   3.803
   57CHL1  H21C 5379   4.044   6.792   3.915
   57CHL1   C22 5380   4.268   6.757   4.026
   57CHL1  H22A 5381   4.172   6.748   4.080
   57CHL1  H22B 5382   4.338   6.688   4.076
   57CHL1   C23 5383   4.323   0.109   4.041
   57CHL1  H23A 5384   4.429   0.118   4.009
   57CHL1  H23B 5385   4.260   0.179   3.981
   57CHL1   C24 5386   4.314   0.163   4.184
   57CHL1  H24A 5387   4.386   0.247   4.186
   57CHL1  H24B 5388   4.217   0.211   4.211
   57CHL1   C25 5389   4.370   0.073   4.291
   57CHL1   H25 5390   4.315   6.770   4.297
   57CHL1   C26 5391   4.520   0.028   4.274
   57CHL1  H26A 5392   4.524   6.781   4.170
   57CHL1  H26B 5393   4.593   0.111   4.274
   57CHL1  H26C 5394   4.548   6.748   4.354
   57CHL1   C27 5395   4.356   0.140   4.435
   57CHL1  H27A 5396   4.252   0.158   4.469
   57CHL1  H27B 5397   4.397   0.062   4.503
   57CHL1  H27C 5398   4.406   0.239   4.440
   58CHL1    C3 5399   4.628   0.481   2.965
   58CHL1    H3 5400   4.720   0.534   2.996
   58CHL1    O3 5401   4.647   0.450   2.826
   58CHL1   H3' 5402   4.664   0.533   2.780
   58CHL1    C4 5403   4.608   0.350   3.038
   58CHL1   H4A 5404   4.515   0.301   3.001
   58CHL1   H4B 5405   4.697   0.286   3.018
   58CHL1    C5 5406   4.578   0.364   3.190
   58CHL1    C6 5407   4.652   0.307   3.286
   58CHL1    H6 5408   4.738   0.243   3.263
   58CHL1    C7 5409   4.630   0.331   3.431
   58CHL1   H7A 5410   4.627   0.239   3.494
   58CHL1   H7B 5411   4.712   0.397   3.465
   58CHL1    C8 5412   4.495   0.408   3.463
   58CHL1    H8 5413   4.414   0.333   3.459
   58CHL1   C14 5414   4.505   0.460   3.606
   58CHL1   H14 5415   4.575   0.546   3.601
   58CHL1   C15 5416   4.551   0.359   3.714
   58CHL1  H15A 5417   4.490   0.267   3.698
   58CHL1  H15B 5418   4.660   0.341   3.716
   58CHL1   C16 5419   4.499   0.438   3.840
   58CHL1  H16A 5420   4.461   0.356   3.905
   58CHL1  H16B 5421   4.580   0.476   3.906
   58CHL1   C17 5422   4.414   0.560   3.792
   58CHL1   H17 5423   4.479   0.650   3.781
   58CHL1   C13 5424   4.372   0.522   3.647
   58CHL1   C18 5425   4.253   0.426   3.664
   58CHL1  H18A 5426   4.228   0.397   3.560
   58CHL1  H18B 5427   4.267   0.337   3.728
   58CHL1  H18C 5428   4.168   0.484   3.707
   58CHL1   C12 5429   4.337   0.642   3.557
   58CHL1  H12A 5430   4.237   0.687   3.575
   58CHL1  H12B 5431   4.408   0.727   3.569
   58CHL1   C11 5432   4.346   0.605   3.404
   58CHL1  H11A 5433   4.253   0.550   3.378
   58CHL1  H11B 5434   4.348   0.700   3.346
   58CHL1    C9 5435   4.470   0.520   3.364
   58CHL1    H9 5436   4.556   0.590   3.369
   58CHL1   C10 5437   4.470   0.473   3.221
   58CHL1   C19 5438   4.331   0.406   3.183
   58CHL1  H19A 5439   4.339   0.362   3.081
   58CHL1  H19B 5440   4.297   0.329   3.257
   58CHL1  H19C 5441   4.251   0.481   3.166
   58CHL1    C1 5442   4.484   0.602   3.126
   58CHL1   H1A 5443   4.412   0.681   3.156
   58CHL1   H1B 5444   4.579   0.653   3.153
   58CHL1    C2 5445   4.506   0.573   2.985
   58CHL1   H2A 5446   4.519   0.665   2.923
   58CHL1   H2B 5447   4.414   0.528   2.943
   58CHL1   C20 5448   4.306   0.590   3.894
   58CHL1   H20 5449   4.237   0.504   3.903
   58CHL1   C21 5450   4.209   0.703   3.862
   58CHL1  H21A 5451   4.256   0.803   3.853
   58CHL1  H21B 5452   4.125   0.693   3.935
   58CHL1  H21C 5453   4.148   0.696   3.770
   58CHL1   C22 5454   4.371   0.628   4.038
   58CHL1  H22A 5455   4.445   0.549   4.066
   58CHL1  H22B 5456   4.441   0.711   4.017
   58CHL1   C23 5457   4.272   0.652   4.157
   58CHL1  H23A 5458   4.323   0.698   4.245
   58CHL1  H23B 5459   4.193   0.725   4.130
   58CHL1   C24 5460   4.201   0.534   4.204
   58CHL1  H24A 5461   4.125   0.501   4.130
   58CHL1  H24B 5462   4.268   0.449   4.229
   58CHL1   C25 5463   4.120   0.556   4.334
   58CHL1   H25 5464   4.182   0.618   4.402
   58CHL1   C26 5465   3.989   0.624   4.317
   58CHL1  H26A 5466   3.929   0.646   4.408
   58CHL1  H26B 5467   4.002   0.722   4.268
   58CHL1  H26C 5468   3.918   0.567   4.253
   58CHL1   C27 5469   4.104   0.420   4.409
   58CHL1  H27A 5470   4.010   0.366   4.385
   58CHL1  H27B 5471   4.203   0.372   4.394
   58CHL1  H27C 5472   4.088   0.454   4.514
   59CHL1    C3 5473   2.922   4.957   2.820
   59CHL1    H3 5474   2.823   4.915   2.846
   59CHL1    O3 5475   2.914   4.950   2.679
   59CHL1   H3' 5476   3.004   4.918   2.670
   59CHL1    C4 5477   2.920   5.107   2.858
   59CHL1   H4A 5478   3.012   5.158   2.821
   59CHL1   H4B 5479   2.829   5.154   2.815
   59CHL1    C5 5480   2.921   5.109   3.010
   59CHL1    C6 5481   2.819   5.157   3.078
   59CHL1    H6 5482   2.737   5.188   3.011
   59CHL1    C7 5483   2.817   5.188   3.225
   59CHL1   H7A 5484   2.792   5.295   3.243
   59CHL1   H7B 5485   2.743   5.119   3.270
   59CHL1    C8 5486   2.956   5.165   3.299
   59CHL1    H8 5487   3.014   5.259   3.283
   59CHL1   C14 5488   2.934   5.130   3.454
   59CHL1   H14 5489   2.882   5.032   3.460
   59CHL1   C15 5490   2.839   5.220   3.539
   59CHL1  H15A 5491   2.865   5.325   3.515
   59CHL1  H15B 5492   2.733   5.211   3.506
   59CHL1   C16 5493   2.874   5.195   3.683
   59CHL1  H16A 5494   2.923   5.286   3.723
   59CHL1  H16B 5495   2.788   5.167   3.747
   59CHL1   C17 5496   2.992   5.086   3.687
   59CHL1   H17 5497   2.945   4.986   3.693
   59CHL1   C13 5498   3.058   5.106   3.541
   59CHL1   C18 5499   3.144   5.238   3.540
   59CHL1  H18A 5500   3.244   5.225   3.586
   59CHL1  H18B 5501   3.157   5.262   3.432
   59CHL1  H18C 5502   3.090   5.324   3.585
   59CHL1   C12 5503   3.121   4.983   3.474
   59CHL1  H12A 5504   3.220   4.954   3.515
   59CHL1  H12B 5505   3.051   4.897   3.483
   59CHL1   C11 5506   3.155   5.007   3.329
   59CHL1  H11A 5507   3.227   5.092   3.327
   59CHL1  H11B 5508   3.193   4.920   3.272
   59CHL1    C9 5509   3.028   5.048   3.244
   59CHL1    H9 5510   2.966   4.958   3.262
   59CHL1   C10 5511   3.045   5.052   3.090
   59CHL1   C19 5512   3.183   5.124   3.054
   59CHL1  H19A 5513   3.274   5.080   3.100
   59CHL1  H19B 5514   3.193   5.136   2.944
   59CHL1  H19C 5515   3.187   5.227   3.095
   59CHL1    C1 5516   3.047   4.906   3.040
   59CHL1   H1A 5517   3.146   4.863   3.065
   59CHL1   H1B 5518   2.959   4.846   3.074
   59CHL1    C2 5519   3.045   4.887   2.882
   59CHL1   H2A 5520   3.038   4.779   2.858
   59CHL1   H2B 5521   3.133   4.936   2.835
   59CHL1   C20 5522   3.089   5.094   3.802
   59CHL1   H20 5523   3.122   5.200   3.798
   59CHL1   C21 5524   3.209   5.001   3.786
   59CHL1  H21A 5525   3.174   4.899   3.758
   59CHL1  H21B 5526   3.274   5.002   3.876
   59CHL1  H21C 5527   3.264   5.044   3.699
   59CHL1   C22 5528   3.025   5.059   3.937
   59CHL1  H22A 5529   2.924   5.103   3.945
   59CHL1  H22B 5530   3.002   4.950   3.941
   59CHL1   C23 5531   3.109   5.101   4.059
   59CHL1  H23A 5532   3.218   5.085   4.042
   59CHL1  H23B 5533   3.105   5.212   4.056
   59CHL1   C24 5534   3.054   5.042   4.193
   59CHL1  H24A 5535   2.946   5.061   4.211
   59CHL1  H24B 5536   3.065   4.932   4.184
   59CHL1   C25 5537   3.138   5.095   4.313
   59CHL1   H25 5538   3.236   5.130   4.274
   59CHL1   C26 5539   3.067   5.217   4.365
   59CHL1  H26A 5540   3.111   5.263   4.456
   59CHL1  H26B 5541   3.060   5.294   4.285
   59CHL1  H26C 5542   2.961   5.195   4.391
   59CHL1   C27 5543   3.165   4.994   4.424
   59CHL1  H27A 5544   3.066   4.964   4.465
   59CHL1  H27B 5545   3.221   4.904   4.392
   59CHL1  H27C 5546   3.229   5.031   4.507
   60CHL1    C3 5547   5.400   5.575   2.991
   60CHL1    H3 5548   5.410   5.465   3.002
   60CHL1    O3 5549   5.365   5.594   2.848
   60CHL1   H3' 5550   5.385   5.687   2.837
   60CHL1    C4 5551   5.290   5.639   3.086
   60CHL1   H4A 5552   5.259   5.742   3.059
   60CHL1   H4B 5553   5.197   5.579   3.072
   60CHL1    C5 5554   5.322   5.642   3.230
   60CHL1    C6 5555   5.231   5.604   3.321
   60CHL1    H6 5556   5.129   5.572   3.293
   60CHL1    C7 5557   5.268   5.610   3.470
   60CHL1   H7A 5558   5.185   5.641   3.537
   60CHL1   H7B 5559   5.279   5.503   3.498
   60CHL1    C8 5560   5.387   5.693   3.502
   60CHL1    H8 5561   5.355   5.799   3.491
   60CHL1   C14 5562   5.433   5.663   3.641
   60CHL1   H14 5563   5.472   5.559   3.638
   60CHL1   C15 5564   5.330   5.661   3.753
   60CHL1  H15A 5565   5.265   5.749   3.736
   60CHL1  H15B 5566   5.261   5.575   3.759
   60CHL1   C16 5567   5.417   5.677   3.886
   60CHL1  H16A 5568   5.371   5.758   3.947
   60CHL1  H16B 5569   5.413   5.589   3.952
   60CHL1   C17 5570   5.562   5.721   3.842
   60CHL1   H17 5571   5.607   5.620   3.840
   60CHL1   C13 5572   5.549   5.760   3.690
   60CHL1   C18 5573   5.510   5.905   3.676
   60CHL1  H18A 5574   5.409   5.926   3.717
   60CHL1  H18B 5575   5.577   5.976   3.730
   60CHL1  H18C 5576   5.505   5.940   3.570
   60CHL1   C12 5577   5.672   5.721   3.599
   60CHL1  H12A 5578   5.772   5.764   3.620
   60CHL1  H12B 5579   5.691   5.614   3.623
   60CHL1   C11 5580   5.633   5.729   3.450
   60CHL1  H11A 5581   5.635   5.838   3.432
   60CHL1  H11B 5582   5.716   5.683   3.392
   60CHL1    C9 5583   5.504   5.660   3.410
   60CHL1    H9 5584   5.514   5.549   3.414
   60CHL1   C10 5585   5.470   5.688   3.263
   60CHL1   C19 5586   5.463   5.842   3.239
   60CHL1  H19A 5587   5.452   5.893   3.337
   60CHL1  H19B 5588   5.552   5.882   3.185
   60CHL1  H19C 5589   5.369   5.883   3.195
   60CHL1    C1 5590   5.584   5.620   3.164
   60CHL1   H1A 5591   5.682   5.665   3.190
   60CHL1   H1B 5592   5.596   5.511   3.182
   60CHL1    C2 5593   5.540   5.628   3.018
   60CHL1   H2A 5594   5.612   5.571   2.956
   60CHL1   H2B 5595   5.539   5.737   2.993
   60CHL1   C20 5596   5.638   5.803   3.943
   60CHL1   H20 5597   5.612   5.911   3.946
   60CHL1   C21 5598   5.786   5.804   3.895
   60CHL1  H21A 5599   5.847   5.872   3.959
   60CHL1  H21B 5600   5.786   5.846   3.792
   60CHL1  H21C 5601   5.827   5.701   3.887
   60CHL1   C22 5602   5.625   5.753   4.090
   60CHL1  H22A 5603   5.517   5.738   4.113
   60CHL1  H22B 5604   5.679   5.656   4.093
   60CHL1   C23 5605   5.700   5.844   4.191
   60CHL1  H23A 5606   5.805   5.858   4.157
   60CHL1  H23B 5607   5.661   5.948   4.189
   60CHL1   C24 5608   5.693   5.784   4.339
   60CHL1  H24A 5609   5.603   5.719   4.349
   60CHL1  H24B 5610   5.767   5.704   4.358
   60CHL1   C25 5611   5.724   5.886   4.451
   60CHL1   H25 5612   5.677   5.985   4.434
   60CHL1   C26 5613   5.676   5.835   4.593
   60CHL1  H26A 5614   5.723   5.902   4.669
   60CHL1  H26B 5615   5.571   5.869   4.602
   60CHL1  H26C 5616   5.700   5.727   4.605
   60CHL1   C27 5617   5.877   5.924   4.455
   60CHL1  H27A 5618   5.934   5.832   4.481
   60CHL1  H27B 5619   5.901   5.973   4.358
   60CHL1  H27C 5620   5.886   5.996   4.539
   61CHL1    C3 5621   5.338   2.231   2.881
   61CHL1    H3 5622   5.234   2.227   2.921
   61CHL1    O3 5623   5.344   2.205   2.741
   61CHL1   H3' 5624   5.440   2.213   2.733
   61CHL1    C4 5625   5.390   2.374   2.911
   61CHL1   H4A 5626   5.488   2.383   2.859
   61CHL1   H4B 5627   5.320   2.446   2.863
   61CHL1    C5 5628   5.413   2.403   3.056
   61CHL1    C6 5629   5.369   2.520   3.103
   61CHL1    H6 5630   5.327   2.594   3.034
   61CHL1    C7 5631   5.378   2.558   3.248
   61CHL1   H7A 5632   5.405   2.666   3.258
   61CHL1   H7B 5633   5.282   2.545   3.303
   61CHL1    C8 5634   5.486   2.472   3.328
   61CHL1    H8 5635   5.586   2.504   3.292
   61CHL1   C14 5636   5.466   2.482   3.476
   61CHL1   H14 5637   5.364   2.442   3.494
   61CHL1   C15 5638   5.469   2.622   3.532
   61CHL1  H15A 5639   5.563   2.675   3.503
   61CHL1  H15B 5640   5.390   2.698   3.512
   61CHL1   C16 5641   5.479   2.606   3.682
   61CHL1  H16A 5642   5.550   2.678   3.729
   61CHL1  H16B 5643   5.383   2.615   3.737
   61CHL1   C17 5644   5.515   2.454   3.706
   61CHL1   H17 5645   5.421   2.397   3.725
   61CHL1   C13 5646   5.561   2.400   3.562
   61CHL1   C18 5647   5.705   2.427   3.528
   61CHL1  H18A 5648   5.736   2.394   3.427
   61CHL1  H18B 5649   5.730   2.535   3.531
   61CHL1  H18C 5650   5.775   2.389   3.605
   61CHL1   C12 5651   5.517   2.249   3.542
   61CHL1  H12A 5652   5.582   2.178   3.599
   61CHL1  H12B 5653   5.410   2.226   3.562
   61CHL1   C11 5654   5.535   2.213   3.391
   61CHL1  H11A 5655   5.642   2.206   3.362
   61CHL1  H11B 5656   5.486   2.115   3.370
   61CHL1    C9 5657   5.467   2.323   3.292
   61CHL1    H9 5658   5.359   2.304   3.311
   61CHL1   C10 5659   5.480   2.293   3.143
   61CHL1   C19 5660   5.637   2.297   3.105
   61CHL1  H19A 5661   5.692   2.225   3.170
   61CHL1  H19B 5662   5.653   2.270   2.999
   61CHL1  H19C 5663   5.681   2.396   3.128
   61CHL1    C1 5664   5.418   2.151   3.111
   61CHL1   H1A 5665   5.485   2.074   3.154
   61CHL1   H1B 5666   5.316   2.138   3.155
   61CHL1    C2 5667   5.414   2.118   2.959
   61CHL1   H2A 5668   5.374   2.018   2.933
   61CHL1   H2B 5669   5.521   2.116   2.929
   61CHL1   C20 5670   5.603   2.433   3.824
   61CHL1   H20 5671   5.702   2.479   3.804
   61CHL1   C21 5672   5.639   2.282   3.841
   61CHL1  H21A 5673   5.690   2.236   3.754
   61CHL1  H21B 5674   5.544   2.224   3.840
   61CHL1  H21C 5675   5.693   2.269   3.937
   61CHL1   C22 5676   5.529   2.490   3.952
   61CHL1  H22A 5677   5.526   2.601   3.953
   61CHL1  H22B 5678   5.424   2.452   3.959
   61CHL1   C23 5679   5.600   2.457   4.081
   61CHL1  H23A 5680   5.589   2.348   4.100
   61CHL1  H23B 5681   5.708   2.473   4.062
   61CHL1   C24 5682   5.548   2.542   4.200
   61CHL1  H24A 5683   5.559   2.650   4.177
   61CHL1  H24B 5684   5.438   2.532   4.204
   61CHL1   C25 5685   5.603   2.501   4.340
   61CHL1   H25 5686   5.592   2.391   4.348
   61CHL1   C26 5687   5.757   2.528   4.337
   61CHL1  H26A 5688   5.811   2.491   4.426
   61CHL1  H26B 5689   5.808   2.470   4.257
   61CHL1  H26C 5690   5.778   2.635   4.315
   61CHL1   C27 5691   5.529   2.575   4.453
   61CHL1  H27A 5692   5.538   2.685   4.439
   61CHL1  H27B 5693   5.423   2.544   4.443
   61CHL1  H27C 5694   5.577   2.550   4.550
   62CHL1    C3 5695   1.624   0.556   2.857
   62CHL1    H3 5696   1.550   0.635   2.833
   62CHL1    O3 5697   1.658   0.497   2.728
   62CHL1   H3' 5698   1.735   0.443   2.749
   62CHL1    C4 5699   1.737   0.626   2.921
   62CHL1   H4A 5700   1.817   0.549   2.913
   62CHL1   H4B 5701   1.780   0.714   2.869
   62CHL1    C5 5702   1.702   0.660   3.063
   62CHL1    C6 5703   1.718   0.787   3.105
   62CHL1    H6 5704   1.766   0.856   3.034
   62CHL1    C7 5705   1.699   0.843   3.241
   62CHL1   H7A 5706   1.783   0.914   3.260
   62CHL1   H7B 5707   1.606   0.902   3.251
   62CHL1    C8 5708   1.689   0.721   3.340
   62CHL1    H8 5709   1.794   0.683   3.338
   62CHL1   C14 5710   1.651   0.765   3.477
   62CHL1   H14 5711   1.552   0.811   3.456
   62CHL1   C15 5712   1.733   0.876   3.540
   62CHL1  H15A 5713   1.838   0.844   3.528
   62CHL1  H15B 5714   1.721   0.978   3.498
   62CHL1   C16 5715   1.686   0.873   3.685
   62CHL1  H16A 5716   1.779   0.859   3.744
   62CHL1  H16B 5717   1.646   0.964   3.736
   62CHL1   C17 5718   1.583   0.751   3.697
   62CHL1   H17 5719   1.481   0.789   3.674
   62CHL1   C13 5720   1.619   0.658   3.574
   62CHL1   C18 5721   1.745   0.582   3.609
   62CHL1  H18A 5722   1.814   0.652   3.661
   62CHL1  H18B 5723   1.742   0.491   3.674
   62CHL1  H18C 5724   1.799   0.552   3.517
   62CHL1   C12 5725   1.507   0.567   3.514
   62CHL1  H12A 5726   1.481   0.495   3.595
   62CHL1  H12B 5727   1.413   0.622   3.496
   62CHL1   C11 5728   1.548   0.501   3.386
   62CHL1  H11A 5729   1.624   0.423   3.407
   62CHL1  H11B 5730   1.462   0.450   3.337
   62CHL1    C9 5731   1.597   0.609   3.285
   62CHL1    H9 5732   1.504   0.664   3.261
   62CHL1   C10 5733   1.647   0.549   3.156
   62CHL1   C19 5734   1.762   0.445   3.175
   62CHL1  H19A 5735   1.709   0.356   3.217
   62CHL1  H19B 5736   1.798   0.416   3.074
   62CHL1  H19C 5737   1.839   0.474   3.248
   62CHL1    C1 5738   1.527   0.489   3.077
   62CHL1   H1A 5739   1.485   0.399   3.128
   62CHL1   H1B 5740   1.440   0.558   3.076
   62CHL1    C2 5741   1.553   0.443   2.935
   62CHL1   H2A 5742   1.464   0.410   2.877
   62CHL1   H2B 5743   1.622   0.355   2.938
   62CHL1   C20 5744   1.588   0.687   3.839
   62CHL1   H20 5745   1.689   0.650   3.865
   62CHL1   C21 5746   1.495   0.561   3.857
   62CHL1  H21A 5747   1.535   0.482   3.790
   62CHL1  H21B 5748   1.390   0.590   3.838
   62CHL1  H21C 5749   1.496   0.522   3.961
   62CHL1   C22 5750   1.550   0.783   3.952
   62CHL1  H22A 5751   1.535   0.887   3.917
   62CHL1  H22B 5752   1.451   0.746   3.985
   62CHL1   C23 5753   1.657   0.783   4.066
   62CHL1  H23A 5754   1.639   0.679   4.100
   62CHL1  H23B 5755   1.751   0.808   4.013
   62CHL1   C24 5756   1.637   0.884   4.182
   62CHL1  H24A 5757   1.642   0.986   4.140
   62CHL1  H24B 5758   1.542   0.854   4.230
   62CHL1   C25 5759   1.736   0.878   4.300
   62CHL1   H25 5760   1.706   0.791   4.362
   62CHL1   C26 5761   1.883   0.880   4.250
   62CHL1  H26A 5762   1.923   0.792   4.195
   62CHL1  H26B 5763   1.892   0.951   4.165
   62CHL1  H26C 5764   1.947   0.906   4.337
   62CHL1   C27 5765   1.702   0.992   4.392
   62CHL1  H27A 5766   1.699   1.084   4.330
   62CHL1  H27B 5767   1.601   0.979   4.438
   62CHL1  H27C 5768   1.778   1.013   4.470
   63CHL1    C3 5769   4.631   5.175   2.619
   63CHL1    H3 5770   4.704   5.090   2.616
   63CHL1    O3 5771   4.607   5.228   2.491
   63CHL1   H3' 5772   4.691   5.245   2.447
   63CHL1    C4 5773   4.501   5.112   2.668
   63CHL1   H4A 5774   4.431   5.197   2.676
   63CHL1   H4B 5775   4.452   5.041   2.598
   63CHL1    C5 5776   4.519   5.061   2.809
   63CHL1    C6 5777   4.486   4.934   2.835
   63CHL1    H6 5778   4.452   4.869   2.753
   63CHL1    C7 5779   4.483   4.883   2.977
   63CHL1   H7A 5780   4.398   4.814   2.997
   63CHL1   H7B 5781   4.577   4.823   2.978
   63CHL1    C8 5782   4.508   4.983   3.087
   63CHL1    H8 5783   4.413   5.038   3.100
   63CHL1   C14 5784   4.552   4.920   3.219
   63CHL1   H14 5785   4.648   4.872   3.191
   63CHL1   C15 5786   4.466   4.814   3.272
   63CHL1  H15A 5787   4.358   4.829   3.250
   63CHL1  H15B 5788   4.483   4.725   3.206
   63CHL1   C16 5789   4.511   4.797   3.414
   63CHL1  H16A 5790   4.419   4.809   3.475
   63CHL1  H16B 5791   4.564   4.701   3.432
   63CHL1   C17 5792   4.614   4.911   3.442
   63CHL1   H17 5793   4.712   4.873   3.407
   63CHL1   C13 5794   4.574   5.021   3.338
   63CHL1   C18 5795   4.445   5.090   3.377
   63CHL1  H18A 5796   4.363   5.027   3.417
   63CHL1  H18B 5797   4.466   5.163   3.458
   63CHL1  H18C 5798   4.394   5.144   3.294
   63CHL1   C12 5799   4.686   5.121   3.298
   63CHL1  H12A 5800   4.703   5.208   3.365
   63CHL1  H12B 5801   4.782   5.065   3.289
   63CHL1   C11 5802   4.666   5.187   3.159
   63CHL1  H11A 5803   4.593   5.263   3.192
   63CHL1  H11B 5804   4.761   5.231   3.121
   63CHL1    C9 5805   4.616   5.089   3.049
   63CHL1    H9 5806   4.698   5.018   3.023
   63CHL1   C10 5807   4.571   5.163   2.919
   63CHL1   C19 5808   4.457   5.265   2.952
   63CHL1  H19A 5809   4.492   5.350   3.014
   63CHL1  H19B 5810   4.415   5.308   2.858
   63CHL1  H19C 5811   4.383   5.224   3.024
   63CHL1    C1 5812   4.692   5.237   2.850
   63CHL1   H1A 5813   4.725   5.314   2.924
   63CHL1   H1B 5814   4.781   5.170   2.852
   63CHL1    C2 5815   4.674   5.295   2.709
   63CHL1   H2A 5816   4.772   5.330   2.669
   63CHL1   H2B 5817   4.593   5.370   2.702
   63CHL1   C20 5818   4.621   4.954   3.586
   63CHL1   H20 5819   4.545   5.027   3.619
   63CHL1   C21 5820   4.752   5.021   3.620
   63CHL1  H21A 5821   4.839   4.952   3.627
   63CHL1  H21B 5822   4.745   5.077   3.716
   63CHL1  H21C 5823   4.781   5.091   3.538
   63CHL1   C22 5824   4.617   4.826   3.679
   63CHL1  H22A 5825   4.533   4.756   3.663
   63CHL1  H22B 5826   4.707   4.766   3.653
   63CHL1   C23 5827   4.614   4.867   3.824
   63CHL1  H23A 5828   4.708   4.921   3.852
   63CHL1  H23B 5829   4.532   4.938   3.845
   63CHL1   C24 5830   4.608   4.747   3.928
   63CHL1  H24A 5831   4.516   4.690   3.902
   63CHL1  H24B 5832   4.705   4.697   3.905
   63CHL1   C25 5833   4.608   4.793   4.070
   63CHL1   H25 5834   4.708   4.840   4.082
   63CHL1   C26 5835   4.496   4.893   4.108
   63CHL1  H26A 5836   4.505   4.916   4.217
   63CHL1  H26B 5837   4.485   4.992   4.059
   63CHL1  H26C 5838   4.401   4.837   4.092
   63CHL1   C27 5839   4.607   4.668   4.158
   63CHL1  H27A 5840   4.703   4.612   4.157
   63CHL1  H27B 5841   4.578   4.692   4.262
   63CHL1  H27C 5842   4.528   4.602   4.116
   64CHL1    C3 5843   2.832   2.737   3.022
   64CHL1    H3 5844   2.799   2.814   3.096
   64CHL1    O3 5845   2.861   2.809   2.902
   64CHL1   H3' 5846   2.871   2.741   2.836
   64CHL1    C4 5847   2.958   2.671   3.091
   64CHL1   H4A 5848   2.996   2.605   3.011
   64CHL1   H4B 5849   3.042   2.742   3.102
   64CHL1    C5 5850   2.922   2.592   3.219
   64CHL1    C6 5851   2.991   2.626   3.328
   64CHL1    H6 5852   3.071   2.700   3.310
   64CHL1    C7 5853   2.966   2.562   3.458
   64CHL1   H7A 5854   3.058   2.516   3.500
   64CHL1   H7B 5855   2.938   2.644   3.527
   64CHL1    C8 5856   2.853   2.453   3.458
   64CHL1    H8 5857   2.896   2.354   3.432
   64CHL1   C14 5858   2.796   2.446   3.602
   64CHL1   H14 5859   2.741   2.542   3.609
   64CHL1   C15 5860   2.889   2.432   3.729
   64CHL1  H15A 5861   2.985   2.380   3.707
   64CHL1  H15B 5862   2.928   2.533   3.754
   64CHL1   C16 5863   2.804   2.372   3.839
   64CHL1  H16A 5864   2.840   2.274   3.875
   64CHL1  H16B 5865   2.789   2.429   3.934
   64CHL1   C17 5866   2.665   2.341   3.768
   64CHL1   H17 5867   2.602   2.433   3.765
   64CHL1   C13 5868   2.688   2.333   3.615
   64CHL1   C18 5869   2.760   2.189   3.593
   64CHL1  H18A 5870   2.821   2.183   3.501
   64CHL1  H18B 5871   2.826   2.168   3.680
   64CHL1  H18C 5872   2.684   2.108   3.584
   64CHL1   C12 5873   2.577   2.353   3.517
   64CHL1  H12A 5874   2.503   2.271   3.529
   64CHL1  H12B 5875   2.521   2.447   3.530
   64CHL1   C11 5876   2.623   2.365   3.373
   64CHL1  H11A 5877   2.665   2.267   3.344
   64CHL1  H11B 5878   2.544   2.400   3.304
   64CHL1    C9 5879   2.742   2.480   3.358
   64CHL1    H9 5880   2.688   2.568   3.398
   64CHL1   C10 5881   2.797   2.508   3.215
   64CHL1   C19 5882   2.832   2.375   3.147
   64CHL1  H19A 5883   2.915   2.321   3.198
   64CHL1  H19B 5884   2.740   2.313   3.140
   64CHL1  H19C 5885   2.874   2.399   3.047
   64CHL1    C1 5886   2.675   2.566   3.129
   64CHL1   H1A 5887   2.597   2.489   3.116
   64CHL1   H1B 5888   2.617   2.639   3.190
   64CHL1    C2 5889   2.712   2.639   2.999
   64CHL1   H2A 5890   2.630   2.704   2.961
   64CHL1   H2B 5891   2.741   2.567   2.920
   64CHL1   C20 5892   2.587   2.235   3.834
   64CHL1   H20 5893   2.631   2.135   3.815
   64CHL1   C21 5894   2.442   2.228   3.780
   64CHL1  H21A 5895   2.447   2.166   3.687
   64CHL1  H21B 5896   2.412   2.329   3.746
   64CHL1  H21C 5897   2.376   2.175   3.852
   64CHL1   C22 5898   2.577   2.251   3.989
   64CHL1  H22A 5899   2.519   2.164   4.024
   64CHL1  H22B 5900   2.670   2.229   4.044
   64CHL1   C23 5901   2.523   2.377   4.058
   64CHL1  H23A 5902   2.587   2.459   4.020
   64CHL1  H23B 5903   2.418   2.393   4.023
   64CHL1   C24 5904   2.519   2.358   4.209
   64CHL1  H24A 5905   2.618   2.318   4.239
   64CHL1  H24B 5906   2.511   2.458   4.258
   64CHL1   C25 5907   2.423   2.255   4.269
   64CHL1   H25 5908   2.446   2.152   4.236
   64CHL1   C26 5909   2.424   2.254   4.426
   64CHL1  H26A 5910   2.363   2.170   4.466
   64CHL1  H26B 5911   2.527   2.250   4.467
   64CHL1  H26C 5912   2.369   2.342   4.463
   64CHL1   C27 5913   2.283   2.276   4.216
   64CHL1  H27A 5914   2.271   2.243   4.111
   64CHL1  H27B 5915   2.208   2.217   4.273
   64CHL1  H27C 5916   2.260   2.384   4.228
   65CHL1    C3 5917   0.991   0.114   2.587
   65CHL1    H3 5918   0.918   0.198   2.580
   65CHL1    O3 5919   1.011   0.072   2.454
   65CHL1   H3' 5920   0.920   0.063   2.424
   65CHL1    C4 5921   1.133   0.153   2.634
   65CHL1   H4A 5922   1.196   0.062   2.626
   65CHL1   H4B 5923   1.169   0.238   2.572
   65CHL1    C5 5924   1.129   0.192   2.779
   65CHL1    C6 5925   1.156   0.318   2.822
   65CHL1    H6 5926   1.191   0.393   2.750
   65CHL1    C7 5927   1.148   0.360   2.967
   65CHL1   H7A 5928   1.235   0.422   2.997
   65CHL1   H7B 5929   1.056   0.419   2.989
   65CHL1    C8 5930   1.136   0.242   3.061
   65CHL1    H8 5931   1.232   0.186   3.064
   65CHL1   C14 5932   1.088   0.286   3.202
   65CHL1   H14 5933   0.996   0.348   3.197
   65CHL1   C15 5934   1.177   0.392   3.270
   65CHL1  H15A 5935   1.273   0.369   3.218
   65CHL1  H15B 5936   1.142   0.493   3.239
   65CHL1   C16 5937   1.164   0.371   3.415
   65CHL1  H16A 5938   1.257   0.321   3.449
   65CHL1  H16B 5939   1.146   0.464   3.473
   65CHL1   C17 5940   1.063   0.258   3.431
   65CHL1   H17 5941   0.961   0.303   3.431
   65CHL1   C13 5942   1.075   0.175   3.306
   65CHL1   C18 5943   1.196   0.083   3.322
   65CHL1  H18A 5944   1.176   0.017   3.408
   65CHL1  H18B 5945   1.203   0.029   3.225
   65CHL1  H18C 5946   1.287   0.140   3.350
   65CHL1   C12 5947   0.954   0.094   3.257
   65CHL1  H12A 5948   0.949   0.006   3.324
   65CHL1  H12B 5949   0.858   0.150   3.267
   65CHL1   C11 5950   0.974   0.047   3.107
   65CHL1  H11A 5951   1.037   6.749   3.116
   65CHL1  H11B 5952   0.874   0.019   3.069
   65CHL1    C9 5953   1.027   0.152   3.007
   65CHL1    H9 5954   0.938   0.216   2.993
   65CHL1   C10 5955   1.066   0.088   2.870
   65CHL1   C19 5956   1.184   6.781   2.890
   65CHL1  H19A 5957   1.272   0.035   2.937
   65CHL1  H19B 5958   1.154   6.693   2.950
   65CHL1  H19C 5959   1.216   6.735   2.794
   65CHL1    C1 5960   0.944   0.015   2.815
   65CHL1   H1A 5961   0.939   6.717   2.879
   65CHL1   H1B 5962   0.860   0.087   2.828
   65CHL1    C2 5963   0.940   6.783   2.666
   65CHL1   H2A 5964   0.847   6.733   2.631
   65CHL1   H2B 5965   1.020   6.707   2.647
   65CHL1   C20 5966   1.066   0.196   3.566
   65CHL1   H20 5967   1.161   0.139   3.578
   65CHL1   C21 5968   0.956   0.092   3.583
   65CHL1  H21A 5969   0.919   0.104   3.687
   65CHL1  H21B 5970   0.984   6.778   3.571
   65CHL1  H21C 5971   0.876   0.110   3.509
   65CHL1   C22 5972   1.060   0.297   3.684
   65CHL1  H22A 5973   1.120   0.389   3.670
   65CHL1  H22B 5974   0.955   0.335   3.681
   65CHL1   C23 5975   1.106   0.230   3.812
   65CHL1  H23A 5976   1.027   0.157   3.838
   65CHL1  H23B 5977   1.201   0.172   3.802
   65CHL1   C24 5978   1.110   0.324   3.931
   65CHL1  H24A 5979   1.155   0.421   3.901
   65CHL1  H24B 5980   1.005   0.343   3.964
   65CHL1   C25 5981   1.182   0.261   4.051
   65CHL1   H25 5982   1.277   0.211   4.022
   65CHL1   C26 5983   1.206   0.366   4.158
   65CHL1  H26A 5984   1.263   0.317   4.240
   65CHL1  H26B 5985   1.268   0.451   4.122
   65CHL1  H26C 5986   1.112   0.407   4.201
   65CHL1   C27 5987   1.095   0.149   4.110
   65CHL1  H27A 5988   0.998   0.187   4.149
   65CHL1  H27B 5989   1.071   0.074   4.032
   65CHL1  H27C 5990   1.141   0.103   4.200
   66CHL1    C3 5991   4.512   1.827   3.324
   66CHL1    H3 5992   4.540   1.726   3.288
   66CHL1    O3 5993   4.520   1.918   3.212
   66CHL1   H3' 5994   4.550   2.003   3.245
   66CHL1    C4 5995   4.365   1.819   3.366
   66CHL1   H4A 5996   4.327   1.923   3.368
   66CHL1   H4B 5997   4.304   1.771   3.286
   66CHL1    C5 5998   4.347   1.761   3.512
   66CHL1    C6 5999   4.255   1.659   3.534
   66CHL1    H6 6000   4.194   1.631   3.448
   66CHL1    C7 6001   4.229   1.607   3.671
   66CHL1   H7A 6002   4.123   1.604   3.702
   66CHL1   H7B 6003   4.245   1.498   3.656
   66CHL1    C8 6004   4.311   1.675   3.786
   66CHL1    H8 6005   4.258   1.768   3.813
   66CHL1   C14 6006   4.325   1.582   3.911
   66CHL1   H14 6007   4.393   1.498   3.887
   66CHL1   C15 6008   4.193   1.512   3.955
   66CHL1  H15A 6009   4.110   1.586   3.941
   66CHL1  H15B 6010   4.164   1.421   3.899
   66CHL1   C16 6011   4.216   1.480   4.099
   66CHL1  H16A 6012   4.138   1.537   4.153
   66CHL1  H16B 6013   4.213   1.372   4.122
   66CHL1   C17 6014   4.360   1.528   4.135
   66CHL1   H17 6015   4.436   1.451   4.107
   66CHL1   C13 6016   4.386   1.643   4.029
   66CHL1   C18 6017   4.315   1.767   4.073
   66CHL1  H18A 6018   4.206   1.758   4.090
   66CHL1  H18B 6019   4.363   1.812   4.163
   66CHL1  H18C 6020   4.325   1.842   3.991
   66CHL1   C12 6021   4.531   1.668   3.985
   66CHL1  H12A 6022   4.588   1.725   4.062
   66CHL1  H12B 6023   4.572   1.566   3.967
   66CHL1   C11 6024   4.536   1.760   3.859
   66CHL1  H11A 6025   4.506   1.860   3.897
   66CHL1  H11B 6026   4.642   1.776   3.828
   66CHL1    C9 6027   4.453   1.709   3.741
   66CHL1    H9 6028   4.504   1.616   3.706
   66CHL1   C10 6029   4.443   1.802   3.618
   66CHL1   C19 6030   4.415   1.942   3.662
   66CHL1  H19A 6031   4.317   1.954   3.713
   66CHL1  H19B 6032   4.503   1.974   3.722
   66CHL1  H19C 6033   4.416   2.012   3.577
   66CHL1    C1 6034   4.590   1.798   3.555
   66CHL1   H1A 6035   4.668   1.838   3.623
   66CHL1   H1B 6036   4.610   1.693   3.524
   66CHL1    C2 6037   4.612   1.883   3.424
   66CHL1   H2A 6038   4.714   1.863   3.386
   66CHL1   H2B 6039   4.599   1.990   3.451
   66CHL1   C20 6040   4.377   1.557   4.287
   66CHL1   H20 6041   4.324   1.648   4.322
   66CHL1   C21 6042   4.524   1.584   4.326
   66CHL1  H21A 6043   4.582   1.505   4.274
   66CHL1  H21B 6044   4.550   1.589   4.434
   66CHL1  H21C 6045   4.560   1.681   4.288
   66CHL1   C22 6046   4.314   1.453   4.387
   66CHL1  H22A 6047   4.292   1.498   4.486
   66CHL1  H22B 6048   4.214   1.430   4.344
   66CHL1   C23 6049   4.381   1.309   4.388
   66CHL1  H23A 6050   4.369   1.264   4.287
   66CHL1  H23B 6051   4.488   1.309   4.417
   66CHL1   C24 6052   4.293   1.216   4.474
   66CHL1  H24A 6053   4.330   1.239   4.577
   66CHL1  H24B 6054   4.186   1.242   4.465
   66CHL1   C25 6055   4.318   1.065   4.470
   66CHL1   H25 6056   4.428   1.051   4.469
   66CHL1   C26 6057   4.242   0.987   4.578
   66CHL1  H26A 6058   4.147   0.943   4.540
   66CHL1  H26B 6059   4.318   0.912   4.609
   66CHL1  H26C 6060   4.236   1.054   4.666
   66CHL1   C27 6061   4.257   1.025   4.336
   66CHL1  H27A 6062   4.161   1.079   4.325
   66CHL1  H27B 6063   4.247   0.916   4.320
   66CHL1  H27C 6064   4.312   1.061   4.246
   67CHL1    C3 6065   4.547   6.200   2.960
   67CHL1    H3 6066   4.515   6.306   2.964
   67CHL1    O3 6067   4.569   6.149   2.828
   67CHL1   H3' 6068   4.624   6.071   2.839
   67CHL1    C4 6069   4.688   6.204   3.036
   67CHL1   H4A 6070   4.737   6.107   3.017
   67CHL1   H4B 6071   4.756   6.276   2.985
   67CHL1    C5 6072   4.679   6.228   3.184
   67CHL1    C6 6073   4.736   6.331   3.242
   67CHL1    H6 6074   4.803   6.402   3.190
   67CHL1    C7 6075   4.739   6.355   3.388
   67CHL1   H7A 6076   4.838   6.382   3.430
   67CHL1   H7B 6077   4.677   6.442   3.420
   67CHL1    C8 6078   4.682   6.236   3.468
   67CHL1    H8 6079   4.760   6.156   3.466
   67CHL1   C14 6080   4.642   6.275   3.610
   67CHL1   H14 6081   4.564   6.352   3.594
   67CHL1   C15 6082   4.753   6.342   3.694
   67CHL1  H15A 6083   4.847   6.286   3.676
   67CHL1  H15B 6084   4.756   6.451   3.673
   67CHL1   C16 6085   4.704   6.334   3.840
   67CHL1  H16A 6086   4.792   6.306   3.903
   67CHL1  H16B 6087   4.673   6.437   3.869
   67CHL1   C17 6088   4.581   6.241   3.832
   67CHL1   H17 6089   4.494   6.309   3.825
   67CHL1   C13 6090   4.579   6.161   3.694
   67CHL1   C18 6091   4.677   6.043   3.712
   67CHL1  H18A 6092   4.644   5.961   3.779
   67CHL1  H18B 6093   4.713   5.998   3.617
   67CHL1  H18C 6094   4.772   6.093   3.744
   67CHL1   C12 6095   4.448   6.114   3.628
   67CHL1  H12A 6096   4.399   6.034   3.688
   67CHL1  H12B 6097   4.376   6.199   3.627
   67CHL1   C11 6098   4.486   6.071   3.487
   67CHL1  H11A 6099   4.544   5.976   3.489
   67CHL1  H11B 6100   4.398   6.042   3.426
   67CHL1    C9 6101   4.560   6.172   3.397
   67CHL1    H9 6102   4.484   6.252   3.396
   67CHL1   C10 6103   4.587   6.122   3.246
   67CHL1   C19 6104   4.651   5.983   3.248
   67CHL1  H19A 6105   4.738   5.970   3.316
   67CHL1  H19B 6106   4.575   5.908   3.276
   67CHL1  H19C 6107   4.672   5.956   3.142
   67CHL1    C1 6108   4.449   6.124   3.179
   67CHL1   H1A 6109   4.393   6.041   3.226
   67CHL1   H1B 6110   4.396   6.218   3.210
   67CHL1    C2 6111   4.450   6.102   3.024
   67CHL1   H2A 6112   4.346   6.108   2.985
   67CHL1   H2B 6113   4.493   6.001   3.006
   67CHL1   C20 6114   4.575   6.159   3.962
   67CHL1   H20 6115   4.652   6.080   3.951
   67CHL1   C21 6116   4.440   6.087   3.989
   67CHL1  H21A 6117   4.438   6.038   4.089
   67CHL1  H21B 6118   4.417   6.011   3.911
   67CHL1  H21C 6119   4.363   6.167   3.998
   67CHL1   C22 6120   4.596   6.247   4.097
   67CHL1  H22A 6121   4.698   6.291   4.089
   67CHL1  H22B 6122   4.520   6.327   4.087
   67CHL1   C23 6123   4.576   6.184   4.228
   67CHL1  H23A 6124   4.612   6.249   4.310
   67CHL1  H23B 6125   4.467   6.170   4.248
   67CHL1   C24 6126   4.661   6.053   4.238
   67CHL1  H24A 6127   4.612   5.971   4.181
   67CHL1  H24B 6128   4.762   6.075   4.199
   67CHL1   C25 6129   4.686   6.012   4.383
   67CHL1   H25 6130   4.725   6.103   4.434
   67CHL1   C26 6131   4.553   5.983   4.459
   67CHL1  H26A 6132   4.496   5.904   4.404
   67CHL1  H26B 6133   4.575   5.959   4.565
   67CHL1  H26C 6134   4.495   6.077   4.449
   67CHL1   C27 6135   4.780   5.886   4.383
   67CHL1  H27A 6136   4.729   5.810   4.321
   67CHL1  H27B 6137   4.887   5.900   4.357
   67CHL1  H27C 6138   4.783   5.837   4.482
   68CHL1    C3 6139   1.973   5.278   2.942
   68CHL1    H3 6140   2.059   5.336   2.981
   68CHL1    O3 6141   1.960   5.281   2.802
   68CHL1   H3' 6142   2.017   5.212   2.767
   68CHL1    C4 6143   1.989   5.130   2.989
   68CHL1   H4A 6144   1.904   5.076   2.942
   68CHL1   H4B 6145   2.081   5.098   2.936
   68CHL1    C5 6146   1.979   5.097   3.130
   68CHL1    C6 6147   2.071   5.014   3.186
   68CHL1    H6 6148   2.150   4.972   3.123
   68CHL1    C7 6149   2.071   4.991   3.332
   68CHL1   H7A 6150   2.110   4.891   3.360
   68CHL1   H7B 6151   2.147   5.057   3.379
   68CHL1    C8 6152   1.933   5.015   3.399
   68CHL1    H8 6153   1.867   4.931   3.369
   68CHL1   C14 6154   1.938   5.022   3.551
   68CHL1   H14 6155   1.997   5.107   3.591
   68CHL1   C15 6156   2.021   4.911   3.621
   68CHL1  H15A 6157   1.998   4.816   3.567
   68CHL1  H15B 6158   2.129   4.934   3.607
   68CHL1   C16 6159   1.967   4.909   3.764
   68CHL1  H16A 6160   1.915   4.812   3.782
   68CHL1  H16B 6161   2.047   4.926   3.840
   68CHL1   C17 6162   1.854   5.022   3.771
   68CHL1   H17 6163   1.906   5.119   3.789
   68CHL1   C13 6164   1.803   5.030   3.629
   68CHL1   C18 6165   1.712   4.905   3.597
   68CHL1  H18A 6166   1.746   4.810   3.643
   68CHL1  H18B 6167   1.607   4.906   3.632
   68CHL1  H18C 6168   1.712   4.890   3.487
   68CHL1   C12 6169   1.744   5.167   3.583
   68CHL1  H12A 6170   1.641   5.184   3.621
   68CHL1  H12B 6171   1.799   5.254   3.625
   68CHL1   C11 6172   1.745   5.167   3.432
   68CHL1  H11A 6173   1.669   5.095   3.396
   68CHL1  H11B 6174   1.704   5.270   3.416
   68CHL1    C9 6175   1.873   5.147   3.356
   68CHL1    H9 6176   1.950   5.219   3.389
   68CHL1   C10 6177   1.856   5.160   3.199
   68CHL1   C19 6178   1.735   5.075   3.147
   68CHL1  H19A 6179   1.718   5.080   3.037
   68CHL1  H19B 6180   1.750   4.972   3.186
   68CHL1  H19C 6181   1.642   5.118   3.188
   68CHL1    C1 6182   1.846   5.307   3.165
   68CHL1   H1A 6183   1.763   5.362   3.215
   68CHL1   H1B 6184   1.936   5.364   3.195
   68CHL1    C2 6185   1.844   5.336   3.007
   68CHL1   H2A 6186   1.850   5.446   2.998
   68CHL1   H2B 6187   1.751   5.299   2.959
   68CHL1   C20 6188   1.747   5.009   3.879
   68CHL1   H20 6189   1.696   4.911   3.865
   68CHL1   C21 6190   1.636   5.114   3.872
   68CHL1  H21A 6191   1.663   5.214   3.831
   68CHL1  H21B 6192   1.600   5.137   3.974
   68CHL1  H21C 6193   1.544   5.094   3.812
   68CHL1   C22 6194   1.811   4.999   4.023
   68CHL1  H22A 6195   1.909   4.952   4.004
   68CHL1  H22B 6196   1.833   5.105   4.047
   68CHL1   C23 6197   1.723   4.933   4.122
   68CHL1  H23A 6198   1.619   4.971   4.114
   68CHL1  H23B 6199   1.721   4.825   4.097
   68CHL1   C24 6200   1.763   4.946   4.270
   68CHL1  H24A 6201   1.719   4.862   4.327
   68CHL1  H24B 6202   1.874   4.948   4.281
   68CHL1   C25 6203   1.717   5.067   4.350
   68CHL1   H25 6204   1.724   5.164   4.296
   68CHL1   C26 6205   1.570   5.052   4.402
   68CHL1  H26A 6206   1.567   4.972   4.479
   68CHL1  H26B 6207   1.540   5.145   4.455
   68CHL1  H26C 6208   1.511   5.024   4.312
   68CHL1   C27 6209   1.799   5.088   4.478
   68CHL1  H27A 6210   1.760   5.174   4.538
   68CHL1  H27B 6211   1.793   4.992   4.533
   68CHL1  H27C 6212   1.907   5.101   4.456
   69CHL1    C3 6213   0.714   2.638   2.512
   69CHL1    H3 6214   0.605   2.618   2.510
   69CHL1    O3 6215   0.751   2.651   2.372
   69CHL1   H3' 6216   0.839   2.690   2.373
   69CHL1    C4 6217   0.731   2.780   2.567
   69CHL1   H4A 6218   0.836   2.813   2.554
   69CHL1   H4B 6219   0.664   2.848   2.510
   69CHL1    C5 6220   0.695   2.778   2.712
   69CHL1    C6 6221   0.596   2.853   2.750
   69CHL1    H6 6222   0.549   2.920   2.676
   69CHL1    C7 6223   0.550   2.859   2.897
   69CHL1   H7A 6224   0.554   2.968   2.917
   69CHL1   H7B 6225   0.447   2.821   2.915
   69CHL1    C8 6226   0.654   2.793   2.994
   69CHL1    H8 6227   0.739   2.863   2.985
   69CHL1   C14 6228   0.597   2.795   3.136
   69CHL1   H14 6229   0.498   2.744   3.134
   69CHL1   C15 6230   0.559   2.933   3.201
   69CHL1  H15A 6231   0.632   3.015   3.183
   69CHL1  H15B 6232   0.455   2.971   3.189
   69CHL1   C16 6233   0.572   2.900   3.354
   69CHL1  H16A 6234   0.635   2.980   3.398
   69CHL1  H16B 6235   0.469   2.906   3.396
   69CHL1   C17 6236   0.630   2.762   3.369
   69CHL1   H17 6237   0.546   2.691   3.386
   69CHL1   C13 6238   0.692   2.726   3.233
   69CHL1   C18 6239   0.831   2.794   3.243
   69CHL1  H18A 6240   0.813   2.900   3.273
   69CHL1  H18B 6241   0.904   2.738   3.306
   69CHL1  H18C 6242   0.873   2.806   3.141
   69CHL1   C12 6243   0.704   2.582   3.197
   69CHL1  H12A 6244   0.766   2.520   3.265
   69CHL1  H12B 6245   0.603   2.535   3.194
   69CHL1   C11 6246   0.753   2.561   3.047
   69CHL1  H11A 6247   0.862   2.580   3.035
   69CHL1  H11B 6248   0.741   2.454   3.022
   69CHL1    C9 6249   0.688   2.655   2.943
   69CHL1    H9 6250   0.590   2.609   2.918
   69CHL1   C10 6251   0.768   2.673   2.802
   69CHL1   C19 6252   0.909   2.716   2.831
   69CHL1  H19A 6253   0.924   2.799   2.904
   69CHL1  H19B 6254   0.970   2.629   2.861
   69CHL1  H19C 6255   0.961   2.758   2.742
   69CHL1    C1 6256   0.766   2.531   2.729
   69CHL1   H1A 6257   0.843   2.471   2.781
   69CHL1   H1B 6258   0.662   2.494   2.738
   69CHL1    C2 6259   0.796   2.530   2.576
   69CHL1   H2A 6260   0.769   2.433   2.528
   69CHL1   H2B 6261   0.905   2.551   2.570
   69CHL1   C20 6262   0.712   2.757   3.502
   69CHL1   H20 6263   0.795   2.830   3.490
   69CHL1   C21 6264   0.771   2.617   3.535
   69CHL1  H21A 6265   0.815   2.611   3.636
   69CHL1  H21B 6266   0.853   2.602   3.461
   69CHL1  H21C 6267   0.691   2.541   3.523
   69CHL1   C22 6268   0.624   2.818   3.624
   69CHL1  H22A 6269   0.588   2.922   3.610
   69CHL1  H22B 6270   0.535   2.752   3.630
   69CHL1   C23 6271   0.698   2.827   3.755
   69CHL1  H23A 6272   0.723   2.726   3.793
   69CHL1  H23B 6273   0.790   2.885   3.731
   69CHL1   C24 6274   0.620   2.894   3.863
   69CHL1  H24A 6275   0.610   2.999   3.828
   69CHL1  H24B 6276   0.522   2.842   3.868
   69CHL1   C25 6277   0.689   2.892   4.003
   69CHL1   H25 6278   0.704   2.786   4.032
   69CHL1   C26 6279   0.818   2.968   3.997
   69CHL1  H26A 6280   0.888   2.928   3.921
   69CHL1  H26B 6281   0.797   3.073   3.967
   69CHL1  H26C 6282   0.872   2.960   4.094
   69CHL1   C27 6283   0.580   2.946   4.098
   69CHL1  H27A 6284   0.489   2.882   4.090
   69CHL1  H27B 6285   0.625   2.944   4.199
   69CHL1  H27C 6286   0.549   3.050   4.074
   70CHL1    C3 6287   2.562   0.630   2.528
   70CHL1    H3 6288   2.634   0.550   2.502
   70CHL1    O3 6289   2.492   0.666   2.410
   70CHL1   H3' 6290   2.441   0.592   2.376
   70CHL1    C4 6291   2.454   0.587   2.627
   70CHL1   H4A 6292   2.375   0.665   2.618
   70CHL1   H4B 6293   2.413   0.492   2.585
   70CHL1    C5 6294   2.502   0.561   2.769
   70CHL1    C6 6295   2.484   0.440   2.825
   70CHL1    H6 6296   2.438   0.355   2.773
   70CHL1    C7 6297   2.533   0.407   2.965
   70CHL1   H7A 6298   2.449   0.355   3.017
   70CHL1   H7B 6299   2.626   0.347   2.957
   70CHL1    C8 6300   2.561   0.539   3.041
   70CHL1    H8 6301   2.460   0.582   3.062
   70CHL1   C14 6302   2.617   0.499   3.178
   70CHL1   H14 6303   2.698   0.434   3.142
   70CHL1   C15 6304   2.541   0.423   3.279
   70CHL1  H15A 6305   2.438   0.463   3.269
   70CHL1  H15B 6306   2.538   0.316   3.246
   70CHL1   C16 6307   2.613   0.435   3.414
   70CHL1  H16A 6308   2.546   0.477   3.491
   70CHL1  H16B 6309   2.662   0.341   3.448
   70CHL1   C17 6310   2.730   0.537   3.385
   70CHL1   H17 6311   2.823   0.478   3.369
   70CHL1   C13 6312   2.686   0.613   3.259
   70CHL1   C18 6313   2.580   0.715   3.298
   70CHL1  H18A 6314   2.636   0.797   3.349
   70CHL1  H18B 6315   2.511   0.756   3.222
   70CHL1  H18C 6316   2.509   0.676   3.374
   70CHL1   C12 6317   2.795   0.672   3.160
   70CHL1  H12A 6318   2.845   0.749   3.222
   70CHL1  H12B 6319   2.866   0.587   3.148
   70CHL1   C11 6320   2.723   0.734   3.045
   70CHL1  H11A 6321   2.651   0.816   3.068
   70CHL1  H11B 6322   2.793   0.777   2.971
   70CHL1    C9 6323   2.649   0.630   2.961
   70CHL1    H9 6324   2.725   0.562   2.917
   70CHL1   C10 6325   2.579   0.676   2.837
   70CHL1   C19 6326   2.479   0.790   2.880
   70CHL1  H19A 6327   2.432   0.768   2.978
   70CHL1  H19B 6328   2.530   0.888   2.893
   70CHL1  H19C 6329   2.403   0.813   2.803
   70CHL1    C1 6330   2.684   0.733   2.732
   70CHL1   H1A 6331   2.723   0.829   2.770
   70CHL1   H1B 6332   2.768   0.660   2.728
   70CHL1    C2 6333   2.634   0.754   2.586
   70CHL1   H2A 6334   2.725   0.778   2.527
   70CHL1   H2B 6335   2.567   0.843   2.589
   70CHL1   C20 6336   2.763   0.623   3.509
   70CHL1   H20 6337   2.671   0.661   3.559
   70CHL1   C21 6338   2.865   0.740   3.488
   70CHL1  H21A 6339   2.957   0.691   3.449
   70CHL1  H21B 6340   2.878   0.793   3.584
   70CHL1  H21C 6341   2.831   0.810   3.409
   70CHL1   C22 6342   2.824   0.532   3.627
   70CHL1  H22A 6343   2.773   0.433   3.630
   70CHL1  H22B 6344   2.933   0.508   3.620
   70CHL1   C23 6345   2.824   0.595   3.773
   70CHL1  H23A 6346   2.896   0.532   3.829
   70CHL1  H23B 6347   2.868   0.696   3.785
   70CHL1   C24 6348   2.678   0.589   3.831
   70CHL1  H24A 6349   2.597   0.611   3.758
   70CHL1  H24B 6350   2.653   0.484   3.859
   70CHL1   C25 6351   2.663   0.676   3.957
   70CHL1   H25 6352   2.694   0.780   3.931
   70CHL1   C26 6353   2.513   0.688   3.995
   70CHL1  H26A 6354   2.473   0.727   3.898
   70CHL1  H26B 6355   2.474   0.588   4.021
   70CHL1  H26C 6356   2.503   0.761   4.078
   70CHL1   C27 6357   2.745   0.631   4.073
   70CHL1  H27A 6358   2.853   0.635   4.048
   70CHL1  H27B 6359   2.725   0.698   4.159
   70CHL1  H27C 6360   2.709   0.531   4.107
   71CHL1    C3 6361   6.139   5.703   2.843
   71CHL1    H3 6362   6.073   5.627   2.890
   71CHL1    O3 6363   6.165   5.663   2.709
   71CHL1   H3' 6364   6.079   5.647   2.671
   71CHL1    C4 6365   6.064   5.841   2.857
   71CHL1   H4A 6366   6.125   5.912   2.798
   71CHL1   H4B 6367   5.974   5.830   2.792
   71CHL1    C5 6368   6.059   5.897   2.997
   71CHL1    C6 6369   5.940   5.918   3.056
   71CHL1    H6 6370   5.844   5.902   3.005
   71CHL1    C7 6371   5.923   5.976   3.197
   71CHL1   H7A 6372   5.853   6.062   3.206
   71CHL1   H7B 6373   5.888   5.887   3.255
   71CHL1    C8 6374   6.055   6.012   3.270
   71CHL1    H8 6375   6.090   6.113   3.240
   71CHL1   C14 6376   6.034   6.007   3.423
   71CHL1   H14 6377   6.011   5.900   3.444
   71CHL1   C15 6378   5.921   6.093   3.487
   71CHL1  H15A 6379   5.928   6.197   3.449
   71CHL1  H15B 6380   5.820   6.051   3.468
   71CHL1   C16 6381   5.958   6.084   3.638
   71CHL1  H16A 6382   5.948   6.191   3.666
   71CHL1  H16B 6383   5.884   6.031   3.702
   71CHL1   C17 6384   6.105   6.036   3.656
   71CHL1   H17 6385   6.100   5.927   3.675
   71CHL1   C13 6386   6.159   6.036   3.511
   71CHL1   C18 6387   6.216   6.176   3.486
   71CHL1  H18A 6388   6.247   6.192   3.381
   71CHL1  H18B 6389   6.140   6.254   3.506
   71CHL1  H18C 6390   6.317   6.193   3.528
   71CHL1   C12 6391   6.270   5.940   3.470
   71CHL1  H12A 6392   6.374   5.963   3.499
   71CHL1  H12B 6393   6.253   5.838   3.511
   71CHL1   C11 6394   6.282   5.918   3.316
   71CHL1  H11A 6395   6.332   6.011   3.281
   71CHL1  H11B 6396   6.358   5.843   3.286
   71CHL1    C9 6397   6.156   5.908   3.231
   71CHL1    H9 6398   6.113   5.811   3.266
   71CHL1   C10 6399   6.183   5.898   3.080
   71CHL1   C19 6400   6.273   6.008   3.041
   71CHL1  H19A 6401   6.280   6.001   2.930
   71CHL1  H19B 6402   6.239   6.109   3.074
   71CHL1  H19C 6403   6.377   5.996   3.080
   71CHL1    C1 6404   6.261   5.768   3.054
   71CHL1   H1A 6405   6.361   5.777   3.101
   71CHL1   H1B 6406   6.216   5.687   3.116
   71CHL1    C2 6407   6.278   5.710   2.915
   71CHL1   H2A 6408   6.328   5.611   2.921
   71CHL1   H2B 6409   6.333   5.776   2.845
   71CHL1   C20 6410   6.178   6.105   3.764
   71CHL1   H20 6411   6.202   6.211   3.741
   71CHL1   C21 6412   6.326   6.062   3.774
   71CHL1  H21A 6413   6.392   6.085   3.688
   71CHL1  H21B 6414   6.338   5.951   3.773
   71CHL1  H21C 6415   6.380   6.103   3.862
   71CHL1   C22 6416   6.112   6.085   3.904
   71CHL1  H22A 6417   6.005   6.099   3.877
   71CHL1  H22B 6418   6.126   5.982   3.944
   71CHL1   C23 6419   6.148   6.192   4.007
   71CHL1  H23A 6420   6.251   6.173   4.043
   71CHL1  H23B 6421   6.138   6.290   3.956
   71CHL1   C24 6422   6.044   6.197   4.117
   71CHL1  H24A 6423   5.941   6.178   4.081
   71CHL1  H24B 6424   6.058   6.114   4.190
   71CHL1   C25 6425   6.053   6.327   4.214
   71CHL1   H25 6426   6.003   6.411   4.162
   71CHL1   C26 6427   5.976   6.300   4.351
   71CHL1  H26A 6428   6.012   6.205   4.395
   71CHL1  H26B 6429   5.999   6.388   4.415
   71CHL1  H26C 6430   5.866   6.296   4.332
   71CHL1   C27 6431   6.195   6.361   4.255
   71CHL1  H27A 6432   6.254   6.388   4.164
   71CHL1  H27B 6433   6.190   6.456   4.312
   71CHL1  H27C 6434   6.240   6.269   4.298
   72CHL1    C3 6435   0.386   4.723   2.459
   72CHL1    H3 6436   0.394   4.830   2.488
   72CHL1    O3 6437   0.402   4.725   2.314
   72CHL1   H3' 6438   0.438   4.636   2.313
   72CHL1    C4 6439   0.501   4.636   2.521
   72CHL1   H4A 6440   0.502   4.532   2.484
   72CHL1   H4B 6441   0.596   4.690   2.503
   72CHL1    C5 6442   0.478   4.632   2.668
   72CHL1    C6 6443   0.571   4.680   2.756
   72CHL1    H6 6444   0.667   4.721   2.720
   72CHL1    C7 6445   0.553   4.695   2.900
   72CHL1   H7A 6446   0.638   4.674   2.968
   72CHL1   H7B 6447   0.506   4.795   2.916
   72CHL1    C8 6448   0.453   4.590   2.958
   72CHL1    H8 6449   0.512   4.497   2.957
   72CHL1   C14 6450   0.426   4.629   3.098
   72CHL1   H14 6451   0.387   4.733   3.103
   72CHL1   C15 6452   0.541   4.631   3.205
   72CHL1  H15A 6453   0.608   4.543   3.198
   72CHL1  H15B 6454   0.609   4.719   3.203
   72CHL1   C16 6455   0.473   4.616   3.337
   72CHL1  H16A 6456   0.516   4.539   3.404
   72CHL1  H16B 6457   0.489   4.710   3.395
   72CHL1   C17 6458   0.323   4.591   3.315
   72CHL1   H17 6459   0.262   4.683   3.303
   72CHL1   C13 6460   0.320   4.546   3.164
   72CHL1   C18 6461   0.362   4.396   3.160
   72CHL1  H18A 6462   0.351   4.351   3.059
   72CHL1  H18B 6463   0.463   4.387   3.206
   72CHL1  H18C 6464   0.291   4.348   3.230
   72CHL1   C12 6465   0.189   4.576   3.096
   72CHL1  H12A 6466   0.119   4.511   3.152
   72CHL1  H12B 6467   0.151   4.677   3.122
   72CHL1   C11 6468   0.191   4.550   2.946
   72CHL1  H11A 6469   0.198   4.441   2.926
   72CHL1  H11B 6470   0.099   4.589   2.896
   72CHL1    C9 6471   0.320   4.603   2.873
   72CHL1    H9 6472   0.300   4.712   2.879
   72CHL1   C10 6473   0.341   4.582   2.723
   72CHL1   C19 6474   0.333   4.430   2.691
   72CHL1  H19A 6475   0.230   4.394   2.711
   72CHL1  H19B 6476   0.361   4.402   2.587
   72CHL1  H19C 6477   0.401   4.374   2.759
   72CHL1    C1 6478   0.228   4.658   2.647
   72CHL1   H1A 6479   0.131   4.606   2.666
   72CHL1   H1B 6480   0.222   4.759   2.694
   72CHL1    C2 6481   0.246   4.659   2.491
   72CHL1   H2A 6482   0.169   4.722   2.442
   72CHL1   H2B 6483   0.245   4.555   2.451
   72CHL1   C20 6484   0.265   4.500   3.429
   72CHL1   H20 6485   0.323   4.406   3.421
   72CHL1   C21 6486   0.117   4.474   3.402
   72CHL1  H21A 6487   0.073   4.446   3.500
   72CHL1  H21B 6488   0.093   4.394   3.329
   72CHL1  H21C 6489   0.057   4.567   3.385
   72CHL1   C22 6490   0.293   4.565   3.568
   72CHL1  H22A 6491   0.299   4.477   3.636
   72CHL1  H22B 6492   0.389   4.620   3.578
   72CHL1   C23 6493   0.189   4.653   3.647
   72CHL1  H23A 6494   0.156   4.737   3.583
   72CHL1  H23B 6495   0.101   4.591   3.670
   72CHL1   C24 6496   0.252   4.691   3.775
   72CHL1  H24A 6497   0.308   4.610   3.827
   72CHL1  H24B 6498   0.324   4.776   3.771
   72CHL1   C25 6499   0.150   4.745   3.877
   72CHL1   H25 6500   0.076   4.804   3.819
   72CHL1   C26 6501   0.089   4.638   3.966
   72CHL1  H26A 6502   0.152   4.595   4.047
   72CHL1  H26B 6503   0.005   4.677   4.027
   72CHL1  H26C 6504   0.054   4.556   3.900
   72CHL1   C27 6505   0.216   4.846   3.969
   72CHL1  H27A 6506   0.304   4.800   4.018
   72CHL1  H27B 6507   0.247   4.934   3.909
   72CHL1  H27C 6508   0.139   4.889   4.036
   73CHL1    C3 6509   1.468   5.005   2.626
   73CHL1    H3 6510   1.576   5.001   2.650
   73CHL1    O3 6511   1.468   4.996   2.481
   73CHL1   H3' 6512   1.384   5.037   2.458
   73CHL1    C4 6513   1.388   4.894   2.692
   73CHL1   H4A 6514   1.283   4.894   2.655
   73CHL1   H4B 6515   1.426   4.797   2.654
   73CHL1    C5 6516   1.377   4.894   2.842
   73CHL1    C6 6517   1.416   4.793   2.917
   73CHL1    H6 6518   1.449   4.699   2.871
   73CHL1    C7 6519   1.389   4.794   3.063
   73CHL1   H7A 6520   1.346   4.697   3.096
   73CHL1   H7B 6521   1.489   4.802   3.111
   73CHL1    C8 6522   1.303   4.913   3.114
   73CHL1    H8 6523   1.196   4.895   3.094
   73CHL1   C14 6524   1.326   4.924   3.268
   73CHL1   H14 6525   1.431   4.958   3.268
   73CHL1   C15 6526   1.322   4.799   3.357
   73CHL1  H15A 6527   1.233   4.738   3.331
   73CHL1  H15B 6528   1.407   4.730   3.339
   73CHL1   C16 6529   1.320   4.858   3.500
   73CHL1  H16A 6530   1.244   4.802   3.558
   73CHL1  H16B 6531   1.427   4.843   3.527
   73CHL1   C17 6532   1.303   5.015   3.481
   73CHL1   H17 6533   1.406   5.056   3.490
   73CHL1   C13 6534   1.251   5.039   3.340
   73CHL1   C18 6535   1.096   5.025   3.326
   73CHL1  H18A 6536   1.045   5.100   3.390
   73CHL1  H18B 6537   1.063   5.016   3.221
   73CHL1  H18C 6538   1.080   4.924   3.372
   73CHL1   C12 6539   1.296   5.172   3.266
   73CHL1  H12A 6540   1.238   5.258   3.306
   73CHL1  H12B 6541   1.402   5.202   3.278
   73CHL1   C11 6542   1.270   5.163   3.108
   73CHL1  H11A 6543   1.160   5.151   3.102
   73CHL1  H11B 6544   1.295   5.263   3.065
   73CHL1    C9 6545   1.348   5.046   3.039
   73CHL1    H9 6546   1.456   5.068   3.055
   73CHL1   C10 6547   1.334   5.031   2.889
   73CHL1   C19 6548   1.184   5.056   2.855
   73CHL1  H19A 6549   1.166   5.017   2.753
   73CHL1  H19B 6550   1.118   5.005   2.928
   73CHL1  H19C 6551   1.158   5.164   2.862
   73CHL1    C1 6552   1.421   5.147   2.838
   73CHL1   H1A 6553   1.400   5.252   2.869
   73CHL1   H1B 6554   1.526   5.126   2.867
   73CHL1    C2 6555   1.422   5.143   2.679
   73CHL1   H2A 6556   1.499   5.216   2.645
   73CHL1   H2B 6557   1.321   5.169   2.639
   73CHL1   C20 6558   1.222   5.075   3.596
   73CHL1   H20 6559   1.119   5.033   3.596
   73CHL1   C21 6560   1.203   5.230   3.586
   73CHL1  H21A 6561   1.137   5.263   3.669
   73CHL1  H21B 6562   1.158   5.259   3.489
   73CHL1  H21C 6563   1.302   5.279   3.593
   73CHL1   C22 6564   1.279   5.052   3.738
   73CHL1  H22A 6565   1.324   4.951   3.736
   73CHL1  H22B 6566   1.363   5.125   3.748
   73CHL1   C23 6567   1.179   5.063   3.852
   73CHL1  H23A 6568   1.108   5.148   3.844
   73CHL1  H23B 6569   1.120   4.970   3.868
   73CHL1   C24 6570   1.250   5.085   3.989
   73CHL1  H24A 6571   1.202   5.036   4.077
   73CHL1  H24B 6572   1.349   5.041   3.968
   73CHL1   C25 6573   1.269   5.223   4.045
   73CHL1   H25 6574   1.331   5.283   3.975
   73CHL1   C26 6575   1.139   5.304   4.062
   73CHL1  H26A 6576   1.170   5.395   4.118
   73CHL1  H26B 6577   1.106   5.349   3.965
   73CHL1  H26C 6578   1.062   5.248   4.119
   73CHL1   C27 6579   1.359   5.213   4.165
   73CHL1  H27A 6580   1.447   5.148   4.147
   73CHL1  H27B 6581   1.402   5.308   4.203
   73CHL1  H27C 6582   1.296   5.172   4.247
   74CHL1    C3 6583   1.147   4.170   2.599
   74CHL1    H3 6584   1.092   4.266   2.597
   74CHL1    O3 6585   1.133   4.106   2.469
   74CHL1   H3' 6586   1.097   4.020   2.491
   74CHL1    C4 6587   1.290   4.182   2.631
   74CHL1   H4A 6588   1.341   4.083   2.625
   74CHL1   H4B 6589   1.333   4.250   2.554
   74CHL1    C5 6590   1.315   4.239   2.767
   74CHL1    C6 6591   1.391   4.350   2.790
   74CHL1    H6 6592   1.444   4.395   2.704
   74CHL1    C7 6593   1.429   4.396   2.929
   74CHL1   H7A 6594   1.536   4.421   2.941
   74CHL1   H7B 6595   1.368   4.487   2.944
   74CHL1    C8 6596   1.392   4.289   3.032
   74CHL1    H8 6597   1.472   4.212   3.030
   74CHL1   C14 6598   1.400   4.359   3.168
   74CHL1   H14 6599   1.316   4.432   3.168
   74CHL1   C15 6600   1.538   4.421   3.203
   74CHL1  H15A 6601   1.618   4.351   3.174
   74CHL1  H15B 6602   1.548   4.518   3.149
   74CHL1   C16 6603   1.540   4.436   3.357
   74CHL1  H16A 6604   1.629   4.389   3.404
   74CHL1  H16B 6605   1.539   4.541   3.394
   74CHL1   C17 6606   1.413   4.360   3.411
   74CHL1   H17 6607   1.341   4.445   3.418
   74CHL1   C13 6608   1.371   4.268   3.287
   74CHL1   C18 6609   1.462   4.145   3.298
   74CHL1  H18A 6610   1.570   4.170   3.283
   74CHL1  H18B 6611   1.424   4.092   3.388
   74CHL1  H18C 6612   1.434   4.072   3.220
   74CHL1   C12 6613   1.226   4.222   3.273
   74CHL1  H12A 6614   1.210   4.137   3.342
   74CHL1  H12B 6615   1.151   4.300   3.298
   74CHL1   C11 6616   1.199   4.155   3.140
   74CHL1  H11A 6617   1.242   4.053   3.140
   74CHL1  H11B 6618   1.089   4.146   3.124
   74CHL1    C9 6619   1.257   4.233   3.010
   74CHL1    H9 6620   1.190   4.322   3.011
   74CHL1   C10 6621   1.245   4.160   2.879
   74CHL1   C19 6622   1.317   4.024   2.892
   74CHL1  H19A 6623   1.274   3.958   2.970
   74CHL1  H19B 6624   1.330   3.971   2.795
   74CHL1  H19C 6625   1.423   4.040   2.921
   74CHL1    C1 6626   1.098   4.136   2.843
   74CHL1   H1A 6627   1.061   4.063   2.918
   74CHL1   H1B 6628   1.033   4.224   2.859
   74CHL1    C2 6629   1.078   4.079   2.700
   74CHL1   H2A 6630   0.972   4.075   2.668
   74CHL1   H2B 6631   1.120   3.976   2.698
   74CHL1   C20 6632   1.433   4.299   3.551
   74CHL1   H20 6633   1.513   4.221   3.546
   74CHL1   C21 6634   1.308   4.223   3.600
   74CHL1  H21A 6635   1.280   4.141   3.531
   74CHL1  H21B 6636   1.212   4.277   3.616
   74CHL1  H21C 6637   1.323   4.185   3.704
   74CHL1   C22 6638   1.462   4.399   3.665
   74CHL1  H22A 6639   1.464   4.341   3.760
   74CHL1  H22B 6640   1.562   4.445   3.649
   74CHL1   C23 6641   1.356   4.510   3.688
   74CHL1  H23A 6642   1.347   4.564   3.591
   74CHL1  H23B 6643   1.258   4.457   3.693
   74CHL1   C24 6644   1.376   4.612   3.803
   74CHL1  H24A 6645   1.456   4.676   3.761
   74CHL1  H24B 6646   1.284   4.673   3.814
   74CHL1   C25 6647   1.406   4.564   3.944
   74CHL1   H25 6648   1.501   4.508   3.945
   74CHL1   C26 6649   1.416   4.684   4.047
   74CHL1  H26A 6650   1.456   4.656   4.147
   74CHL1  H26B 6651   1.493   4.757   4.016
   74CHL1  H26C 6652   1.312   4.722   4.057
   74CHL1   C27 6653   1.297   4.463   3.989
   74CHL1  H27A 6654   1.312   4.434   4.095
   74CHL1  H27B 6655   1.204   4.520   3.967
   74CHL1  H27C 6656   1.308   4.374   3.924
   75CHL1    C3 6657   0.880   3.118   2.499
   75CHL1    H3 6658   0.784   3.063   2.507
   75CHL1    O3 6659   0.916   3.120   2.361
   75CHL1   H3' 6660   0.844   3.163   2.314
   75CHL1    C4 6661   0.853   3.265   2.542
   75CHL1   H4A 6662   0.928   3.337   2.505
   75CHL1   H4B 6663   0.759   3.284   2.486
   75CHL1    C5 6664   0.833   3.277   2.693
   75CHL1    C6 6665   0.716   3.330   2.740
   75CHL1    H6 6666   0.638   3.371   2.674
   75CHL1    C7 6667   0.691   3.345   2.886
   75CHL1   H7A 6668   0.643   3.440   2.916
   75CHL1   H7B 6669   0.622   3.264   2.918
   75CHL1    C8 6670   0.816   3.332   2.979
   75CHL1    H8 6671   0.878   3.421   2.957
   75CHL1   C14 6672   0.779   3.312   3.125
   75CHL1   H14 6673   0.719   3.219   3.123
   75CHL1   C15 6674   0.674   3.412   3.188
   75CHL1  H15A 6675   0.694   3.518   3.165
   75CHL1  H15B 6676   0.568   3.391   3.162
   75CHL1   C16 6677   0.696   3.392   3.333
   75CHL1  H16A 6678   0.737   3.487   3.374
   75CHL1  H16B 6679   0.610   3.364   3.397
   75CHL1   C17 6680   0.806   3.283   3.355
   75CHL1   H17 6681   0.746   3.189   3.360
   75CHL1   C13 6682   0.887   3.289   3.226
   75CHL1   C18 6683   0.975   3.421   3.228
   75CHL1  H18A 6684   0.983   3.454   3.123
   75CHL1  H18B 6685   0.927   3.500   3.289
   75CHL1  H18C 6686   1.075   3.396   3.270
   75CHL1   C12 6687   0.962   3.161   3.187
   75CHL1  H12A 6688   1.049   3.150   3.255
   75CHL1  H12B 6689   0.908   3.064   3.194
   75CHL1   C11 6690   1.014   3.174   3.039
   75CHL1  H11A 6691   1.076   3.266   3.034
   75CHL1  H11B 6692   1.078   3.088   3.010
   75CHL1    C9 6693   0.898   3.209   2.941
   75CHL1    H9 6694   0.839   3.118   2.965
   75CHL1   C10 6695   0.944   3.213   2.789
   75CHL1   C19 6696   1.068   3.305   2.769
   75CHL1  H19A 6697   1.156   3.291   2.836
   75CHL1  H19B 6698   1.101   3.294   2.664
   75CHL1  H19C 6699   1.052   3.413   2.790
   75CHL1    C1 6700   0.985   3.070   2.732
   75CHL1   H1A 6701   1.085   3.044   2.772
   75CHL1   H1B 6702   0.916   2.994   2.774
   75CHL1    C2 6703   0.997   3.053   2.582
   75CHL1   H2A 6704   1.002   2.945   2.555
   75CHL1   H2B 6705   1.086   3.104   2.539
   75CHL1   C20 6706   0.887   3.291   3.485
   75CHL1   H20 6707   0.980   3.353   3.477
   75CHL1   C21 6708   0.947   3.152   3.513
   75CHL1  H21A 6709   0.873   3.078   3.549
   75CHL1  H21B 6710   1.023   3.149   3.594
   75CHL1  H21C 6711   0.996   3.088   3.436
   75CHL1   C22 6712   0.814   3.333   3.615
   75CHL1  H22A 6713   0.766   3.433   3.604
   75CHL1  H22B 6714   0.737   3.254   3.632
   75CHL1   C23 6715   0.892   3.356   3.740
   75CHL1  H23A 6716   0.816   3.394   3.812
   75CHL1  H23B 6717   0.929   3.259   3.779
   75CHL1   C24 6718   1.014   3.451   3.742
   75CHL1  H24A 6719   1.083   3.410   3.666
   75CHL1  H24B 6720   0.986   3.553   3.708
   75CHL1   C25 6721   1.074   3.461   3.883
   75CHL1   H25 6722   1.089   3.355   3.915
   75CHL1   C26 6723   1.217   3.524   3.857
   75CHL1  H26A 6724   1.209   3.620   3.802
   75CHL1  H26B 6725   1.268   3.548   3.952
   75CHL1  H26C 6726   1.278   3.451   3.799
   75CHL1   C27 6727   0.994   3.534   3.989
   75CHL1  H27A 6728   1.056   3.566   4.076
   75CHL1  H27B 6729   0.954   3.631   3.951
   75CHL1  H27C 6730   0.906   3.476   4.024
   76CHL1    C3 6731   6.420   4.952   2.598
   76CHL1    H3 6732   6.522   4.997   2.600
   76CHL1    O3 6733   6.369   4.941   2.471
   76CHL1   H3' 6734   6.275   4.922   2.475
   76CHL1    C4 6735   6.423   4.820   2.672
   76CHL1   H4A 6736   6.321   4.776   2.666
   76CHL1   H4B 6737   6.488   4.750   2.615
   76CHL1    C5 6738   6.463   4.839   2.819
   76CHL1    C6 6739   6.574   4.774   2.855
   76CHL1    H6 6740   6.622   4.702   2.787
   76CHL1    C7 6741   6.613   4.776   3.005
   76CHL1   H7A 6742   6.640   4.671   3.030
   76CHL1   H7B 6743   6.709   4.832   3.002
   76CHL1    C8 6744   6.514   4.836   3.100
   76CHL1    H8 6745   6.435   4.760   3.118
   76CHL1   C14 6746   6.586   4.874   3.229
   76CHL1   H14 6747   6.650   4.953   3.183
   76CHL1   C15 6748   6.678   4.772   3.292
   76CHL1  H15A 6749   6.623   4.675   3.302
   76CHL1  H15B 6750   6.766   4.766   3.225
   76CHL1   C16 6751   6.709   4.831   3.434
   76CHL1  H16A 6752   6.679   4.749   3.503
   76CHL1  H16B 6753   0.021   4.858   3.460
   76CHL1   C17 6754   6.611   4.956   3.452
   76CHL1   H17 6755   6.666   5.050   3.426
   76CHL1   C13 6756   6.498   4.942   3.339
   76CHL1   C18 6757   6.393   4.837   3.380
   76CHL1  H18A 6758   6.327   4.881   3.457
   76CHL1  H18B 6759   6.338   4.802   3.290
   76CHL1  H18C 6760   6.449   4.754   3.429
   76CHL1   C12 6761   6.460   5.070   3.281
   76CHL1  H12A 6762   6.402   5.133   3.352
   76CHL1  H12B 6763   6.553   5.126   3.256
   76CHL1   C11 6764   6.378   5.044   3.155
   76CHL1  H11A 6765   6.279   4.999   3.179
   76CHL1  H11B 6766   6.343   5.136   3.105
   76CHL1    C9 6767   6.453   4.962   3.043
   76CHL1    H9 6768   6.542   5.026   3.023
   76CHL1   C10 6769   6.383   4.943   2.901
   76CHL1   C19 6770   6.237   4.901   2.932
   76CHL1  H19A 6771   6.176   4.864   2.847
   76CHL1  H19B 6772   6.222   4.828   3.015
   76CHL1  H19C 6773   6.180   4.993   2.955
   76CHL1    C1 6774   6.386   5.079   2.816
   76CHL1   H1A 6775   6.307   5.139   2.866
   76CHL1   H1B 6776   6.487   5.125   2.808
   76CHL1    C2 6777   6.331   5.053   2.670
   76CHL1   H2A 6778   6.332   5.154   2.625
   76CHL1   H2B 6779   6.228   5.015   2.688
   76CHL1   C20 6780   6.560   4.988   3.591
   76CHL1   H20 6781   6.468   5.050   3.582
   76CHL1   C21 6782   6.667   5.084   3.655
   76CHL1  H21A 6783   6.640   5.128   3.753
   76CHL1  H21B 6784   6.693   5.164   3.583
   76CHL1  H21C 6785   6.762   5.033   3.681
   76CHL1   C22 6786   6.530   4.874   3.684
   76CHL1  H22A 6787   6.458   4.806   3.634
   76CHL1  H22B 6788   6.622   4.820   3.713
   76CHL1   C23 6789   6.458   4.924   3.809
   76CHL1  H23A 6790   6.510   4.993   3.879
   76CHL1  H23B 6791   6.364   4.979   3.785
   76CHL1   C24 6792   6.419   4.801   3.892
   76CHL1  H24A 6793   6.319   4.771   3.854
   76CHL1  H24B 6794   6.487   4.717   3.866
   76CHL1   C25 6795   6.416   4.816   4.046
   76CHL1   H25 6796   6.519   4.849   4.073
   76CHL1   C26 6797   6.308   4.936   4.072
   76CHL1  H26A 6798   6.211   4.904   4.029
   76CHL1  H26B 6799   6.290   4.949   4.180
   76CHL1  H26C 6800   6.340   5.031   4.023
   76CHL1   C27 6801   6.373   4.684   4.118
   76CHL1  H27A 6802   6.383   4.688   4.229
   76CHL1  H27B 6803   6.279   4.642   4.077
   76CHL1  H27C 6804   6.450   4.610   4.086
   77SOPE     N 6805   3.274   3.686   7.315
   77SOPE   HN1 6806   3.302   3.756   7.244
   77SOPE   HN2 6807   3.180   3.709   7.352
   77SOPE   HN3 6808   3.348   3.690   7.387
   77SOPE   C12 6809   3.280   3.556   7.236
   77SOPE  H12A 6810   3.191   3.560   7.169
   77SOPE  H12B 6811   3.251   3.472   7.302
   77SOPE   C11 6812   3.411   3.548   7.160
   77SOPE  H11A 6813   3.412   3.447   7.114
   77SOPE  H11B 6814   3.496   3.549   7.232
   77SOPE     P 6815   3.478   3.638   6.922
   77SOPE   O13 6816   3.605   3.573   6.938
   77SOPE   O14 6817   3.471   3.777   6.865
   77SOPE   O12 6818   3.420   3.656   7.067
   77SOPE   O11 6819   3.376   3.547   6.850
   77SOPE    C1 6820   3.235   3.584   6.849
   77SOPE    HA 6821   3.219   3.683   6.897
   77SOPE    HB 6822   3.178   3.516   6.914
   77SOPE    C2 6823   3.186   3.589   6.709
   77SOPE    HS 6824   3.090   3.644   6.714
   77SOPE   O21 6825   3.172   3.460   6.654
   77SOPE   C21 6826   3.070   3.381   6.703
   77SOPE   O22 6827   2.993   3.414   6.784
   77SOPE   C22 6828   3.072   3.246   6.636
   77SOPE   H2R 6829   3.057   3.179   6.723
   77SOPE   H2S 6830   3.174   3.229   6.595
   77SOPE    C3 6831   3.271   3.686   6.620
   77SOPE    HX 6832   3.370   3.635   6.625
   77SOPE    HY 6833   3.270   3.787   6.667
   77SOPE   O31 6834   3.233   3.693   6.482
   77SOPE   C31 6835   3.250   3.812   6.426
   77SOPE   O32 6836   3.294   3.912   6.478
   77SOPE   C32 6837   3.203   3.805   6.283
   77SOPE   H2X 6838   3.157   3.895   6.236
   77SOPE   H2Y 6839   3.126   3.726   6.273
   77SOPE   C23 6840   2.959   3.236   6.531
   77SOPE   H3R 6841   2.964   3.318   6.456
   77SOPE   H3S 6842   2.858   3.250   6.577
   77SOPE   C24 6843   2.953   3.097   6.462
   77SOPE   H4R 6844   3.053   3.092   6.413
   77SOPE   H4S 6845   2.936   3.020   6.541
   77SOPE   C25 6846   2.837   3.092   6.360
   77SOPE   H5R 6847   2.735   3.096   6.403
   77SOPE   H5S 6848   2.836   3.184   6.297
   77SOPE   C26 6849   2.847   2.974   6.256
   77SOPE   H6R 6850   2.849   2.879   6.314
   77SOPE   H6S 6851   2.748   2.964   6.206
   77SOPE   C27 6852   2.967   2.980   6.165
   77SOPE   H7R 6853   3.047   2.968   6.242
   77SOPE   H7S 6854   2.969   2.891   6.098
   77SOPE   C28 6855   2.985   3.100   6.075
   77SOPE   H8R 6856   3.004   3.188   6.140
   77SOPE   H8S 6857   3.068   3.079   6.004
   77SOPE   C29 6858   2.854   3.112   5.998
   77SOPE   H91 6859   2.768   3.150   6.055
   77SOPE  C210 6860   2.831   3.086   5.872
   77SOPE  H101 6861   2.729   3.097   5.832
   77SOPE  C211 6862   2.926   3.036   5.765
   77SOPE  H11R 6863   3.022   3.004   5.812
   77SOPE  H11S 6864   2.942   3.122   5.697
   77SOPE  C212 6865   2.878   2.913   5.683
   77SOPE  H12R 6866   2.790   2.931   5.618
   77SOPE  H12S 6867   2.850   2.833   5.754
   77SOPE  C213 6868   2.989   2.855   5.593
   77SOPE  H13R 6869   2.984   2.746   5.573
   77SOPE  H13S 6870   3.084   2.857   5.650
   77SOPE  C214 6871   3.002   2.932   5.466
   77SOPE  H14R 6872   3.112   2.939   5.451
   77SOPE  H14S 6873   2.963   3.035   5.483
   77SOPE  C215 6874   2.914   2.865   5.356
   77SOPE  H15R 6875   2.810   2.852   5.392
   77SOPE  H15S 6876   2.949   2.761   5.340
   77SOPE  C216 6877   2.922   2.946   5.224
   77SOPE  H16R 6878   3.013   3.005   5.198
   77SOPE  H16S 6879   2.837   3.018   5.228
   77SOPE  C217 6880   2.905   2.854   5.103
   77SOPE  H17R 6881   2.815   2.792   5.125
   77SOPE  H17S 6882   2.989   2.783   5.116
   77SOPE  C218 6883   2.885   2.921   4.965
   77SOPE  H18R 6884   2.987   2.948   4.930
   77SOPE  H18S 6885   2.831   3.018   4.967
   77SOPE  H18T 6886   2.834   2.847   4.901
   77SOPE   C33 6887   3.330   3.769   6.208
   77SOPE   H3X 6888   3.377   3.682   6.259
   77SOPE   H3Y 6889   3.409   3.847   6.204
   77SOPE   C34 6890   3.289   3.725   6.067
   77SOPE   H4X 6891   3.202   3.785   6.031
   77SOPE   H4Y 6892   3.255   3.619   6.069
   77SOPE   C35 6893   3.396   3.736   5.958
   77SOPE   H5X 6894   3.489   3.682   5.988
   77SOPE   H5Y 6895   3.421   3.844   5.956
   77SOPE   C36 6896   3.332   3.695   5.824
   77SOPE   H6X 6897   3.240   3.751   5.796
   77SOPE   H6Y 6898   3.309   3.586   5.827
   77SOPE   C37 6899   3.428   3.704   5.702
   77SOPE   H7X 6900   3.510   3.630   5.695
   77SOPE   H7Y 6901   3.480   3.801   5.715
   77SOPE   C38 6902   3.354   3.688   5.566
   77SOPE   H8X 6903   3.270   3.759   5.556
   77SOPE   H8Y 6904   3.317   3.583   5.560
   77SOPE   C39 6905   3.439   3.709   5.440
   77SOPE   H9X 6906   3.528   3.644   5.444
   77SOPE   H9Y 6907   3.474   3.814   5.449
   77SOPE  C310 6908   3.366   3.704   5.308
   77SOPE  H10X 6909   3.287   3.783   5.306
   77SOPE  H10Y 6910   3.309   3.609   5.299
   77SOPE  C311 6911   3.452   3.734   5.184
   77SOPE  H11X 6912   3.534   3.659   5.190
   77SOPE  H11Y 6913   3.501   3.833   5.195
   77SOPE  C312 6914   3.366   3.713   5.059
   77SOPE  H12X 6915   3.275   3.776   5.065
   77SOPE  H12Y 6916   3.330   3.608   5.059
   77SOPE  C313 6917   3.447   3.733   4.928
   77SOPE  H13X 6918   3.537   3.669   4.939
   77SOPE  H13Y 6919   3.492   3.834   4.925
   77SOPE  C314 6920   3.374   3.685   4.805
   77SOPE  H14X 6921   3.270   3.722   4.811
   77SOPE  H14Y 6922   3.366   3.574   4.794
   77SOPE  C315 6923   3.434   3.739   4.680
   77SOPE  H15X 6924   3.542   3.715   4.687
   77SOPE  H15Y 6925   3.429   3.849   4.690
   77SOPE  C316 6926   3.376   3.677   4.554
   77SOPE  H16X 6927   3.273   3.718   4.557
   77SOPE  H16Y 6928   3.370   3.568   4.574
   77SOPE  C317 6929   3.451   3.712   4.422
   77SOPE  H17X 6930   3.559   3.691   4.437
   77SOPE  H17Y 6931   3.443   3.822   4.412
   77SOPE  C318 6932   3.398   3.647   4.297
   77SOPE  H18X 6933   3.459   3.555   4.285
   77SOPE  H18Y 6934   3.414   3.702   4.202
   77SOPE  H18Z 6935   3.292   3.614   4.308
   78SOPE     N 6936   1.804   3.656   7.218
   78SOPE   HN1 6937   1.889   3.704   7.253
   78SOPE   HN2 6938   1.723   3.721   7.232
   78SOPE   HN3 6939   1.770   3.575   7.273
   78SOPE   C12 6940   1.807   3.637   7.072
   78SOPE  H12A 6941   1.811   3.732   7.014
   78SOPE  H12B 6942   1.704   3.604   7.050
   78SOPE   C11 6943   1.906   3.530   7.029
   78SOPE  H11A 6944   2.008   3.564   7.056
   78SOPE  H11B 6945   1.902   3.513   6.920
   78SOPE     P 6946   1.797   3.289   7.040
   78SOPE   O13 6947   1.671   3.334   6.972
   78SOPE   O14 6948   1.795   3.186   7.144
   78SOPE   O12 6949   1.881   3.403   7.104
   78SOPE   O11 6950   1.900   3.251   6.927
   78SOPE    C1 6951   1.869   3.250   6.793
   78SOPE    HA 6952   1.893   3.346   6.743
   78SOPE    HB 6953   1.764   3.222   6.771
   78SOPE    C2 6954   1.953   3.152   6.700
   78SOPE    HS 6955   1.917   3.050   6.725
   78SOPE   O21 6956   2.095   3.168   6.725
   78SOPE   C21 6957   2.171   3.063   6.709
   78SOPE   O22 6958   2.140   2.948   6.692
   78SOPE   C22 6959   2.319   3.111   6.700
   78SOPE   H2R 6960   2.379   3.025   6.666
   78SOPE   H2S 6961   2.344   3.125   6.807
   78SOPE    C3 6962   1.925   3.175   6.545
   78SOPE    HX 6963   1.972   3.271   6.514
   78SOPE    HY 6964   1.815   3.185   6.538
   78SOPE   O31 6965   1.983   3.074   6.458
   78SOPE   C31 6966   1.920   2.962   6.440
   78SOPE   O32 6967   1.804   2.938   6.469
   78SOPE   C32 6968   2.009   2.855   6.370
   78SOPE   H2X 6969   2.027   2.772   6.441
   78SOPE   H2Y 6970   2.108   2.903   6.357
   78SOPE   C23 6971   2.343   3.242   6.618
   78SOPE   H3R 6972   2.448   3.278   6.625
   78SOPE   H3S 6973   2.279   3.326   6.653
   78SOPE   C24 6974   2.316   3.213   6.470
   78SOPE   H4R 6975   2.377   3.124   6.443
   78SOPE   H4S 6976   2.210   3.178   6.468
   78SOPE   C25 6977   2.322   3.328   6.375
   78SOPE   H5R 6978   2.252   3.410   6.401
   78SOPE   H5S 6979   2.426   3.366   6.392
   78SOPE   C26 6980   2.343   3.292   6.231
   78SOPE   H6R 6981   2.443   3.316   6.190
   78SOPE   H6S 6982   2.330   3.182   6.221
   78SOPE   C27 6983   2.240   3.369   6.145
   78SOPE   H7R 6984   2.149   3.369   6.210
   78SOPE   H7S 6985   2.267   3.474   6.119
   78SOPE   C28 6986   2.207   3.305   6.007
   78SOPE   H8R 6987   2.305   3.295   5.956
   78SOPE   H8S 6988   2.172   3.206   6.043
   78SOPE   C29 6989   2.104   3.364   5.918
   78SOPE   H91 6990   2.001   3.378   5.954
   78SOPE  C210 6991   2.127   3.388   5.790
   78SOPE  H101 6992   2.048   3.443   5.736
   78SOPE  C211 6993   2.252   3.362   5.712
   78SOPE  H11R 6994   2.300   3.270   5.753
   78SOPE  H11S 6995   2.318   3.451   5.704
   78SOPE  C212 6996   2.220   3.328   5.567
   78SOPE  H12R 6997   2.150   3.397   5.516
   78SOPE  H12S 6998   2.174   3.228   5.575
   78SOPE  C213 6999   2.350   3.321   5.475
   78SOPE  H13R 7000   2.418   3.261   5.540
   78SOPE  H13S 7001   2.397   3.418   5.451
   78SOPE  C214 7002   2.314   3.248   5.345
   78SOPE  H14R 7003   2.240   3.309   5.288
   78SOPE  H14S 7004   2.272   3.150   5.375
   78SOPE  C215 7005   2.446   3.233   5.255
   78SOPE  H15R 7006   2.532   3.197   5.314
   78SOPE  H15S 7007   2.467   3.333   5.211
   78SOPE  C216 7008   2.411   3.146   5.131
   78SOPE  H16R 7009   2.340   3.209   5.073
   78SOPE  H16S 7010   2.362   3.054   5.168
   78SOPE  C217 7011   2.537   3.132   5.043
   78SOPE  H17R 7012   2.502   3.072   4.956
   78SOPE  H17S 7013   2.617   3.076   5.096
   78SOPE  C218 7014   2.584   3.264   4.991
   78SOPE  H18R 7015   2.502   3.311   4.931
   78SOPE  H18S 7016   2.671   3.260   4.922
   78SOPE  H18T 7017   2.620   3.341   5.063
   78SOPE   C33 7018   1.956   2.803   6.232
   78SOPE   H3X 7019   1.852   2.769   6.249
   78SOPE   H3Y 7020   2.004   2.705   6.212
   78SOPE   C34 7021   1.978   2.911   6.132
   78SOPE   H4X 7022   2.082   2.949   6.137
   78SOPE   H4Y 7023   1.911   2.999   6.138
   78SOPE   C35 7024   1.951   2.861   5.993
   78SOPE   H5X 7025   1.841   2.844   6.000
   78SOPE   H5Y 7026   1.998   2.761   5.984
   78SOPE   C36 7027   1.990   2.962   5.881
   78SOPE   H6X 7028   2.099   2.948   5.863
   78SOPE   H6Y 7029   1.969   3.069   5.902
   78SOPE   C37 7030   1.924   2.921   5.739
   78SOPE   H7X 7031   1.816   2.942   5.755
   78SOPE   H7Y 7032   1.937   2.811   5.729
   78SOPE   C38 7033   1.973   2.993   5.616
   78SOPE   H8X 7034   2.083   2.976   5.607
   78SOPE   H8Y 7035   1.943   3.100   5.616
   78SOPE   C39 7036   1.923   2.946   5.480
   78SOPE   H9X 7037   1.820   2.979   5.453
   78SOPE   H9Y 7038   1.921   2.835   5.489
   78SOPE  C310 7039   2.015   3.006   5.371
   78SOPE  H10X 7040   2.121   2.973   5.374
   78SOPE  H10Y 7041   2.024   3.116   5.378
   78SOPE  C311 7042   1.969   2.960   5.229
   78SOPE  H11X 7043   1.938   2.854   5.234
   78SOPE  H11Y 7044   2.053   2.967   5.157
   78SOPE  C312 7045   1.844   3.030   5.181
   78SOPE  H12X 7046   1.865   3.137   5.201
   78SOPE  H12Y 7047   1.761   3.000   5.248
   78SOPE  C313 7048   1.799   2.998   5.044
   78SOPE  H13X 7049   1.756   2.896   5.049
   78SOPE  H13Y 7050   1.883   2.983   4.972
   78SOPE  C314 7051   1.708   3.103   4.982
   78SOPE  H14X 7052   1.753   3.204   4.992
   78SOPE  H14Y 7053   1.612   3.097   5.037
   78SOPE  C315 7054   1.675   3.082   4.835
   78SOPE  H15X 7055   1.628   2.981   4.828
   78SOPE  H15Y 7056   1.777   3.090   4.792
   78SOPE  C316 7057   1.583   3.185   4.781
   78SOPE  H16X 7058   1.605   3.207   4.675
   78SOPE  H16Y 7059   1.591   3.286   4.827
   78SOPE  C317 7060   1.440   3.135   4.799
   78SOPE  H17X 7061   1.415   3.139   4.907
   78SOPE  H17Y 7062   1.441   3.030   4.762
   78SOPE  C318 7063   1.336   3.213   4.721
   78SOPE  H18X 7064   1.346   3.189   4.613
   78SOPE  H18Y 7065   1.343   3.322   4.742
   78SOPE  H18Z 7066   1.234   3.174   4.743
   79SOPE     N 7067   4.397   0.689   7.145
   79SOPE   HN1 7068   4.303   0.703   7.103
   79SOPE   HN2 7069   4.398   0.588   7.169
   79SOPE   HN3 7070   4.404   0.756   7.224
   79SOPE   C12 7071   4.494   0.709   7.037
   79SOPE  H12A 7072   4.557   0.619   7.020
   79SOPE  H12B 7073   4.559   0.789   7.079
   79SOPE   C11 7074   4.427   0.756   6.907
   79SOPE  H11A 7075   4.383   0.669   6.854
   79SOPE  H11B 7076   4.514   0.790   6.848
   79SOPE     P 7077   4.349   1.007   6.967
   79SOPE   O13 7078   4.381   1.004   7.110
   79SOPE   O14 7079   4.223   1.075   6.932
   79SOPE   O12 7080   4.328   0.852   6.922
   79SOPE   O11 7081   4.479   1.051   6.877
   79SOPE    C1 7082   4.462   1.139   6.772
   79SOPE    HA 7083   4.563   1.178   6.744
   79SOPE    HB 7084   4.392   1.222   6.796
   79SOPE    C2 7085   4.403   1.068   6.635
   79SOPE    HS 7086   4.292   1.064   6.633
   79SOPE   O21 7087   4.461   0.943   6.615
   79SOPE   C21 7088   4.392   0.857   6.550
   79SOPE   O22 7089   4.278   0.867   6.507
   79SOPE   C22 7090   4.480   0.729   6.535
   79SOPE   H2R 7091   4.516   0.699   6.635
   79SOPE   H2S 7092   4.572   0.749   6.476
   79SOPE    C3 7093   4.425   1.160   6.508
   79SOPE    HX 7094   4.534   1.179   6.507
   79SOPE    HY 7095   4.367   1.254   6.524
   79SOPE   O31 7096   4.392   1.098   6.380
   79SOPE   C31 7097   4.295   1.142   6.302
   79SOPE   O32 7098   4.247   1.255   6.302
   79SOPE   C32 7099   4.244   1.037   6.210
   79SOPE   H2X 7100   4.154   1.087   6.168
   79SOPE   H2Y 7101   4.220   0.941   6.260
   79SOPE   C23 7102   4.406   0.612   6.466
   79SOPE   H3R 7103   4.298   0.600   6.492
   79SOPE   H3S 7104   4.460   0.518   6.491
   79SOPE   C24 7105   4.408   0.632   6.314
   79SOPE   H4R 7106   4.342   0.553   6.271
   79SOPE   H4S 7107   4.358   0.726   6.283
   79SOPE   C25 7108   4.547   0.624   6.240
   79SOPE   H5R 7109   4.622   0.697   6.278
   79SOPE   H5S 7110   4.582   0.520   6.253
   79SOPE   C26 7111   4.524   0.643   6.091
   79SOPE   H6R 7112   4.453   0.567   6.053
   79SOPE   H6S 7113   4.484   0.744   6.064
   79SOPE   C27 7114   4.661   0.629   6.017
   79SOPE   H7R 7115   4.727   0.709   6.057
   79SOPE   H7S 7116   4.694   0.529   6.052
   79SOPE   C28 7117   4.652   0.624   5.865
   79SOPE   H8R 7118   4.752   0.598   5.825
   79SOPE   H8S 7119   4.575   0.549   5.836
   79SOPE   C29 7120   4.609   0.763   5.809
   79SOPE   H91 7121   4.551   0.829   5.875
   79SOPE  C210 7122   4.609   0.787   5.679
   79SOPE  H101 7123   4.580   0.889   5.648
   79SOPE  C211 7124   4.651   0.701   5.564
   79SOPE  H11R 7125   4.710   0.611   5.590
   79SOPE  H11S 7126   4.696   0.750   5.475
   79SOPE  C212 7127   4.525   0.628   5.515
   79SOPE  H12R 7128   4.510   0.542   5.582
   79SOPE  H12S 7129   4.547   0.574   5.421
   79SOPE  C213 7130   4.406   0.721   5.483
   79SOPE  H13R 7131   4.434   0.787   5.398
   79SOPE  H13S 7132   4.375   0.783   5.570
   79SOPE  C214 7133   4.281   0.639   5.426
   79SOPE  H14R 7134   4.243   0.582   5.514
   79SOPE  H14S 7135   4.321   0.572   5.347
   79SOPE  C215 7136   4.167   0.729   5.374
   79SOPE  H15R 7137   4.136   0.809   5.445
   79SOPE  H15S 7138   4.071   0.679   5.347
   79SOPE  C216 7139   4.200   0.811   5.247
   79SOPE  H16R 7140   4.252   0.908   5.262
   79SOPE  H16S 7141   4.105   0.848   5.203
   79SOPE  C217 7142   4.290   0.735   5.147
   79SOPE  H17R 7143   4.251   0.632   5.140
   79SOPE  H17S 7144   4.393   0.740   5.187
   79SOPE  C218 7145   4.288   0.810   5.015
   79SOPE  H18R 7146   4.344   0.756   4.936
   79SOPE  H18S 7147   4.325   0.915   5.018
   79SOPE  H18T 7148   4.182   0.824   4.984
   79SOPE   C33 7149   4.342   1.001   6.090
   79SOPE   H3X 7150   4.321   0.899   6.051
   79SOPE   H3Y 7151   4.448   0.992   6.121
   79SOPE   C34 7152   4.332   1.109   5.977
   79SOPE   H4X 7153   4.378   1.200   6.023
   79SOPE   H4Y 7154   4.226   1.131   5.954
   79SOPE   C35 7155   4.408   1.062   5.850
   79SOPE   H5X 7156   4.382   0.963   5.807
   79SOPE   H5Y 7157   4.509   1.065   5.897
   79SOPE   C36 7158   4.385   1.159   5.736
   79SOPE   H6X 7159   4.415   1.256   5.779
   79SOPE   H6Y 7160   4.278   1.165   5.706
   79SOPE   C37 7161   4.473   1.127   5.607
   79SOPE   H7X 7162   4.448   1.025   5.569
   79SOPE   H7Y 7163   4.572   1.119   5.657
   79SOPE   C38 7164   4.430   1.224   5.499
   79SOPE   H8X 7165   4.473   1.323   5.523
   79SOPE   H8Y 7166   4.319   1.220   5.500
   79SOPE   C39 7167   4.462   1.182   5.350
   79SOPE   H9X 7168   4.409   1.086   5.337
   79SOPE   H9Y 7169   4.569   1.166   5.324
   79SOPE  C310 7170   4.391   1.279   5.261
   79SOPE  H10X 7171   4.429   1.383   5.266
   79SOPE  H10Y 7172   4.284   1.286   5.289
   79SOPE  C311 7173   4.393   1.239   5.117
   79SOPE  H11X 7174   4.331   1.151   5.091
   79SOPE  H11Y 7175   4.490   1.198   5.082
   79SOPE  C312 7176   4.338   1.357   5.036
   79SOPE  H12X 7177   4.416   1.430   5.070
   79SOPE  H12Y 7178   4.234   1.384   5.066
   79SOPE  C313 7179   4.347   1.359   4.879
   79SOPE  H13X 7180   4.269   1.423   4.831
   79SOPE  H13Y 7181   4.335   1.251   4.859
   79SOPE  C314 7182   4.480   1.405   4.828
   79SOPE  H14X 7183   4.514   1.497   4.881
   79SOPE  H14Y 7184   4.475   1.416   4.717
   79SOPE  C315 7185   4.599   1.305   4.840
   79SOPE  H15X 7186   4.618   1.267   4.943
   79SOPE  H15Y 7187   4.692   1.359   4.812
   79SOPE  C316 7188   4.589   1.174   4.751
   79SOPE  H16X 7189   4.537   1.179   4.653
   79SOPE  H16Y 7190   4.533   1.090   4.798
   79SOPE  C317 7191   4.729   1.116   4.722
   79SOPE  H17X 7192   4.758   1.100   4.828
   79SOPE  H17Y 7193   4.796   1.198   4.689
   79SOPE  C318 7194   4.740   0.993   4.624
   79SOPE  H18X 7195   4.642   0.973   4.576
   79SOPE  H18Y 7196   4.771   0.906   4.686
   79SOPE  H18Z 7197   4.815   1.015   4.545
   80SOPE     N 7198   1.158   3.094   6.736
   80SOPE   HN1 7199   1.152   3.113   6.633
   80SOPE   HN2 7200   1.059   3.077   6.764
   80SOPE   HN3 7201   1.191   3.183   6.776
   80SOPE   C12 7202   1.259   2.987   6.772
   80SOPE  H12A 7203   1.220   2.886   6.748
   80SOPE  H12B 7204   1.287   2.993   6.880
   80SOPE   C11 7205   1.387   3.009   6.693
   80SOPE  H11A 7206   1.368   2.975   6.589
   80SOPE  H11B 7207   1.467   2.939   6.723
   80SOPE     P 7208   1.412   3.257   6.604
   80SOPE   O13 7209   1.532   3.351   6.589
   80SOPE   O14 7210   1.287   3.321   6.646
   80SOPE   O12 7211   1.443   3.142   6.700
   80SOPE   O11 7212   1.390   3.198   6.464
   80SOPE    C1 7213   1.492   3.136   6.387
   80SOPE    HA 7214   1.491   3.027   6.404
   80SOPE    HB 7215   1.589   3.185   6.410
   80SOPE    C2 7216   1.473   3.165   6.236
   80SOPE    HS 7217   1.478   3.275   6.224
   80SOPE   O21 7218   1.349   3.099   6.193
   80SOPE   C21 7219   1.282   3.171   6.098
   80SOPE   O22 7220   1.310   3.293   6.086
   80SOPE   C22 7221   1.183   3.086   6.017
   80SOPE   H2R 7222   1.102   3.069   6.091
   80SOPE   H2S 7223   1.244   2.994   6.000
   80SOPE    C3 7224   1.586   3.104   6.148
   80SOPE    HX 7225   1.571   2.994   6.161
   80SOPE    HY 7226   1.688   3.125   6.184
   80SOPE   O31 7227   1.568   3.136   6.008
   80SOPE   C31 7228   1.641   3.233   5.958
   80SOPE   O32 7229   1.717   3.306   6.024
   80SOPE   C32 7230   1.607   3.265   5.813
   80SOPE   H2X 7231   1.510   3.316   5.827
   80SOPE   H2Y 7232   1.589   3.164   5.772
   80SOPE   C23 7233   1.134   3.153   5.889
   80SOPE   H3R 7234   1.113   3.256   5.925
   80SOPE   H3S 7235   1.044   3.106   5.842
   80SOPE   C24 7236   1.245   3.150   5.779
   80SOPE   H4R 7237   1.349   3.167   5.816
   80SOPE   H4S 7238   1.224   3.047   5.743
   80SOPE   C25 7239   1.210   3.250   5.663
   80SOPE   H5R 7240   1.109   3.220   5.628
   80SOPE   H5S 7241   1.203   3.353   5.705
   80SOPE   C26 7242   1.306   3.255   5.544
   80SOPE   H6R 7243   1.285   3.340   5.475
   80SOPE   H6S 7244   1.409   3.279   5.578
   80SOPE   C27 7245   1.313   3.120   5.468
   80SOPE   H7R 7246   1.348   3.055   5.552
   80SOPE   H7S 7247   1.210   3.081   5.460
   80SOPE   C28 7248   1.395   3.111   5.340
   80SOPE   H8R 7249   1.493   3.153   5.371
   80SOPE   H8S 7250   1.410   3.005   5.309
   80SOPE   C29 7251   1.333   3.181   5.224
   80SOPE   H91 7252   1.249   3.135   5.171
   80SOPE  C210 7253   1.381   3.298   5.171
   80SOPE  H101 7254   1.324   3.355   5.096
   80SOPE  C211 7255   1.498   3.377   5.221
   80SOPE  H11R 7256   1.592   3.330   5.183
   80SOPE  H11S 7257   1.505   3.379   5.332
   80SOPE  C212 7258   1.494   3.515   5.167
   80SOPE  H12R 7259   1.566   3.580   5.222
   80SOPE  H12S 7260   1.393   3.561   5.174
   80SOPE  C213 7261   1.543   3.511   5.015
   80SOPE  H13R 7262   1.472   3.460   4.946
   80SOPE  H13S 7263   1.632   3.446   5.007
   80SOPE  C214 7264   1.576   3.644   4.956
   80SOPE  H14R 7265   1.634   3.704   5.029
   80SOPE  H14S 7266   1.487   3.705   4.928
   80SOPE  C215 7267   1.660   3.646   4.828
   80SOPE  H15R 7268   1.590   3.605   4.751
   80SOPE  H15S 7269   1.742   3.573   4.840
   80SOPE  C216 7270   1.719   3.787   4.785
   80SOPE  H16R 7271   1.794   3.828   4.855
   80SOPE  H16S 7272   1.628   3.850   4.775
   80SOPE  C217 7273   1.786   3.788   4.646
   80SOPE  H17R 7274   1.890   3.752   4.660
   80SOPE  H17S 7275   1.789   3.896   4.622
   80SOPE  C218 7276   1.709   3.729   4.526
   80SOPE  H18R 7277   1.706   3.618   4.519
   80SOPE  H18S 7278   1.763   3.770   4.437
   80SOPE  H18T 7279   1.601   3.753   4.535
   80SOPE   C33 7280   1.723   3.328   5.735
   80SOPE   H3X 7281   1.817   3.272   5.754
   80SOPE   H3Y 7282   1.730   3.437   5.758
   80SOPE   C34 7283   1.710   3.318   5.579
   80SOPE   H4X 7284   1.609   3.358   5.555
   80SOPE   H4Y 7285   1.711   3.213   5.542
   80SOPE   C35 7286   1.826   3.391   5.514
   80SOPE   H5X 7287   1.913   3.338   5.558
   80SOPE   H5Y 7288   1.839   3.492   5.559
   80SOPE   C36 7289   1.820   3.393   5.361
   80SOPE   H6X 7290   1.734   3.458   5.334
   80SOPE   H6Y 7291   1.794   3.291   5.328
   80SOPE   C37 7292   1.943   3.452   5.285
   80SOPE   H7X 7293   2.023   3.376   5.284
   80SOPE   H7Y 7294   1.988   3.539   5.338
   80SOPE   C38 7295   1.908   3.478   5.137
   80SOPE   H8X 7296   1.857   3.576   5.139
   80SOPE   H8Y 7297   1.835   3.412   5.085
   80SOPE   C39 7298   2.034   3.481   5.051
   80SOPE   H9X 7299   2.072   3.377   5.049
   80SOPE   H9Y 7300   2.114   3.543   5.098
   80SOPE  C310 7301   2.000   3.522   4.910
   80SOPE  H10X 7302   1.951   3.621   4.906
   80SOPE  H10Y 7303   1.922   3.455   4.869
   80SOPE  C311 7304   2.129   3.530   4.821
   80SOPE  H11X 7305   2.218   3.571   4.875
   80SOPE  H11Y 7306   2.116   3.595   4.732
   80SOPE  C312 7307   2.181   3.386   4.777
   80SOPE  H12X 7308   2.158   3.305   4.848
   80SOPE  H12Y 7309   2.291   3.374   4.783
   80SOPE  C313 7310   2.119   3.352   4.638
   80SOPE  H13X 7311   2.132   3.437   4.568
   80SOPE  H13Y 7312   2.009   3.343   4.650
   80SOPE  C314 7313   2.171   3.217   4.585
   80SOPE  H14X 7314   2.152   3.139   4.661
   80SOPE  H14Y 7315   2.282   3.215   4.576
   80SOPE  C315 7316   2.111   3.178   4.450
   80SOPE  H15X 7317   2.157   3.083   4.416
   80SOPE  H15Y 7318   2.134   3.265   4.384
   80SOPE  C316 7319   1.957   3.163   4.451
   80SOPE  H16X 7320   1.908   3.262   4.464
   80SOPE  H16Y 7321   1.931   3.102   4.540
   80SOPE  C317 7322   1.909   3.100   4.313
   80SOPE  H17X 7323   1.981   3.017   4.295
   80SOPE  H17Y 7324   1.929   3.177   4.236
   80SOPE  C318 7325   1.762   3.057   4.330
   80SOPE  H18X 7326   1.734   2.991   4.245
   80SOPE  H18Y 7327   1.690   3.141   4.333
   80SOPE  H18Z 7328   1.742   2.991   4.417
   81SOPE     N 7329   4.850   6.696   6.943
   81SOPE   HN1 7330   4.914   6.615   6.958
   81SOPE   HN2 7331   4.874   6.760   7.021
   81SOPE   HN3 7332   4.748   6.689   6.961
   81SOPE   C12 7333   4.881   6.769   6.817
   81SOPE  H12A 7334   4.797   6.749   6.746
   81SOPE  H12B 7335   4.977   6.731   6.777
   81SOPE   C11 7336   4.876   0.134   6.833
   81SOPE  H11A 7337   4.871   0.160   6.725
   81SOPE  H11B 7338   4.967   0.183   6.876
   81SOPE     P 7339   4.716   0.311   6.955
   81SOPE   O13 7340   4.779   0.319   7.090
   81SOPE   O14 7341   4.565   0.321   6.949
   81SOPE   O12 7342   4.751   0.173   6.890
   81SOPE   O11 7343   4.776   0.415   6.858
   81SOPE    C1 7344   4.749   0.408   6.715
   81SOPE    HA 7345   4.642   0.421   6.692
   81SOPE    HB 7346   4.766   0.310   6.665
   81SOPE    C2 7347   4.822   0.530   6.640
   81SOPE    HS 7348   4.930   0.521   6.664
   81SOPE   O21 7349   4.763   0.652   6.683
   81SOPE   C21 7350   4.849   0.756   6.692
   81SOPE   O22 7351   4.969   0.748   6.666
   81SOPE   C22 7352   4.779   0.883   6.743
   81SOPE   H2R 7353   4.795   0.884   6.853
   81SOPE   H2S 7354   4.670   0.892   6.722
   81SOPE    C3 7355   4.793   0.516   6.490
   81SOPE    HX 7356   4.683   0.527   6.487
   81SOPE    HY 7357   4.835   0.423   6.446
   81SOPE   O31 7358   4.841   0.637   6.419
   81SOPE   C31 7359   4.967   0.620   6.367
   81SOPE   O32 7360   5.035   0.524   6.384
   81SOPE   C32 7361   5.017   0.753   6.304
   81SOPE   H2X 7362   5.061   0.819   6.381
   81SOPE   H2Y 7363   4.927   0.816   6.284
   81SOPE   C23 7364   4.845   1.010   6.679
   81SOPE   H3R 7365   4.955   1.004   6.689
   81SOPE   H3S 7366   4.807   1.095   6.739
   81SOPE   C24 7367   4.806   1.030   6.528
   81SOPE   H4R 7368   4.812   0.934   6.473
   81SOPE   H4S 7369   4.704   1.073   6.523
   81SOPE   C25 7370   4.891   1.134   6.459
   81SOPE   H5R 7371   4.900   1.225   6.523
   81SOPE   H5S 7372   4.997   1.101   6.455
   81SOPE   C26 7373   4.832   1.174   6.320
   81SOPE   H6R 7374   4.724   1.193   6.337
   81SOPE   H6S 7375   4.879   1.266   6.280
   81SOPE   C27 7376   4.842   1.065   6.207
   81SOPE   H7R 7377   4.949   1.034   6.205
   81SOPE   H7S 7378   4.777   0.988   6.252
   81SOPE   C28 7379   4.799   1.123   6.069
   81SOPE   H8R 7380   4.697   1.158   6.099
   81SOPE   H8S 7381   4.860   1.213   6.051
   81SOPE   C29 7382   4.799   1.013   5.964
   81SOPE   H91 7383   4.781   0.911   6.001
   81SOPE  C210 7384   4.823   1.032   5.833
   81SOPE  H101 7385   4.835   0.941   5.772
   81SOPE  C211 7386   4.853   1.165   5.768
   81SOPE  H11R 7387   4.912   1.224   5.841
   81SOPE  H11S 7388   4.759   1.216   5.739
   81SOPE  C212 7389   4.942   1.156   5.639
   81SOPE  H12R 7390   5.039   1.115   5.675
   81SOPE  H12S 7391   4.951   1.256   5.592
   81SOPE  C213 7392   4.884   1.068   5.529
   81SOPE  H13R 7393   4.796   1.120   5.485
   81SOPE  H13S 7394   4.852   0.972   5.575
   81SOPE  C214 7395   4.977   1.047   5.406
   81SOPE  H14R 7396   5.068   1.002   5.450
   81SOPE  H14S 7397   4.992   1.143   5.352
   81SOPE  C215 7398   4.930   0.943   5.307
   81SOPE  H15R 7399   4.939   0.847   5.363
   81SOPE  H15S 7400   4.993   0.950   5.216
   81SOPE  C216 7401   4.791   0.954   5.250
   81SOPE  H16R 7402   4.775   1.058   5.215
   81SOPE  H16S 7403   4.718   0.923   5.328
   81SOPE  C217 7404   4.784   0.852   5.138
   81SOPE  H17R 7405   4.778   0.752   5.185
   81SOPE  H17S 7406   4.870   0.836   5.069
   81SOPE  C218 7407   4.657   0.863   5.057
   81SOPE  H18R 7408   4.643   0.965   5.016
   81SOPE  H18S 7409   4.565   0.837   5.113
   81SOPE  H18T 7410   4.668   0.790   4.974
   81SOPE   C33 7411   5.109   0.745   6.187
   81SOPE   H3X 7412   5.199   0.686   6.214
   81SOPE   H3Y 7413   5.138   0.847   6.154
   81SOPE   C34 7414   5.030   0.677   6.070
   81SOPE   H4X 7415   4.944   0.743   6.046
   81SOPE   H4Y 7416   4.986   0.582   6.105
   81SOPE   C35 7417   5.114   0.643   5.947
   81SOPE   H5X 7418   5.049   0.568   5.896
   81SOPE   H5Y 7419   5.199   0.579   5.976
   81SOPE   C36 7420   5.149   0.753   5.849
   81SOPE   H6X 7421   5.214   0.823   5.905
   81SOPE   H6Y 7422   5.053   0.796   5.815
   81SOPE   C37 7423   5.223   0.697   5.731
   81SOPE   H7X 7424   5.162   0.620   5.678
   81SOPE   H7Y 7425   5.309   0.644   5.777
   81SOPE   C38 7426   5.271   0.794   5.633
   81SOPE   H8X 7427   5.336   0.876   5.671
   81SOPE   H8Y 7428   5.175   0.839   5.600
   81SOPE   C39 7429   5.348   0.722   5.523
   81SOPE   H9X 7430   5.410   0.642   5.569
   81SOPE   H9Y 7431   5.415   0.792   5.468
   81SOPE  C310 7432   5.275   0.652   5.407
   81SOPE  H10X 7433   5.181   0.601   5.437
   81SOPE  H10Y 7434   5.345   0.581   5.356
   81SOPE  C311 7435   5.244   0.751   5.293
   81SOPE  H11X 7436   5.335   0.773   5.232
   81SOPE  H11Y 7437   5.196   0.841   5.335
   81SOPE  C312 7438   5.162   0.681   5.180
   81SOPE  H12X 7439   5.058   0.671   5.217
   81SOPE  H12Y 7440   5.200   0.582   5.146
   81SOPE  C313 7441   5.156   0.771   5.054
   81SOPE  H13X 7442   5.172   0.876   5.087
   81SOPE  H13Y 7443   5.050   0.763   5.022
   81SOPE  C314 7444   5.240   0.733   4.929
   81SOPE  H14X 7445   5.209   0.633   4.892
   81SOPE  H14Y 7446   5.348   0.731   4.953
   81SOPE  C315 7447   5.204   0.821   4.806
   81SOPE  H15X 7448   5.098   0.809   4.777
   81SOPE  H15Y 7449   5.271   0.775   4.730
   81SOPE  C316 7450   5.233   0.973   4.826
   81SOPE  H16X 7451   5.342   0.978   4.846
   81SOPE  H16Y 7452   5.180   1.019   4.913
   81SOPE  C317 7453   5.213   1.060   4.706
   81SOPE  H17X 7454   5.256   1.010   4.617
   81SOPE  H17Y 7455   5.274   1.152   4.721
   81SOPE  C318 7456   5.070   1.098   4.682
   81SOPE  H18X 7457   5.013   1.015   4.635
   81SOPE  H18Y 7458   5.074   1.180   4.607
   81SOPE  H18Z 7459   5.025   1.145   4.772
   82SOPE     N 7460   1.698   0.935   6.894
   82SOPE   HN1 7461   1.694   0.918   6.997
   82SOPE   HN2 7462   1.797   0.935   6.862
   82SOPE   HN3 7463   1.668   1.033   6.876
   82SOPE   C12 7464   1.611   0.853   6.803
   82SOPE  H12A 7465   1.587   0.917   6.716
   82SOPE  H12B 7466   1.511   0.841   6.851
   82SOPE   C11 7467   1.661   0.713   6.754
   82SOPE  H11A 7468   1.593   0.669   6.678
   82SOPE  H11B 7469   1.660   0.654   6.848
   82SOPE     P 7470   1.846   0.772   6.569
   82SOPE   O13 7471   1.978   0.712   6.554
   82SOPE   O14 7472   1.838   0.922   6.578
   82SOPE   O12 7473   1.794   0.714   6.706
   82SOPE   O11 7474   1.743   0.722   6.453
   82SOPE    C1 7475   1.694   0.587   6.440
   82SOPE    HA 7476   1.585   0.574   6.456
   82SOPE    HB 7477   1.729   0.528   6.528
   82SOPE    C2 7478   1.738   0.515   6.306
   82SOPE    HS 7479   1.844   0.486   6.323
   82SOPE   O21 7480   1.715   0.601   6.196
   82SOPE   C21 7481   1.802   0.689   6.157
   82SOPE   O22 7482   1.916   0.713   6.199
   82SOPE   C22 7483   1.741   0.766   6.047
   82SOPE   H2R 7484   1.810   0.851   6.032
   82SOPE   H2S 7485   1.642   0.798   6.086
   82SOPE    C3 7486   1.656   0.386   6.279
   82SOPE    HX 7487   1.548   0.410   6.289
   82SOPE    HY 7488   1.687   0.300   6.341
   82SOPE   O31 7489   1.668   0.348   6.146
   82SOPE   C31 7490   1.580   0.258   6.102
   82SOPE   O32 7491   1.482   0.214   6.165
   82SOPE   C32 7492   1.618   0.215   5.963
   82SOPE   H2X 7493   1.720   0.174   5.953
   82SOPE   H2Y 7494   1.615   0.312   5.908
   82SOPE   C23 7495   1.753   0.677   5.923
   82SOPE   H3R 7496   1.720   0.571   5.928
   82SOPE   H3S 7497   1.862   0.674   5.903
   82SOPE   C24 7498   1.699   0.745   5.797
   82SOPE   H4R 7499   1.702   0.668   5.718
   82SOPE   H4S 7500   1.591   0.768   5.812
   82SOPE   C25 7501   1.778   0.863   5.752
   82SOPE   H5R 7502   1.756   0.954   5.813
   82SOPE   H5S 7503   1.888   0.857   5.765
   82SOPE   C26 7504   1.739   0.907   5.610
   82SOPE   H6R 7505   1.630   0.923   5.596
   82SOPE   H6S 7506   1.774   1.011   5.595
   82SOPE   C27 7507   1.790   0.813   5.501
   82SOPE   H7R 7508   1.891   0.775   5.526
   82SOPE   H7S 7509   1.723   0.725   5.486
   82SOPE   C28 7510   1.805   0.881   5.355
   82SOPE   H8R 7511   1.878   0.965   5.351
   82SOPE   H8S 7512   1.854   0.805   5.290
   82SOPE   C29 7513   1.671   0.925   5.294
   82SOPE   H91 7514   1.601   0.967   5.368
   82SOPE  C210 7515   1.641   0.927   5.164
   82SOPE  H101 7516   1.537   0.947   5.135
   82SOPE  C211 7517   1.712   0.885   5.038
   82SOPE  H11R 7518   1.813   0.865   5.078
   82SOPE  H11S 7519   1.718   0.976   4.975
   82SOPE  C212 7520   1.683   0.772   4.933
   82SOPE  H12R 7521   1.577   0.785   4.902
   82SOPE  H12S 7522   1.700   0.676   4.986
   82SOPE  C213 7523   1.762   0.781   4.799
   82SOPE  H13R 7524   1.763   0.890   4.775
   82SOPE  H13S 7525   1.691   0.743   4.723
   82SOPE  C214 7526   1.893   0.696   4.785
   82SOPE  H14R 7527   1.881   0.597   4.836
   82SOPE  H14S 7528   1.977   0.748   4.834
   82SOPE  C215 7529   1.933   0.687   4.638
   82SOPE  H15R 7530   1.984   0.775   4.594
   82SOPE  H15S 7531   1.844   0.683   4.571
   82SOPE  C216 7532   2.018   0.562   4.618
   82SOPE  H16R 7533   1.977   0.478   4.679
   82SOPE  H16S 7534   2.116   0.584   4.664
   82SOPE  C217 7535   2.049   0.520   4.474
   82SOPE  H17R 7536   1.954   0.481   4.430
   82SOPE  H17S 7537   2.109   0.428   4.484
   82SOPE  C218 7538   2.121   0.642   4.402
   82SOPE  H18R 7539   2.045   0.723   4.405
   82SOPE  H18S 7540   2.147   0.610   4.299
   82SOPE  H18T 7541   2.212   0.676   4.455
   82SOPE   C33 7542   1.527   0.114   5.880
   82SOPE   H3X 7543   1.428   0.163   5.887
   82SOPE   H3Y 7544   1.526   0.015   5.931
   82SOPE   C34 7545   1.555   0.112   5.726
   82SOPE   H4X 7546   1.492   0.028   5.688
   82SOPE   H4Y 7547   1.659   0.081   5.702
   82SOPE   C35 7548   1.504   0.229   5.640
   82SOPE   H5X 7549   1.563   0.314   5.683
   82SOPE   H5Y 7550   1.395   0.248   5.654
   82SOPE   C36 7551   1.537   0.212   5.493
   82SOPE   H6X 7552   1.462   0.147   5.442
   82SOPE   H6Y 7553   1.635   0.170   5.464
   82SOPE   C37 7554   1.529   0.356   5.435
   82SOPE   H7X 7555   1.609   0.428   5.462
   82SOPE   H7Y 7556   1.432   0.402   5.465
   82SOPE   C38 7557   1.543   0.360   5.283
   82SOPE   H8X 7558   1.485   0.273   5.244
   82SOPE   H8Y 7559   1.650   0.341   5.263
   82SOPE   C39 7560   1.487   0.479   5.216
   82SOPE   H9X 7561   1.557   0.562   5.238
   82SOPE   H9Y 7562   1.389   0.492   5.266
   82SOPE  C310 7563   1.462   0.461   5.064
   82SOPE  H10X 7564   1.435   0.566   5.040
   82SOPE  H10Y 7565   1.377   0.389   5.059
   82SOPE  C311 7566   1.582   0.407   4.989
   82SOPE  H11X 7567   1.595   0.300   5.016
   82SOPE  H11Y 7568   1.676   0.459   5.016
   82SOPE  C312 7569   1.573   0.414   4.834
   82SOPE  H12X 7570   1.668   0.450   4.790
   82SOPE  H12Y 7571   1.481   0.469   4.804
   82SOPE  C313 7572   1.562   0.274   4.782
   82SOPE  H13X 7573   1.469   0.227   4.818
   82SOPE  H13Y 7574   1.650   0.218   4.821
   82SOPE  C314 7575   1.551   0.264   4.627
   82SOPE  H14X 7576   1.653   0.292   4.592
   82SOPE  H14Y 7577   1.470   0.331   4.590
   82SOPE  C315 7578   1.520   0.122   4.585
   82SOPE  H15X 7579   1.416   0.094   4.614
   82SOPE  H15Y 7580   1.589   0.051   4.636
   82SOPE  C316 7581   1.531   0.112   4.435
   82SOPE  H16X 7582   1.632   0.145   4.404
   82SOPE  H16Y 7583   1.467   0.196   4.401
   82SOPE  C317 7584   1.474   6.771   4.387
   82SOPE  H17X 7585   1.373   6.758   4.430
   82SOPE  H17Y 7586   1.541   6.700   4.440
   82SOPE  C318 7587   1.481   6.740   4.237
   82SOPE  H18X 7588   1.456   6.632   4.231
   82SOPE  H18Y 7589   1.577   6.752   4.183
   82SOPE  H18Z 7590   1.401   0.005   4.186
   83SOPE     N 7591   2.088   2.271   2.134
   83SOPE   HN1 7592   2.185   2.242   2.155
   83SOPE   HN2 7593   2.085   2.374   2.148
   83SOPE   HN3 7594   2.026   2.223   2.202
   83SOPE   C12 7595   2.045   2.243   1.989
   83SOPE  H12A 7596   2.103   2.154   1.958
   83SOPE  H12B 7597   2.069   2.336   1.933
   83SOPE   C11 7598   1.892   2.206   1.969
   83SOPE  H11A 7599   1.882   2.131   2.050
   83SOPE  H11B 7600   1.868   2.169   1.867
   83SOPE     P 7601   1.647   2.277   2.011
   83SOPE   O13 7602   1.643   2.134   2.059
   83SOPE   O14 7603   1.575   2.313   1.884
   83SOPE   O12 7604   1.803   2.316   1.986
   83SOPE   O11 7605   1.605   2.372   2.134
   83SOPE    C1 7606   1.648   2.323   2.259
   83SOPE    HA 7607   1.745   2.268   2.253
   83SOPE    HB 7608   1.572   2.246   2.286
   83SOPE    C2 7609   1.643   2.435   2.368
   83SOPE    HS 7610   1.735   2.498   2.361
   83SOPE   O21 7611   1.616   2.375   2.495
   83SOPE   C21 7612   1.721   2.321   2.564
   83SOPE   O22 7613   1.836   2.320   2.532
   83SOPE   C22 7614   1.651   2.256   2.685
   83SOPE   H2R 7615   1.588   2.179   2.636
   83SOPE   H2S 7616   1.583   2.332   2.730
   83SOPE    C3 7617   1.530   2.529   2.334
   83SOPE    HX 7618   1.439   2.471   2.363
   83SOPE    HY 7619   1.525   2.561   2.228
   83SOPE   O31 7620   1.548   2.644   2.417
   83SOPE   C31 7621   1.439   2.721   2.439
   83SOPE   O32 7622   1.332   2.705   2.378
   83SOPE   C32 7623   1.475   2.826   2.535
   83SOPE   H2X 7624   1.542   2.904   2.493
   83SOPE   H2Y 7625   1.534   2.775   2.614
   83SOPE   C23 7626   1.742   2.202   2.792
   83SOPE   H3R 7627   1.815   2.280   2.822
   83SOPE   H3S 7628   1.794   2.115   2.746
   83SOPE   C24 7629   1.673   2.144   2.916
   83SOPE   H4R 7630   1.759   2.122   2.983
   83SOPE   H4S 7631   1.615   2.221   2.971
   83SOPE   C25 7632   1.597   2.012   2.893
   83SOPE   H5R 7633   1.499   2.036   2.847
   83SOPE   H5S 7634   1.640   1.939   2.821
   83SOPE   C26 7635   1.560   1.948   3.031
   83SOPE   H6R 7636   1.656   1.927   3.084
   83SOPE   H6S 7637   1.513   2.032   3.087
   83SOPE   C27 7638   1.483   1.812   3.017
   83SOPE   H7R 7639   1.382   1.833   2.975
   83SOPE   H7S 7640   1.538   1.757   2.938
   83SOPE   C28 7641   1.461   1.731   3.150
   83SOPE   H8R 7642   1.438   1.628   3.115
   83SOPE   H8S 7643   1.562   1.738   3.195
   83SOPE   C29 7644   1.360   1.802   3.237
   83SOPE   H91 7645   1.270   1.840   3.185
   83SOPE  C210 7646   1.381   1.839   3.364
   83SOPE  H101 7647   1.296   1.883   3.418
   83SOPE  C211 7648   1.495   1.791   3.457
   83SOPE  H11R 7649   1.565   1.715   3.417
   83SOPE  H11S 7650   1.455   1.759   3.555
   83SOPE  C212 7651   1.595   1.913   3.481
   83SOPE  H12R 7652   1.549   1.988   3.548
   83SOPE  H12S 7653   1.615   1.964   3.384
   83SOPE  C213 7654   1.723   1.863   3.548
   83SOPE  H13R 7655   1.811   1.882   3.483
   83SOPE  H13S 7656   1.722   1.756   3.577
   83SOPE  C214 7657   1.763   1.933   3.677
   83SOPE  H14R 7658   1.762   2.042   3.657
   83SOPE  H14S 7659   1.862   1.903   3.718
   83SOPE  C215 7660   1.668   1.916   3.799
   83SOPE  H15R 7661   1.568   1.958   3.777
   83SOPE  H15S 7662   1.707   1.984   3.878
   83SOPE  C216 7663   1.649   1.767   3.842
   83SOPE  H16R 7664   1.748   1.734   3.880
   83SOPE  H16S 7665   1.588   1.718   3.763
   83SOPE  C217 7666   1.557   1.759   3.962
   83SOPE  H17R 7667   1.460   1.806   3.936
   83SOPE  H17S 7668   1.599   1.810   4.051
   83SOPE  C218 7669   1.521   1.614   4.004
   83SOPE  H18R 7670   1.609   1.558   4.041
   83SOPE  H18S 7671   1.480   1.563   3.914
   83SOPE  H18T 7672   1.440   1.620   4.080
   83SOPE   C33 7673   1.353   2.902   2.598
   83SOPE   H3X 7674   1.282   2.917   2.514
   83SOPE   H3Y 7675   1.404   2.993   2.636
   83SOPE   C34 7676   1.283   2.818   2.704
   83SOPE   H4X 7677   1.293   2.709   2.684
   83SOPE   H4Y 7678   1.173   2.835   2.704
   83SOPE   C35 7679   1.345   2.851   2.843
   83SOPE   H5X 7680   1.328   2.957   2.871
   83SOPE   H5Y 7681   1.455   2.841   2.835
   83SOPE   C36 7682   1.300   2.749   2.960
   83SOPE   H6X 7683   1.352   2.653   2.942
   83SOPE   H6Y 7684   1.190   2.733   2.952
   83SOPE   C37 7685   1.330   2.794   3.103
   83SOPE   H7X 7686   1.311   2.903   3.108
   83SOPE   H7Y 7687   1.437   2.771   3.122
   83SOPE   C38 7688   1.231   2.728   3.208
   83SOPE   H8X 7689   1.251   2.619   3.205
   83SOPE   H8Y 7690   1.132   2.752   3.163
   83SOPE   C39 7691   1.257   2.790   3.340
   83SOPE   H9X 7692   1.226   2.897   3.347
   83SOPE   H9Y 7693   1.366   2.791   3.363
   83SOPE  C310 7694   1.191   2.728   3.466
   83SOPE  H10X 7695   1.262   2.648   3.496
   83SOPE  H10Y 7696   1.091   2.683   3.443
   83SOPE  C311 7697   1.181   2.834   3.582
   83SOPE  H11X 7698   1.104   2.911   3.563
   83SOPE  H11Y 7699   1.281   2.881   3.594
   83SOPE  C312 7700   1.148   2.749   3.706
   83SOPE  H12X 7701   1.086   2.661   3.681
   83SOPE  H12Y 7702   1.098   2.817   3.778
   83SOPE  C313 7703   1.272   2.682   3.769
   83SOPE  H13X 7704   1.339   2.760   3.811
   83SOPE  H13Y 7705   1.323   2.625   3.688
   83SOPE  C314 7706   1.238   2.580   3.877
   83SOPE  H14X 7707   1.325   2.556   3.942
   83SOPE  H14Y 7708   1.190   2.489   3.835
   83SOPE  C315 7709   1.132   2.634   3.979
   83SOPE  H15X 7710   1.031   2.626   3.934
   83SOPE  H15Y 7711   1.142   2.740   4.008
   83SOPE  C316 7712   1.131   2.546   4.107
   83SOPE  H16X 7713   1.235   2.539   4.146
   83SOPE  H16Y 7714   1.088   2.446   4.082
   83SOPE  C317 7715   1.055   2.603   4.228
   83SOPE  H17X 7716   1.121   2.688   4.256
   83SOPE  H17Y 7717   1.050   2.528   4.309
   83SOPE  C318 7718   0.914   2.667   4.199
   83SOPE  H18X 7719   0.902   2.732   4.288
   83SOPE  H18Y 7720   0.832   2.592   4.202
   83SOPE  H18Z 7721   0.909   2.737   4.113
   84SOPE     N 7722   1.062   0.607   2.151
   84SOPE   HN1 7723   0.989   0.641   2.085
   84SOPE   HN2 7724   1.098   0.691   2.200
   84SOPE   HN3 7725   1.139   0.551   2.110
   84SOPE   C12 7726   1.001   0.518   2.258
   84SOPE  H12A 7727   0.897   0.555   2.266
   84SOPE  H12B 7728   1.063   0.527   2.350
   84SOPE   C11 7729   1.000   0.372   2.218
   84SOPE  H11A 7730   0.947   0.322   2.301
   84SOPE  H11B 7731   1.101   0.328   2.230
   84SOPE     P 7732   0.789   0.367   2.052
   84SOPE   O13 7733   0.760   0.270   1.945
   84SOPE   O14 7734   0.755   0.507   2.025
   84SOPE   O12 7735   0.947   0.356   2.082
   84SOPE   O11 7736   0.733   0.330   2.200
   84SOPE    C1 7737   0.603   0.358   2.244
   84SOPE    HA 7738   0.528   0.302   2.186
   84SOPE    HB 7739   0.584   0.466   2.223
   84SOPE    C2 7740   0.577   0.329   2.399
   84SOPE    HS 7741   0.494   0.394   2.432
   84SOPE   O21 7742   0.694   0.343   2.480
   84SOPE   C21 7743   0.723   0.475   2.510
   84SOPE   O22 7744   0.656   0.568   2.462
   84SOPE   C22 7745   0.837   0.496   2.606
   84SOPE   H2R 7746   0.881   0.583   2.552
   84SOPE   H2S 7747   0.919   0.421   2.611
   84SOPE    C3 7748   0.523   0.191   2.423
   84SOPE    HX 7749   0.602   0.119   2.394
   84SOPE    HY 7750   0.439   0.172   2.353
   84SOPE   O31 7751   0.460   0.183   2.550
   84SOPE   C31 7752   0.489   0.080   2.619
   84SOPE   O32 7753   0.570   6.785   2.582
   84SOPE   C32 7754   0.434   0.089   2.755
   84SOPE   H2X 7755   0.337   0.145   2.758
   84SOPE   H2Y 7756   0.507   0.158   2.804
   84SOPE   C23 7757   0.804   0.554   2.744
   84SOPE   H3R 7758   0.742   0.644   2.728
   84SOPE   H3S 7759   0.901   0.579   2.793
   84SOPE   C24 7760   0.738   0.458   2.832
   84SOPE   H4R 7761   0.646   0.418   2.785
   84SOPE   H4S 7762   0.810   0.376   2.852
   84SOPE   C25 7763   0.686   0.507   2.973
   84SOPE   H5R 7764   0.631   0.603   2.964
   84SOPE   H5S 7765   0.612   0.430   3.004
   84SOPE   C26 7766   0.798   0.526   3.073
   84SOPE   H6R 7767   0.845   0.426   3.090
   84SOPE   H6S 7768   0.877   0.598   3.043
   84SOPE   C27 7769   0.726   0.549   3.212
   84SOPE   H7R 7770   0.650   0.629   3.196
   84SOPE   H7S 7771   0.672   0.456   3.237
   84SOPE   C28 7772   0.822   0.566   3.321
   84SOPE   H8R 7773   0.769   0.550   3.417
   84SOPE   H8S 7774   0.905   0.492   3.321
   84SOPE   C29 7775   0.891   0.700   3.327
   84SOPE   H91 7776   0.918   0.745   3.230
   84SOPE  C210 7777   0.931   0.761   3.443
   84SOPE  H101 7778   0.989   0.854   3.447
   84SOPE  C211 7779   0.917   0.694   3.574
   84SOPE  H11R 7780   0.942   0.586   3.580
   84SOPE  H11S 7781   0.814   0.709   3.613
   84SOPE  C212 7782   1.026   0.762   3.665
   84SOPE  H12R 7783   0.980   0.856   3.702
   84SOPE  H12S 7784   1.122   0.784   3.614
   84SOPE  C213 7785   1.062   0.662   3.779
   84SOPE  H13R 7786   1.112   0.587   3.714
   84SOPE  H13S 7787   0.968   0.621   3.822
   84SOPE  C214 7788   1.143   0.735   3.886
   84SOPE  H14R 7789   1.224   0.792   3.837
   84SOPE  H14S 7790   1.194   0.654   3.943
   84SOPE  C215 7791   1.066   0.844   3.970
   84SOPE  H15R 7792   0.964   0.804   3.990
   84SOPE  H15S 7793   1.051   0.930   3.902
   84SOPE  C216 7794   1.147   0.863   4.097
   84SOPE  H16R 7795   1.243   0.914   4.078
   84SOPE  H16S 7796   1.174   0.765   4.141
   84SOPE  C217 7797   1.080   0.957   4.201
   84SOPE  H17R 7798   1.039   1.041   4.142
   84SOPE  H17S 7799   1.148   0.987   4.283
   84SOPE  C218 7800   0.955   0.894   4.274
   84SOPE  H18R 7801   0.878   0.867   4.198
   84SOPE  H18S 7802   0.907   0.970   4.339
   84SOPE  H18T 7803   0.983   0.810   4.341
   84SOPE   C33 7804   0.428   6.747   2.830
   84SOPE   H3X 7805   0.495   6.670   2.786
   84SOPE   H3Y 7806   0.328   6.705   2.805
   84SOPE   C34 7807   0.441   6.757   2.985
   84SOPE   H4X 7808   0.426   6.657   3.029
   84SOPE   H4Y 7809   0.364   0.030   3.030
   84SOPE   C35 7810   0.577   0.017   3.026
   84SOPE   H5X 7811   0.646   0.042   2.942
   84SOPE   H5Y 7812   0.623   6.730   3.089
   84SOPE   C36 7813   0.553   0.143   3.110
   84SOPE   H6X 7814   0.461   0.194   3.076
   84SOPE   H6Y 7815   0.646   0.203   3.093
   84SOPE   C37 7816   0.559   0.111   3.258
   84SOPE   H7X 7817   0.660   0.079   3.292
   84SOPE   H7Y 7818   0.491   0.026   3.278
   84SOPE   C38 7819   0.519   0.228   3.344
   84SOPE   H8X 7820   0.420   0.261   3.306
   84SOPE   H8Y 7821   0.585   0.315   3.322
   84SOPE   C39 7822   0.530   0.200   3.491
   84SOPE   H9X 7823   0.637   0.184   3.516
   84SOPE   H9Y 7824   0.462   0.118   3.521
   84SOPE  C310 7825   0.488   0.321   3.569
   84SOPE  H10X 7826   0.382   0.347   3.551
   84SOPE  H10Y 7827   0.557   0.406   3.549
   84SOPE  C311 7828   0.490   0.299   3.725
   84SOPE  H11X 7829   0.581   0.241   3.752
   84SOPE  H11Y 7830   0.401   0.236   3.746
   84SOPE  C312 7831   0.485   0.429   3.809
   84SOPE  H12X 7832   0.452   0.412   3.914
   84SOPE  H12Y 7833   0.405   0.483   3.754
   84SOPE  C313 7834   0.618   0.510   3.802
   84SOPE  H13X 7835   0.604   0.614   3.841
   84SOPE  H13Y 7836   0.665   0.527   3.703
   84SOPE  C314 7837   0.725   0.442   3.897
   84SOPE  H14X 7838   0.826   0.467   3.859
   84SOPE  H14Y 7839   0.716   0.332   3.890
   84SOPE  C315 7840   0.711   0.480   4.044
   84SOPE  H15X 7841   0.739   0.392   4.105
   84SOPE  H15Y 7842   0.606   0.510   4.067
   84SOPE  C316 7843   0.808   0.577   4.089
   84SOPE  H16X 7844   0.760   0.677   4.081
   84SOPE  H16Y 7845   0.910   0.575   4.044
   84SOPE  C317 7846   0.839   0.557   4.240
   84SOPE  H17X 7847   0.902   0.641   4.276
   84SOPE  H17Y 7848   0.894   0.462   4.254
   84SOPE  C318 7849   0.712   0.565   4.326
   84SOPE  H18X 7850   0.628   0.508   4.283
   84SOPE  H18Y 7851   0.674   0.668   4.343
   84SOPE  H18Z 7852   0.733   0.521   4.427
   85SOPE     N 7853   5.539   4.296   1.806
   85SOPE   HN1 7854   5.550   4.390   1.761
   85SOPE   HN2 7855   5.573   4.309   1.903
   85SOPE   HN3 7856   5.614   4.242   1.758
   85SOPE   C12 7857   5.402   4.238   1.799
   85SOPE  H12A 7858   5.407   4.133   1.835
   85SOPE  H12B 7859   5.365   4.247   1.694
   85SOPE   C11 7860   5.303   4.311   1.894
   85SOPE  H11A 7861   5.357   4.291   1.989
   85SOPE  H11B 7862   5.197   4.278   1.892
   85SOPE     P 7863   5.199   4.548   1.941
   85SOPE   O13 7864   5.070   4.546   1.870
   85SOPE   O14 7865   5.259   4.681   1.954
   85SOPE   O12 7866   5.305   4.455   1.865
   85SOPE   O11 7867   5.177   4.487   2.090
   85SOPE    C1 7868   5.282   4.488   2.183
   85SOPE    HA 7869   5.291   4.590   2.225
   85SOPE    HB 7870   5.377   4.466   2.128
   85SOPE    C2 7871   5.269   4.384   2.292
   85SOPE    HS 7872   5.235   4.292   2.240
   85SOPE   O21 7873   5.160   4.428   2.382
   85SOPE   C21 7874   5.106   4.339   2.467
   85SOPE   O22 7875   5.112   4.221   2.466
   85SOPE   C22 7876   5.014   4.412   2.574
   85SOPE   H2R 7877   4.927   4.344   2.592
   85SOPE   H2S 7878   4.971   4.507   2.536
   85SOPE    C3 7879   5.405   4.367   2.372
   85SOPE    HX 7880   5.429   4.467   2.414
   85SOPE    HY 7881   5.490   4.343   2.305
   85SOPE   O31 7882   5.401   4.258   2.467
   85SOPE   C31 7883   5.365   4.138   2.418
   85SOPE   O32 7884   5.359   4.111   2.300
   85SOPE   C32 7885   5.371   4.023   2.527
   85SOPE   H2X 7886   5.479   4.006   2.549
   85SOPE   H2Y 7887   5.315   3.948   2.468
   85SOPE   C23 7888   5.087   4.432   2.707
   85SOPE   H3R 7889   5.048   4.529   2.743
   85SOPE   H3S 7890   5.196   4.445   2.688
   85SOPE   C24 7891   5.060   4.326   2.818
   85SOPE   H4R 7892   4.949   4.326   2.826
   85SOPE   H4S 7893   5.085   4.222   2.786
   85SOPE   C25 7894   5.124   4.365   2.944
   85SOPE   H5R 7895   5.231   4.338   2.933
   85SOPE   H5S 7896   5.115   4.474   2.961
   85SOPE   C26 7897   5.080   4.286   3.070
   85SOPE   H6R 7898   4.983   4.325   3.106
   85SOPE   H6S 7899   5.052   4.181   3.045
   85SOPE   C27 7900   5.184   4.270   3.179
   85SOPE   H7R 7901   5.276   4.232   3.130
   85SOPE   H7S 7902   5.213   4.370   3.219
   85SOPE   C28 7903   5.154   4.167   3.294
   85SOPE   H8R 7904   5.130   4.066   3.255
   85SOPE   H8S 7905   5.246   4.165   3.357
   85SOPE   C29 7906   5.048   4.229   3.390
   85SOPE   H91 7907   4.960   4.281   3.349
   85SOPE  C210 7908   5.057   4.225   3.529
   85SOPE  H101 7909   4.985   4.270   3.599
   85SOPE  C211 7910   5.160   4.149   3.603
   85SOPE  H11R 7911   5.233   4.093   3.542
   85SOPE  H11S 7912   5.114   4.079   3.676
   85SOPE  C212 7913   5.247   4.246   3.682
   85SOPE  H12R 7914   5.177   4.321   3.727
   85SOPE  H12S 7915   5.320   4.296   3.615
   85SOPE  C213 7916   5.327   4.174   3.787
   85SOPE  H13R 7917   5.388   4.254   3.834
   85SOPE  H13S 7918   5.405   4.106   3.746
   85SOPE  C214 7919   5.254   4.102   3.899
   85SOPE  H14R 7920   5.214   4.009   3.853
   85SOPE  H14S 7921   5.161   4.158   3.921
   85SOPE  C215 7922   5.337   4.082   4.026
   85SOPE  H15R 7923   5.367   4.186   4.049
   85SOPE  H15S 7924   5.433   4.029   4.005
   85SOPE  C216 7925   5.251   4.019   4.139
   85SOPE  H16R 7926   5.280   3.912   4.145
   85SOPE  H16S 7927   5.150   4.015   4.094
   85SOPE  C217 7928   5.259   4.090   4.272
   85SOPE  H17R 7929   5.187   4.039   4.339
   85SOPE  H17S 7930   5.221   4.194   4.266
   85SOPE  C218 7931   5.405   4.094   4.327
   85SOPE  H18R 7932   5.414   4.149   4.424
   85SOPE  H18S 7933   5.461   4.151   4.250
   85SOPE  H18T 7934   5.445   3.991   4.336
   85SOPE   C33 7935   5.316   4.067   2.669
   85SOPE   H3X 7936   5.213   4.104   2.650
   85SOPE   H3Y 7937   5.368   4.153   2.716
   85SOPE   C34 7938   5.319   3.952   2.773
   85SOPE   H4X 7939   5.422   3.932   2.810
   85SOPE   H4Y 7940   5.274   3.857   2.738
   85SOPE   C35 7941   5.258   3.996   2.909
   85SOPE   H5X 7942   5.160   4.045   2.891
   85SOPE   H5Y 7943   5.328   4.069   2.955
   85SOPE   C36 7944   5.221   3.879   2.995
   85SOPE   H6X 7945   5.157   3.807   2.940
   85SOPE   H6Y 7946   5.159   3.918   3.079
   85SOPE   C37 7947   5.347   3.804   3.059
   85SOPE   H7X 7948   5.429   3.870   3.094
   85SOPE   H7Y 7949   5.388   3.742   2.977
   85SOPE   C38 7950   5.312   3.713   3.177
   85SOPE   H8X 7951   5.396   3.639   3.176
   85SOPE   H8Y 7952   5.216   3.660   3.160
   85SOPE   C39 7953   5.304   3.782   3.314
   85SOPE   H9X 7954   5.232   3.867   3.320
   85SOPE   H9Y 7955   5.401   3.831   3.338
   85SOPE  C310 7956   5.274   3.673   3.419
   85SOPE  H10X 7957   5.344   3.591   3.391
   85SOPE  H10Y 7958   5.171   3.634   3.406
   85SOPE  C311 7959   5.302   3.726   3.555
   85SOPE  H11X 7960   5.251   3.824   3.567
   85SOPE  H11Y 7961   5.411   3.736   3.572
   85SOPE  C312 7962   5.258   3.634   3.675
   85SOPE  H12X 7963   5.335   3.555   3.688
   85SOPE  H12Y 7964   5.164   3.580   3.652
   85SOPE  C313 7965   5.241   3.710   3.803
   85SOPE  H13X 7966   5.137   3.742   3.827
   85SOPE  H13Y 7967   5.299   3.804   3.796
   85SOPE  C314 7968   5.299   3.639   3.929
   85SOPE  H14X 7969   5.307   3.715   4.010
   85SOPE  H14Y 7970   5.400   3.598   3.909
   85SOPE  C315 7971   5.213   3.534   3.992
   85SOPE  H15X 7972   5.253   3.435   3.963
   85SOPE  H15Y 7973   5.110   3.536   3.951
   85SOPE  C316 7974   5.214   3.546   4.143
   85SOPE  H16X 7975   5.166   3.639   4.179
   85SOPE  H16Y 7976   5.320   3.549   4.176
   85SOPE  C317 7977   5.161   3.433   4.224
   85SOPE  H17X 7978   5.204   3.338   4.186
   85SOPE  H17Y 7979   5.055   3.431   4.193
   85SOPE  C318 7980   5.169   3.458   4.378
   85SOPE  H18X 7981   5.138   3.362   4.426
   85SOPE  H18Y 7982   5.096   3.532   4.417
   85SOPE  H18Z 7983   5.273   3.478   4.411
   86SOPE     N 7984   5.031   1.734   2.624
   86SOPE   HN1 7985   4.934   1.772   2.628
   86SOPE   HN2 7986   5.104   1.805   2.646
   86SOPE   HN3 7987   5.042   1.700   2.526
   86SOPE   C12 7988   5.030   1.620   2.711
   86SOPE  H12A 7989   4.950   1.547   2.684
   86SOPE  H12B 7990   5.026   1.655   2.816
   86SOPE   C11 7991   5.169   1.543   2.684
   86SOPE  H11A 7992   5.173   1.440   2.724
   86SOPE  H11B 7993   5.242   1.609   2.736
   86SOPE     P 7994   5.329   1.520   2.474
   86SOPE   O13 7995   5.393   1.652   2.473
   86SOPE   O14 7996   5.295   1.462   2.345
   86SOPE   O12 7997   5.193   1.526   2.547
   86SOPE   O11 7998   5.413   1.417   2.553
   86SOPE    C1 7999   5.393   1.280   2.517
   86SOPE    HA 8000   5.481   1.245   2.459
   86SOPE    HB 8001   5.312   1.260   2.444
   86SOPE    C2 8002   5.376   1.196   2.649
   86SOPE    HS 8003   5.293   1.242   2.706
   86SOPE   O21 8004   5.494   1.196   2.720
   86SOPE   C21 8005   5.497   1.261   2.842
   86SOPE   O22 8006   5.407   1.318   2.903
   86SOPE   C22 8007   5.635   1.237   2.900
   86SOPE   H2R 8008   5.699   1.320   2.864
   86SOPE   H2S 8009   5.674   1.139   2.864
   86SOPE    C3 8010   5.340   1.056   2.619
   86SOPE    HX 8011   5.416   1.016   2.548
   86SOPE    HY 8012   5.239   1.056   2.572
   86SOPE   O31 8013   5.334   0.973   2.739
   86SOPE   C31 8014   5.406   0.866   2.752
   86SOPE   O32 8015   5.462   0.805   2.662
   86SOPE   C32 8016   5.399   0.825   2.897
   86SOPE   H2X 8017   5.416   0.716   2.908
   86SOPE   H2Y 8018   5.297   0.858   2.925
   86SOPE   C23 8019   5.621   1.241   3.061
   86SOPE   H3R 8020   5.549   1.161   3.088
   86SOPE   H3S 8021   5.582   1.339   3.097
   86SOPE   C24 8022   5.750   1.207   3.132
   86SOPE   H4R 8023   5.791   1.110   3.096
   86SOPE   H4S 8024   5.829   1.281   3.108
   86SOPE   C25 8025   5.727   1.209   3.281
   86SOPE   H5R 8026   5.630   1.162   3.306
   86SOPE   H5S 8027   5.801   1.140   3.327
   86SOPE   C26 8028   5.730   1.354   3.342
   86SOPE   H6R 8029   5.826   1.408   3.325
   86SOPE   H6S 8030   5.651   1.418   3.298
   86SOPE   C27 8031   5.681   1.358   3.483
   86SOPE   H7R 8032   5.655   1.461   3.516
   86SOPE   H7S 8033   5.586   1.300   3.483
   86SOPE   C28 8034   5.785   1.299   3.588
   86SOPE   H8R 8035   5.806   1.193   3.566
   86SOPE   H8S 8036   5.879   1.357   3.573
   86SOPE   C29 8037   5.720   1.308   3.723
   86SOPE   H91 8038   5.637   1.236   3.733
   86SOPE  C210 8039   5.756   1.390   3.824
   86SOPE  H101 8040   5.696   1.381   3.916
   86SOPE  C211 8041   5.864   1.495   3.808
   86SOPE  H11R 8042   5.836   1.586   3.865
   86SOPE  H11S 8043   5.887   1.526   3.703
   86SOPE  C212 8044   6.000   1.456   3.858
   86SOPE  H12R 8045   6.030   1.359   3.814
   86SOPE  H12S 8046   6.001   1.447   3.969
   86SOPE  C213 8047   6.116   1.552   3.827
   86SOPE  H13R 8048   6.111   1.650   3.877
   86SOPE  H13S 8049   6.112   1.571   3.717
   86SOPE  C214 8050   6.251   1.496   3.849
   86SOPE  H14R 8051   6.325   1.565   3.803
   86SOPE  H14S 8052   6.249   1.403   3.788
   86SOPE  C215 8053   6.282   1.452   3.993
   86SOPE  H15R 8054   6.380   1.400   3.985
   86SOPE  H15S 8055   6.208   1.374   4.022
   86SOPE  C216 8056   6.285   1.555   4.110
   86SOPE  H16R 8057   6.314   1.499   4.201
   86SOPE  H16S 8058   6.186   1.606   4.120
   86SOPE  C217 8059   6.384   1.668   4.104
   86SOPE  H17R 8060   6.359   1.731   4.015
   86SOPE  H17S 8061   6.486   1.628   4.093
   86SOPE  C218 8062   6.388   1.757   4.223
   86SOPE  H18R 8063   6.381   1.690   4.312
   86SOPE  H18S 8064   6.306   1.832   4.221
   86SOPE  H18T 8065   6.486   1.808   4.232
   86SOPE   C33 8066   5.491   0.895   2.998
   86SOPE   H3X 8067   5.451   0.995   3.022
   86SOPE   H3Y 8068   5.597   0.911   2.967
   86SOPE   C34 8069   5.510   0.830   3.139
   86SOPE   H4X 8070   5.408   0.808   3.177
   86SOPE   H4Y 8071   5.560   0.899   3.210
   86SOPE   C35 8072   5.586   0.701   3.132
   86SOPE   H5X 8073   5.667   0.720   3.058
   86SOPE   H5Y 8074   5.515   0.630   3.084
   86SOPE   C36 8075   5.648   0.656   3.260
   86SOPE   H6X 8076   5.714   0.740   3.290
   86SOPE   H6Y 8077   5.721   0.574   3.241
   86SOPE   C37 8078   5.548   0.642   3.369
   86SOPE   H7X 8079   5.482   0.730   3.386
   86SOPE   H7Y 8080   5.614   0.634   3.458
   86SOPE   C38 8081   5.479   0.508   3.365
   86SOPE   H8X 8082   5.554   0.430   3.338
   86SOPE   H8Y 8083   5.404   0.513   3.283
   86SOPE   C39 8084   5.413   0.471   3.502
   86SOPE   H9X 8085   5.482   0.465   3.589
   86SOPE   H9Y 8086   5.371   0.368   3.499
   86SOPE  C310 8087   5.303   0.567   3.547
   86SOPE  H10X 8088   5.218   0.548   3.478
   86SOPE  H10Y 8089   5.333   0.668   3.512
   86SOPE  C311 8090   5.258   0.539   3.692
   86SOPE  H11X 8091   5.254   0.429   3.701
   86SOPE  H11Y 8092   5.156   0.581   3.707
   86SOPE  C312 8093   5.343   0.613   3.804
   86SOPE  H12X 8094   5.353   0.722   3.782
   86SOPE  H12Y 8095   5.445   0.570   3.816
   86SOPE  C313 8096   5.271   0.605   3.943
   86SOPE  H13X 8097   5.258   0.500   3.978
   86SOPE  H13Y 8098   5.170   0.649   3.927
   86SOPE  C314 8099   5.341   0.690   4.046
   86SOPE  H14X 8100   5.356   0.787   3.994
   86SOPE  H14Y 8101   5.441   0.644   4.062
   86SOPE  C315 8102   5.266   0.726   4.183
   86SOPE  H15X 8103   5.170   0.771   4.150
   86SOPE  H15Y 8104   5.312   0.817   4.227
   86SOPE  C316 8105   5.259   0.611   4.288
   86SOPE  H16X 8106   5.359   0.563   4.291
   86SOPE  H16Y 8107   5.181   0.541   4.253
   86SOPE  C317 8108   5.215   0.673   4.420
   86SOPE  H17X 8109   5.285   0.735   4.479
   86SOPE  H17Y 8110   5.205   0.587   4.489
   86SOPE  C318 8111   5.078   0.734   4.423
   86SOPE  H18X 8112   5.003   0.655   4.446
   86SOPE  H18Y 8113   5.045   0.768   4.322
   86SOPE  H18Z 8114   5.077   0.819   4.493
   87SOPE     N 8115   6.039   0.769   2.133
   87SOPE   HN1 8116   6.063   0.738   2.036
   87SOPE   HN2 8117   5.969   0.701   2.168
   87SOPE   HN3 8118   6.010   0.868   2.144
   87SOPE   C12 8119   6.160   0.742   2.220
   87SOPE  H12A 8120   6.134   0.779   2.321
   87SOPE  H12B 8121   6.247   0.800   2.182
   87SOPE   C11 8122   6.201   0.598   2.221
   87SOPE  H11A 8123   6.114   0.542   2.262
   87SOPE  H11B 8124   6.285   0.596   2.294
   87SOPE     P 8125   6.201   0.401   2.049
   87SOPE   O13 8126   6.260   0.376   1.915
   87SOPE   O14 8127   6.049   0.392   2.064
   87SOPE   O12 8128   6.246   0.537   2.104
   87SOPE   O11 8129   6.269   0.309   2.154
   87SOPE    C1 8130   6.414   0.300   2.185
   87SOPE    HA 8131   6.463   0.397   2.162
   87SOPE    HB 8132   6.470   0.237   2.113
   87SOPE    C2 8133   6.440   0.257   2.331
   87SOPE    HS 8134   6.402   0.155   2.355
   87SOPE   O21 8135   6.380   0.346   2.419
   87SOPE   C21 8136   6.363   0.321   2.549
   87SOPE   O22 8137   6.374   0.212   2.602
   87SOPE   C22 8138   6.339   0.455   2.612
   87SOPE   H2R 8139   6.266   0.500   2.542
   87SOPE   H2S 8140   6.439   0.502   2.623
   87SOPE    C3 8141   6.597   0.262   2.354
   87SOPE    HX 8142   6.627   0.367   2.332
   87SOPE    HY 8143   6.634   0.188   2.280
   87SOPE   O31 8144   6.640   0.235   2.494
   87SOPE   C31 8145   6.647   0.104   2.529
   87SOPE   O32 8146   6.619   0.003   2.462
   87SOPE   C32 8147   6.695   0.108   2.673
   87SOPE   H2X 8148   6.613   0.132   2.744
   87SOPE   H2Y 8149   6.762   0.194   2.691
   87SOPE   C23 8150   6.280   0.448   2.757
   87SOPE   H3R 8151   6.190   0.384   2.749
   87SOPE   H3S 8152   6.230   0.540   2.796
   87SOPE   C24 8153   6.377   0.408   2.866
   87SOPE   H4R 8154   6.428   0.312   2.844
   87SOPE   H4S 8155   6.461   0.480   2.864
   87SOPE   C25 8156   6.315   0.411   3.008
   87SOPE   H5R 8157   6.276   0.515   3.010
   87SOPE   H5S 8158   6.230   0.340   3.022
   87SOPE   C26 8159   6.422   0.405   3.117
   87SOPE   H6R 8160   6.498   0.325   3.103
   87SOPE   H6S 8161   6.477   0.500   3.129
   87SOPE   C27 8162   6.362   0.372   3.260
   87SOPE   H7R 8163   6.303   0.464   3.282
   87SOPE   H7S 8164   6.292   0.287   3.257
   87SOPE   C28 8165   6.475   0.331   3.358
   87SOPE   H8R 8166   6.439   0.287   3.453
   87SOPE   H8S 8167   6.532   0.245   3.316
   87SOPE   C29 8168   6.571   0.446   3.390
   87SOPE   H91 8169   6.633   0.474   3.303
   87SOPE  C210 8170   6.597   0.488   3.519
   87SOPE  H101 8171   6.665   0.574   3.521
   87SOPE  C211 8172   6.536   0.446   3.651
   87SOPE  H11R 8173   6.606   0.399   3.722
   87SOPE  H11S 8174   6.445   0.382   3.645
   87SOPE  C212 8175   6.489   0.571   3.721
   87SOPE  H12R 8176   6.414   0.628   3.662
   87SOPE  H12S 8177   6.573   0.641   3.744
   87SOPE  C213 8178   6.419   0.539   3.862
   87SOPE  H13R 8179   6.496   0.522   3.940
   87SOPE  H13S 8180   6.361   0.445   3.846
   87SOPE  C214 8181   6.327   0.646   3.916
   87SOPE  H14R 8182   6.314   0.625   4.024
   87SOPE  H14S 8183   6.234   0.644   3.855
   87SOPE  C215 8184   6.400   0.786   3.918
   87SOPE  H15R 8185   6.426   0.820   3.815
   87SOPE  H15S 8186   6.498   0.784   3.970
   87SOPE  C216 8187   6.302   0.886   3.996
   87SOPE  H16R 8188   6.362   0.972   4.031
   87SOPE  H16S 8189   6.249   0.847   4.085
   87SOPE  C217 8190   6.197   0.943   3.892
   87SOPE  H17R 8191   6.122   0.865   3.868
   87SOPE  H17S 8192   6.259   0.967   3.803
   87SOPE  C218 8193   6.134   1.069   3.946
   87SOPE  H18R 8194   6.095   1.050   4.048
   87SOPE  H18S 8195   6.049   1.094   3.879
   87SOPE  H18T 8196   6.217   1.143   3.944
   87SOPE   C33 8197   6.782   6.778   2.730
   87SOPE   H3X 8198   0.096   6.785   2.698
   87SOPE   H3Y 8199   6.723   6.693   2.691
   87SOPE   C34 8200   6.784   6.768   2.882
   87SOPE   H4X 8201   0.056   6.686   2.920
   87SOPE   H4Y 8202   6.683   6.747   2.925
   87SOPE   C35 8203   0.032   0.103   2.957
   87SOPE   H5X 8204   6.751   0.182   2.934
   87SOPE   H5Y 8205   0.130   0.135   2.915
   87SOPE   C36 8206   0.033   0.079   3.109
   87SOPE   H6X 8207   0.084   6.774   3.125
   87SOPE   H6Y 8208   6.723   0.067   3.149
   87SOPE   C37 8209   0.093   0.185   3.195
   87SOPE   H7X 8210   0.021   0.269   3.193
   87SOPE   H7Y 8211   0.187   0.223   3.148
   87SOPE   C38 8212   0.136   0.145   3.339
   87SOPE   H8X 8213   0.193   0.228   3.385
   87SOPE   H8Y 8214   0.201   0.055   3.339
   87SOPE   C39 8215   0.016   0.128   3.428
   87SOPE   H9X 8216   6.758   0.030   3.421
   87SOPE   H9Y 8217   6.725   0.196   3.402
   87SOPE  C310 8218   0.038   0.154   3.575
   87SOPE  H10X 8219   0.065   0.259   3.601
   87SOPE  H10Y 8220   0.124   0.092   3.608
   87SOPE  C311 8221   6.713   0.116   3.665
   87SOPE  H11X 8222   6.683   0.010   3.650
   87SOPE  H11Y 8223   6.630   0.178   3.626
   87SOPE  C312 8224   6.735   0.144   3.814
   87SOPE  H12X 8225   6.740   0.252   3.840
   87SOPE  H12Y 8226   0.031   0.091   3.853
   87SOPE  C313 8227   6.608   0.098   3.892
   87SOPE  H13X 8228   6.628   6.785   3.916
   87SOPE  H13Y 8229   6.515   0.109   3.832
   87SOPE  C314 8230   6.586   0.169   4.029
   87SOPE  H14X 8231   6.509   0.112   4.085
   87SOPE  H14Y 8232   6.546   0.270   4.004
   87SOPE  C315 8233   6.714   0.192   4.120
   87SOPE  H15X 8234   6.692   0.281   4.184
   87SOPE  H15Y 8235   0.008   0.236   4.066
   87SOPE  C316 8236   6.772   0.062   4.189
   87SOPE  H16X 8237   0.052   0.089   4.268
   87SOPE  H16Y 8238   0.032   0.003   4.111
   87SOPE  C317 8239   6.672   6.765   4.267
   87SOPE  H17X 8240   6.592   6.720   4.204
   87SOPE  H17Y 8241   6.617   0.026   4.347
   87SOPE  C318 8242   6.732   6.642   4.340
   87SOPE  H18X 8243   6.771   6.568   4.266
   87SOPE  H18Y 8244   6.654   6.596   4.405
   87SOPE  H18Z 8245   0.020   6.685   4.402
   88SOPE     N 8246   1.518   5.424   2.209
   88SOPE   HN1 8247   1.569   5.337   2.187
   88SOPE   HN2 8248   1.569   5.500   2.160
   88SOPE   HN3 8249   1.528   5.437   2.312
   88SOPE   C12 8250   1.370   5.425   2.164
   88SOPE  H12A 8251   1.316   5.352   2.228
   88SOPE  H12B 8252   1.361   5.388   2.060
   88SOPE   C11 8253   1.319   5.572   2.160
   88SOPE  H11A 8254   1.313   5.608   2.265
   88SOPE  H11B 8255   1.215   5.571   2.121
   88SOPE     P 8256   1.352   5.814   2.059
   88SOPE   O13 8257   1.211   5.825   2.004
   88SOPE   O14 8258   1.454   5.886   1.980
   88SOPE   O12 8259   1.393   5.664   2.083
   88SOPE   O11 8260   1.348   5.874   2.208
   88SOPE    C1 8261   1.471   5.868   2.288
   88SOPE    HA 8262   1.531   5.960   2.270
   88SOPE    HB 8263   1.542   5.784   2.272
   88SOPE    C2 8264   1.430   5.865   2.440
   88SOPE    HS 8265   1.415   5.758   2.464
   88SOPE   O21 8266   1.316   5.951   2.464
   88SOPE   C21 8267   1.213   5.892   2.517
   88SOPE   O22 8268   1.187   5.771   2.517
   88SOPE   C22 8269   1.125   6.010   2.563
   88SOPE   H2R 8270   1.020   5.975   2.559
   88SOPE   H2S 8271   1.136   6.092   2.490
   88SOPE    C3 8272   1.545   5.909   2.532
   88SOPE    HX 8273   1.571   6.014   2.504
   88SOPE    HY 8274   1.638   5.851   2.517
   88SOPE   O31 8275   1.495   5.903   2.668
   88SOPE   C31 8276   1.595   5.924   2.752
   88SOPE   O32 8277   1.706   5.967   2.726
   88SOPE   C32 8278   1.529   5.930   2.896
   88SOPE   H2X 8279   1.522   5.826   2.936
   88SOPE   H2Y 8280   1.426   5.972   2.893
   88SOPE   C23 8281   1.160   6.063   2.706
   88SOPE   H3R 8282   1.101   6.156   2.719
   88SOPE   H3S 8283   1.266   6.092   2.723
   88SOPE   C24 8284   1.125   5.969   2.817
   88SOPE   H4R 8285   1.027   5.920   2.801
   88SOPE   H4S 8286   1.198   5.886   2.820
   88SOPE   C25 8287   1.132   6.026   2.959
   88SOPE   H5R 8288   1.225   6.081   2.984
   88SOPE   H5S 8289   1.042   6.091   2.967
   88SOPE   C26 8290   1.119   5.908   3.059
   88SOPE   H6R 8291   1.048   5.839   3.009
   88SOPE   H6S 8292   1.218   5.862   3.081
   88SOPE   C27 8293   1.064   5.966   3.194
   88SOPE   H7R 8294   1.133   6.048   3.224
   88SOPE   H7S 8295   0.965   6.014   3.178
   88SOPE   C28 8296   1.071   5.857   3.301
   88SOPE   H8R 8297   0.988   5.881   3.370
   88SOPE   H8S 8298   1.024   5.767   3.256
   88SOPE   C29 8299   1.205   5.816   3.358
   88SOPE   H91 8300   1.268   5.760   3.287
   88SOPE  C210 8301   1.240   5.839   3.487
   88SOPE  H101 8302   1.335   5.800   3.528
   88SOPE  C211 8303   1.157   5.911   3.596
   88SOPE  H11R 8304   1.097   5.827   3.637
   88SOPE  H11S 8305   1.090   5.986   3.547
   88SOPE  C212 8306   1.239   5.971   3.710
   88SOPE  H12R 8307   1.161   5.991   3.786
   88SOPE  H12S 8308   1.299   6.057   3.674
   88SOPE  C213 8309   1.336   5.875   3.790
   88SOPE  H13R 8310   1.429   5.854   3.732
   88SOPE  H13S 8311   1.283   5.783   3.821
   88SOPE  C214 8312   1.392   5.956   3.912
   88SOPE  H14R 8313   1.326   6.028   3.965
   88SOPE  H14S 8314   1.471   6.021   3.870
   88SOPE  C215 8315   1.435   5.876   4.029
   88SOPE  H15R 8316   1.532   5.829   4.004
   88SOPE  H15S 8317   1.368   5.798   4.071
   88SOPE  C216 8318   1.452   5.970   4.151
   88SOPE  H16R 8319   1.356   6.014   4.188
   88SOPE  H16S 8320   1.524   6.041   4.107
   88SOPE  C217 8321   1.521   5.898   4.263
   88SOPE  H17R 8322   1.583   5.953   4.337
   88SOPE  H17S 8323   1.579   5.817   4.213
   88SOPE  C218 8324   1.418   5.830   4.355
   88SOPE  H18R 8325   1.350   5.900   4.408
   88SOPE  H18S 8326   1.478   5.779   4.433
   88SOPE  H18T 8327   1.368   5.744   4.305
   88SOPE   C33 8328   1.613   6.016   2.989
   88SOPE   H3X 8329   1.578   6.121   2.985
   88SOPE   H3Y 8330   1.723   6.007   2.974
   88SOPE   C34 8331   1.584   5.978   3.136
   88SOPE   H4X 8332   1.589   5.868   3.151
   88SOPE   H4Y 8333   1.474   5.988   3.148
   88SOPE   C35 8334   1.653   6.066   3.247
   88SOPE   H5X 8335   1.612   6.168   3.229
   88SOPE   H5Y 8336   1.759   6.075   3.215
   88SOPE   C36 8337   1.624   6.006   3.382
   88SOPE   H6X 8338   1.635   5.895   3.376
   88SOPE   H6Y 8339   1.517   6.019   3.408
   88SOPE   C37 8340   1.722   6.055   3.491
   88SOPE   H7X 8341   1.704   6.163   3.509
   88SOPE   H7Y 8342   1.828   6.042   3.463
   88SOPE   C38 8343   1.700   5.981   3.624
   88SOPE   H8X 8344   1.737   5.878   3.603
   88SOPE   H8Y 8345   1.591   5.978   3.644
   88SOPE   C39 8346   1.781   6.035   3.737
   88SOPE   H9X 8347   1.889   6.030   3.712
   88SOPE   H9Y 8348   1.765   5.963   3.821
   88SOPE  C310 8349   1.757   6.179   3.774
   88SOPE  H10X 8350   1.660   6.207   3.821
   88SOPE  H10Y 8351   1.760   6.238   3.680
   88SOPE  C311 8352   1.873   6.251   3.850
   88SOPE  H11X 8353   1.865   6.362   3.843
   88SOPE  H11Y 8354   1.974   6.226   3.811
   88SOPE  C312 8355   1.857   6.211   3.993
   88SOPE  H12X 8356   1.825   6.106   4.013
   88SOPE  H12Y 8357   1.775   6.277   4.027
   88SOPE  C313 8358   1.977   6.254   4.084
   88SOPE  H13X 8359   2.011   6.352   4.045
   88SOPE  H13Y 8360   2.059   6.183   4.059
   88SOPE  C314 8361   1.953   6.249   4.237
   88SOPE  H14X 8362   2.053   6.242   4.286
   88SOPE  H14Y 8363   1.899   6.154   4.259
   88SOPE  C315 8364   1.861   6.356   4.295
   88SOPE  H15X 8365   1.782   6.388   4.223
   88SOPE  H15Y 8366   1.925   6.443   4.320
   88SOPE  C316 8367   1.794   6.315   4.431
   88SOPE  H16X 8368   1.757   6.409   4.475
   88SOPE  H16Y 8369   1.871   6.265   4.494
   88SOPE  C317 8370   1.673   6.223   4.424
   88SOPE  H17X 8371   1.690   6.132   4.363
   88SOPE  H17Y 8372   1.604   6.291   4.369
   88SOPE  C318 8373   1.598   6.189   4.552
   88SOPE  H18X 8374   1.659   6.121   4.614
   88SOPE  H18Y 8375   1.497   6.152   4.525
   88SOPE  H18Z 8376   1.581   6.279   4.615
   89SAPC     N 8377   5.030   2.926   6.532
   89SAPC   C12 8378   5.174   2.971   6.484
   89SAPC  H12A 8379   5.201   2.946   6.383
   89SAPC  H12B 8380   5.249   2.920   6.542
   89SAPC   C13 8381   4.992   3.023   6.644
   89SAPC  H13A 8382   4.900   3.000   6.694
   89SAPC  H13B 8383   5.067   3.003   6.719
   89SAPC  H13C 8384   4.999   3.127   6.617
   89SAPC   C14 8385   4.941   2.949   6.420
   89SAPC  H14A 8386   4.972   2.885   6.339
   89SAPC  H14B 8387   4.837   2.929   6.443
   89SAPC  H14C 8388   4.949   3.050   6.381
   89SAPC   C15 8389   5.034   2.785   6.577
   89SAPC  H15A 8390   4.943   2.777   6.635
   89SAPC  H15B 8391   5.028   2.714   6.495
   89SAPC  H15C 8392   5.114   2.759   6.644
   89SAPC   C11 8393   5.199   3.120   6.481
   89SAPC  H11A 8394   5.296   3.134   6.428
   89SAPC  H11B 8395   5.206   3.165   6.582
   89SAPC     P 8396   5.088   3.349   6.435
   89SAPC   O13 8397   4.954   3.367   6.493
   89SAPC   O14 8398   5.202   3.393   6.514
   89SAPC   O12 8399   5.103   3.194   6.405
   89SAPC   O11 8400   5.092   3.418   6.291
   89SAPC    C1 8401   5.069   3.345   6.170
   89SAPC    HA 8402   5.101   3.403   6.081
   89SAPC    HB 8403   5.131   3.254   6.159
   89SAPC    C2 8404   4.924   3.297   6.150
   89SAPC    HS 8405   4.900   3.232   6.237
   89SAPC   O21 8406   4.907   3.224   6.028
   89SAPC   C21 8407   4.938   3.097   6.033
   89SAPC   O22 8408   4.962   3.029   6.131
   89SAPC   C22 8409   4.961   3.048   5.890
   89SAPC   H2R 8410   5.067   3.071   5.865
   89SAPC   H2S 8411   4.956   2.937   5.901
   89SAPC    C3 8412   4.817   3.410   6.152
   89SAPC    HX 8413   4.853   3.482   6.075
   89SAPC    HY 8414   4.813   3.469   6.246
   89SAPC   O31 8415   4.684   3.355   6.109
   89SAPC   C31 8416   4.603   3.317   6.206
   89SAPC   O32 8417   4.628   3.328   6.328
   89SAPC   C32 8418   4.475   3.252   6.148
   89SAPC   H2X 8419   4.399   3.242   6.228
   89SAPC   H2Y 8420   4.528   3.158   6.120
   89SAPC   C23 8421   4.854   3.100   5.787
   89SAPC   H3R 8422   4.879   3.067   5.684
   89SAPC   H3S 8423   4.856   3.210   5.794
   89SAPC   C24 8424   4.708   3.056   5.828
   89SAPC   H4R 8425   4.630   3.125   5.788
   89SAPC   H4S 8426   4.709   3.052   5.939
   89SAPC   C25 8427   4.691   2.912   5.789
   89SAPC   H5R 8428   4.721   2.831   5.857
   89SAPC   C26 8429   4.664   2.867   5.665
   89SAPC   H6R 8430   4.671   2.758   5.651
   89SAPC   C27 8431   4.631   2.961   5.552
   89SAPC   H7R 8432   4.594   3.062   5.581
   89SAPC   H7S 8433   4.545   2.922   5.493
   89SAPC   C28 8434   4.746   2.974   5.444
   89SAPC   H8R 8435   4.836   2.912   5.445
   89SAPC   C29 8436   4.731   3.053   5.333
   89SAPC   H9R 8437   4.807   3.053   5.253
   89SAPC  C210 8438   4.627   3.163   5.320
   89SAPC  H10R 8439   4.566   3.162   5.413
   89SAPC  H10S 8440   4.555   3.150   5.236
   89SAPC  C211 8441   4.704   3.294   5.297
   89SAPC  H11R 8442   4.762   3.307   5.204
   89SAPC  C212 8443   4.734   3.388   5.385
   89SAPC  H12R 8444   4.779   3.482   5.349
   89SAPC  C213 8445   4.677   3.397   5.526
   89SAPC  H13R 8446   4.665   3.297   5.573
   89SAPC  H13S 8447   4.585   3.459   5.530
   89SAPC  C214 8448   4.784   3.455   5.616
   89SAPC  H14R 8449   4.891   3.436   5.600
   89SAPC  C215 8450   4.769   3.549   5.707
   89SAPC  H15R 8451   4.852   3.589   5.767
   89SAPC  C216 8452   4.645   3.617   5.751
   89SAPC  H16R 8453   4.552   3.557   5.762
   89SAPC  H16S 8454   4.631   3.703   5.682
   89SAPC  C217 8455   4.650   3.679   5.890
   89SAPC  H17R 8456   4.686   3.602   5.962
   89SAPC  H17S 8457   4.549   3.712   5.924
   89SAPC  C218 8458   4.742   3.801   5.915
   89SAPC  H18R 8459   4.722   3.882   5.841
   89SAPC  H18S 8460   4.844   3.760   5.899
   89SAPC  C219 8461   4.742   3.864   6.058
   89SAPC  H19R 8462   4.648   3.921   6.071
   89SAPC  H19S 8463   4.827   3.936   6.061
   89SAPC  C220 8464   4.763   3.759   6.171
   89SAPC  H20R 8465   4.683   3.682   6.169
   89SAPC  H20S 8466   4.771   3.821   6.263
   89SAPC  H20T 8467   4.868   3.722   6.163
   89SAPC   C33 8468   4.400   3.324   6.028
   89SAPC   H3X 8469   4.348   3.246   5.969
   89SAPC   H3Y 8470   4.483   3.372   5.972
   89SAPC   C34 8471   4.306   3.434   6.071
   89SAPC   H4X 8472   4.371   3.498   6.135
   89SAPC   H4Y 8473   4.225   3.388   6.130
   89SAPC   C35 8474   4.250   3.514   5.967
   89SAPC   H5X 8475   4.333   3.560   5.908
   89SAPC   H5Y 8476   4.201   3.597   6.022
   89SAPC   C36 8477   4.151   3.444   5.873
   89SAPC   H6X 8478   4.067   3.514   5.856
   89SAPC   H6Y 8479   4.113   3.357   5.930
   89SAPC   C37 8480   4.214   3.392   5.745
   89SAPC   H7X 8481   4.138   3.332   5.690
   89SAPC   H7Y 8482   4.306   3.334   5.767
   89SAPC   C38 8483   4.252   3.501   5.634
   89SAPC   H8X 8484   4.326   3.566   5.685
   89SAPC   H8Y 8485   4.163   3.565   5.616
   89SAPC   C39 8486   4.302   3.443   5.503
   89SAPC   H9X 8487   4.364   3.357   5.535
   89SAPC   H9Y 8488   4.361   3.513   5.440
   89SAPC  C310 8489   4.188   3.385   5.418
   89SAPC  H10X 8490   4.109   3.460   5.396
   89SAPC  H10Y 8491   4.135   3.310   5.481
   89SAPC  C311 8492   4.247   3.325   5.288
   89SAPC  H11X 8493   4.326   3.248   5.303
   89SAPC  H11Y 8494   4.283   3.405   5.220
   89SAPC  C312 8495   4.142   3.265   5.189
   89SAPC  H12X 8496   4.079   3.353   5.165
   89SAPC  H12Y 8497   4.087   3.192   5.251
   89SAPC  C313 8498   4.217   3.204   5.062
   89SAPC  H13X 8499   4.276   3.118   5.102
   89SAPC  H13Y 8500   4.287   3.282   5.025
   89SAPC  C314 8501   4.127   3.150   4.962
   89SAPC  H14X 8502   4.062   3.231   4.924
   89SAPC  H14Y 8503   4.052   3.084   5.011
   89SAPC  C315 8504   4.197   3.064   4.859
   89SAPC  H15X 8505   4.228   2.973   4.915
   89SAPC  H15Y 8506   4.292   3.117   4.836
   89SAPC  C316 8507   4.124   3.023   4.730
   89SAPC  H16X 8508   4.081   3.108   4.673
   89SAPC  H16Y 8509   4.049   2.942   4.741
   89SAPC  C317 8510   4.219   2.953   4.627
   89SAPC  H17X 8511   4.258   2.858   4.671
   89SAPC  H17Y 8512   4.308   3.018   4.613
   89SAPC  C318 8513   4.161   2.920   4.490
   89SAPC  H18X 8514   4.248   2.910   4.421
   89SAPC  H18Y 8515   4.095   2.996   4.444
   89SAPC  H18Z 8516   4.108   2.822   4.498
   90SAPC     N 8517   2.582   6.548   6.767
   90SAPC   C12 8518   2.668   6.428   6.790
   90SAPC  H12A 8519   2.612   6.352   6.844
   90SAPC  H12B 8520   2.745   6.451   6.863
   90SAPC   C13 8521   2.455   6.510   6.698
   90SAPC  H13A 8522   2.482   6.466   6.603
   90SAPC  H13B 8523   2.408   6.433   6.757
   90SAPC  H13C 8524   2.393   6.597   6.682
   90SAPC   C14 8525   2.529   6.611   6.898
   90SAPC  H14A 8526   2.615   6.644   6.955
   90SAPC  H14B 8527   2.486   6.707   6.874
   90SAPC  H14C 8528   2.480   6.539   6.961
   90SAPC   C15 8529   2.654   6.663   6.702
   90SAPC  H15A 8530   2.591   6.749   6.686
   90SAPC  H15B 8531   2.744   6.695   6.753
   90SAPC  H15C 8532   2.694   6.638   6.605
   90SAPC   C11 8533   2.740   6.359   6.670
   90SAPC  H11A 8534   2.810   6.420   6.608
   90SAPC  H11B 8535   2.658   6.350   6.596
   90SAPC     P 8536   2.963   6.244   6.752
   90SAPC   O13 8537   2.967   6.315   6.880
   90SAPC   O14 8538   3.015   6.104   6.771
   90SAPC   O12 8539   2.807   6.240   6.715
   90SAPC   O11 8540   3.030   6.313   6.622
   90SAPC    C1 8541   3.008   6.252   6.497
   90SAPC    HA 8542   3.003   6.142   6.507
   90SAPC    HB 8543   2.915   6.294   6.452
   90SAPC    C2 8544   3.138   6.272   6.416
   90SAPC    HS 8545   3.153   6.379   6.390
   90SAPC   O21 8546   3.130   6.210   6.288
   90SAPC   C21 8547   3.219   6.235   6.198
   90SAPC   O22 8548   3.305   6.320   6.203
   90SAPC   C22 8549   3.182   6.145   6.081
   90SAPC   H2R 8550   3.204   6.040   6.111
   90SAPC   H2S 8551   3.074   6.146   6.056
   90SAPC    C3 8552   3.264   6.221   6.496
   90SAPC    HX 8553   3.270   6.279   6.590
   90SAPC    HY 8554   3.361   6.236   6.443
   90SAPC   O31 8555   3.248   6.081   6.533
   90SAPC   C31 8556   3.303   5.996   6.453
   90SAPC   O32 8557   3.369   6.017   6.351
   90SAPC   C32 8558   3.294   5.855   6.505
   90SAPC   H2X 8559   3.362   5.843   6.592
   90SAPC   H2Y 8560   3.338   5.792   6.425
   90SAPC   C23 8561   3.269   6.162   5.956
   90SAPC   H3R 8562   3.271   6.069   5.895
   90SAPC   H3S 8563   3.373   6.187   5.987
   90SAPC   C24 8564   3.214   6.275   5.869
   90SAPC   H4R 8565   3.295   6.291   5.794
   90SAPC   H4S 8566   3.218   6.364   5.935
   90SAPC   C25 8567   3.084   6.252   5.803
   90SAPC   H5R 8568   2.998   6.297   5.853
   90SAPC   C26 8569   3.060   6.174   5.695
   90SAPC   H6R 8570   2.955   6.157   5.668
   90SAPC   C27 8571   3.159   6.084   5.622
   90SAPC   H7R 8572   3.251   6.081   5.683
   90SAPC   H7S 8573   3.193   6.127   5.525
   90SAPC   C28 8574   3.092   5.947   5.606
   90SAPC   H8R 8575   3.049   5.914   5.702
   90SAPC   C29 8576   3.063   5.872   5.497
   90SAPC   H9R 8577   3.012   5.776   5.511
   90SAPC  C210 8578   3.102   5.906   5.355
   90SAPC  H10R 8579   3.173   5.991   5.350
   90SAPC  H10S 8580   3.008   5.930   5.301
   90SAPC  C211 8581   3.166   5.783   5.299
   90SAPC  H11R 8582   3.250   5.739   5.355
   90SAPC  C212 8583   3.134   5.714   5.191
   90SAPC  H12R 8584   3.202   5.639   5.148
   90SAPC  C213 8585   3.022   5.764   5.094
   90SAPC  H13R 8586   3.023   5.875   5.081
   90SAPC  H13S 8587   2.917   5.754   5.131
   90SAPC  C214 8588   3.022   5.709   4.956
   90SAPC  H14R 8589   3.094   5.626   4.955
   90SAPC  C215 8590   2.956   5.742   4.839
   90SAPC  H15R 8591   2.954   5.665   4.762
   90SAPC  C216 8592   2.861   5.857   4.815
   90SAPC  H16R 8593   2.832   5.911   4.908
   90SAPC  H16S 8594   2.778   5.814   4.756
   90SAPC  C217 8595   2.929   5.966   4.724
   90SAPC  H17R 8596   2.953   5.915   4.628
   90SAPC  H17S 8597   3.022   5.998   4.774
   90SAPC  C218 8598   2.827   6.073   4.700
   90SAPC  H18R 8599   2.827   6.147   4.783
   90SAPC  H18S 8600   2.723   6.035   4.697
   90SAPC  C219 8601   2.848   6.149   4.562
   90SAPC  H19R 8602   2.839   6.067   4.488
   90SAPC  H19S 8603   2.950   6.191   4.553
   90SAPC  C220 8604   2.740   6.257   4.538
   90SAPC  H20R 8605   2.759   6.334   4.460
   90SAPC  H20S 8606   2.714   6.304   4.635
   90SAPC  H20T 8607   2.649   6.202   4.508
   90SAPC   C33 8608   3.157   5.817   6.550
   90SAPC   H3X 8609   3.126   5.873   6.641
   90SAPC   H3Y 8610   3.162   5.711   6.582
   90SAPC   C34 8611   3.039   5.825   6.443
   90SAPC   H4X 8612   3.006   5.932   6.445
   90SAPC   H4Y 8613   2.943   5.775   6.469
   90SAPC   C35 8614   3.076   5.772   6.306
   90SAPC   H5X 8615   3.075   5.661   6.306
   90SAPC   H5Y 8616   3.178   5.809   6.281
   90SAPC   C36 8617   2.979   5.817   6.190
   90SAPC   H6X 8618   2.981   5.927   6.183
   90SAPC   H6Y 8619   2.876   5.785   6.218
   90SAPC   C37 8620   3.022   5.775   6.046
   90SAPC   H7X 8621   3.100   5.844   6.007
   90SAPC   H7Y 8622   2.931   5.787   5.985
   90SAPC   C38 8623   3.049   5.624   6.034
   90SAPC   H8X 8624   2.974   5.568   6.093
   90SAPC   H8Y 8625   3.154   5.607   6.068
   90SAPC   C39 8626   3.045   5.571   5.887
   90SAPC   H9X 8627   3.078   5.465   5.892
   90SAPC   H9Y 8628   3.130   5.622   5.836
   90SAPC  C310 8629   2.907   5.591   5.820
   90SAPC  H10X 8630   2.879   5.697   5.807
   90SAPC  H10Y 8631   2.826   5.542   5.879
   90SAPC  C311 8632   2.911   5.520   5.679
   90SAPC  H11X 8633   2.944   5.416   5.698
   90SAPC  H11Y 8634   2.988   5.577   5.622
   90SAPC  C312 8635   2.776   5.518   5.608
   90SAPC  H12X 8636   2.733   5.621   5.608
   90SAPC  H12Y 8637   2.704   5.462   5.670
   90SAPC  C313 8638   2.787   5.485   5.461
   90SAPC  H13X 8639   2.819   5.379   5.459
   90SAPC  H13Y 8640   2.870   5.541   5.413
   90SAPC  C314 8641   2.653   5.494   5.382
   90SAPC  H14X 8642   2.622   5.601   5.373
   90SAPC  H14Y 8643   2.580   5.436   5.443
   90SAPC  C315 8644   2.673   5.435   5.240
   90SAPC  H15X 8645   2.707   5.330   5.252
   90SAPC  H15Y 8646   2.741   5.501   5.183
   90SAPC  C316 8647   2.538   5.422   5.168
   90SAPC  H16X 8648   2.482   5.517   5.179
   90SAPC  H16Y 8649   2.488   5.344   5.229
   90SAPC  C317 8650   2.535   5.392   5.014
   90SAPC  H17X 8651   2.428   5.371   4.990
   90SAPC  H17Y 8652   2.587   5.297   4.993
   90SAPC  C318 8653   2.589   5.506   4.927
   90SAPC  H18X 8654   2.698   5.485   4.925
   90SAPC  H18Y 8655   2.573   5.604   4.977
   90SAPC  H18Z 8656   2.539   5.507   4.827
   91SAPC     N 8657   0.971   5.474   6.602
   91SAPC   C12 8658   0.908   5.433   6.736
   91SAPC  H12A 8659   0.862   5.518   6.784
   91SAPC  H12B 8660   0.982   5.410   6.812
   91SAPC   C13 8661   0.876   5.542   6.511
   91SAPC  H13A 8662   0.790   5.484   6.480
   91SAPC  H13B 8663   0.843   5.630   6.564
   91SAPC  H13C 8664   0.931   5.580   6.426
   91SAPC   C14 8665   1.079   5.568   6.636
   91SAPC  H14A 8666   1.051   5.643   6.708
   91SAPC  H14B 8667   1.169   5.522   6.675
   91SAPC  H14C 8668   1.106   5.624   6.548
   91SAPC   C15 8669   1.034   5.357   6.529
   91SAPC  H15A 8670   0.963   5.302   6.468
   91SAPC  H15B 8671   1.098   5.397   6.451
   91SAPC  H15C 8672   1.076   5.288   6.601
   91SAPC   C11 8673   0.808   5.321   6.742
   91SAPC  H11A 8674   0.779   5.305   6.848
   91SAPC  H11B 8675   0.839   5.216   6.724
   91SAPC     P 8676   0.585   5.456   6.720
   91SAPC   O13 8677   0.481   5.375   6.789
   91SAPC   O14 8678   0.656   5.560   6.796
   91SAPC   O12 8679   0.687   5.353   6.671
   91SAPC   O11 8680   0.510   5.516   6.586
   91SAPC    C1 8681   0.479   5.413   6.495
   91SAPC    HA 8682   0.569   5.372   6.445
   91SAPC    HB 8683   0.424   5.330   6.545
   91SAPC    C2 8684   0.390   5.468   6.376
   91SAPC    HS 8685   0.396   5.389   6.298
   91SAPC   O21 8686   0.448   5.591   6.318
   91SAPC   C21 8687   0.546   5.574   6.241
   91SAPC   O22 8688   0.597   5.464   6.212
   91SAPC   C22 8689   0.605   5.712   6.204
   91SAPC   H2R 8690   0.582   5.779   6.290
   91SAPC   H2S 8691   0.716   5.709   6.200
   91SAPC    C3 8692   0.241   5.483   6.417
   91SAPC    HX 8693   0.242   5.520   6.522
   91SAPC    HY 8694   0.185   5.389   6.435
   91SAPC   O31 8695   0.171   5.571   6.322
   91SAPC   C31 8696   0.117   5.519   6.208
   91SAPC   O32 8697   0.118   5.398   6.185
   91SAPC   C32 8698   0.074   5.631   6.114
   91SAPC   H2X 8699   0.159   5.656   6.047
   91SAPC   H2Y 8700   0.048   5.727   6.165
   91SAPC   C23 8701   0.548   5.776   6.078
   91SAPC   H3R 8702   0.446   5.816   6.095
   91SAPC   H3S 8703   0.553   5.700   5.998
   91SAPC   C24 8704   0.625   5.909   6.040
   91SAPC   H4R 8705   0.645   5.965   6.134
   91SAPC   H4S 8706   0.558   5.979   5.986
   91SAPC   C25 8707   0.765   5.888   5.984
   91SAPC   H5R 8708   0.834   5.848   6.059
   91SAPC   C26 8709   0.805   5.894   5.858
   91SAPC   H6R 8710   0.913   5.889   5.841
   91SAPC   C27 8711   0.738   5.959   5.743
   91SAPC   H7R 8712   0.802   6.034   5.693
   91SAPC   H7S 8713   0.655   6.016   5.790
   91SAPC   C28 8714   0.688   5.852   5.649
   91SAPC   H8R 8715   0.646   5.761   5.695
   91SAPC   C29 8716   0.693   5.859   5.520
   91SAPC   H9R 8717   0.648   5.773   5.469
   91SAPC  C210 8718   0.736   5.979   5.432
   91SAPC  H10R 8719   0.793   5.947   5.342
   91SAPC  H10S 8720   0.799   6.057   5.479
   91SAPC  C211 8721   0.611   6.065   5.410
   91SAPC  H11R 8722   0.579   6.120   5.499
   91SAPC  C212 8723   0.539   6.082   5.301
   91SAPC  H12R 8724   0.448   6.144   5.297
   91SAPC  C213 8725   0.565   6.021   5.163
   91SAPC  H13R 8726   0.485   5.948   5.138
   91SAPC  H13S 8727   0.655   5.957   5.158
   91SAPC  C214 8728   0.572   6.125   5.058
   91SAPC  H14R 8729   0.620   6.219   5.091
   91SAPC  C215 8730   0.525   6.118   4.929
   91SAPC  H15R 8731   0.533   6.214   4.876
   91SAPC  C216 8732   0.453   5.999   4.866
   91SAPC  H16R 8733   0.444   5.912   4.933
   91SAPC  H16S 8734   0.504   5.949   4.781
   91SAPC  C217 8735   0.311   6.027   4.809
   91SAPC  H17R 8736   0.286   5.941   4.743
   91SAPC  H17S 8737   0.325   6.124   4.757
   91SAPC  C218 8738   0.198   6.018   4.910
   91SAPC  H18R 8739   0.240   6.068   5.000
   91SAPC  H18S 8740   0.196   5.911   4.939
   91SAPC  C219 8741   0.058   6.074   4.863
   91SAPC  H19R 8742   6.771   6.054   4.938
   91SAPC  H19S 8743   0.041   6.011   4.773
   91SAPC  C220 8744   0.080   6.223   4.845
   91SAPC  H20R 8745   0.131   6.224   4.747
   91SAPC  H20S 8746   0.138   6.270   4.927
   91SAPC  H20T 8747   6.783   6.289   4.842
   91SAPC   C33 8748   6.750   5.596   6.017
   91SAPC   H3X 8749   6.658   5.609   6.078
   91SAPC   H3Y 8750   6.763   5.488   5.992
   91SAPC   C34 8751   6.750   5.687   5.883
   91SAPC   H4X 8752   0.060   5.717   5.854
   91SAPC   H4Y 8753   6.692   5.777   5.912
   91SAPC   C35 8754   6.681   5.620   5.767
   91SAPC   H5X 8755   6.575   5.609   5.796
   91SAPC   H5Y 8756   6.725   5.518   5.756
   91SAPC   C36 8757   6.696   5.689   5.631
   91SAPC   H6X 8758   0.007   5.689   5.592
   91SAPC   H6Y 8759   6.668   5.796   5.637
   91SAPC   C37 8760   6.616   5.618   5.519
   91SAPC   H7X 8761   6.507   5.629   5.541
   91SAPC   H7Y 8762   6.647   5.512   5.515
   91SAPC   C38 8763   6.639   5.685   5.385
   91SAPC   H8X 8764   6.742   5.667   5.348
   91SAPC   H8Y 8765   6.624   5.794   5.395
   91SAPC   C39 8766   6.542   5.639   5.278
   91SAPC   H9X 8767   6.447   5.660   5.331
   91SAPC   H9Y 8768   6.548   5.528   5.271
   91SAPC  C310 8769   6.548   5.703   5.144
   91SAPC  H10X 8770   6.558   5.813   5.155
   91SAPC  H10Y 8771   6.454   5.700   5.084
   91SAPC  C311 8772   6.662   5.645   5.058
   91SAPC  H11X 8773   6.651   5.534   5.052
   91SAPC  H11Y 8774   6.763   5.660   5.100
   91SAPC  C312 8775   6.642   5.711   4.922
   91SAPC  H12X 8776   6.662   5.820   4.932
   91SAPC  H12Y 8777   6.536   5.709   4.891
   91SAPC  C313 8778   6.727   5.652   4.811
   91SAPC  H13X 8779   6.731   5.541   4.818
   91SAPC  H13Y 8780   0.038   5.689   4.813
   91SAPC  C314 8781   6.675   5.689   4.666
   91SAPC  H14X 8782   6.654   5.798   4.653
   91SAPC  H14Y 8783   6.571   5.660   4.641
   91SAPC  C315 8784   6.772   5.642   4.551
   91SAPC  H15X 8785   6.715   5.632   4.456
   91SAPC  H15Y 8786   0.029   5.547   4.581
   91SAPC  C316 8787   0.084   5.755   4.531
   91SAPC  H16X 8788   0.166   5.710   4.471
   91SAPC  H16Y 8789   0.133   5.788   4.625
   91SAPC  C317 8790   0.045   5.873   4.441
   91SAPC  H17X 8791   6.777   5.949   4.493
   91SAPC  H17Y 8792   6.774   5.817   4.370
   91SAPC  C318 8793   0.159   5.939   4.364
   91SAPC  H18X 8794   0.122   6.018   4.295
   91SAPC  H18Y 8795   0.203   5.857   4.302
   91SAPC  H18Z 8796   0.234   5.983   4.433
   92SAPC     N 8797   6.117   5.294   6.725
   92SAPC   C12 8798   6.179   5.220   6.846
   92SAPC  H12A 8799   6.098   5.175   6.901
   92SAPC  H12B 8800   6.226   5.292   6.911
   92SAPC   C13 8801   6.045   5.191   6.641
   92SAPC  H13A 8802   5.952   5.173   6.692
   92SAPC  H13B 8803   6.020   5.227   6.542
   92SAPC  H13C 8804   6.100   5.098   6.639
   92SAPC   C14 8805   6.018   5.391   6.773
   92SAPC  H14A 8806   5.928   5.339   6.805
   92SAPC  H14B 8807   6.057   5.450   6.855
   92SAPC  H14C 8808   5.969   5.453   6.700
   92SAPC   C15 8809   6.221   5.371   6.661
   92SAPC  H15A 8810   6.252   5.451   6.727
   92SAPC  H15B 8811   6.315   5.318   6.650
   92SAPC  H15C 8812   6.193   5.418   6.568
   92SAPC   C11 8813   6.290   5.110   6.815
   92SAPC  H11A 8814   6.237   5.034   6.754
   92SAPC  H11B 8815   6.314   5.066   6.914
   92SAPC     P 8816   6.520   5.074   6.717
   92SAPC   O13 8817   6.649   5.147   6.692
   92SAPC   O14 8818   6.526   4.960   6.817
   92SAPC   O12 8819   6.400   5.179   6.751
   92SAPC   O11 8820   6.458   5.015   6.579
   92SAPC    C1 8821   6.421   5.115   6.481
   92SAPC    HA 8822   6.310   5.118   6.478
   92SAPC    HB 8823   6.462   5.217   6.501
   92SAPC    C2 8824   6.481   5.088   6.337
   92SAPC    HS 8825   6.449   5.159   6.257
   92SAPC   O21 8826   6.441   4.962   6.298
   92SAPC   C21 8827   6.316   4.941   6.258
   92SAPC   O22 8828   6.225   5.021   6.258
   92SAPC   C22 8829   6.300   4.797   6.226
   92SAPC   H2R 8830   6.363   4.756   6.144
   92SAPC   H2S 8831   6.323   4.734   6.315
   92SAPC    C3 8832   6.634   5.090   6.343
   92SAPC    HX 8833   6.658   5.000   6.404
   92SAPC    HY 8834   6.671   5.181   6.394
   92SAPC   O31 8835   6.693   5.068   6.215
   92SAPC   C31 8836   6.685   5.177   6.135
   92SAPC   O32 8837   6.647   5.288   6.171
   92SAPC   C32 8838   6.762   5.145   6.010
   92SAPC   H2X 8839   0.002   5.039   6.016
   92SAPC   H2Y 8840   0.061   5.203   6.032
   92SAPC   C23 8841   6.151   4.769   6.181
   92SAPC   H3R 8842   6.114   4.856   6.123
   92SAPC   H3S 8843   6.083   4.754   6.268
   92SAPC   C24 8844   6.129   4.642   6.104
   92SAPC   H4R 8845   6.159   4.549   6.158
   92SAPC   H4S 8846   6.200   4.633   6.019
   92SAPC   C25 8847   5.982   4.641   6.059
   92SAPC   H5R 8848   5.911   4.649   6.143
   92SAPC   C26 8849   5.929   4.632   5.932
   92SAPC   H6R 8850   5.819   4.623   5.923
   92SAPC   C27 8851   6.010   4.612   5.803
   92SAPC   H7R 8852   5.952   4.555   5.727
   92SAPC   H7S 8853   6.106   4.559   5.821
   92SAPC   C28 8854   6.045   4.739   5.746
   92SAPC   H8R 8855   6.104   4.797   5.820
   92SAPC   C29 8856   6.047   4.783   5.619
   92SAPC   H9R 8857   6.082   4.887   5.604
   92SAPC  C210 8858   5.992   4.716   5.498
   92SAPC  H10R 8859   5.946   4.616   5.511
   92SAPC  H10S 8860   6.077   4.689   5.431
   92SAPC  C211 8861   5.892   4.807   5.443
   92SAPC  H11R 8862   5.807   4.823   5.511
   92SAPC  C212 8863   5.880   4.847   5.311
   92SAPC  H12R 8864   5.805   4.910   5.261
   92SAPC  C213 8865   5.990   4.820   5.212
   92SAPC  H13R 8866   5.933   4.823   5.116
   92SAPC  H13S 8867   6.022   4.717   5.236
   92SAPC  C214 8868   6.099   4.922   5.221
   92SAPC  H14R 8869   6.142   4.924   5.322
   92SAPC  C215 8870   6.139   5.006   5.117
   92SAPC  H15R 8871   6.206   5.092   5.129
   92SAPC  C216 8872   6.092   5.001   4.976
   92SAPC  H16R 8873   6.040   5.094   4.947
   92SAPC  H16S 8874   6.004   4.934   4.961
   92SAPC  C217 8875   6.205   4.980   4.869
   92SAPC  H17R 8876   6.251   4.879   4.882
   92SAPC  H17S 8877   6.282   5.060   4.869
   92SAPC  C218 8878   6.151   4.978   4.725
   92SAPC  H18R 8879   6.100   5.075   4.705
   92SAPC  H18S 8880   6.075   4.900   4.705
   92SAPC  C219 8881   6.257   4.955   4.617
   92SAPC  H19R 8882   6.304   4.860   4.650
   92SAPC  H19S 8883   6.337   5.032   4.613
   92SAPC  C220 8884   6.198   4.939   4.474
   92SAPC  H20R 8885   6.166   5.040   4.441
   92SAPC  H20S 8886   6.105   4.879   4.484
   92SAPC  H20T 8887   6.270   4.886   4.409
   92SAPC   C33 8888   6.682   5.169   5.885
   92SAPC   H3X 8889   6.638   5.271   5.881
   92SAPC   H3Y 8890   6.589   5.108   5.885
   92SAPC   C34 8891   6.755   5.147   5.751
   92SAPC   H4X 8892   6.770   5.037   5.754
   92SAPC   H4Y 8893   0.057   5.206   5.757
   92SAPC   C35 8894   6.673   5.190   5.626
   92SAPC   H5X 8895   6.627   5.289   5.646
   92SAPC   H5Y 8896   6.593   5.115   5.610
   92SAPC   C36 8897   6.775   5.201   5.519
   92SAPC   H6X 8898   0.023   5.100   5.496
   92SAPC   H6Y 8899   0.065   5.273   5.541
   92SAPC   C37 8900   6.694   5.236   5.393
   92SAPC   H7X 8901   6.665   5.343   5.392
   92SAPC   H7Y 8902   6.599   5.179   5.397
   92SAPC   C38 8903   6.780   5.212   5.269
   92SAPC   H8X 8904   0.023   5.107   5.275
   92SAPC   H8Y 8905   0.078   5.276   5.269
   92SAPC   C39 8906   6.701   5.232   5.139
   92SAPC   H9X 8907   6.652   5.331   5.144
   92SAPC   H9Y 8908   6.629   5.147   5.134
   92SAPC  C310 8909   0.005   5.235   5.022
   92SAPC  H10X 8910   0.068   5.145   5.032
   92SAPC  H10Y 8911   0.072   5.323   5.029
   92SAPC  C311 8912   6.715   5.241   4.894
   92SAPC  H11X 8913   6.652   5.332   4.897
   92SAPC  H11Y 8914   6.647   5.153   4.896
   92SAPC  C312 8915   0.003   5.254   4.766
   92SAPC  H12X 8916   0.080   5.175   4.762
   92SAPC  H12Y 8917   0.059   5.350   4.769
   92SAPC  C313 8918   6.698   5.248   4.644
   92SAPC  H13X 8919   6.641   5.344   4.645
   92SAPC  H13Y 8920   6.630   5.166   4.677
   92SAPC  C314 8921   6.762   5.221   4.506
   92SAPC  H14X 8922   0.000   5.116   4.486
   92SAPC  H14Y 8923   0.061   5.283   4.501
   92SAPC  C315 8924   6.663   5.270   4.403
   92SAPC  H15X 8925   6.613   5.369   4.412
   92SAPC  H15Y 8926   6.581   5.196   4.417
   92SAPC  C316 8927   6.728   5.264   4.258
   92SAPC  H16X 8928   6.776   5.165   4.245
   92SAPC  H16Y 8929   0.017   5.339   4.261
   92SAPC  C317 8930   6.610   5.303   4.166
   92SAPC  H17X 8931   6.563   5.396   4.206
   92SAPC  H17Y 8932   6.533   5.224   4.172
   92SAPC  C318 8933   6.674   5.329   4.030
   92SAPC  H18X 8934   6.767   5.389   4.040
   92SAPC  H18Y 8935   6.609   5.381   3.957
   92SAPC  H18Z 8936   6.706   5.230   3.991
   93SAPC     N 8937   0.929   6.298   7.197
   93SAPC   C12 8938   0.850   6.282   7.065
   93SAPC  H12A 8939   0.751   6.320   7.088
   93SAPC  H12B 8940   0.842   6.178   7.037
   93SAPC   C13 8941   0.855   6.225   7.308
   93SAPC  H13A 8942   0.749   6.242   7.303
   93SAPC  H13B 8943   0.867   6.120   7.290
   93SAPC  H13C 8944   0.889   6.259   7.405
   93SAPC   C14 8945   1.066   6.236   7.179
   93SAPC  H14A 8946   1.056   6.131   7.158
   93SAPC  H14B 8947   1.111   6.272   7.088
   93SAPC  H14C 8948   1.126   6.246   7.269
   93SAPC   C15 8949   0.955   6.443   7.227
   93SAPC  H15A 8950   1.007   6.490   7.145
   93SAPC  H15B 8951   0.862   6.498   7.236
   93SAPC  H15C 8952   1.017   6.453   7.315
   93SAPC   C11 8953   0.885   6.371   6.939
   93SAPC  H11A 8954   0.867   6.475   6.974
   93SAPC  H11B 8955   0.818   6.349   6.853
   93SAPC     P 8956   1.099   6.455   6.814
   93SAPC   O13 8957   1.066   6.592   6.866
   93SAPC   O14 8958   1.243   6.421   6.815
   93SAPC   O12 8959   1.027   6.346   6.896
   93SAPC   O11 8960   1.044   6.435   6.670
   93SAPC    C1 8961   1.034   6.302   6.618
   93SAPC    HA 8962   1.132   6.249   6.620
   93SAPC    HB 8963   0.963   6.241   6.677
   93SAPC    C2 8964   0.987   6.307   6.471
   93SAPC    HS 8965   1.049   6.238   6.410
   93SAPC   O21 8966   1.002   6.440   6.411
   93SAPC   C21 8967   1.130   6.479   6.396
   93SAPC   O22 8968   1.226   6.405   6.406
   93SAPC   C22 8969   1.133   6.615   6.332
   93SAPC   H2R 8970   1.064   6.683   6.387
   93SAPC   H2S 8971   1.233   6.665   6.331
   93SAPC    C3 8972   0.840   6.260   6.456
   93SAPC    HX 8973   0.773   6.311   6.528
   93SAPC    HY 8974   0.849   6.157   6.497
   93SAPC   O31 8975   0.796   6.256   6.314
   93SAPC   C31 8976   0.733   6.356   6.262
   93SAPC   O32 8977   0.703   6.461   6.313
   93SAPC   C32 8978   0.731   6.320   6.106
   93SAPC   H2X 8979   0.627   6.287   6.084
   93SAPC   H2Y 8980   0.788   6.224   6.097
   93SAPC   C23 8981   1.082   6.629   6.183
   93SAPC   H3R 8982   1.090   6.737   6.157
   93SAPC   H3S 8983   0.974   6.608   6.194
   93SAPC   C24 8984   1.149   6.537   6.076
   93SAPC   H4R 8985   1.117   6.579   5.978
   93SAPC   H4S 8986   1.105   6.435   6.072
   93SAPC   C25 8987   1.298   6.537   6.079
   93SAPC   H5R 8988   1.343   6.511   6.176
   93SAPC   C26 8989   1.385   6.562   5.978
   93SAPC   H6R 8990   1.493   6.552   5.997
   93SAPC   C27 8991   1.353   6.610   5.839
   93SAPC   H7R 8992   1.448   6.650   5.796
   93SAPC   H7S 8993   1.291   6.701   5.846
   93SAPC   C28 8994   1.290   6.498   5.760
   93SAPC   H8R 8995   1.188   6.465   5.785
   93SAPC   C29 8996   1.352   6.438   5.655
   93SAPC   H9R 8997   1.292   6.371   5.593
   93SAPC  C210 8998   1.486   6.482   5.601
   93SAPC  H10R 8999   1.566   6.454   5.672
   93SAPC  H10S 9000   1.486   6.593   5.597
   93SAPC  C211 9001   1.517   6.413   5.472
   93SAPC  H11R 9002   1.492   6.306   5.468
   93SAPC  C212 9003   1.569   6.466   5.362
   93SAPC  H12R 9004   1.598   6.392   5.286
   93SAPC  C213 9005   1.612   6.610   5.338
   93SAPC  H13R 9006   1.718   6.611   5.305
   93SAPC  H13S 9007   1.618   6.668   5.432
   93SAPC  C214 9008   1.520   6.694   5.248
   93SAPC  H14R 9009   1.414   6.679   5.274
   93SAPC  C215 9010   1.552   6.777   5.149
   93SAPC  H15R 9011   1.477   0.033   5.084
   93SAPC  C216 9012   1.692   0.010   5.095
   93SAPC  H16R 9013   1.770   6.739   5.141
   93SAPC  H16S 9014   1.726   0.116   5.100
   93SAPC  C217 9015   1.704   6.761   4.949
   93SAPC  H17R 9016   1.628   0.028   4.894
   93SAPC  H17S 9017   1.677   6.656   4.927
   93SAPC  C218 9018   1.848   6.784   4.893
   93SAPC  H18R 9019   1.892   6.688   4.925
   93SAPC  H18S 9020   1.901   0.078   4.939
   93SAPC  C219 9021   1.864   6.791   4.745
   93SAPC  H19R 9022   1.815   0.089   4.703
   93SAPC  H19S 9023   1.829   6.693   4.705
   93SAPC  C220 9024   2.011   0.000   4.715
   93SAPC  H20R 9025   2.063   6.697   4.737
   93SAPC  H20S 9026   2.056   0.086   4.771
   93SAPC  H20T 9027   2.045   0.016   4.611
   93SAPC   C33 9028   0.782   6.429   6.012
   93SAPC   H3X 9029   0.888   6.453   6.034
   93SAPC   H3Y 9030   0.722   6.522   6.027
   93SAPC   C34 9031   0.796   6.401   5.861
   93SAPC   H4X 9032   0.697   6.410   5.811
   93SAPC   H4Y 9033   0.840   6.299   5.851
   93SAPC   C35 9034   0.896   6.500   5.789
   93SAPC   H5X 9035   0.996   6.480   5.834
   93SAPC   H5Y 9036   0.875   6.609   5.789
   93SAPC   C36 9037   0.907   6.461   5.643
   93SAPC   H6X 9038   0.967   6.545   5.603
   93SAPC   H6Y 9039   0.805   6.469   5.600
   93SAPC   C37 9040   0.978   6.332   5.603
   93SAPC   H7X 9041   0.911   6.245   5.618
   93SAPC   H7Y 9042   1.069   6.302   5.660
   93SAPC   C38 9043   1.035   6.327   5.459
   93SAPC   H8X 9044   1.089   6.230   5.453
   93SAPC   H8Y 9045   1.103   6.414   5.448
   93SAPC   C39 9046   0.915   6.323   5.361
   93SAPC   H9X 9047   0.846   6.408   5.379
   93SAPC   H9Y 9048   0.859   6.229   5.383
   93SAPC  C310 9049   0.938   6.341   5.210
   93SAPC  H10X 9050   1.013   6.422   5.202
   93SAPC  H10Y 9051   0.848   6.379   5.158
   93SAPC  C311 9052   0.969   6.209   5.136
   93SAPC  H11X 9053   0.874   6.152   5.139
   93SAPC  H11Y 9054   1.054   6.159   5.187
   93SAPC  C312 9055   1.003   6.224   4.984
   93SAPC  H12X 9056   1.105   6.263   4.962
   93SAPC  H12Y 9057   0.930   6.297   4.945
   93SAPC  C313 9058   0.962   6.102   4.902
   93SAPC  H13X 9059   0.853   6.083   4.911
   93SAPC  H13Y 9060   1.001   6.009   4.948
   93SAPC  C314 9061   0.992   6.099   4.750
   93SAPC  H14X 9062   0.973   5.996   4.714
   93SAPC  H14Y 9063   1.097   6.131   4.736
   93SAPC  C315 9064   0.910   6.201   4.664
   93SAPC  H15X 9065   0.947   6.305   4.664
   93SAPC  H15Y 9066   0.807   6.200   4.705
   93SAPC  C316 9067   0.889   6.155   4.515
   93SAPC  H16X 9068   0.849   6.239   4.454
   93SAPC  H16Y 9069   0.809   6.078   4.509
   93SAPC  C317 9070   1.011   6.089   4.445
   93SAPC  H17X 9071   0.976   6.048   4.348
   93SAPC  H17Y 9072   1.042   5.998   4.501
   93SAPC  C318 9073   1.123   6.176   4.420
   93SAPC  H18X 9074   1.095   6.255   4.347
   93SAPC  H18Y 9075   1.204   6.133   4.358
   93SAPC  H18Z 9076   1.167   6.220   4.513
   94SAPC     N 9077   0.532   4.930   6.796
   94SAPC   C12 9078   0.495   4.826   6.688
   94SAPC  H12A 9079   0.553   4.740   6.717
   94SAPC  H12B 9080   0.528   4.854   6.589
   94SAPC   C13 9081   0.680   4.948   6.794
   94SAPC  H13A 9082   0.719   5.008   6.874
   94SAPC  H13B 9083   0.726   4.850   6.792
   94SAPC  H13C 9084   0.704   4.994   6.700
   94SAPC   C14 9085   0.477   5.066   6.767
   94SAPC  H14A 9086   0.514   5.146   6.831
   94SAPC  H14B 9087   0.494   5.090   6.663
   94SAPC  H14C 9088   0.371   5.057   6.786
   94SAPC   C15 9089   0.489   4.875   6.930
   94SAPC  H15A 9090   0.381   4.873   6.932
   94SAPC  H15B 9091   0.527   4.776   6.950
   94SAPC  H15C 9092   0.522   4.946   7.005
   94SAPC   C11 9093   0.346   4.786   6.681
   94SAPC  H11A 9094   0.332   4.743   6.579
   94SAPC  H11B 9095   0.279   4.873   6.694
   94SAPC     P 9096   0.172   4.636   6.786
   94SAPC   O13 9097   0.166   4.506   6.713
   94SAPC   O14 9098   0.132   4.636   6.931
   94SAPC   O12 9099   0.315   4.692   6.778
   94SAPC   O11 9100   0.077   4.745   6.714
   94SAPC    C1 9101   6.768   4.706   6.625
   94SAPC    HA 9102   6.743   4.598   6.625
   94SAPC    HB 9103   6.680   4.771   6.648
   94SAPC    C2 9104   0.024   4.739   6.478
   94SAPC    HS 9105   0.116   4.677   6.478
   94SAPC   O21 9106   0.060   4.880   6.480
   94SAPC   C21 9107   0.150   4.907   6.389
   94SAPC   O22 9108   0.206   4.824   6.320
   94SAPC   C22 9109   0.202   5.052   6.412
   94SAPC   H2R 9110   0.120   5.123   6.390
   94SAPC   H2S 9111   0.216   5.061   6.522
   94SAPC    C3 9112   6.718   4.699   6.371
   94SAPC    HX 9113   6.615   4.740   6.381
   94SAPC    HY 9114   6.695   4.591   6.390
   94SAPC   O31 9115   6.775   4.713   6.243
   94SAPC   C31 9116   6.704   4.654   6.141
   94SAPC   O32 9117   6.599   4.595   6.149
   94SAPC   C32 9118   6.789   4.667   6.016
   94SAPC   H2X 9119   0.068   4.582   6.018
   94SAPC   H2Y 9120   0.049   4.765   6.018
   94SAPC   C23 9121   0.338   5.082   6.328
   94SAPC   H3R 9122   0.422   5.011   6.341
   94SAPC   H3S 9123   0.382   5.170   6.381
   94SAPC   C24 9124   0.314   5.113   6.180
   94SAPC   H4R 9125   0.232   5.188   6.171
   94SAPC   H4S 9126   0.269   5.016   6.150
   94SAPC   C25 9127   0.441   5.130   6.107
   94SAPC   H5R 9128   0.532   5.082   6.145
   94SAPC   C26 9129   0.462   5.219   6.009
   94SAPC   H6R 9130   0.568   5.236   5.982
   94SAPC   C27 9131   0.357   5.316   5.953
   94SAPC   H7R 9132   0.268   5.325   6.019
   94SAPC   H7S 9133   0.322   5.266   5.861
   94SAPC   C28 9134   0.395   5.458   5.932
   94SAPC   H8R 9135   0.416   5.515   6.024
   94SAPC   C29 9136   0.425   5.524   5.819
   94SAPC   H9R 9137   0.456   5.630   5.825
   94SAPC  C210 9138   0.400   5.473   5.679
   94SAPC  H10R 9139   0.463   5.390   5.642
   94SAPC  H10S 9140   0.436   5.557   5.616
   94SAPC  C211 9141   0.246   5.472   5.642
   94SAPC  H11R 9142   0.175   5.457   5.725
   94SAPC  C212 9143   0.203   5.477   5.511
   94SAPC  H12R 9144   0.095   5.473   5.492
   94SAPC  C213 9145   0.278   5.502   5.378
   94SAPC  H13R 9146   0.223   5.448   5.298
   94SAPC  H13S 9147   0.385   5.472   5.389
   94SAPC  C214 9148   0.284   5.651   5.339
   94SAPC  H14R 9149   0.226   5.723   5.398
   94SAPC  C215 9150   0.341   5.685   5.220
   94SAPC  H15R 9151   0.341   5.793   5.199
   94SAPC  C216 9152   0.410   5.598   5.125
   94SAPC  H16R 9153   0.419   5.498   5.173
   94SAPC  H16S 9154   0.517   5.624   5.119
   94SAPC  C217 9155   0.337   5.612   4.988
   94SAPC  H17R 9156   0.367   5.701   4.929
   94SAPC  H17S 9157   0.230   5.639   4.996
   94SAPC  C218 9158   0.362   5.496   4.892
   94SAPC  H18R 9159   0.311   5.402   4.924
   94SAPC  H18S 9160   0.471   5.475   4.901
   94SAPC  C219 9161   0.309   5.531   4.756
   94SAPC  H19R 9162   0.363   5.623   4.725
   94SAPC  H19S 9163   0.201   5.550   4.773
   94SAPC  C220 9164   0.320   5.421   4.654
   94SAPC  H20R 9165   0.423   5.390   4.623
   94SAPC  H20S 9166   0.274   5.462   4.561
   94SAPC  H20T 9167   0.269   5.330   4.694
   94SAPC   C33 9168   6.704   4.671   5.889
   94SAPC   H3X 9169   6.623   4.596   5.890
   94SAPC   H3Y 9170   6.766   4.666   5.797
   94SAPC   C34 9171   6.629   4.802   5.881
   94SAPC   H4X 9172   6.705   4.877   5.852
   94SAPC   H4Y 9173   6.570   4.817   5.975
   94SAPC   C35 9174   6.526   4.797   5.763
   94SAPC   H5X 9175   6.479   4.897   5.762
   94SAPC   H5Y 9176   6.452   4.719   5.793
   94SAPC   C36 9177   6.584   4.768   5.624
   94SAPC   H6X 9178   6.635   4.670   5.610
   94SAPC   H6Y 9179   6.652   4.851   5.593
   94SAPC   C37 9180   6.472   4.779   5.515
   94SAPC   H7X 9181   6.425   4.880   5.505
   94SAPC   H7Y 9182   6.393   4.706   5.544
   94SAPC   C38 9183   6.524   4.745   5.378
   94SAPC   H8X 9184   6.450   4.695   5.312
   94SAPC   H8Y 9185   6.601   4.666   5.387
   94SAPC   C39 9186   6.575   4.877   5.324
   94SAPC   H9X 9187   6.667   4.908   5.378
   94SAPC   H9Y 9188   6.501   4.957   5.346
   94SAPC  C310 9189   6.620   4.859   5.175
   94SAPC  H10X 9190   6.652   4.955   5.129
   94SAPC  H10Y 9191   6.531   4.829   5.115
   94SAPC  C311 9192   6.712   4.743   5.149
   94SAPC  H11X 9193   6.668   4.652   5.195
   94SAPC  H11Y 9194   0.016   4.764   5.199
   94SAPC  C312 9195   6.729   4.707   4.998
   94SAPC  H12X 9196   6.633   4.674   4.953
   94SAPC  H12Y 9197   6.790   4.614   4.993
   94SAPC  C313 9198   0.012   4.818   4.912
   94SAPC  H13X 9199   0.094   4.865   4.969
   94SAPC  H13Y 9200   6.727   4.895   4.892
   94SAPC  C314 9201   0.072   4.755   4.782
   94SAPC  H14X 9202   0.129   4.666   4.815
   94SAPC  H14Y 9203   0.152   4.817   4.735
   94SAPC  C315 9204   6.762   4.731   4.658
   94SAPC  H15X 9205   6.764   4.803   4.574
   94SAPC  H15Y 9206   6.656   4.734   4.692
   94SAPC  C316 9207   6.781   4.594   4.604
   94SAPC  H16X 9208   6.761   4.519   4.683
   94SAPC  H16Y 9209   0.096   4.586   4.578
   94SAPC  C317 9210   6.685   4.563   4.483
   94SAPC  H17X 9211   6.585   4.564   4.532
   94SAPC  H17Y 9212   6.698   4.454   4.465
   94SAPC  C318 9213   6.697   4.664   4.360
   94SAPC  H18X 9214   0.010   4.688   4.335
   94SAPC  H18Y 9215   6.640   4.757   4.377
   94SAPC  H18Z 9216   6.658   4.596   4.282
   95SAPC     N 9217   4.335   6.115   2.549
   95SAPC   C12 9218   4.331   6.009   2.663
   95SAPC  H12A 9219   4.391   6.041   2.746
   95SAPC  H12B 9220   4.366   5.912   2.630
   95SAPC   C13 9221   4.295   6.246   2.608
   95SAPC  H13A 9222   4.319   6.327   2.540
   95SAPC  H13B 9223   4.187   6.249   2.611
   95SAPC  H13C 9224   4.327   6.262   2.710
   95SAPC   C14 9225   4.473   6.123   2.495
   95SAPC  H14A 9226   4.541   6.145   2.575
   95SAPC  H14B 9227   4.495   6.023   2.460
   95SAPC  H14C 9228   4.489   6.196   2.418
   95SAPC   C15 9229   4.245   6.085   2.439
   95SAPC  H15A 9230   4.258   5.982   2.409
   95SAPC  H15B 9231   4.141   6.090   2.466
   95SAPC  H15C 9232   4.258   6.147   2.352
   95SAPC   C11 9233   4.196   5.988   2.735
   95SAPC  H11A 9234   4.158   6.086   2.771
   95SAPC  H11B 9235   4.197   5.917   2.820
   95SAPC     P 9236   4.096   5.780   2.591
   95SAPC   O13 9237   3.981   5.761   2.505
   95SAPC   O14 9238   4.224   5.732   2.528
   95SAPC   O12 9239   4.105   5.932   2.639
   95SAPC   O11 9240   4.079   5.701   2.727
   95SAPC    C1 9241   3.980   5.722   2.833
   95SAPC    HA 9242   4.021   5.692   2.931
   95SAPC    HB 9243   3.949   5.828   2.832
   95SAPC    C2 9244   3.857   5.628   2.805
   95SAPC    HS 9245   3.839   5.655   2.698
   95SAPC   O21 9246   3.746   5.677   2.879
   95SAPC   C21 9247   3.630   5.657   2.813
   95SAPC   O22 9248   3.602   5.598   2.716
   95SAPC   C22 9249   3.526   5.716   2.908
   95SAPC   H2R 9250   3.492   5.634   2.975
   95SAPC   H2S 9251   3.565   5.804   2.964
   95SAPC    C3 9252   3.892   5.481   2.828
   95SAPC    HX 9253   3.979   5.463   2.761
   95SAPC    HY 9254   3.812   5.412   2.793
   95SAPC   O31 9255   3.915   5.461   2.969
   95SAPC   C31 9256   4.021   5.417   3.014
   95SAPC   O32 9257   4.119   5.384   2.946
   95SAPC   C32 9258   4.009   5.414   3.169
   95SAPC   H2X 9259   3.903   5.382   3.180
   95SAPC   H2Y 9260   4.032   5.516   3.207
   95SAPC   C23 9261   3.395   5.761   2.842
   95SAPC   H3R 9262   3.327   5.736   2.926
   95SAPC   H3S 9263   3.368   5.697   2.755
   95SAPC   C24 9264   3.370   5.916   2.810
   95SAPC   H4R 9265   3.435   5.968   2.736
   95SAPC   H4S 9266   3.374   5.973   2.905
   95SAPC   C25 9267   3.233   5.920   2.745
   95SAPC   H5R 9268   3.245   5.899   2.637
   95SAPC   C26 9269   3.117   5.950   2.795
   95SAPC   H6R 9270   3.034   5.959   2.724
   95SAPC   C27 9271   3.080   5.994   2.933
   95SAPC   H7R 9272   3.138   6.085   2.961
   95SAPC   H7S 9273   3.117   5.930   3.016
   95SAPC   C28 9274   2.936   6.037   2.953
   95SAPC   H8R 9275   2.879   6.054   2.861
   95SAPC   C29 9276   2.865   6.050   3.070
   95SAPC   H9R 9277   2.759   6.079   3.064
   95SAPC  C210 9278   2.922   6.032   3.208
   95SAPC  H10R 9279   2.897   6.124   3.265
   95SAPC  H10S 9280   3.033   6.037   3.206
   95SAPC  C211 9281   2.882   5.902   3.276
   95SAPC  H11R 9282   2.859   5.820   3.207
   95SAPC  C212 9283   2.878   5.881   3.404
   95SAPC  H12R 9284   2.853   5.779   3.439
   95SAPC  C213 9285   2.928   5.976   3.513
   95SAPC  H13R 9286   2.933   6.082   3.481
   95SAPC  H13S 9287   3.034   5.953   3.538
   95SAPC  C214 9288   2.827   5.976   3.624
   95SAPC  H14R 9289   2.723   5.990   3.591
   95SAPC  C215 9290   2.852   5.971   3.751
   95SAPC  H15R 9291   2.765   5.977   3.818
   95SAPC  C216 9292   2.990   5.946   3.808
   95SAPC  H16R 9293   3.067   5.954   3.728
   95SAPC  H16S 9294   2.996   5.847   3.858
   95SAPC  C217 9295   3.028   6.035   3.923
   95SAPC  H17R 9296   2.964   6.024   4.013
   95SAPC  H17S 9297   3.011   6.142   3.899
   95SAPC  C218 9298   3.176   6.015   3.968
   95SAPC  H18R 9299   3.209   5.909   3.961
   95SAPC  H18S 9300   3.179   6.027   4.079
   95SAPC  C219 9301   3.275   6.104   3.900
   95SAPC  H19R 9302   3.235   6.206   3.879
   95SAPC  H19S 9303   3.281   6.065   3.796
   95SAPC  C220 9304   3.409   6.117   3.972
   95SAPC  H20R 9305   3.477   6.179   3.910
   95SAPC  H20S 9306   3.452   6.015   3.981
   95SAPC  H20T 9307   3.392   6.170   4.068
   95SAPC   C33 9308   4.097   5.316   3.232
   95SAPC   H3X 9309   4.195   5.359   3.261
   95SAPC   H3Y 9310   4.121   5.236   3.160
   95SAPC   C34 9311   4.031   5.239   3.349
   95SAPC   H4X 9312   4.089   5.145   3.359
   95SAPC   H4Y 9313   3.930   5.212   3.314
   95SAPC   C35 9314   4.022   5.313   3.482
   95SAPC   H5X 9315   3.943   5.263   3.542
   95SAPC   H5Y 9316   3.983   5.417   3.480
   95SAPC   C36 9317   4.156   5.316   3.558
   95SAPC   H6X 9318   4.237   5.354   3.492
   95SAPC   H6Y 9319   4.197   5.214   3.575
   95SAPC   C37 9320   4.147   5.383   3.697
   95SAPC   H7X 9321   4.118   5.489   3.681
   95SAPC   H7Y 9322   4.249   5.381   3.743
   95SAPC   C38 9323   4.041   5.310   3.784
   95SAPC   H8X 9324   4.041   5.199   3.779
   95SAPC   H8Y 9325   3.945   5.354   3.748
   95SAPC   C39 9326   4.048   5.348   3.932
   95SAPC   H9X 9327   4.056   5.457   3.955
   95SAPC   H9Y 9328   4.146   5.315   3.973
   95SAPC  C310 9329   3.941   5.285   4.016
   95SAPC  H10X 9330   3.909   5.196   3.958
   95SAPC  H10Y 9331   3.857   5.358   4.009
   95SAPC  C311 9332   3.990   5.257   4.158
   95SAPC  H11X 9333   4.030   5.354   4.195
   95SAPC  H11Y 9334   4.078   5.189   4.157
   95SAPC  C312 9335   3.883   5.193   4.233
   95SAPC  H12X 9336   3.799   5.265   4.247
   95SAPC  H12Y 9337   3.928   5.178   4.333
   95SAPC  C313 9338   3.823   5.069   4.171
   95SAPC  H13X 9339   3.905   4.999   4.145
   95SAPC  H13Y 9340   3.752   5.088   4.088
   95SAPC  C314 9341   3.747   4.983   4.267
   95SAPC  H14X 9342   3.669   4.923   4.215
   95SAPC  H14Y 9343   3.703   5.063   4.331
   95SAPC  C315 9344   3.834   4.886   4.338
   95SAPC  H15X 9345   3.907   4.944   4.398
   95SAPC  H15Y 9346   3.880   4.820   4.261
   95SAPC  C316 9347   3.750   4.791   4.427
   95SAPC  H16X 9348   3.668   4.729   4.383
   95SAPC  H16Y 9349   3.695   4.859   4.496
   95SAPC  C317 9350   3.831   4.677   4.497
   95SAPC  H17X 9351   3.913   4.735   4.545
   95SAPC  H17Y 9352   3.882   4.616   4.419
   95SAPC  C318 9353   3.747   4.583   4.590
   95SAPC  H18X 9354   3.688   4.638   4.666
   95SAPC  H18Y 9355   3.808   4.516   4.653
   95SAPC  H18Z 9356   3.687   4.512   4.529
   96SAPC     N 9357   3.605   2.282   2.156
   96SAPC   C12 9358   3.663   2.273   2.295
   96SAPC  H12A 9359   3.668   2.374   2.331
   96SAPC  H12B 9360   3.764   2.235   2.290
   96SAPC   C13 9361   3.478   2.363   2.153
   96SAPC  H13A 9362   3.434   2.382   2.056
   96SAPC  H13B 9363   3.402   2.326   2.220
   96SAPC  H13C 9364   3.493   2.457   2.203
   96SAPC   C14 9365   3.705   2.346   2.058
   96SAPC  H14A 9366   3.793   2.286   2.043
   96SAPC  H14B 9367   3.663   2.346   1.958
   96SAPC  H14C 9368   3.724   2.450   2.080
   96SAPC   C15 9369   3.571   2.143   2.107
   96SAPC  H15A 9370   3.506   2.088   2.173
   96SAPC  H15B 9371   3.513   2.145   2.015
   96SAPC  H15C 9372   3.660   2.085   2.087
   96SAPC   C11 9373   3.574   2.213   2.408
   96SAPC  H11A 9374   3.476   2.265   2.407
   96SAPC  H11B 9375   3.622   2.243   2.503
   96SAPC     P 9376   3.680   1.984   2.464
   96SAPC   O13 9377   3.650   1.839   2.451
   96SAPC   O14 9378   3.807   2.023   2.400
   96SAPC   O12 9379   3.561   2.070   2.401
   96SAPC   O11 9380   3.686   2.026   2.613
   96SAPC    C1 9381   3.552   2.034   2.677
   96SAPC    HA 9382   3.528   2.140   2.697
   96SAPC    HB 9383   3.468   1.987   2.620
   96SAPC    C2 9384   3.563   1.974   2.817
   96SAPC    HS 9385   3.466   1.979   2.872
   96SAPC   O21 9386   3.666   2.040   2.888
   96SAPC   C21 9387   3.627   2.151   2.952
   96SAPC   O22 9388   3.516   2.205   2.947
   96SAPC   C22 9389   3.748   2.207   3.027
   96SAPC   H2R 9390   3.828   2.130   3.028
   96SAPC   H2S 9391   3.789   2.292   2.967
   96SAPC    C3 9392   3.604   1.821   2.811
   96SAPC    HX 9393   3.707   1.817   2.769
   96SAPC    HY 9394   3.536   1.784   2.731
   96SAPC   O31 9395   3.606   1.751   2.935
   96SAPC   C31 9396   3.651   1.626   2.926
   96SAPC   O32 9397   3.707   1.572   2.834
   96SAPC   C32 9398   3.615   1.549   3.054
   96SAPC   H2X 9399   3.703   1.489   3.086
   96SAPC   H2Y 9400   3.534   1.483   3.019
   96SAPC   C23 9401   3.711   2.260   3.165
   96SAPC   H3R 9402   3.651   2.353   3.154
   96SAPC   H3S 9403   3.806   2.294   3.213
   96SAPC   C24 9404   3.632   2.168   3.258
   96SAPC   H4R 9405   3.524   2.145   3.244
   96SAPC   H4S 9406   3.644   2.221   3.355
   96SAPC   C25 9407   3.697   2.028   3.258
   96SAPC   H5R 9408   3.692   1.965   3.168
   96SAPC   C26 9409   3.779   1.970   3.353
   96SAPC   H6R 9410   3.803   1.864   3.335
   96SAPC   C27 9411   3.819   2.028   3.488
   96SAPC   H7R 9412   3.744   2.036   3.569
   96SAPC   H7S 9413   3.849   2.135   3.487
   96SAPC   C28 9414   3.951   1.961   3.527
   96SAPC   H8R 9415   4.021   1.953   3.442
   96SAPC   C29 9416   3.983   1.900   3.636
   96SAPC   H9R 9417   4.089   1.870   3.634
   96SAPC  C210 9418   3.900   1.885   3.762
   96SAPC  H10R 9419   3.802   1.845   3.728
   96SAPC  H10S 9420   3.886   1.990   3.794
   96SAPC  C211 9421   3.968   1.821   3.883
   96SAPC  H11R 9422   4.071   1.786   3.864
   96SAPC  C212 9423   3.911   1.804   4.007
   96SAPC  H12R 9424   3.974   1.761   4.086
   96SAPC  C213 9425   3.765   1.848   4.046
   96SAPC  H13R 9426   3.697   1.767   4.009
   96SAPC  H13S 9427   3.738   1.944   3.997
   96SAPC  C214 9428   3.740   1.875   4.194
   96SAPC  H14R 9429   3.734   1.983   4.212
   96SAPC  C215 9430   3.726   1.778   4.290
   96SAPC  H15R 9431   3.711   1.806   4.395
   96SAPC  C216 9432   3.730   1.636   4.256
   96SAPC  H16R 9433   3.751   1.615   4.149
   96SAPC  H16S 9434   3.632   1.586   4.272
   96SAPC  C217 9435   3.838   1.572   4.340
   96SAPC  H17R 9436   3.941   1.612   4.332
   96SAPC  H17S 9437   3.849   1.470   4.298
   96SAPC  C218 9438   3.795   1.562   4.492
   96SAPC  H18R 9439   3.700   1.504   4.493
   96SAPC  H18S 9440   3.774   1.661   4.538
   96SAPC  C219 9441   3.883   1.468   4.572
   96SAPC  H19R 9442   3.916   1.385   4.505
   96SAPC  H19S 9443   3.824   1.440   4.662
   96SAPC  C220 9444   4.008   1.525   4.628
   96SAPC  H20R 9445   4.077   1.567   4.552
   96SAPC  H20S 9446   4.062   1.443   4.681
   96SAPC  H20T 9447   3.983   1.606   4.699
   96SAPC   C33 9448   3.555   1.636   3.166
   96SAPC   H3X 9449   3.482   1.712   3.130
   96SAPC   H3Y 9450   3.616   1.703   3.230
   96SAPC   C34 9451   3.478   1.551   3.271
   96SAPC   H4X 9452   3.552   1.475   3.303
   96SAPC   H4Y 9453   3.387   1.502   3.229
   96SAPC   C35 9454   3.428   1.639   3.390
   96SAPC   H5X 9455   3.364   1.728   3.368
   96SAPC   H5Y 9456   3.522   1.679   3.433
   96SAPC   C36 9457   3.363   1.557   3.505
   96SAPC   H6X 9458   3.355   1.626   3.592
   96SAPC   H6Y 9459   3.429   1.473   3.538
   96SAPC   C37 9460   3.220   1.512   3.475
   96SAPC   H7X 9461   3.219   1.460   3.377
   96SAPC   H7Y 9462   3.163   1.607   3.469
   96SAPC   C38 9463   3.147   1.418   3.584
   96SAPC   H8X 9464   3.197   1.324   3.615
   96SAPC   H8Y 9465   3.043   1.403   3.548
   96SAPC   C39 9466   3.130   1.498   3.718
   96SAPC   H9X 9467   3.060   1.581   3.693
   96SAPC   H9Y 9468   3.215   1.566   3.740
   96SAPC  C310 9469   3.078   1.420   3.835
   96SAPC  H10X 9470   3.153   1.393   3.912
   96SAPC  H10Y 9471   3.044   1.322   3.796
   96SAPC  C311 9472   2.954   1.481   3.910
   96SAPC  H11X 9473   2.865   1.471   3.844
   96SAPC  H11Y 9474   2.960   1.588   3.937
   96SAPC  C312 9475   2.920   1.418   4.050
   96SAPC  H12X 9476   3.009   1.443   4.111
   96SAPC  H12Y 9477   2.915   1.309   4.029
   96SAPC  C313 9478   2.795   1.473   4.122
   96SAPC  H13X 9479   2.730   1.502   4.036
   96SAPC  H13Y 9480   2.810   1.573   4.168
   96SAPC  C314 9481   2.730   1.377   4.218
   96SAPC  H14X 9482   2.795   1.378   4.308
   96SAPC  H14Y 9483   2.730   1.275   4.174
   96SAPC  C315 9484   2.583   1.417   4.253
   96SAPC  H15X 9485   2.518   1.328   4.237
   96SAPC  H15Y 9486   2.557   1.481   4.167
   96SAPC  C316 9487   2.557   1.481   4.385
   96SAPC  H16X 9488   2.454   1.520   4.401
   96SAPC  H16Y 9489   2.623   1.570   4.392
   96SAPC  C317 9490   2.571   1.396   4.507
   96SAPC  H17X 9491   2.671   1.348   4.500
   96SAPC  H17Y 9492   2.491   1.320   4.493
   96SAPC  C318 9493   2.553   1.472   4.637
   96SAPC  H18X 9494   2.538   1.416   4.731
   96SAPC  H18Y 9495   2.455   1.525   4.636
   96SAPC  H18Z 9496   2.624   1.556   4.654
   97SAPC     N 9497   3.600   0.859   1.783
   97SAPC   C12 9498   3.496   0.800   1.883
   97SAPC  H12A 9499   3.455   0.703   1.857
   97SAPC  H12B 9500   3.407   0.860   1.873
   97SAPC   C13 9501   3.550   0.850   1.641
   97SAPC  H13A 9502   3.611   0.876   1.556
   97SAPC  H13B 9503   3.518   0.750   1.618
   97SAPC  H13C 9504   3.467   0.919   1.632
   97SAPC   C14 9505   3.628   0.994   1.819
   97SAPC  H14A 9506   3.699   1.035   1.749
   97SAPC  H14B 9507   3.540   1.054   1.806
   97SAPC  H14C 9508   3.667   1.002   1.920
   97SAPC   C15 9509   3.723   0.774   1.797
   97SAPC  H15A 9510   3.771   0.800   1.890
   97SAPC  H15B 9511   3.703   0.668   1.791
   97SAPC  H15C 9512   3.798   0.794   1.722
   97SAPC   C11 9513   3.536   0.807   2.034
   97SAPC  H11A 9514   3.643   0.780   2.041
   97SAPC  H11B 9515   3.479   0.738   2.099
   97SAPC     P 9516   3.380   0.991   2.131
   97SAPC   O13 9517   3.392   1.097   2.228
   97SAPC   O14 9518   3.296   1.013   2.018
   97SAPC   O12 9519   3.518   0.934   2.086
   97SAPC   O11 9520   3.324   0.869   2.208
   97SAPC    C1 9521   3.381   0.817   2.327
   97SAPC    HA 9522   3.492   0.818   2.326
   97SAPC    HB 9523   3.342   0.869   2.417
   97SAPC    C2 9524   3.340   0.665   2.350
   97SAPC    HS 9525   3.366   0.627   2.249
   97SAPC   O21 9526   3.200   0.663   2.387
   97SAPC   C21 9527   3.148   0.545   2.362
   97SAPC   O22 9528   3.200   0.450   2.310
   97SAPC   C22 9529   3.002   0.543   2.416
   97SAPC   H2R 9530   2.980   0.635   2.474
   97SAPC   H2S 9531   2.932   0.549   2.329
   97SAPC    C3 9532   3.430   0.586   2.450
   97SAPC    HX 9533   3.533   0.603   2.411
   97SAPC    HY 9534   3.413   0.476   2.444
   97SAPC   O31 9535   3.429   0.630   2.584
   97SAPC   C31 9536   3.518   0.590   2.664
   97SAPC   O32 9537   3.606   0.505   2.641
   97SAPC   C32 9538   3.508   0.661   2.801
   97SAPC   H2X 9539   3.404   0.699   2.809
   97SAPC   H2Y 9540   3.593   0.732   2.802
   97SAPC   C23 9541   2.981   0.416   2.505
   97SAPC   H3R 9542   3.007   0.332   2.438
   97SAPC   H3S 9543   2.874   0.409   2.534
   97SAPC   C24 9544   3.065   0.415   2.635
   97SAPC   H4R 9545   3.172   0.421   2.604
   97SAPC   H4S 9546   3.053   0.317   2.686
   97SAPC   C25 9547   3.036   0.524   2.732
   97SAPC   H5R 9548   3.041   0.622   2.683
   97SAPC   C26 9549   3.008   0.501   2.859
   97SAPC   H6R 9550   2.997   0.587   2.926
   97SAPC   C27 9551   3.018   0.370   2.937
   97SAPC   H7R 9552   3.081   0.304   2.874
   97SAPC   H7S 9553   2.924   0.311   2.937
   97SAPC   C28 9554   3.081   0.393   3.074
   97SAPC   H8R 9555   3.164   0.465   3.072
   97SAPC   C29 9556   3.059   0.333   3.193
   97SAPC   H9R 9557   3.107   0.368   3.285
   97SAPC  C210 9558   2.958   0.222   3.210
   97SAPC  H10R 9559   2.879   0.221   3.132
   97SAPC  H10S 9560   2.915   0.245   3.310
   97SAPC  C211 9561   3.029   0.088   3.214
   97SAPC  H11R 9562   3.073   0.042   3.125
   97SAPC  C212 9563   3.059   0.018   3.330
   97SAPC  H12R 9564   3.121   6.720   3.324
   97SAPC  C213 9565   3.007   0.050   3.470
   97SAPC  H13R 9566   3.012   6.765   3.548
   97SAPC  H13S 9567   2.897   0.064   3.472
   97SAPC  C214 9568   3.063   0.177   3.528
   97SAPC  H14R 9569   3.133   0.237   3.469
   97SAPC  C215 9570   3.030   0.226   3.648
   97SAPC  H15R 9571   3.080   0.321   3.670
   97SAPC  C216 9572   2.916   0.170   3.739
   97SAPC  H16R 9573   2.852   0.099   3.682
   97SAPC  H16S 9574   2.852   0.255   3.769
   97SAPC  C217 9575   2.965   0.107   3.874
   97SAPC  H17R 9576   3.055   0.157   3.916
   97SAPC  H17S 9577   2.992   0.003   3.850
   97SAPC  C218 9578   2.857   0.113   3.984
   97SAPC  H18R 9579   2.768   0.060   3.943
   97SAPC  H18S 9580   2.829   0.215   4.019
   97SAPC  C219 9581   2.903   0.043   4.111
   97SAPC  H19R 9582   2.986   0.111   4.141
   97SAPC  H19S 9583   2.959   6.741   4.092
   97SAPC  C220 9584   2.802   0.032   4.227
   97SAPC  H20R 9585   2.721   0.105   4.208
   97SAPC  H20S 9586   2.843   0.051   4.328
   97SAPC  H20T 9587   2.768   6.719   4.220
   97SAPC   C33 9588   3.545   0.547   2.910
   97SAPC   H3X 9589   3.646   0.502   2.898
   97SAPC   H3Y 9590   3.466   0.470   2.901
   97SAPC   C34 9591   3.536   0.607   3.061
   97SAPC   H4X 9592   3.443   0.668   3.071
   97SAPC   H4Y 9593   3.632   0.664   3.064
   97SAPC   C35 9594   3.537   0.495   3.167
   97SAPC   H5X 9595   3.623   0.427   3.148
   97SAPC   H5Y 9596   3.446   0.432   3.165
   97SAPC   C36 9597   3.551   0.562   3.305
   97SAPC   H6X 9598   3.476   0.640   3.330
   97SAPC   H6Y 9599   3.648   0.614   3.323
   97SAPC   C37 9600   3.554   0.454   3.412
   97SAPC   H7X 9601   3.603   0.477   3.509
   97SAPC   H7Y 9602   3.586   0.360   3.362
   97SAPC   C38 9603   3.406   0.414   3.447
   97SAPC   H8X 9604   3.397   0.310   3.487
   97SAPC   H8Y 9605   3.337   0.412   3.360
   97SAPC   C39 9606   3.341   0.514   3.545
   97SAPC   H9X 9607   3.232   0.522   3.529
   97SAPC   H9Y 9608   3.390   0.609   3.514
   97SAPC  C310 9609   3.377   0.484   3.690
   97SAPC  H10X 9610   3.486   0.505   3.698
   97SAPC  H10Y 9611   3.362   0.375   3.701
   97SAPC  C311 9612   3.313   0.573   3.795
   97SAPC  H11X 9613   3.216   0.601   3.750
   97SAPC  H11Y 9614   3.362   0.673   3.800
   97SAPC  C312 9615   3.291   0.512   3.932
   97SAPC  H12X 9616   3.381   0.528   3.996
   97SAPC  H12Y 9617   3.265   0.405   3.917
   97SAPC  C313 9618   3.173   0.589   3.989
   97SAPC  H13X 9619   3.089   0.588   3.916
   97SAPC  H13Y 9620   3.207   0.695   3.992
   97SAPC  C314 9621   3.133   0.531   4.128
   97SAPC  H14X 9622   3.085   0.433   4.109
   97SAPC  H14Y 9623   3.047   0.593   4.160
   97SAPC  C315 9624   3.243   0.504   4.239
   97SAPC  H15X 9625   3.309   0.593   4.250
   97SAPC  H15Y 9626   3.308   0.428   4.192
   97SAPC  C316 9627   3.195   0.442   4.366
   97SAPC  H16X 9628   3.172   0.335   4.346
   97SAPC  H16Y 9629   3.100   0.497   4.383
   97SAPC  C317 9630   3.300   0.460   4.471
   97SAPC  H17X 9631   3.351   0.559   4.469
   97SAPC  H17Y 9632   3.392   0.401   4.455
   97SAPC  C318 9633   3.247   0.435   4.617
   97SAPC  H18X 9634   3.326   0.472   4.686
   97SAPC  H18Y 9635   3.207   0.333   4.636
   97SAPC  H18Z 9636   3.161   0.504   4.631
   98SAPC     N 9637   5.762   1.498   2.254
   98SAPC   C12 9638   5.852   1.428   2.160
   98SAPC  H12A 9639   5.916   1.491   2.101
   98SAPC  H12B 9640   5.798   1.354   2.102
   98SAPC   C13 9641   5.660   1.598   2.197
   98SAPC  H13A 9642   5.707   1.671   2.132
   98SAPC  H13B 9643   5.578   1.552   2.144
   98SAPC  H13C 9644   5.617   1.641   2.286
   98SAPC   C14 9645   5.678   1.405   2.341
   98SAPC  H14A 9646   5.605   1.350   2.284
   98SAPC  H14B 9647   5.741   1.331   2.388
   98SAPC  H14C 9648   5.634   1.466   2.419
   98SAPC   C15 9649   5.845   1.581   2.349
   98SAPC  H15A 9650   5.917   1.640   2.295
   98SAPC  H15B 9651   5.784   1.648   2.408
   98SAPC  H15C 9652   5.897   1.513   2.415
   98SAPC   C11 9653   5.959   1.331   2.223
   98SAPC  H11A 9654   6.038   1.374   2.288
   98SAPC  H11B 9655   6.006   1.289   2.132
   98SAPC     P 9656   5.848   1.091   2.248
   98SAPC   O13 9657   5.728   1.127   2.171
   98SAPC   O14 9658   5.951   1.013   2.177
   98SAPC   O12 9659   5.908   1.221   2.303
   98SAPC   O11 9660   5.813   1.015   2.375
   98SAPC    C1 9661   5.722   1.039   2.472
   98SAPC    HA 9662   5.684   1.143   2.460
   98SAPC    HB 9663   5.646   0.959   2.463
   98SAPC    C2 9664   5.794   1.040   2.610
   98SAPC    HS 9665   5.724   1.082   2.685
   98SAPC   O21 9666   5.927   1.100   2.610
   98SAPC   C21 9667   5.916   1.236   2.616
   98SAPC   O22 9668   5.812   1.296   2.626
   98SAPC   C22 9669   6.057   1.295   2.644
   98SAPC   H2R 9670   6.132   1.213   2.649
   98SAPC   H2S 9671   6.082   1.367   2.563
   98SAPC    C3 9672   5.797   0.894   2.667
   98SAPC    HX 9673   5.869   0.835   2.606
   98SAPC    HY 9674   5.693   0.856   2.650
   98SAPC   O31 9675   5.831   0.889   2.804
   98SAPC   C31 9676   5.880   0.773   2.848
   98SAPC   O32 9677   5.903   0.676   2.785
   98SAPC   C32 9678   5.913   0.795   2.990
   98SAPC   H2X 9679   5.845   0.730   3.049
   98SAPC   H2Y 9680   5.900   0.901   3.023
   98SAPC   C23 9681   6.045   1.380   2.777
   98SAPC   H3R 9682   5.969   1.461   2.767
   98SAPC   H3S 9683   6.144   1.430   2.790
   98SAPC   C24 9684   6.000   1.306   2.906
   98SAPC   H4R 9685   5.893   1.280   2.890
   98SAPC   H4S 9686   6.008   1.372   2.995
   98SAPC   C25 9687   6.087   1.188   2.920
   98SAPC   H5R 9688   6.082   1.110   2.842
   98SAPC   C26 9689   6.198   1.179   3.004
   98SAPC   H6R 9690   6.265   1.093   2.992
   98SAPC   C27 9691   6.239   1.271   3.113
   98SAPC   H7R 9692   6.246   1.376   3.077
   98SAPC   H7S 9693   6.346   1.244   3.124
   98SAPC   C28 9694   6.158   1.260   3.236
   98SAPC   H8R 9695   6.049   1.269   3.224
   98SAPC   C29 9696   6.211   1.241   3.361
   98SAPC   H9R 9697   6.140   1.253   3.444
   98SAPC  C210 9698   6.348   1.223   3.409
   98SAPC  H10R 9699   6.400   1.321   3.415
   98SAPC  H10S 9700   6.402   1.169   3.328
   98SAPC  C211 9701   6.364   1.152   3.543
   98SAPC  H11R 9702   6.296   1.187   3.622
   98SAPC  C212 9703   6.457   1.067   3.576
   98SAPC  H12R 9704   6.462   1.025   3.678
   98SAPC  C213 9705   6.550   1.011   3.473
   98SAPC  H13R 9706   6.649   0.995   3.520
   98SAPC  H13S 9707   6.580   1.080   3.391
   98SAPC  C214 9708   6.484   0.891   3.401
   98SAPC  H14R 9709   6.392   0.852   3.446
   98SAPC  C215 9710   6.522   0.853   3.283
   98SAPC  H15R 9711   6.480   0.757   3.251
   98SAPC  C216 9712   6.636   0.893   3.198
   98SAPC  H16R 9713   6.716   0.931   3.265
   98SAPC  H16S 9714   6.604   0.976   3.131
   98SAPC  C217 9715   6.705   0.783   3.109
   98SAPC  H17R 9716   6.739   0.707   3.182
   98SAPC  H17S 9717   6.792   0.825   3.054
   98SAPC  C218 9718   6.601   0.732   3.011
   98SAPC  H18R 9719   6.502   0.713   3.059
   98SAPC  H18S 9720   6.635   0.636   2.968
   98SAPC  C219 9721   6.570   0.826   2.890
   98SAPC  H19R 9722   6.657   0.848   2.825
   98SAPC  H19S 9723   6.552   0.923   2.940
   98SAPC  C220 9724   6.445   0.795   2.810
   98SAPC  H20R 9725   6.425   0.870   2.731
   98SAPC  H20S 9726   6.353   0.780   2.871
   98SAPC  H20T 9727   6.453   0.694   2.765
   98SAPC   C33 9728   6.058   0.763   3.031
   98SAPC   H3X 9729   6.130   0.846   3.014
   98SAPC   H3Y 9730   6.101   0.680   2.970
   98SAPC   C34 9731   6.091   0.714   3.178
   98SAPC   H4X 9732   6.201   0.702   3.189
   98SAPC   H4Y 9733   6.037   0.619   3.197
   98SAPC   C35 9734   6.042   0.822   3.268
   98SAPC   H5X 9735   5.934   0.845   3.251
   98SAPC   H5Y 9736   6.096   0.916   3.248
   98SAPC   C36 9737   6.076   0.778   3.413
   98SAPC   H6X 9738   6.181   0.743   3.419
   98SAPC   H6Y 9739   6.018   0.685   3.431
   98SAPC   C37 9740   6.049   0.889   3.525
   98SAPC   H7X 9741   6.106   0.980   3.495
   98SAPC   H7Y 9742   6.083   0.843   3.620
   98SAPC   C38 9743   5.902   0.920   3.534
   98SAPC   H8X 9744   5.852   0.961   3.444
   98SAPC   H8Y 9745   5.890   0.986   3.622
   98SAPC   C39 9746   5.818   0.794   3.568
   98SAPC   H9X 9747   5.824   0.730   3.478
   98SAPC   H9Y 9748   5.709   0.817   3.575
   98SAPC  C310 9749   5.861   0.705   3.690
   98SAPC  H10X 9750   5.967   0.676   3.675
   98SAPC  H10Y 9751   5.795   0.616   3.679
   98SAPC  C311 9752   5.846   0.752   3.835
   98SAPC  H11X 9753   5.740   0.771   3.861
   98SAPC  H11Y 9754   5.893   0.849   3.858
   98SAPC  C312 9755   5.909   0.647   3.926
   98SAPC  H12X 9756   6.020   0.650   3.914
   98SAPC  H12Y 9757   5.871   0.545   3.905
   98SAPC  C313 9758   5.883   0.658   4.078
   98SAPC  H13X 9759   5.917   0.751   4.128
   98SAPC  H13Y 9760   5.948   0.576   4.117
   98SAPC  C314 9761   5.741   0.622   4.120
   98SAPC  H14X 9762   5.704   0.537   4.060
   98SAPC  H14Y 9763   5.676   0.709   4.096
   98SAPC  C315 9764   5.723   0.579   4.269
   98SAPC  H15X 9765   5.616   0.547   4.273
   98SAPC  H15Y 9766   5.759   0.670   4.321
   98SAPC  C316 9767   5.815   0.463   4.311
   98SAPC  H16X 9768   5.924   0.483   4.297
   98SAPC  H16Y 9769   5.798   0.368   4.257
   98SAPC  C317 9770   5.789   0.448   4.463
   98SAPC  H17X 9771   5.794   0.550   4.507
   98SAPC  H17Y 9772   5.867   0.384   4.508
   98SAPC  C318 9773   5.657   0.375   4.482
   98SAPC  H18X 9774   5.628   0.360   4.589
   98SAPC  H18Y 9775   5.673   0.273   4.443
   98SAPC  H18Z 9776   5.570   0.421   4.430
   99SAPC     N 9777   3.658   5.277   1.744
   99SAPC   C12 9778   3.751   5.232   1.862
   99SAPC  H12A 9779   3.852   5.264   1.843
   99SAPC  H12B 9780   3.753   5.124   1.865
   99SAPC   C13 9781   3.620   5.424   1.755
   99SAPC  H13A 9782   3.581   5.435   1.855
   99SAPC  H13B 9783   3.705   5.490   1.753
   99SAPC  H13C 9784   3.538   5.451   1.691
   99SAPC   C14 9785   3.714   5.254   1.607
   99SAPC  H14A 9786   3.646   5.290   1.532
   99SAPC  H14B 9787   3.808   5.307   1.598
   99SAPC  H14C 9788   3.734   5.148   1.602
   99SAPC   C15 9789   3.533   5.199   1.755
   99SAPC  H15A 9790   3.455   5.229   1.687
   99SAPC  H15B 9791   3.549   5.093   1.741
   99SAPC  H15C 9792   3.494   5.212   1.855
   99SAPC   C11 9793   3.710   5.276   2.000
   99SAPC  H11A 9794   3.713   5.387   1.999
   99SAPC  H11B 9795   3.790   5.249   2.072
   99SAPC     P 9796   3.574   5.079   2.083
   99SAPC   O13 9797   3.435   5.044   2.122
   99SAPC   O14 9798   3.625   4.985   1.982
   99SAPC   O12 9799   3.575   5.230   2.031
   99SAPC   O11 9800   3.663   5.084   2.213
   99SAPC    C1 9801   3.651   5.179   2.319
   99SAPC    HA 9802   3.742   5.240   2.340
   99SAPC    HB 9803   3.577   5.259   2.295
   99SAPC    C2 9804   3.615   5.106   2.451
   99SAPC    HS 9805   3.602   5.000   2.419
   99SAPC   O21 9806   3.491   5.172   2.491
   99SAPC   C21 9807   3.401   5.094   2.543
   99SAPC   O22 9808   3.402   4.975   2.540
   99SAPC   C22 9809   3.297   5.184   2.605
   99SAPC   H2R 9810   3.245   5.234   2.521
   99SAPC   H2S 9811   3.215   5.127   2.655
   99SAPC    C3 9812   3.715   5.119   2.575
   99SAPC    HX 9813   3.701   5.221   2.617
   99SAPC    HY 9814   3.822   5.111   2.547
   99SAPC   O31 9815   3.689   5.031   2.686
   99SAPC   C31 9816   3.737   4.910   2.684
   99SAPC   O32 9817   3.807   4.871   2.594
   99SAPC   C32 9818   3.714   4.840   2.821
   99SAPC   H2X 9819   3.707   4.913   2.905
   99SAPC   H2Y 9820   3.794   4.764   2.833
   99SAPC   C23 9821   3.354   5.285   2.713
   99SAPC   H3R 9822   3.266   5.328   2.767
   99SAPC   H3S 9823   3.405   5.375   2.674
   99SAPC   C24 9824   3.453   5.228   2.817
   99SAPC   H4R 9825   3.542   5.193   2.761
   99SAPC   H4S 9826   3.426   5.128   2.857
   99SAPC   C25 9827   3.497   5.337   2.912
   99SAPC   H5R 9828   3.451   5.433   2.883
   99SAPC   C26 9829   3.581   5.328   3.019
   99SAPC   H6R 9830   3.605   5.419   3.077
   99SAPC   C27 9831   3.646   5.207   3.072
   99SAPC   H7R 9832   3.724   5.232   3.147
   99SAPC   H7S 9833   3.721   5.167   3.000
   99SAPC   C28 9834   3.556   5.098   3.122
   99SAPC   H8R 9835   3.523   5.025   3.046
   99SAPC   C29 9836   3.528   5.073   3.256
   99SAPC   H9R 9837   3.449   5.002   3.283
   99SAPC  C210 9838   3.582   5.157   3.373
   99SAPC  H10R 9839   3.488   5.170   3.430
   99SAPC  H10S 9840   3.619   5.255   3.336
   99SAPC  C211 9841   3.675   5.087   3.468
   99SAPC  H11R 9842   3.762   5.046   3.415
   99SAPC  C212 9843   3.674   5.083   3.601
   99SAPC  H12R 9844   3.754   5.025   3.649
   99SAPC  C213 9845   3.563   5.143   3.689
   99SAPC  H13R 9846   3.501   5.060   3.730
   99SAPC  H13S 9847   3.499   5.207   3.625
   99SAPC  C214 9848   3.622   5.221   3.805
   99SAPC  H14R 9849   3.686   5.164   3.874
   99SAPC  C215 9850   3.609   5.358   3.830
   99SAPC  H15R 9851   3.653   5.403   3.920
   99SAPC  C216 9852   3.535   5.455   3.744
   99SAPC  H16R 9853   3.540   5.421   3.638
   99SAPC  H16S 9854   3.579   5.556   3.740
   99SAPC  C217 9855   3.387   5.467   3.776
   99SAPC  H17R 9856   3.361   5.491   3.881
   99SAPC  H17S 9857   3.353   5.363   3.758
   99SAPC  C218 9858   3.309   5.547   3.675
   99SAPC  H18R 9859   3.298   5.491   3.580
   99SAPC  H18S 9860   3.347   5.651   3.662
   99SAPC  C219 9861   3.173   5.567   3.738
   99SAPC  H19R 9862   3.183   5.628   3.831
   99SAPC  H19S 9863   3.141   5.471   3.783
   99SAPC  C220 9864   3.073   5.625   3.637
   99SAPC  H20R 9865   2.977   5.634   3.692
   99SAPC  H20S 9866   3.051   5.563   3.547
   99SAPC  H20T 9867   3.094   5.730   3.607
   99SAPC   C33 9868   3.580   4.759   2.833
   99SAPC   H3X 9869   3.588   4.695   2.742
   99SAPC   H3Y 9870   3.502   4.834   2.810
   99SAPC   C34 9871   3.553   4.688   2.964
   99SAPC   H4X 9872   3.539   4.761   3.047
   99SAPC   H4Y 9873   3.633   4.617   2.992
   99SAPC   C35 9874   3.419   4.607   2.945
   99SAPC   H5X 9875   3.418   4.536   2.860
   99SAPC   H5Y 9876   3.338   4.678   2.917
   99SAPC   C36 9877   3.370   4.534   3.072
   99SAPC   H6X 9878   3.458   4.473   3.099
   99SAPC   H6Y 9879   3.286   4.464   3.051
   99SAPC   C37 9880   3.332   4.630   3.187
   99SAPC   H7X 9881   3.266   4.707   3.144
   99SAPC   H7Y 9882   3.430   4.676   3.213
   99SAPC   C38 9883   3.279   4.568   3.317
   99SAPC   H8X 9884   3.350   4.484   3.333
   99SAPC   H8Y 9885   3.182   4.516   3.303
   99SAPC   C39 9886   3.285   4.663   3.444
   99SAPC   H9X 9887   3.239   4.620   3.535
   99SAPC   H9Y 9888   3.224   4.749   3.409
   99SAPC  C310 9889   3.414   4.720   3.479
   99SAPC  H10X 9890   3.410   4.795   3.561
   99SAPC  H10Y 9891   3.456   4.787   3.401
   99SAPC  C311 9892   3.529   4.621   3.510
   99SAPC  H11X 9893   3.630   4.664   3.522
   99SAPC  H11Y 9894   3.541   4.556   3.421
   99SAPC  C312 9895   3.493   4.544   3.642
   99SAPC  H12X 9896   3.409   4.473   3.626
   99SAPC  H12Y 9897   3.456   4.619   3.714
   99SAPC  C313 9898   3.618   4.469   3.698
   99SAPC  H13X 9899   3.704   4.529   3.661
   99SAPC  H13Y 9900   3.618   4.368   3.653
   99SAPC  C314 9901   3.634   4.470   3.853
   99SAPC  H14X 9902   3.649   4.577   3.881
   99SAPC  H14Y 9903   3.732   4.422   3.874
   99SAPC  C315 9904   3.520   4.396   3.918
   99SAPC  H15X 9905   3.512   4.288   3.896
   99SAPC  H15Y 9906   3.421   4.436   3.884
   99SAPC  C316 9907   3.513   4.418   4.073
   99SAPC  H16X 9908   3.509   4.526   4.101
   99SAPC  H16Y 9909   3.601   4.371   4.122
   99SAPC  C317 9910   3.384   4.350   4.121
   99SAPC  H17X 9911   3.300   4.383   4.056
   99SAPC  H17Y 9912   3.344   4.364   4.224
   99SAPC  C318 9913   3.404   4.192   4.124
   99SAPC  H18X 9914   3.416   4.134   4.030
   99SAPC  H18Y 9915   3.323   4.151   4.188
   99SAPC  H18Z 9916   3.498   4.169   4.178
  100SAPC     N 9917   1.686   4.135   2.020
  100SAPC   C12 9918   1.756   4.254   2.084
  100SAPC  H12A 9919   1.756   4.216   2.185
  100SAPC  H12B 9920   1.708   4.350   2.082
  100SAPC   C13 9921   1.546   4.127   2.056
  100SAPC  H13A 9922   1.537   4.128   2.164
  100SAPC  H13B 9923   1.478   4.205   2.023
  100SAPC  H13C 9924   1.508   4.034   2.018
  100SAPC   C14 9925   1.701   4.145   1.872
  100SAPC  H14A 9926   1.681   4.056   1.815
  100SAPC  H14B 9927   1.627   4.216   1.836
  100SAPC  H14C 9928   1.800   4.176   1.842
  100SAPC   C15 9929   1.752   4.009   2.072
  100SAPC  H15A 9930   1.730   3.915   2.023
  100SAPC  H15B 9931   1.856   4.023   2.048
  100SAPC  H15C 9932   1.736   3.997   2.178
  100SAPC   C11 9933   1.903   4.289   2.038
  100SAPC  H11A 9934   1.946   4.354   2.117
  100SAPC  H11B 9935   1.893   4.344   1.942
  100SAPC     P 9936   2.093   4.123   2.120
  100SAPC   O13 9937   2.145   3.991   2.073
  100SAPC   O14 9938   2.189   4.230   2.136
  100SAPC   O12 9939   1.984   4.169   2.022
  100SAPC   O11 9940   2.010   4.091   2.251
  100SAPC    C1 9941   2.090   4.066   2.367
  100SAPC    HA 9942   2.181   4.008   2.343
  100SAPC    HB 9943   2.125   4.159   2.417
  100SAPC    C2 9944   2.015   3.984   2.474
  100SAPC    HS 9945   1.954   3.911   2.418
  100SAPC   O21 9946   1.937   4.075   2.557
  100SAPC   C21 9947   1.817   4.045   2.581
  100SAPC   O22 9948   1.750   3.956   2.530
  100SAPC   C22 9949   1.757   4.141   2.681
  100SAPC   H2R 9950   1.838   4.207   2.719
  100SAPC   H2S 9951   1.690   4.211   2.626
  100SAPC    C3 9952   2.118   3.908   2.570
  100SAPC    HX 9953   2.193   3.984   2.601
  100SAPC    HY 9954   2.170   3.830   2.509
  100SAPC   O31 9955   2.064   3.854   2.693
  100SAPC   C31 9956   2.005   3.740   2.683
  100SAPC   O32 9957   1.987   3.681   2.576
  100SAPC   C32 9958   1.946   3.696   2.819
  100SAPC   H2X 9959   1.836   3.703   2.811
  100SAPC   H2Y 9960   1.990   3.759   2.900
  100SAPC   C23 9961   1.682   4.079   2.803
  100SAPC   H3R 9962   1.590   4.039   2.757
  100SAPC   H3S 9963   1.654   4.154   2.880
  100SAPC   C24 9964   1.752   3.955   2.857
  100SAPC   H4R 9965   1.860   3.967   2.879
  100SAPC   H4S 9966   1.757   3.884   2.772
  100SAPC   C25 9967   1.676   3.908   2.980
  100SAPC   H5R 9968   1.576   3.875   2.948
  100SAPC   C26 9969   1.717   3.924   3.109
  100SAPC   H6R 9970   1.651   3.895   3.192
  100SAPC   C27 9971   1.847   3.970   3.168
  100SAPC   H7R 9972   1.917   3.980   3.082
  100SAPC   H7S 9973   1.883   3.894   3.241
  100SAPC   C28 9974   1.821   4.109   3.224
  100SAPC   H8R 9975   1.793   4.190   3.155
  100SAPC   C29 9976   1.824   4.143   3.356
  100SAPC   H9R 9977   1.829   4.251   3.379
  100SAPC  C210 9978   1.856   4.059   3.480
  100SAPC  H10R 9979   1.847   3.953   3.447
  100SAPC  H10S 9980   1.773   4.076   3.552
  100SAPC  C211 9981   1.991   4.061   3.538
  100SAPC  H11R 9982   2.060   4.055   3.452
  100SAPC  C212 9983   2.016   4.069   3.668
  100SAPC  H12R 9984   2.118   4.047   3.704
  100SAPC  C213 9985   1.918   4.094   3.785
  100SAPC  H13R 9986   1.974   4.070   3.878
  100SAPC  H13S 9987   1.835   4.020   3.781
  100SAPC  C214 9988   1.861   4.233   3.779
  100SAPC  H14R 9989   1.895   4.295   3.695
  100SAPC  C215 9990   1.771   4.285   3.865
  100SAPC  H15R 9991   1.749   4.393   3.855
  100SAPC  C216 9992   1.716   4.216   3.992
  100SAPC  H16R 9993   1.729   4.106   4.000
  100SAPC  H16S 9994   1.607   4.237   3.998
  100SAPC  C217 9995   1.760   4.295   4.116
  100SAPC  H17R 9996   1.722   4.400   4.119
  100SAPC  H17S 9997   1.868   4.322   4.116
  100SAPC  C218 9998   1.720   4.222   4.240
  100SAPC  H18R 9999   1.778   4.128   4.252
  100SAPC  H18S10000   1.610   4.208   4.233
  100SAPC  C21910001   1.722   4.304   4.377
  100SAPC  H19R10002   1.688   4.408   4.357
  100SAPC  H19S10003   1.831   4.323   4.387
  100SAPC  C22010004   1.656   4.244   4.500
  100SAPC  H20R10005   1.671   4.307   4.590
  100SAPC  H20S10006   1.709   4.152   4.531
  100SAPC  H20T10007   1.547   4.226   4.485
  100SAPC   C3310008   1.970   3.548   2.858
  100SAPC   H3X10009   2.074   3.534   2.896
  100SAPC   H3Y10010   1.947   3.483   2.771
  100SAPC   C3410011   1.894   3.490   2.982
  100SAPC   H4X10012   1.956   3.405   3.020
  100SAPC   H4Y10013   1.800   3.435   2.962
  100SAPC   C3510014   1.857   3.580   3.098
  100SAPC   H5X10015   1.781   3.659   3.075
  100SAPC   H5Y10016   1.940   3.644   3.133
  100SAPC   C3610017   1.813   3.508   3.225
  100SAPC   H6X10018   1.897   3.442   3.255
  100SAPC   H6Y10019   1.726   3.439   3.214
  100SAPC   C3710020   1.785   3.597   3.347
  100SAPC   H7X10021   1.694   3.661   3.337
  100SAPC   H7Y10022   1.858   3.681   3.353
  100SAPC   C3810023   1.775   3.511   3.475
  100SAPC   H8X10024   1.882   3.488   3.498
  100SAPC   H8Y10025   1.711   3.421   3.472
  100SAPC   C3910026   1.737   3.590   3.596
  100SAPC   H9X10027   1.627   3.606   3.596
  100SAPC   H9Y10028   1.792   3.687   3.601
  100SAPC  C31010029   1.776   3.519   3.732
  100SAPC  H10X10030   1.758   3.588   3.818
  100SAPC  H10Y10031   1.881   3.483   3.723
  100SAPC  C31110032   1.685   3.398   3.751
  100SAPC  H11X10033   1.712   3.313   3.684
  100SAPC  H11Y10034   1.580   3.430   3.732
  100SAPC  C31210035   1.700   3.338   3.890
  100SAPC  H12X10036   1.808   3.319   3.906
  100SAPC  H12Y10037   1.639   3.246   3.904
  100SAPC  C31310038   1.657   3.432   4.007
  100SAPC  H13X10039   1.552   3.461   3.988
  100SAPC  H13Y10040   1.724   3.521   4.003
  100SAPC  C31410041   1.667   3.365   4.145
  100SAPC  H14X10042   1.769   3.320   4.145
  100SAPC  H14Y10043   1.594   3.282   4.153
  100SAPC  C31510044   1.646   3.460   4.262
  100SAPC  H15X10045   1.707   3.552   4.252
  100SAPC  H15Y10046   1.684   3.414   4.355
  100SAPC  C31610047   1.494   3.490   4.283
  100SAPC  H16X10048   1.427   3.489   4.193
  100SAPC  H16Y10049   1.489   3.590   4.331
  100SAPC  C31710050   1.424   3.394   4.394
  100SAPC  H17X10051   1.467   3.397   4.497
  100SAPC  H17Y10052   1.432   3.292   4.350
  100SAPC  C31810053   1.268   3.421   4.401
  100SAPC  H18X10054   1.223   3.347   4.470
  100SAPC  H18Y10055   1.214   3.416   4.304
  100SAPC  H18Z10056   1.237   3.525   4.423
  101OSM      N10057   3.846   3.281   7.349
  101OSM    C1510058   3.759   3.392   7.300
  101OSM   H15A10059   3.697   3.420   7.384
  101OSM   H15B10060   3.695   3.365   7.216
  101OSM   H15C10061   3.820   3.478   7.278
  101OSM    C1410062   3.923   3.328   7.474
  101OSM   H14A10063   3.866   3.356   7.562
  101OSM   H14B10064   3.971   3.423   7.454
  101OSM   H14C10065   3.990   3.247   7.497
  101OSM    C1310066   3.760   3.163   7.377
  101OSM   H13A10067   3.679   3.190   7.443
  101OSM   H13B10068   3.823   3.087   7.423
  101OSM   H13C10069   3.707   3.128   7.290
  101OSM    C1210070   3.954   3.254   7.239
  101OSM   H12A10071   4.017   3.179   7.285
  101OSM   H12B10072   4.013   3.345   7.231
  101OSM    C1110073   3.904   3.215   7.101
  101OSM   H11A10074   3.997   3.220   7.041
  101OSM   H11B10075   3.844   3.300   7.064
  101OSM      P10076   3.915   2.958   7.085
  101OSM    O1310077   4.059   2.977   7.075
  101OSM    O1410078   3.866   2.854   7.177
  101OSM    O1110079   3.867   2.917   6.937
  101OSM    O1210080   3.832   3.093   7.103
  101OSM    C1S10081   3.919   2.983   6.822
  101OSM    H1S10082   4.025   2.955   6.803
  101OSM    H1T10083   3.923   3.093   6.836
  101OSM     NF10084   3.867   3.023   6.578
  101OSM    HNF10085   3.818   3.104   6.548
  101OSM    C2S10086   3.827   2.949   6.694
  101OSM    H2S10087   3.836   2.840   6.671
  101OSM    C3S10088   3.684   2.968   6.720
  101OSM    H3S10089   3.666   3.074   6.750
  101OSM     O310090   3.627   2.880   6.814
  101OSM    HO310091   3.706   2.857   6.864
  101OSM    C4S10092   3.607   2.940   6.591
  101OSM    H4S10093   3.621   2.839   6.548
  101OSM    C5S10094   3.522   3.020   6.531
  101OSM    H5S10095   3.509   3.123   6.568
  101OSM    C6S10096   3.443   2.985   6.400
  101OSM    H6S10097   3.504   3.011   6.310
  101OSM    H6T10098   3.343   3.033   6.392
  101OSM    C7S10099   3.422   2.834   6.373
  101OSM    H7S10100   3.374   2.790   6.463
  101OSM    H7T10101   3.523   2.786   6.369
  101OSM    C8S10102   3.341   2.807   6.243
  101OSM    H8S10103   3.240   2.852   6.251
  101OSM    H8T10104   3.316   2.698   6.237
  101OSM    C9S10105   3.400   2.860   6.113
  101OSM    H9S10106   3.511   2.850   6.116
  101OSM    H9T10107   3.374   2.968   6.105
  101OSM   C10S10108   3.346   2.782   5.995
  101OSM   H10S10109   3.236   2.786   5.991
  101OSM   H10T10110   3.368   2.674   6.006
  101OSM   C11S10111   3.398   2.840   5.862
  101OSM   H11S10112   3.507   2.855   5.876
  101OSM   H11T10113   3.346   2.938   5.857
  101OSM   C12S10114   3.354   2.751   5.743
  101OSM   H12S10115   3.244   2.740   5.751
  101OSM   H12T10116   3.389   2.647   5.761
  101OSM   C13S10117   3.386   2.806   5.602
  101OSM   H13S10118   3.496   2.809   5.590
  101OSM   H13T10119   3.350   2.911   5.590
  101OSM   C14S10120   3.313   2.719   5.500
  101OSM   H14S10121   3.206   2.709   5.530
  101OSM   H14T10122   3.356   2.616   5.495
  101OSM   C15S10123   3.324   2.784   5.365
  101OSM   H15S10124   3.430   2.803   5.339
  101OSM   H15T10125   3.274   2.883   5.371
  101OSM   C16S10126   3.259   2.716   5.244
  101OSM   H16S10127   3.252   2.769   5.147
  101OSM   H16T10128   3.155   2.687   5.269
  101OSM   C17S10129   3.339   2.594   5.210
  101OSM   H17S10130   3.342   2.527   5.298
  101OSM   H17T10131   3.445   2.627   5.207
  101OSM   C18S10132   3.283   2.515   5.091
  101OSM   H18S10133   3.338   2.419   5.081
  101OSM   H18T10134   3.286   2.573   4.996
  101OSM   H18U10135   3.177   2.491   5.116
  101OSM    C1F10136   3.985   2.988   6.520
  101OSM     OF10137   4.056   2.903   6.565
  101OSM    C2F10138   4.033   3.057   6.399
  101OSM    H2F10139   4.144   3.058   6.405
  101OSM    H2G10140   3.990   3.160   6.404
  101OSM    C3F10141   4.000   2.983   6.267
  101OSM    H3F10142   3.890   2.974   6.250
  101OSM    H3G10143   4.038   2.879   6.277
  101OSM    C4F10144   4.068   3.043   6.140
  101OSM    H4F10145   4.177   3.043   6.161
  101OSM    H4G10146   4.049   3.150   6.115
  101OSM    C5F10147   4.042   2.965   6.011
  101OSM    H5F10148   3.931   2.967   6.003
  101OSM    H5G10149   4.086   2.865   6.033
  101OSM    C6F10150   4.096   3.029   5.883
  101OSM    H6F10151   4.207   3.033   5.885
  101OSM    H6G10152   4.053   3.132   5.881
  101OSM    C7F10153   4.057   2.954   5.752
  101OSM    H7F10154   3.948   2.937   5.762
  101OSM    H7G10155   4.107   2.854   5.752
  101OSM    C8F10156   4.085   3.026   5.630
  101OSM    H8F10157   4.193   3.049   5.641
  101OSM    H8G10158   4.032   3.123   5.617
  101OSM    C9F10159   4.055   2.959   5.502
  101OSM    H9F10160   3.946   2.945   5.499
  101OSM   C10F10161   4.135   2.879   5.425
  101OSM   H10F10162   4.090   2.829   5.338
  101OSM   C11F10163   4.280   2.853   5.433
  101OSM   H11F10164   4.292   2.752   5.477
  101OSM   H11G10165   4.325   2.922   5.507
  101OSM   C12F10166   4.356   2.875   5.300
  101OSM   H12F10167   4.462   2.871   5.331
  101OSM   H12G10168   4.321   2.972   5.257
  101OSM   C13F10169   4.330   2.767   5.197
  101OSM   H13F10170   4.229   2.782   5.154
  101OSM   H13G10171   4.340   2.670   5.251
  101OSM   C14F10172   4.427   2.796   5.082
  101OSM   H14F10173   4.532   2.774   5.110
  101OSM   H14G10174   4.443   2.901   5.050
  101OSM   C15F10175   4.395   2.712   4.958
  101OSM   H15F10176   4.301   2.747   4.910
  101OSM   H15G10177   4.383   2.604   4.982
  101OSM   C16F10178   4.499   2.727   4.842
  101OSM   H16F10179   4.504   2.837   4.824
  101OSM   H16G10180   4.467   2.683   4.746
  101OSM   C17F10181   4.644   2.682   4.887
  101OSM   H17F10182   4.636   2.580   4.929
  101OSM   H17G10183   4.694   2.744   4.964
  101OSM   C18F10184   4.733   2.679   4.761
  101OSM   H18F10185   4.736   2.772   4.700
  101OSM   H18G10186   4.705   2.585   4.710
  101OSM   H18H10187   4.840   2.667   4.788
  102OSM      N10188   4.120   2.617   7.023
  102OSM    C1510189   4.192   2.686   7.134
  102OSM   H15A10190   4.166   2.791   7.134
  102OSM   H15B10191   4.297   2.669   7.120
  102OSM   H15C10192   4.159   2.638   7.225
  102OSM    C1410193   4.127   2.689   6.892
  102OSM   H14A10194   4.048   2.763   6.885
  102OSM   H14B10195   4.107   2.618   6.813
  102OSM   H14C10196   4.227   2.726   6.874
  102OSM    C1310197   4.176   2.476   7.008
  102OSM   H13A10198   4.284   2.474   7.008
  102OSM   H13B10199   4.133   2.430   6.921
  102OSM   H13C10200   4.140   2.415   7.089
  102OSM    C1210201   3.969   2.614   7.065
  102OSM   H12A10202   3.947   2.718   7.080
  102OSM   H12B10203   3.959   2.564   7.161
  102OSM    C1110204   3.862   2.550   6.968
  102OSM   H11A10205   3.862   2.611   6.875
  102OSM   H11B10206   3.765   2.557   7.022
  102OSM      P10207   3.810   2.299   6.886
  102OSM    O1310208   3.868   2.161   6.912
  102OSM    O1410209   3.665   2.317   6.924
  102OSM    O1110210   3.834   2.330   6.731
  102OSM    O1210211   3.898   2.409   6.951
  102OSM    C1S10212   3.963   2.371   6.675
  102OSM    H1S10213   4.044   2.297   6.692
  102OSM    H1T10214   3.993   2.469   6.718
  102OSM     NF10215   4.083   2.430   6.461
  102OSM    HNF10216   4.109   2.524   6.443
  102OSM    C2S10217   3.949   2.415   6.518
  102OSM    H2S10218   3.904   2.327   6.468
  102OSM    C3S10219   3.858   2.538   6.507
  102OSM    H3S10220   3.915   2.626   6.540
  102OSM     O310221   3.732   2.519   6.575
  102OSM    HO310222   3.746   2.429   6.608
  102OSM    C4S10223   3.828   2.559   6.357
  102OSM    H4S10224   3.733   2.517   6.318
  102OSM    C5S10225   3.896   2.639   6.282
  102OSM    H5S10226   3.977   2.700   6.325
  102OSM    C6S10227   3.878   2.665   6.135
  102OSM    H6S10228   3.976   2.649   6.085
  102OSM    H6T10229   3.861   2.775   6.124
  102OSM    C7S10230   3.767   2.595   6.056
  102OSM    H7S10231   3.670   2.601   6.109
  102OSM    H7T10232   3.796   2.488   6.050
  102OSM    C8S10233   3.740   2.662   5.919
  102OSM    H8S10234   3.748   2.772   5.932
  102OSM    H8T10235   3.641   2.633   5.878
  102OSM    C9S10236   3.846   2.609   5.814
  102OSM    H9S10237   3.834   2.500   5.802
  102OSM    H9T10238   3.938   2.640   5.867
  102OSM   C10S10239   3.828   2.681   5.671
  102OSM   H10S10240   3.931   2.695   5.632
  102OSM   H10T10241   3.775   2.776   5.696
  102OSM   C11S10242   3.741   2.603   5.578
  102OSM   H11S10243   3.639   2.585   5.618
  102OSM   H11T10244   3.788   2.502   5.571
  102OSM   C12S10245   3.718   2.655   5.430
  102OSM   H12S10246   3.692   2.762   5.439
  102OSM   H12T10247   3.637   2.601   5.377
  102OSM   C13S10248   3.849   2.656   5.338
  102OSM   H13S10249   3.865   2.558   5.288
  102OSM   H13T10250   3.935   2.659   5.408
  102OSM   C14S10251   3.847   2.763   5.227
  102OSM   H14S10252   3.938   2.753   5.163
  102OSM   H14T10253   3.832   2.867   5.261
  102OSM   C15S10254   3.729   2.735   5.127
  102OSM   H15S10255   3.636   2.759   5.182
  102OSM   H15T10256   3.714   2.627   5.109
  102OSM   C16S10257   3.736   2.819   4.997
  102OSM   H16S10258   3.837   2.812   4.952
  102OSM   H16T10259   3.715   2.925   5.023
  102OSM   C17S10260   3.647   2.785   4.881
  102OSM   H17S10261   3.668   2.681   4.851
  102OSM   H17T10262   3.683   2.849   4.797
  102OSM   C18S10263   3.504   2.820   4.909
  102OSM   H18S10264   3.474   2.756   4.995
  102OSM   H18T10265   3.443   2.802   4.817
  102OSM   H18U10266   3.486   2.923   4.945
  102OSM    C1F10267   4.171   2.335   6.442
  102OSM     OF10268   4.146   2.217   6.448
  102OSM    C2F10269   4.317   2.389   6.417
  102OSM    H2F10270   4.372   2.381   6.513
  102OSM    H2G10271   4.312   2.497   6.390
  102OSM    C3F10272   4.396   2.313   6.311
  102OSM    H3F10273   4.394   2.205   6.339
  102OSM    H3G10274   4.505   2.333   6.301
  102OSM    C4F10275   4.335   2.327   6.172
  102OSM    H4F10276   4.319   2.434   6.147
  102OSM    H4G10277   4.237   2.275   6.174
  102OSM    C5F10278   4.412   2.250   6.063
  102OSM    H5F10279   4.514   2.294   6.054
  102OSM    H5G10280   4.364   2.284   5.968
  102OSM    C6F10281   4.420   2.098   6.077
  102OSM    H6F10282   4.327   2.050   6.114
  102OSM    H6G10283   4.481   2.078   6.168
  102OSM    C7F10284   4.491   2.025   5.965
  102OSM    H7F10285   4.530   1.930   6.006
  102OSM    H7G10286   4.578   2.078   5.921
  102OSM    C8F10287   4.385   2.012   5.862
  102OSM    H8F10288   4.347   2.114   5.839
  102OSM    H8G10289   4.292   1.958   5.892
  102OSM    C9F10290   4.444   1.934   5.748
  102OSM    H9F10291   4.459   1.827   5.769
  102OSM   C10F10292   4.465   1.982   5.625
  102OSM   H10F10293   4.506   1.912   5.551
  102OSM   C11F10294   4.439   2.122   5.575
  102OSM   H11F10295   4.529   2.184   5.595
  102OSM   H11G10296   4.353   2.170   5.627
  102OSM   C12F10297   4.402   2.144   5.422
  102OSM   H12F10298   4.388   2.254   5.413
  102OSM   H12G10299   4.301   2.099   5.408
  102OSM   C13F10300   4.496   2.097   5.319
  102OSM   H13F10301   4.491   1.987   5.306
  102OSM   H13G10302   4.595   2.136   5.349
  102OSM   C14F10303   4.468   2.163   5.183
  102OSM   H14F10304   4.469   2.271   5.208
  102OSM   H14G10305   4.372   2.143   5.131
  102OSM   C15F10306   4.579   2.120   5.068
  102OSM   H15F10307   4.595   2.010   5.069
  102OSM   H15G10308   4.672   2.162   5.112
  102OSM   C16F10309   4.559   2.181   4.934
  102OSM   H16F10310   4.556   2.291   4.953
  102OSM   H16G10311   4.457   2.154   4.901
  102OSM   C17F10312   4.658   2.151   4.821
  102OSM   H17F10313   4.616   2.181   4.723
  102OSM   H17G10314   4.664   2.040   4.824
  102OSM   C18F10315   4.793   2.222   4.842
  102OSM   H18F10316   4.857   2.167   4.914
  102OSM   H18G10317   4.769   2.326   4.869
  102OSM   H18H10318   4.857   2.223   4.750
  103OSM      N10319   4.198   5.089   7.050
  103OSM    C1510320   4.208   4.961   7.128
  103OSM   H15A10321   4.193   4.873   7.067
  103OSM   H15B10322   4.136   4.963   7.208
  103OSM   H15C10323   4.304   4.949   7.176
  103OSM    C1410324   4.054   5.106   6.989
  103OSM   H14A10325   4.049   5.195   6.929
  103OSM   H14B10326   3.977   5.128   7.061
  103OSM   H14C10327   4.023   5.024   6.926
  103OSM    C1310328   4.208   5.206   7.140
  103OSM   H13A10329   4.149   5.190   7.229
  103OSM   H13B10330   4.191   5.299   7.088
  103OSM   H13C10331   4.308   5.213   7.181
  103OSM    C1210332   4.295   5.098   6.940
  103OSM   H12A10333   4.399   5.103   6.970
  103OSM   H12B10334   4.287   5.192   6.889
  103OSM    C1110335   4.298   4.985   6.831
  103OSM   H11A10336   4.343   4.895   6.879
  103OSM   H11B10337   4.363   5.011   6.745
  103OSM      P10338   4.137   4.795   6.747
  103OSM    O1310339   4.146   4.711   6.865
  103OSM    O1410340   4.019   4.791   6.663
  103OSM    O1110341   4.261   4.740   6.666
  103OSM    O1210342   4.169   4.941   6.781
  103OSM    C1S10343   4.259   4.621   6.590
  103OSM    H1S10344   4.225   4.532   6.648
  103OSM    H1T10345   4.362   4.589   6.564
  103OSM     NF10346   4.169   4.497   6.391
  103OSM    HNF10347   4.233   4.454   6.328
  103OSM    C2S10348   4.194   4.632   6.444
  103OSM    H2S10349   4.102   4.693   6.459
  103OSM    C3S10350   4.293   4.719   6.357
  103OSM    H3S10351   4.385   4.660   6.335
  103OSM     O310352   4.321   4.841   6.412
  103OSM    HO310353   4.283   4.844   6.500
  103OSM    C4S10354   4.233   4.745   6.226
  103OSM    H4S10355   4.137   4.799   6.238
  103OSM    C5S10356   4.277   4.713   6.102
  103OSM    H5S10357   4.365   4.647   6.103
  103OSM    C6S10358   4.214   4.750   5.970
  103OSM    H6S10359   4.145   4.665   5.948
  103OSM    H6T10360   4.294   4.747   5.893
  103OSM    C7S10361   4.154   4.892   5.960
  103OSM    H7S10362   4.238   4.964   5.967
  103OSM    H7T10363   4.082   4.906   6.044
  103OSM    C8S10364   4.074   4.925   5.832
  103OSM    H8S10365   3.997   5.002   5.852
  103OSM    H8T10366   4.030   4.824   5.816
  103OSM    C9S10367   4.161   4.959   5.714
  103OSM    H9S10368   4.250   4.893   5.715
  103OSM    H9T10369   4.200   5.063   5.721
  103OSM   C10S10370   4.091   4.924   5.579
  103OSM   H10S10371   4.000   4.987   5.566
  103OSM   H10T10372   4.060   4.817   5.579
  103OSM   C11S10373   4.182   4.958   5.459
  103OSM   H11S10374   4.288   4.932   5.481
  103OSM   H11T10375   4.184   5.067   5.443
  103OSM   C12S10376   4.137   4.877   5.336
  103OSM   H12S10377   4.028   4.890   5.319
  103OSM   H12T10378   4.154   4.768   5.342
  103OSM   C13S10379   4.204   4.912   5.204
  103OSM   H13S10380   4.312   4.903   5.228
  103OSM   H13T10381   4.176   5.016   5.177
  103OSM   C14S10382   4.181   4.816   5.089
  103OSM   H14S10383   4.205   4.716   5.132
  103OSM   H14T10384   4.256   4.826   5.008
  103OSM   C15S10385   4.033   4.831   5.028
  103OSM   H15S10386   4.033   4.932   4.981
  103OSM   H15T10387   3.953   4.830   5.105
  103OSM   C16S10388   4.005   4.721   4.927
  103OSM   H16S10389   4.089   4.707   4.856
  103OSM   H16T10390   3.917   4.755   4.868
  103OSM   C17S10391   3.959   4.594   4.994
  103OSM   H17S10392   3.860   4.616   5.039
  103OSM   H17T10393   4.044   4.569   5.062
  103OSM   C18S10394   3.953   4.471   4.901
  103OSM   H18S10395   3.887   4.509   4.821
  103OSM   H18T10396   3.902   4.387   4.955
  103OSM   H18U10397   4.048   4.431   4.862
  103OSM    C1F10398   4.071   4.433   6.450
  103OSM     OF10399   4.015   4.476   6.549
  103OSM    C2F10400   4.028   4.303   6.405
  103OSM    H2F10401   3.979   4.247   6.487
  103OSM    H2G10402   4.115   4.243   6.370
  103OSM    C3F10403   3.921   4.301   6.300
  103OSM    H3F10404   3.830   4.346   6.347
  103OSM    H3G10405   3.886   4.200   6.269
  103OSM    C4F10406   3.955   4.386   6.174
  103OSM    H4F10407   4.004   4.481   6.202
  103OSM    H4G10408   3.853   4.412   6.137
  103OSM    C5F10409   4.055   4.309   6.089
  103OSM    H5F10410   4.020   4.209   6.055
  103OSM    H5G10411   4.143   4.292   6.154
  103OSM    C6F10412   4.093   4.388   5.960
  103OSM    H6F10413   4.158   4.471   5.995
  103OSM    H6G10414   3.994   4.427   5.928
  103OSM    C7F10415   4.149   4.303   5.849
  103OSM    H7F10416   4.085   4.221   5.812
  103OSM    H7G10417   4.238   4.255   5.896
  103OSM    C8F10418   4.197   4.394   5.728
  103OSM    H8F10419   4.270   4.332   5.671
  103OSM    H8G10420   4.248   4.483   5.770
  103OSM    C9F10421   4.087   4.446   5.641
  103OSM    H9F10422   3.993   4.459   5.696
  103OSM   C10F10423   4.097   4.471   5.508
  103OSM   H10F10424   4.006   4.501   5.454
  103OSM   C11F10425   4.210   4.449   5.421
  103OSM   H11F10426   4.301   4.416   5.475
  103OSM   H11G10427   4.249   4.545   5.380
  103OSM   C12F10428   4.172   4.366   5.307
  103OSM   H12F10429   4.081   4.397   5.252
  103OSM   H12G10430   4.157   4.261   5.339
  103OSM   C13F10431   4.283   4.357   5.202
  103OSM   H13F10432   4.364   4.297   5.249
  103OSM   H13G10433   4.333   4.453   5.179
  103OSM   C14F10434   4.234   4.272   5.080
  103OSM   H14F10435   4.136   4.319   5.057
  103OSM   H14G10436   4.229   4.166   5.113
  103OSM   C15F10437   4.324   4.269   4.956
  103OSM   H15F10438   4.352   4.374   4.934
  103OSM   H15G10439   4.262   4.229   4.873
  103OSM   C16F10440   4.441   4.185   4.971
  103OSM   H16F10441   4.422   4.082   5.009
  103OSM   H16G10442   4.516   4.225   5.042
  103OSM   C17F10443   4.512   4.149   4.829
  103OSM   H17F10444   4.607   4.098   4.853
  103OSM   H17G10445   4.534   4.249   4.785
  103OSM   C18F10446   4.429   4.067   4.723
  103OSM   H18F10447   4.326   4.109   4.721
  103OSM   H18G10448   4.416   3.964   4.761
  103OSM   H18H10449   4.479   4.066   4.623
  104OSM      N10450   5.695   3.131   6.688
  104OSM    C1510451   5.778   3.158   6.803
  104OSM   H15A10452   5.877   3.114   6.795
  104OSM   H15B10453   5.728   3.118   6.890
  104OSM   H15C10454   5.776   3.263   6.828
  104OSM    C1410455   5.558   3.182   6.725
  104OSM   H14A10456   5.490   3.149   6.649
  104OSM   H14B10457   5.553   3.290   6.729
  104OSM   H14C10458   5.521   3.139   6.817
  104OSM    C1310459   5.740   3.217   6.578
  104OSM   H13A10460   5.728   3.321   6.603
  104OSM   H13B10461   5.680   3.209   6.489
  104OSM   H13C10462   5.843   3.200   6.549
  104OSM    C1210463   5.691   2.987   6.662
  104OSM   H12A10464   5.673   2.939   6.756
  104OSM   H12B10465   5.790   2.955   6.633
  104OSM    C1110466   5.594   2.931   6.557
  104OSM   H11A10467   5.634   2.837   6.512
  104OSM   H11B10468   5.588   3.004   6.474
  104OSM      P10469   5.447   2.791   6.713
  104OSM    O1310470   5.558   2.783   6.807
  104OSM    O1410471   5.317   2.816   6.778
  104OSM    O1110472   5.441   2.658   6.631
  104OSM    O1210473   5.461   2.915   6.610
  104OSM    C1S10474   5.355   2.635   6.516
  104OSM    H1S10475   5.277   2.714   6.502
  104OSM    H1T10476   5.307   2.537   6.532
  104OSM     NF10477   5.341   2.633   6.287
  104OSM    HNF10478   5.299   2.544   6.269
  104OSM    C2S10479   5.442   2.635   6.388
  104OSM    H2S10480   5.510   2.723   6.378
  104OSM    C3S10481   5.545   2.513   6.383
  104OSM    H3S10482   5.480   2.424   6.370
  104OSM     O310483   5.614   2.484   6.503
  104OSM    HO310484   5.577   2.548   6.564
  104OSM    C4S10485   5.637   2.527   6.265
  104OSM    H4S10486   5.594   2.480   6.175
  104OSM    C5S10487   5.755   2.588   6.262
  104OSM    H5S10488   5.797   2.638   6.350
  104OSM    C6S10489   5.833   2.595   6.127
  104OSM    H6S10490   5.910   2.515   6.122
  104OSM    H6T10491   5.883   2.693   6.108
  104OSM    C7S10492   5.747   2.572   5.995
  104OSM    H7S10493   5.651   2.629   5.992
  104OSM    H7T10494   5.724   2.464   5.997
  104OSM    C8S10495   5.833   2.613   5.879
  104OSM    H8S10496   5.941   2.614   5.906
  104OSM    H8T10497   5.803   2.720   5.867
  104OSM    C9S10498   5.798   2.563   5.741
  104OSM    H9S10499   5.692   2.589   5.719
  104OSM    H9T10500   5.801   2.453   5.727
  104OSM   C10S10501   5.882   2.631   5.631
  104OSM   H10S10502   5.991   2.613   5.644
  104OSM   H10T10503   5.857   2.739   5.647
  104OSM   C11S10504   5.844   2.583   5.493
  104OSM   H11S10505   5.733   2.579   5.489
  104OSM   H11T10506   5.902   2.490   5.477
  104OSM   C12S10507   5.887   2.680   5.382
  104OSM   H12S10508   5.996   2.703   5.375
  104OSM   H12T10509   5.850   2.780   5.410
  104OSM   C13S10510   5.838   2.632   5.244
  104OSM   H13S10511   5.730   2.605   5.252
  104OSM   H13T10512   5.893   2.540   5.215
  104OSM   C14S10513   5.852   2.738   5.133
  104OSM   H14S10514   5.958   2.744   5.104
  104OSM   H14T10515   5.819   2.837   5.171
  104OSM   C15S10516   5.772   2.699   4.999
  104OSM   H15S10517   5.664   2.689   5.025
  104OSM   H15T10518   5.799   2.600   4.956
  104OSM   C16S10519   5.778   2.812   4.891
  104OSM   H16S10520   5.885   2.834   4.875
  104OSM   H16T10521   5.729   2.903   4.933
  104OSM   C17S10522   5.712   2.773   4.762
  104OSM   H17S10523   5.606   2.745   4.778
  104OSM   H17T10524   5.755   2.680   4.719
  104OSM   C18S10525   5.707   2.883   4.652
  104OSM   H18S10526   5.707   2.984   4.699
  104OSM   H18T10527   5.614   2.866   4.593
  104OSM   H18U10528   5.790   2.875   4.579
  104OSM    C1F10529   5.290   2.743   6.225
  104OSM     OF10530   5.319   2.858   6.261
  104OSM    C2F10531   5.197   2.724   6.107
  104OSM    H2F10532   5.191   2.814   6.043
  104OSM    H2G10533   5.100   2.703   6.157
  104OSM    C3F10534   5.257   2.617   6.010
  104OSM    H3F10535   5.284   2.526   6.068
  104OSM    H3G10536   5.350   2.658   5.965
  104OSM    C4F10537   5.160   2.575   5.896
  104OSM    H4F10538   5.068   2.532   5.942
  104OSM    H4G10539   5.208   2.495   5.835
  104OSM    C5F10540   5.125   2.683   5.797
  104OSM    H5F10541   5.085   2.772   5.849
  104OSM    H5G10542   5.042   2.649   5.731
  104OSM    C6F10543   5.248   2.730   5.716
  104OSM    H6F10544   5.276   2.652   5.642
  104OSM    H6G10545   5.337   2.748   5.780
  104OSM    C7F10546   5.219   2.863   5.640
  104OSM    H7F10547   5.306   2.877   5.572
  104OSM    H7G10548   5.216   2.943   5.717
  104OSM    C8F10549   5.091   2.873   5.562
  104OSM    H8F10550   5.075   2.977   5.526
  104OSM    H8G10551   5.007   2.860   5.632
  104OSM    C9F10552   5.081   2.781   5.441
  104OSM    H9F10553   5.018   2.692   5.458
  104OSM   C10F10554   5.134   2.808   5.320
  104OSM   H10F10555   5.125   2.732   5.240
  104OSM   C11F10556   5.220   2.929   5.281
  104OSM   H11F10557   5.323   2.900   5.252
  104OSM   H11G10558   5.233   2.994   5.370
  104OSM   C12F10559   5.148   3.010   5.170
  104OSM   H12F10560   5.219   3.093   5.152
  104OSM   H12G10561   5.050   3.054   5.198
  104OSM   C13F10562   5.126   2.927   5.042
  104OSM   H13F10563   5.062   2.837   5.058
  104OSM   H13G10564   5.225   2.883   5.017
  104OSM   C14F10565   5.066   3.024   4.935
  104OSM   H14F10566   5.113   3.005   4.836
  104OSM   H14G10567   5.093   3.127   4.967
  104OSM   C15F10568   4.917   3.013   4.928
  104OSM   H15F10569   4.866   3.081   5.000
  104OSM   H15G10570   4.873   2.913   4.947
  104OSM   C16F10571   4.861   3.047   4.785
  104OSM   H16F10572   4.893   2.973   4.709
  104OSM   H16G10573   4.900   3.149   4.761
  104OSM   C17F10574   4.707   3.060   4.771
  104OSM   H17F10575   4.680   3.157   4.817
  104OSM   H17G10576   4.658   2.984   4.836
  104OSM   C18F10577   4.654   3.060   4.624
  104OSM   H18F10578   4.697   2.968   4.578
  104OSM   H18G10579   4.676   3.149   4.562
  104OSM   H18H10580   4.543   3.053   4.621
  105OSM      N10581   6.217   3.457   6.760
  105OSM    C1510582   6.214   3.606   6.765
  105OSM   H15A10583   6.115   3.645   6.782
  105OSM   H15B10584   6.261   3.655   6.681
  105OSM   H15C10585   6.277   3.633   6.849
  105OSM    C1410586   6.159   3.411   6.623
  105OSM   H14A10587   6.165   3.305   6.607
  105OSM   H14B10588   6.207   3.460   6.540
  105OSM   H14C10589   6.058   3.449   6.627
  105OSM    C1310590   6.354   3.407   6.767
  105OSM   H13A10591   6.414   3.438   6.851
  105OSM   H13B10592   6.416   3.439   6.684
  105OSM   H13C10593   6.365   3.300   6.773
  105OSM    C1210594   6.138   3.393   6.870
  105OSM   H12A10595   6.193   3.395   6.964
  105OSM   H12B10596   6.122   3.287   6.861
  105OSM    C1110597   6.000   3.456   6.900
  105OSM   H11A10598   6.023   3.559   6.932
  105OSM   H11B10599   5.954   3.399   6.983
  105OSM      P10600   5.772   3.540   6.802
  105OSM    O1310601   5.660   3.450   6.840
  105OSM    O1410602   5.793   3.654   6.898
  105OSM    O1110603   5.753   3.605   6.650
  105OSM    O1210604   5.910   3.466   6.794
  105OSM    C1S10605   5.865   3.593   6.570
  105OSM    H1S10606   5.891   3.486   6.553
  105OSM    H1T10607   5.951   3.651   6.610
  105OSM     NF10608   5.934   3.613   6.332
  105OSM    HNF10609   6.019   3.664   6.323
  105OSM    C2S10610   5.841   3.661   6.436
  105OSM    H2S10611   5.736   3.642   6.406
  105OSM    C3S10612   5.823   3.817   6.455
  105OSM    H3S10613   5.919   3.858   6.494
  105OSM     O310614   5.723   3.853   6.552
  105OSM    HO310615   5.713   3.773   6.605
  105OSM    C4S10616   5.806   3.885   6.322
  105OSM    H4S10617   5.901   3.908   6.272
  105OSM    C5S10618   5.688   3.903   6.258
  105OSM    H5S10619   5.593   3.894   6.312
  105OSM    C6S10620   5.676   3.950   6.114
  105OSM    H6S10621   5.671   4.061   6.111
  105OSM    H6T10622   5.577   3.915   6.076
  105OSM    C7S10623   5.789   3.907   6.018
  105OSM    H7S10624   5.818   3.801   6.034
  105OSM    H7T10625   5.878   3.960   6.058
  105OSM    C8S10626   5.749   3.946   5.876
  105OSM    H8S10627   5.845   3.982   5.833
  105OSM    H8T10628   5.686   4.036   5.866
  105OSM    C9S10629   5.708   3.822   5.797
  105OSM    H9S10630   5.605   3.801   5.833
  105OSM    H9T10631   5.761   3.727   5.816
  105OSM   C10S10632   5.730   3.858   5.652
  105OSM   H10S10633   5.834   3.880   5.619
  105OSM   H10T10634   5.687   3.956   5.623
  105OSM   C11S10635   5.685   3.754   5.553
  105OSM   H11S10636   5.577   3.735   5.572
  105OSM   H11T10637   5.732   3.654   5.556
  105OSM   C12S10638   5.700   3.796   5.408
  105OSM   H12S10639   5.808   3.806   5.385
  105OSM   H12T10640   5.649   3.894   5.408
  105OSM   C13S10641   5.634   3.704   5.304
  105OSM   H13S10642   5.523   3.714   5.296
  105OSM   H13T10643   5.665   3.602   5.336
  105OSM   C14S10644   5.707   3.732   5.169
  105OSM   H14S10645   5.808   3.686   5.171
  105OSM   H14T10646   5.723   3.841   5.154
  105OSM   C15S10647   5.640   3.666   5.048
  105OSM   H15S10648   5.533   3.696   5.042
  105OSM   H15T10649   5.642   3.555   5.039
  105OSM   C16S10650   5.686   3.717   4.906
  105OSM   H16S10651   5.789   3.679   4.892
  105OSM   H16T10652   5.684   3.828   4.902
  105OSM   C17S10653   5.590   3.672   4.797
  105OSM   H17S10654   5.499   3.731   4.820
  105OSM   H17T10655   5.589   3.561   4.797
  105OSM   C18S10656   5.625   3.715   4.656
  105OSM   H18S10657   5.612   3.826   4.658
  105OSM   H18T10658   5.563   3.654   4.587
  105OSM   H18U10659   5.734   3.695   4.642
  105OSM    C1F10660   5.930   3.490   6.285
  105OSM     OF10661   5.858   3.401   6.328
  105OSM    C2F10662   6.037   3.455   6.187
  105OSM    H2F10663   6.098   3.375   6.235
  105OSM    H2G10664   6.104   3.539   6.158
  105OSM    C3F10665   5.971   3.395   6.058
  105OSM    H3F10666   5.898   3.471   6.022
  105OSM    H3G10667   5.919   3.299   6.077
  105OSM    C4F10668   6.068   3.378   5.937
  105OSM    H4F10669   6.144   3.301   5.960
  105OSM    H4G10670   6.120   3.476   5.929
  105OSM    C5F10671   5.986   3.340   5.815
  105OSM    H5F10672   5.894   3.402   5.806
  105OSM    H5G10673   5.963   3.233   5.834
  105OSM    C6F10674   6.067   3.358   5.688
  105OSM    H6F10675   6.159   3.302   5.716
  105OSM    H6G10676   6.077   3.468   5.677
  105OSM    C7F10677   5.997   3.310   5.557
  105OSM    H7F10678   5.980   3.202   5.578
  105OSM    H7G10679   6.067   3.295   5.473
  105OSM    C8F10680   5.869   3.393   5.519
  105OSM    H8F10681   5.901   3.500   5.513
  105OSM    H8G10682   5.801   3.387   5.606
  105OSM    C9F10683   5.796   3.344   5.396
  105OSM    H9F10684   5.692   3.319   5.423
  105OSM   C10F10685   5.834   3.337   5.269
  105OSM   H10F10686   5.764   3.308   5.190
  105OSM   C11F10687   5.969   3.378   5.225
  105OSM   H11F10688   6.041   3.295   5.244
  105OSM   H11G10689   6.010   3.456   5.293
  105OSM   C12F10690   5.982   3.419   5.079
  105OSM   H12F10691   6.089   3.448   5.069
  105OSM   H12G10692   5.929   3.515   5.062
  105OSM   C13F10693   5.952   3.307   4.983
  105OSM   H13F10694   5.859   3.257   5.016
  105OSM   H13G10695   6.042   3.242   4.986
  105OSM   C14F10696   5.942   3.355   4.842
  105OSM   H14F10697   6.031   3.418   4.821
  105OSM   H14G10698   5.864   3.435   4.843
  105OSM   C15F10699   5.901   3.248   4.748
  105OSM   H15F10700   5.793   3.223   4.756
  105OSM   H15G10701   5.965   3.159   4.769
  105OSM   C16F10702   5.928   3.301   4.604
  105OSM   H16F10703   6.038   3.296   4.594
  105OSM   H16G10704   5.880   3.401   4.597
  105OSM   C17F10705   5.861   3.214   4.495
  105OSM   H17F10706   5.756   3.195   4.526
  105OSM   H17G10707   5.917   3.120   4.482
  105OSM   C18F10708   5.849   3.289   4.358
  105OSM   H18F10709   5.754   3.346   4.359
  105OSM   H18G10710   5.838   3.214   4.277
  105OSM   H18H10711   5.934   3.359   4.342
  106OSM      N10712   4.295   1.745   7.171
  106OSM    C1510713   4.227   1.721   7.305
  106OSM   H15A10714   4.228   1.614   7.320
  106OSM   H15B10715   4.134   1.776   7.293
  106OSM   H15C10716   4.281   1.772   7.383
  106OSM    C1410717   4.329   1.888   7.159
  106OSM   H14A10718   4.376   1.920   7.068
  106OSM   H14B10719   4.386   1.927   7.243
  106OSM   H14C10720   4.235   1.941   7.164
  106OSM    C1310721   4.428   1.667   7.170
  106OSM   H13A10722   4.492   1.720   7.239
  106OSM   H13B10723   4.472   1.680   7.073
  106OSM   H13C10724   4.411   1.562   7.191
  106OSM    C1210725   4.213   1.696   7.057
  106OSM   H12A10726   4.113   1.732   7.077
  106OSM   H12B10727   4.214   1.589   7.053
  106OSM    C1110728   4.249   1.732   6.907
  106OSM   H11A10729   4.261   1.842   6.895
  106OSM   H11B10730   4.161   1.706   6.844
  106OSM      P10731   4.342   1.515   6.812
  106OSM    O1310732   4.478   1.471   6.780
  106OSM    O1410733   4.264   1.439   6.912
  106OSM    O1110734   4.252   1.531   6.683
  106OSM    O1210735   4.363   1.661   6.865
  106OSM    C1S10736   4.298   1.636   6.603
  106OSM    H1S10737   4.409   1.632   6.597
  106OSM    H1T10738   4.256   1.734   6.633
  106OSM     NF10739   4.332   1.693   6.346
  106OSM    HNF10740   4.291   1.765   6.292
  106OSM    C2S10741   4.263   1.614   6.450
  106OSM    H2S10742   4.288   1.508   6.429
  106OSM    C3S10743   4.106   1.637   6.440
  106OSM    H3S10744   4.088   1.747   6.442
  106OSM     O310745   4.034   1.578   6.553
  106OSM    HO310746   4.105   1.548   6.610
  106OSM    C4S10747   4.059   1.570   6.313
  106OSM    H4S10748   4.058   1.460   6.311
  106OSM    C5S10749   4.007   1.645   6.207
  106OSM    H5S10750   4.007   1.755   6.217
  106OSM    C6S10751   3.939   1.584   6.083
  106OSM    H6S10752   3.829   1.567   6.093
  106OSM    H6T10753   3.990   1.488   6.058
  106OSM    C7S10754   3.967   1.670   5.958
  106OSM    H7S10755   3.896   1.755   5.969
  106OSM    H7T10756   3.928   1.613   5.871
  106OSM    C8S10757   4.104   1.721   5.927
  106OSM    H8S10758   4.130   1.788   6.012
  106OSM    H8T10759   4.110   1.795   5.845
  106OSM    C9S10760   4.216   1.617   5.914
  106OSM    H9S10761   4.211   1.550   6.003
  106OSM    H9T10762   4.313   1.669   5.928
  106OSM   C10S10763   4.210   1.532   5.790
  106OSM   H10S10764   4.129   1.458   5.803
  106OSM   H10T10765   4.309   1.484   5.778
  106OSM   C11S10766   4.192   1.612   5.656
  106OSM   H11S10767   4.252   1.704   5.638
  106OSM   H11T10768   4.086   1.642   5.643
  106OSM   C12S10769   4.219   1.534   5.526
  106OSM   H12S10770   4.151   1.447   5.531
  106OSM   H12T10771   4.322   1.493   5.517
  106OSM   C13S10772   4.182   1.610   5.393
  106OSM   H13S10773   4.101   1.684   5.408
  106OSM   H13T10774   4.149   1.539   5.314
  106OSM   C14S10775   4.304   1.686   5.336
  106OSM   H14S10776   4.390   1.617   5.321
  106OSM   H14T10777   4.319   1.773   5.404
  106OSM   C15S10778   4.272   1.737   5.195
  106OSM   H15S10779   4.220   1.658   5.137
  106OSM   H15T10780   4.369   1.762   5.146
  106OSM   C16S10781   4.174   1.852   5.199
  106OSM   H16S10782   4.212   1.909   5.287
  106OSM   H16T10783   4.077   1.812   5.237
  106OSM   C17S10784   4.175   1.938   5.071
  106OSM   H17S10785   4.276   1.976   5.046
  106OSM   H17T10786   4.111   2.025   5.097
  106OSM   C18S10787   4.109   1.868   4.952
  106OSM   H18S10788   4.014   1.825   4.992
  106OSM   H18T10789   4.185   1.794   4.919
  106OSM   H18U10790   4.080   1.945   4.877
  106OSM    C1F10791   4.459   1.663   6.312
  106OSM     OF10792   4.521   1.579   6.379
  106OSM    C2F10793   4.516   1.745   6.203
  106OSM    H2F10794   4.549   1.844   6.239
  106OSM    H2G10795   4.435   1.768   6.130
  106OSM    C3F10796   4.632   1.678   6.122
  106OSM    H3F10797   4.727   1.670   6.179
  106OSM    H3G10798   4.651   1.754   6.043
  106OSM    C4F10799   4.592   1.542   6.070
  106OSM    H4F10800   4.490   1.522   6.033
  106OSM    H4G10801   4.608   1.472   6.154
  106OSM    C5F10802   4.679   1.484   5.952
  106OSM    H5F10803   4.639   1.390   5.910
  106OSM    H5G10804   4.781   1.461   5.990
  106OSM    C6F10805   4.705   1.576   5.841
  106OSM    H6F10806   4.781   1.645   5.884
  106OSM    H6G10807   4.619   1.638   5.809
  106OSM    C7F10808   4.755   1.506   5.715
  106OSM    H7F10809   4.675   1.441   5.674
  106OSM    H7G10810   4.844   1.443   5.742
  106OSM    C8F10811   4.798   1.600   5.601
  106OSM    H8F10812   4.828   1.697   5.646
  106OSM    H8G10813   4.705   1.627   5.547
  106OSM    C9F10814   4.912   1.550   5.516
  106OSM    H9F10815   5.010   1.584   5.553
  106OSM   C10F10816   4.898   1.459   5.419
  106OSM   H10F10817   4.983   1.422   5.360
  106OSM   C11F10818   4.772   1.400   5.359
  106OSM   H11F10819   4.678   1.412   5.418
  106OSM   H11G10820   4.788   1.292   5.339
  106OSM   C12F10821   4.750   1.475   5.223
  106OSM   H12F10822   4.671   1.437   5.155
  106OSM   H12G10823   4.842   1.469   5.160
  106OSM   C13F10824   4.719   1.625   5.241
  106OSM   H13F10825   4.799   1.678   5.296
  106OSM   H13G10826   4.626   1.641   5.300
  106OSM   C14F10827   4.679   1.712   5.113
  106OSM   H14F10828   4.687   1.817   5.149
  106OSM   H14G10829   4.575   1.697   5.076
  106OSM   C15F10830   4.777   1.672   5.001
  106OSM   H15F10831   4.740   1.571   4.971
  106OSM   H15G10832   4.883   1.669   5.034
  106OSM   C16F10833   4.767   1.760   4.881
  106OSM   H16F10834   4.817   1.858   4.894
  106OSM   H16G10835   4.659   1.786   4.880
  106OSM   C17F10836   4.803   1.697   4.748
  106OSM   H17F10837   4.779   1.589   4.737
  106OSM   H17G10838   4.913   1.688   4.743
  106OSM   C18F10839   4.759   1.787   4.640
  106OSM   H18F10840   4.657   1.829   4.653
  106OSM   H18G10841   4.758   1.735   4.542
  106OSM   H18H10842   4.827   1.874   4.624
  107OSM      N10843   3.815   6.175   6.900
  107OSM    C1510844   3.829   6.066   6.997
  107OSM   H15A10845   3.775   6.085   7.088
  107OSM   H15B10846   3.935   6.057   7.015
  107OSM   H15C10847   3.794   5.968   6.969
  107OSM    C1410848   3.831   6.306   6.977
  107OSM   H14A10849   3.765   6.308   7.062
  107OSM   H14B10850   3.810   6.393   6.916
  107OSM   H14C10851   3.937   6.318   6.996
  107OSM    C1310852   3.916   6.171   6.792
  107OSM   H13A10853   3.889   6.088   6.727
  107OSM   H13B10854   4.020   6.160   6.819
  107OSM   H13C10855   3.904   6.267   6.743
  107OSM    C1210856   3.670   6.178   6.843
  107OSM   H12A10857   3.600   6.157   6.922
  107OSM   H12B10858   3.673   6.085   6.787
  107OSM    C1110859   3.622   6.294   6.757
  107OSM   H11A10860   3.531   6.263   6.703
  107OSM   H11B10861   3.715   6.315   6.699
  107OSM      P10862   3.597   6.546   6.834
  107OSM    O1310863   3.478   6.611   6.888
  107OSM    O1410864   3.730   6.585   6.893
  107OSM    O1110865   3.606   6.577   6.684
  107OSM    O1210866   3.579   6.394   6.851
  107OSM    C1S10867   3.495   6.555   6.594
  107OSM    H1S10868   3.417   6.632   6.613
  107OSM    H1T10869   3.434   6.464   6.616
  107OSM     NF10870   3.404   6.591   6.360
  107OSM    HNF10871   3.396   6.521   6.290
  107OSM    C2S10872   3.529   6.569   6.448
  107OSM    H2S10873   3.581   6.667   6.445
  107OSM    C3S10874   3.626   6.460   6.409
  107OSM    H3S10875   3.572   6.364   6.423
  107OSM     O310876   3.744   6.464   6.491
  107OSM    HO310877   3.706   6.510   6.566
  107OSM    C4S10878   3.674   6.475   6.266
  107OSM    H4S10879   3.708   6.577   6.244
  107OSM    C5S10880   3.663   6.383   6.169
  107OSM    H5S10881   3.622   6.284   6.192
  107OSM    C6S10882   3.705   6.412   6.025
  107OSM    H6S10883   3.783   6.341   5.990
  107OSM    H6T10884   3.755   6.511   6.013
  107OSM    C7S10885   3.590   6.399   5.918
  107OSM    H7S10886   3.499   6.454   5.950
  107OSM    H7T10887   3.569   6.290   5.905
  107OSM    C8S10888   3.627   6.444   5.778
  107OSM    H8S10889   3.682   6.540   5.787
  107OSM    H8T10890   3.532   6.457   5.723
  107OSM    C9S10891   3.723   6.348   5.700
  107OSM    H9S10892   3.686   6.243   5.709
  107OSM    H9T10893   3.819   6.350   5.756
  107OSM   C10S10894   3.737   6.405   5.563
  107OSM   H10S10895   3.748   6.515   5.573
  107OSM   H10T10896   3.647   6.385   5.500
  107OSM   C11S10897   3.856   6.344   5.489
  107OSM   H11S10898   3.841   6.233   5.490
  107OSM   H11T10899   3.947   6.359   5.550
  107OSM   C12S10900   3.883   6.390   5.354
  107OSM   H12S10901   3.991   6.418   5.346
  107OSM   H12T10902   3.825   6.484   5.342
  107OSM   C13S10903   3.866   6.285   5.243
  107OSM   H13S10904   3.759   6.256   5.234
  107OSM   H13T10905   3.929   6.194   5.250
  107OSM   C14S10906   3.894   6.340   5.097
  107OSM   H14S10907   4.003   6.361   5.089
  107OSM   H14T10908   3.846   6.440   5.085
  107OSM   C15S10909   3.860   6.246   4.982
  107OSM   H15S10910   3.753   6.218   4.976
  107OSM   H15T10911   3.915   6.151   4.993
  107OSM   C16S10912   3.895   6.306   4.844
  107OSM   H16S10913   4.004   6.329   4.848
  107OSM   H16T10914   3.839   6.401   4.830
  107OSM   C17S10915   3.883   6.212   4.726
  107OSM   H17S10916   3.889   6.273   4.633
  107OSM   H17T10917   3.790   6.155   4.745
  107OSM   C18S10918   3.997   6.107   4.723
  107OSM   H18S10919   4.090   6.160   4.693
  107OSM   H18T10920   3.982   6.018   4.658
  107OSM   H18U10921   4.017   6.072   4.826
  107OSM    C1F10922   3.323   6.694   6.368
  107OSM     OF10923   3.346   6.792   6.432
  107OSM    C2F10924   3.194   6.688   6.300
  107OSM    H2F10925   3.123   6.733   6.373
  107OSM    H2G10926   3.165   6.585   6.274
  107OSM    C3F10927   3.207   6.761   6.160
  107OSM    H3F10928   3.233   0.075   6.179
  107OSM    H3G10929   3.108   6.758   6.108
  107OSM    C4F10930   3.309   6.700   6.068
  107OSM    H4F10931   3.292   6.591   6.062
  107OSM    H4G10932   3.411   6.705   6.112
  107OSM    C5F10933   3.303   6.765   5.933
  107OSM    H5F10934   3.320   0.082   5.935
  107OSM    H5G10935   3.204   6.742   5.889
  107OSM    C6F10936   3.414   6.696   5.851
  107OSM    H6F10937   3.383   6.590   5.844
  107OSM    H6G10938   3.512   6.717   5.900
  107OSM    C7F10939   3.419   6.750   5.706
  107OSM    H7F10940   3.503   6.707   5.647
  107OSM    H7G10941   3.435   0.067   5.714
  107OSM    C8F10942   3.288   6.734   5.621
  107OSM    H8F10943   3.299   6.766   5.515
  107OSM    H8G10944   3.210   0.004   5.667
  107OSM    C9F10945   3.232   6.593   5.623
  107OSM    H9F10946   3.142   6.586   5.686
  107OSM   C10F10947   3.274   6.485   5.549
  107OSM   H10F10948   3.230   6.386   5.566
  107OSM   C11F10949   3.384   6.463   5.449
  107OSM   H11F10950   3.430   6.364   5.468
  107OSM   H11G10951   3.458   6.546   5.460
  107OSM   C12F10952   3.332   6.460   5.310
  107OSM   H12F10953   3.314   6.565   5.280
  107OSM   H12G10954   3.237   6.405   5.296
  107OSM   C13F10955   3.429   6.385   5.211
  107OSM   H13F10956   3.442   6.279   5.242
  107OSM   H13G10957   3.531   6.427   5.227
  107OSM   C14F10958   3.401   6.413   5.061
  107OSM   H14F10959   3.418   6.522   5.047
  107OSM   H14G10960   3.296   6.392   5.031
  107OSM   C15F10961   3.472   6.338   4.949
  107OSM   H15F10962   3.580   6.363   4.957
  107OSM   H15G10963   3.444   6.377   4.849
  107OSM   C16F10964   3.460   6.186   4.951
  107OSM   H16F10965   3.487   6.151   5.053
  107OSM   H16G10966   3.531   6.132   4.884
  107OSM   C17F10967   3.314   6.142   4.926
  107OSM   H17F10968   3.268   6.201   4.844
  107OSM   H17G10969   3.267   6.167   5.024
  107OSM   C18F10970   3.301   5.990   4.898
  107OSM   H18F10971   3.311   5.978   4.788
  107OSM   H18G10972   3.200   5.947   4.917
  107OSM   H18H10973   3.370   5.933   4.964
  108OSM      N10974   6.652   5.508   6.912
  108OSM    C1510975   6.746   5.599   6.995
  108OSM   H15A10976   6.758   5.562   7.096
  108OSM   H15B10977   6.715   5.702   6.989
  108OSM   H15C10978   0.051   5.603   6.949
  108OSM    C1410979   6.713   5.368   6.903
  108OSM   H14A10980   6.671   5.313   6.820
  108OSM   H14B10981   6.694   5.308   6.990
  108OSM   H14C10982   0.028   5.371   6.895
  108OSM    C1310983   6.522   5.504   6.990
  108OSM   H13A10984   6.459   5.427   6.949
  108OSM   H13B10985   6.473   5.600   6.974
  108OSM   H13C10986   6.543   5.480   7.093
  108OSM    C1210987   6.638   5.572   6.774
  108OSM   H12A10988   6.710   5.523   6.711
  108OSM   H12B10989   6.654   5.679   6.776
  108OSM    C1110990   6.498   5.544   6.708
  108OSM   H11A10991   6.477   5.437   6.732
  108OSM   H11B10992   6.500   5.541   6.597
  108OSM      P10993   6.350   5.748   6.685
  108OSM    O1310994   6.219   5.802   6.733
  108OSM    O1410995   6.476   5.833   6.675
  108OSM    O1110996   6.328   5.696   6.536
  108OSM    O1210997   6.382   5.616   6.758
  108OSM    C1S10998   6.297   5.797   6.441
  108OSM    H1S10999   6.372   5.879   6.436
  108OSM    H1T11000   6.192   5.833   6.450
  108OSM     NF11001   6.290   5.840   6.187
  108OSM    HNF11002   6.198   5.861   6.155
  108OSM    C2S11003   6.312   5.743   6.296
  108OSM    H2S11004   6.414   5.700   6.290
  108OSM    C3S11005   6.210   5.617   6.282
  108OSM    H3S11006   6.110   5.663   6.268
  108OSM     O311007   6.185   5.539   6.399
  108OSM    HO311008   6.258   5.574   6.451
  108OSM    C4S11009   6.220   5.537   6.164
  108OSM    H4S11010   6.174   5.578   6.073
  108OSM    C5S11011   6.303   5.429   6.147
  108OSM    H5S11012   6.361   5.396   6.234
  108OSM    C6S11013   6.338   5.355   6.012
  108OSM    H6S11014   6.300   5.251   6.019
  108OSM    H6T11015   6.448   5.353   6.000
  108OSM    C7S11016   6.275   5.413   5.881
  108OSM    H7S11017   6.310   5.518   5.875
  108OSM    H7T11018   6.164   5.413   5.883
  108OSM    C8S11019   6.324   5.337   5.760
  108OSM    H8S11020   6.280   5.239   5.789
  108OSM    H8T11021   6.434   5.319   5.762
  108OSM    C9S11022   6.267   5.394   5.633
  108OSM    H9S11023   6.308   5.496   5.620
  108OSM    H9T11024   6.156   5.401   5.640
  108OSM   C10S11025   6.307   5.309   5.517
  108OSM   H10S11026   6.276   5.203   5.530
  108OSM   H10T11027   6.418   5.311   5.504
  108OSM   C11S11028   6.242   5.357   5.387
  108OSM   H11S11029   6.248   5.467   5.390
  108OSM   H11T11030   6.136   5.323   5.381
  108OSM   C12S11031   6.323   5.318   5.271
  108OSM   H12S11032   6.331   5.207   5.267
  108OSM   H12T11033   6.426   5.361   5.274
  108OSM   C13S11034   6.251   5.367   5.139
  108OSM   H13S11035   6.220   5.473   5.152
  108OSM   H13T11036   6.157   5.309   5.132
  108OSM   C14S11037   6.343   5.343   5.023
  108OSM   H14S11038   6.361   5.235   5.004
  108OSM   H14T11039   6.443   5.389   5.043
  108OSM   C15S11040   6.290   5.394   4.894
  108OSM   H15S11041   6.278   5.504   4.886
  108OSM   H15T11042   6.192   5.345   4.877
  108OSM   C16S11043   6.388   5.356   4.786
  108OSM   H16S11044   6.424   5.254   4.810
  108OSM   H16T11045   6.473   5.428   4.792
  108OSM   C17S11046   6.340   5.372   4.635
  108OSM   H17S11047   6.241   5.322   4.627
  108OSM   H17T11048   6.417   5.333   4.564
  108OSM   C18S11049   6.300   5.517   4.586
  108OSM   H18S11050   6.377   5.579   4.638
  108OSM   H18T11051   6.198   5.532   4.626
  108OSM   H18U11052   6.306   5.515   4.475
  108OSM    C1F11053   6.386   5.927   6.161
  108OSM     OF11054   6.500   5.913   6.205
  108OSM    C2F11055   6.343   6.048   6.082
  108OSM    H2F11056   6.306   6.117   6.161
  108OSM    H2G11057   6.264   6.012   6.012
  108OSM    C3F11058   6.446   6.108   5.984
  108OSM    H3F11059   6.540   6.143   6.033
  108OSM    H3G11060   6.400   6.205   5.956
  108OSM    C4F11061   6.481   6.026   5.863
  108OSM    H4F11062   6.398   5.956   5.841
  108OSM    H4G11063   6.574   5.972   5.889
  108OSM    C5F11064   6.511   6.101   5.742
  108OSM    H5F11065   6.609   6.070   5.700
  108OSM    H5G11066   6.523   6.210   5.763
  108OSM    C6F11067   6.410   6.082   5.628
  108OSM    H6F11068   6.314   6.134   5.646
  108OSM    H6G11069   6.382   5.974   5.627
  108OSM    C7F11070   6.475   6.117   5.495
  108OSM    H7F11071   6.570   6.058   5.493
  108OSM    H7G11072   6.496   6.226   5.492
  108OSM    C8F11073   6.389   6.086   5.361
  108OSM    H8F11074   6.290   6.136   5.363
  108OSM    H8G11075   6.371   5.976   5.353
  108OSM    C9F11076   6.478   6.126   5.244
  108OSM    H9F11077   6.580   6.083   5.245
  108OSM   C10F11078   6.444   6.214   5.154
  108OSM   H10F11079   6.519   6.261   5.089
  108OSM   C11F11080   6.314   6.294   5.153
  108OSM   H11F11081   6.267   6.303   5.254
  108OSM   H11G11082   6.243   6.254   5.078
  108OSM   C12F11083   6.322   6.439   5.107
  108OSM   H12F11084   6.372   6.438   5.007
  108OSM   H12G11085   6.394   6.489   5.175
  108OSM   C13F11086   6.188   6.506   5.091
  108OSM   H13F11087   6.145   6.527   5.191
  108OSM   H13G11088   6.121   6.444   5.027
  108OSM   C14F11089   6.208   6.643   5.030
  108OSM   H14F11090   6.110   6.691   5.006
  108OSM   H14G11091   6.260   6.636   4.933
  108OSM   C15F11092   6.300   6.735   5.110
  108OSM   H15F11093   6.315   0.044   5.067
  108OSM   H15G11094   6.399   6.684   5.105
  108OSM   C16F11095   6.249   6.761   5.258
  108OSM   H16F11096   6.336   0.012   5.311
  108OSM   H16G11097   6.229   6.663   5.307
  108OSM   C17F11098   6.133   0.071   5.264
  108OSM   H17F11099   6.050   6.792   5.251
  108OSM   H17G11100   6.131   0.151   5.186
  108OSM   C18F11101   6.113   0.130   5.401
  108OSM   H18F11102   6.120   0.057   5.484
  108OSM   H18G11103   6.022   0.193   5.407
  108OSM   H18H11104   6.196   0.202   5.420
  109OSM      N11105   2.092   2.634   6.963
  109OSM    C1511106   2.149   2.698   7.085
  109OSM   H15A11107   2.070   2.739   7.146
  109OSM   H15B11108   2.225   2.773   7.067
  109OSM   H15C11109   2.193   2.621   7.146
  109OSM    C1411110   1.971   2.545   6.989
  109OSM   H14A11111   2.003   2.470   7.060
  109OSM   H14B11112   1.946   2.503   6.893
  109OSM   H14C11113   1.894   2.604   7.036
  109OSM    C1311114   2.036   2.745   6.881
  109OSM   H13A11115   1.942   2.786   6.915
  109OSM   H13B11116   2.006   2.710   6.783
  109OSM   H13C11117   2.111   2.821   6.864
  109OSM    C1211118   2.206   2.561   6.885
  109OSM   H12A11119   2.277   2.634   6.850
  109OSM   H12B11120   2.158   2.521   6.797
  109OSM    C1111121   2.279   2.456   6.964
  109OSM   H11A11122   2.305   2.499   7.063
  109OSM   H11B11123   2.379   2.426   6.925
  109OSM      P11124   2.179   2.236   6.868
  109OSM    O1311125   2.122   2.108   6.932
  109OSM    O1411126   2.105   2.299   6.758
  109OSM    O1111127   2.337   2.220   6.824
  109OSM    O1211128   2.192   2.346   6.981
  109OSM    C1S11129   2.379   2.190   6.688
  109OSM    H1S11130   2.299   2.161   6.616
  109OSM    H1T11131   2.425   2.089   6.684
  109OSM     NF11132   2.490   2.252   6.477
  109OSM    HNF11133   2.553   2.177   6.460
  109OSM    C2S11134   2.474   2.291   6.618
  109OSM    H2S11135   2.438   2.396   6.617
  109OSM    C3S11136   2.611   2.293   6.698
  109OSM    H3S11137   2.644   2.187   6.702
  109OSM     O311138   2.595   2.337   6.834
  109OSM    HO311139   2.501   2.329   6.853
  109OSM    C4S11140   2.715   2.375   6.621
  109OSM    H4S11141   2.745   2.330   6.525
  109OSM    C5S11142   2.762   2.505   6.651
  109OSM    H5S11143   2.711   2.561   6.732
  109OSM    C6S11144   2.865   2.584   6.572
  109OSM    H6S11145   2.931   2.634   6.646
  109OSM    H6T11146   2.812   2.670   6.524
  109OSM    C7S11147   2.948   2.512   6.463
  109OSM    H7S11148   2.988   2.413   6.493
  109OSM    H7T11149   3.032   2.582   6.441
  109OSM    C8S11150   2.862   2.503   6.333
  109OSM    H8S11151   2.815   2.602   6.321
  109OSM    H8T11152   2.777   2.433   6.349
  109OSM    C9S11153   2.943   2.471   6.203
  109OSM    H9S11154   2.999   2.378   6.223
  109OSM    H9T11155   3.012   2.557   6.188
  109OSM   C10S11156   2.852   2.443   6.083
  109OSM   H10S11157   2.800   2.538   6.058
  109OSM   H10T11158   2.793   2.358   6.121
  109OSM   C11S11159   2.932   2.394   5.963
  109OSM   H11S11160   2.868   2.365   5.877
  109OSM   H11T11161   2.988   2.306   6.000
  109OSM   C12S11162   3.039   2.485   5.914
  109OSM   H12S11163   3.110   2.488   6.000
  109OSM   H12T11164   3.027   2.593   5.891
  109OSM   C13S11165   3.112   2.424   5.790
  109OSM   H13S11166   3.144   2.321   5.816
  109OSM   H13T11167   3.204   2.485   5.778
  109OSM   C14S11168   3.032   2.430   5.660
  109OSM   H14S11169   2.980   2.526   5.645
  109OSM   H14T11170   2.953   2.352   5.667
  109OSM   C15S11171   3.127   2.404   5.537
  109OSM   H15S11172   3.194   2.324   5.575
  109OSM   H15T11173   3.175   2.501   5.513
  109OSM   C16S11174   3.057   2.346   5.416
  109OSM   H16S11175   3.021   2.244   5.444
  109OSM   H16T11176   3.131   2.330   5.335
  109OSM   C17S11177   2.941   2.436   5.361
  109OSM   H17S11178   3.002   2.524   5.332
  109OSM   H17T11179   2.865   2.467   5.437
  109OSM   C18S11180   2.872   2.385   5.239
  109OSM   H18S11181   2.811   2.468   5.197
  109OSM   H18T11182   2.822   2.287   5.249
  109OSM   H18U11183   2.940   2.357   5.156
  109OSM    C1F11184   2.390   2.276   6.388
  109OSM     OF11185   2.288   2.329   6.416
  109OSM    C2F11186   2.401   2.216   6.251
  109OSM    H2F11187   2.382   2.303   6.185
  109OSM    H2G11188   2.328   2.134   6.234
  109OSM    C3F11189   2.545   2.150   6.225
  109OSM    H3F11190   2.564   2.080   6.309
  109OSM    H3G11191   2.619   2.232   6.219
  109OSM    C4F11192   2.556   2.078   6.088
  109OSM    H4F11193   2.472   2.005   6.086
  109OSM    H4G11194   2.654   2.029   6.105
  109OSM    C5F11195   2.564   2.168   5.967
  109OSM    H5F11196   2.647   2.240   5.985
  109OSM    H5G11197   2.462   2.210   5.955
  109OSM    C6F11198   2.604   2.082   5.842
  109OSM    H6F11199   2.539   1.993   5.826
  109OSM    H6G11200   2.704   2.037   5.859
  109OSM    C7F11201   2.639   2.172   5.723
  109OSM    H7F11202   2.738   2.222   5.734
  109OSM    H7G11203   2.561   2.251   5.714
  109OSM    C8F11204   2.658   2.074   5.596
  109OSM    H8F11205   2.740   2.006   5.629
  109OSM    H8G11206   2.690   2.136   5.510
  109OSM    C9F11207   2.522   2.012   5.562
  109OSM    H9F11208   2.462   1.948   5.629
  109OSM   C10F11209   2.477   2.004   5.438
  109OSM   H10F11210   2.379   1.954   5.429
  109OSM   C11F11211   2.520   2.064   5.310
  109OSM   H11F11212   2.631   2.071   5.311
  109OSM   H11G11213   2.503   2.173   5.315
  109OSM   C12F11214   2.469   1.991   5.185
  109OSM   H12F11215   2.359   1.980   5.195
  109OSM   H12G11216   2.525   1.896   5.197
  109OSM   C13F11217   2.495   2.058   5.056
  109OSM   H13F11218   2.490   1.982   4.974
  109OSM   H13G11219   2.593   2.108   5.040
  109OSM   C14F11220   2.381   2.151   5.045
  109OSM   H14F11221   2.376   2.223   5.130
  109OSM   H14G11222   2.283   2.100   5.043
  109OSM   C15F11223   2.388   2.225   4.910
  109OSM   H15F11224   2.363   2.147   4.836
  109OSM   H15G11225   2.490   2.264   4.889
  109OSM   C16F11226   2.277   2.326   4.899
  109OSM   H16F11227   2.311   2.415   4.955
  109OSM   H16G11228   2.179   2.301   4.946
  109OSM   C17F11229   2.249   2.352   4.752
  109OSM   H17F11230   2.220   2.254   4.708
  109OSM   H17G11231   2.342   2.377   4.696
  109OSM   C18F11232   2.142   2.452   4.716
  109OSM   H18F11233   2.124   2.459   4.607
  109OSM   H18G11234   2.157   2.548   4.770
  109OSM   H18H11235   2.054   2.402   4.761
  110OSM      N11236   5.431   6.736   7.000
  110OSM    C1511237   5.516   6.662   6.898
  110OSM   H15A11238   5.611   6.710   6.883
  110OSM   H15B11239   5.463   6.663   6.804
  110OSM   H15C11240   5.525   6.556   6.917
  110OSM    C1411241   5.484   6.704   7.136
  110OSM   H14A11242   5.429   6.754   7.215
  110OSM   H14B11243   5.587   6.726   7.159
  110OSM   H14C11244   5.468   6.598   7.151
  110OSM    C1311245   5.432   0.088   6.979
  110OSM   H13A11246   5.530   0.127   6.958
  110OSM   H13B11247   5.411   0.133   7.075
  110OSM   H13C11248   5.363   0.114   6.900
  110OSM    C1211249   5.296   6.683   6.992
  110OSM   H12A11250   5.231   6.730   7.064
  110OSM   H12B11251   5.312   6.578   7.012
  110OSM    C1111252   5.218   6.682   6.854
  110OSM   H11A11253   5.213   6.790   6.826
  110OSM   H11B11254   5.123   6.634   6.884
  110OSM      P11255   5.205   6.568   6.611
  110OSM    O1311256   5.301   6.521   6.516
  110OSM    O1411257   5.088   6.479   6.639
  110OSM    O1111258   5.140   6.707   6.573
  110OSM    O1211259   5.278   6.599   6.751
  110OSM    C1S11260   5.217   0.023   6.527
  110OSM    H1S11261   5.326   0.008   6.538
  110OSM    H1T11262   5.213   0.117   6.586
  110OSM     NF11263   5.284   0.121   6.307
  110OSM    HNF11264   5.280   0.220   6.306
  110OSM    C2S11265   5.176   0.055   6.380
  110OSM    H2S11266   5.162   6.746   6.338
  110OSM    C3S11267   5.036   0.123   6.373
  110OSM    H3S11268   5.034   0.222   6.423
  110OSM     O311269   4.933   0.053   6.446
  110OSM    HO311270   4.982   6.778   6.493
  110OSM    C4S11271   4.983   0.136   6.233
  110OSM    H4S11272   4.953   0.043   6.184
  110OSM    C5S11273   4.948   0.255   6.182
  110OSM    H5S11274   4.962   0.338   6.253
  110OSM    C6S11275   4.875   0.289   6.057
  110OSM    H6S11276   4.909   0.389   6.021
  110OSM    H6T11277   4.765   0.299   6.066
  110OSM    C7S11278   4.897   0.187   5.938
  110OSM    H7S11279   4.842   0.093   5.963
  110OSM    H7T11280   5.000   0.150   5.920
  110OSM    C8S11281   4.843   0.245   5.809
  110OSM    H8S11282   4.901   0.333   5.776
  110OSM    H8T11283   4.742   0.282   5.837
  110OSM    C9S11284   4.832   0.144   5.693
  110OSM    H9S11285   4.771   0.055   5.719
  110OSM    H9T11286   4.931   0.095   5.685
  110OSM   C10S11287   4.798   0.212   5.560
  110OSM   H10S11288   4.872   0.294   5.545
  110OSM   H10T11289   4.695   0.254   5.561
  110OSM   C11S11290   4.825   0.122   5.438
  110OSM   H11S11291   4.931   0.088   5.434
  110OSM   H11T11292   4.813   0.181   5.344
  110OSM   C12S11293   4.742   6.785   5.430
  110OSM   H12S11294   4.646   6.791   5.486
  110OSM   H12T11295   4.785   6.705   5.494
  110OSM   C13S11296   4.728   6.733   5.288
  110OSM   H13S11297   4.665   0.014   5.235
  110OSM   H13T11298   4.672   6.637   5.298
  110OSM   C14S11299   4.862   6.722   5.215
  110OSM   H14S11300   4.934   6.650   5.260
  110OSM   H14T11301   4.914   0.028   5.214
  110OSM   C15S11302   4.842   6.676   5.069
  110OSM   H15S11303   4.787   6.756   5.015
  110OSM   H15T11304   4.781   6.583   5.073
  110OSM   C16S11305   4.971   6.641   5.006
  110OSM   H16S11306   5.027   6.574   5.076
  110OSM   H16T11307   5.039   6.728   4.991
  110OSM   C17S11308   4.960   6.566   4.875
  110OSM   H17S11309   4.921   6.630   4.793
  110OSM   H17T11310   4.880   6.489   4.880
  110OSM   C18S11311   5.097   6.504   4.824
  110OSM   H18S11312   5.170   6.587   4.813
  110OSM   H18T11313   5.087   6.446   4.729
  110OSM   H18U11314   5.137   6.429   4.896
  110OSM    C1F11315   5.391   0.044   6.279
  110OSM     OF11316   5.394   6.718   6.303
  110OSM    C2F11317   5.515   0.120   6.222
  110OSM    H2F11318   5.594   0.043   6.234
  110OSM    H2G11319   5.532   0.212   6.282
  110OSM    C3F11320   5.513   0.155   6.068
  110OSM    H3F11321   5.474   0.076   5.999
  110OSM    H3G11322   5.619   0.161   6.036
  110OSM    C4F11323   5.453   0.292   6.040
  110OSM    H4F11324   5.498   0.368   6.108
  110OSM    H4G11325   5.344   0.289   6.056
  110OSM    C5F11326   5.460   0.334   5.888
  110OSM    H5F11327   5.570   0.337   5.867
  110OSM    H5G11328   5.425   0.437   5.868
  110OSM    C6F11329   5.369   0.253   5.793
  110OSM    H6F11330   5.273   0.241   5.848
  110OSM    H6G11331   5.419   0.158   5.767
  110OSM    C7F11332   5.336   0.321   5.659
  110OSM    H7F11333   5.419   0.352   5.593
  110OSM    H7G11334   5.275   0.413   5.675
  110OSM    C8F11335   5.227   0.240   5.579
  110OSM    H8F11336   5.197   0.299   5.490
  110OSM    H8G11337   5.132   0.224   5.635
  110OSM    C9F11338   5.286   0.113   5.530
  110OSM    H9F11339   5.361   0.072   5.599
  110OSM   C10F11340   5.293   0.069   5.406
  110OSM   H10F11341   5.361   6.776   5.397
  110OSM   C11F11342   5.208   0.123   5.300
  110OSM   H11F11343   5.110   0.157   5.342
  110OSM   H11G11344   5.184   0.044   5.226
  110OSM   C12F11345   5.260   0.248   5.224
  110OSM   H12F11346   5.365   0.230   5.193
  110OSM   H12G11347   5.249   0.334   5.294
  110OSM   C13F11348   5.178   0.277   5.098
  110OSM   H13F11349   5.173   0.184   5.037
  110OSM   H13G11350   5.221   0.361   5.040
  110OSM   C14F11351   5.033   0.314   5.127
  110OSM   H14F11352   5.024   0.412   5.178
  110OSM   H14G11353   4.990   0.250   5.207
  110OSM   C15F11354   4.937   0.326   5.003
  110OSM   H15F11355   4.845   0.374   5.043
  110OSM   H15G11356   4.914   0.222   4.973
  110OSM   C16F11357   4.996   0.406   4.890
  110OSM   H16F11358   5.063   0.340   4.831
  110OSM   H16G11359   5.055   0.488   4.935
  110OSM   C17F11360   4.885   0.463   4.798
  110OSM   H17F11361   4.820   0.530   4.857
  110OSM   H17G11362   4.825   0.381   4.752
  110OSM   C18F11363   4.944   0.539   4.676
  110OSM   H18F11364   5.008   0.473   4.613
  110OSM   H18G11365   5.007   0.625   4.709
  110OSM   H18H11366   4.862   0.580   4.613
  111OSM      N11367   1.367   3.699   6.386
  111OSM    C1511368   1.257   3.802   6.398
  111OSM   H15A11369   1.286   3.905   6.387
  111OSM   H15B11370   1.225   3.788   6.500
  111OSM   H15C11371   1.175   3.772   6.335
  111OSM    C1411372   1.427   3.711   6.251
  111OSM   H14A11373   1.345   3.709   6.180
  111OSM   H14B11374   1.488   3.626   6.226
  111OSM   H14C11375   1.488   3.799   6.241
  111OSM    C1311376   1.472   3.726   6.499
  111OSM   H13A11377   1.551   3.652   6.497
  111OSM   H13B11378   1.419   3.732   6.593
  111OSM   H13C11379   1.519   3.822   6.491
  111OSM    C1211380   1.304   3.568   6.404
  111OSM   H12A11381   1.247   3.565   6.495
  111OSM   H12B11382   1.383   3.495   6.417
  111OSM    C1111383   1.220   3.519   6.291
  111OSM   H11A11384   1.185   3.418   6.320
  111OSM   H11B11385   1.284   3.505   6.201
  111OSM      P11386   0.984   3.592   6.344
  111OSM    O1311387   0.939   3.459   6.319
  111OSM    O1411388   1.011   3.635   6.486
  111OSM    O1111389   0.873   3.691   6.294
  111OSM    O1211390   1.110   3.617   6.255
  111OSM    C1S11391   0.908   3.823   6.241
  111OSM    H1S11392   1.016   3.842   6.221
  111OSM    H1T11393   0.886   3.905   6.312
  111OSM     NF11394   0.882   3.974   6.051
  111OSM    HNF11395   0.821   4.051   6.067
  111OSM    C2S11396   0.836   3.853   6.113
  111OSM    H2S11397   0.853   3.771   6.040
  111OSM    C3S11398   0.679   3.857   6.127
  111OSM    H3S11399   0.666   3.945   6.195
  111OSM     O311400   0.618   3.740   6.189
  111OSM    HO311401   0.684   3.703   6.248
  111OSM    C4S11402   0.622   3.910   5.999
  111OSM    H4S11403   0.614   4.019   6.007
  111OSM    C5S11404   0.569   3.846   5.888
  111OSM    H5S11405   0.561   3.736   5.887
  111OSM    C6S11406   0.513   3.910   5.764
  111OSM    H6S11407   0.409   3.872   5.750
  111OSM    H6T11408   0.575   3.873   5.680
  111OSM    C7S11409   0.512   4.061   5.756
  111OSM    H7S11410   0.607   4.116   5.771
  111OSM    H7T11411   0.461   4.094   5.849
  111OSM    C8S11412   0.436   4.118   5.628
  111OSM    H8S11413   0.417   4.226   5.641
  111OSM    H8T11414   0.333   4.077   5.636
  111OSM    C9S11415   0.505   4.094   5.500
  111OSM    H9S11416   0.537   3.988   5.488
  111OSM    H9T11417   0.594   4.160   5.492
  111OSM   C10S11418   0.417   4.123   5.375
  111OSM   H10S11419   0.308   4.107   5.388
  111OSM   H10T11420   0.455   4.066   5.288
  111OSM   C11S11421   0.431   4.276   5.348
  111OSM   H11S11422   0.540   4.299   5.351
  111OSM   H11T11423   0.372   4.329   5.426
  111OSM   C12S11424   0.383   4.312   5.212
  111OSM   H12S11425   0.274   4.310   5.189
  111OSM   H12T11426   0.417   4.231   5.144
  111OSM   C13S11427   0.427   4.453   5.160
  111OSM   H13S11428   0.509   4.473   5.232
  111OSM   H13T11429   0.346   4.527   5.179
  111OSM   C14S11430   0.457   4.467   5.010
  111OSM   H14S11431   0.502   4.371   4.977
  111OSM   H14T11432   0.524   4.552   4.986
  111OSM   C15S11433   0.332   4.480   4.918
  111OSM   H15S11434   0.267   4.558   4.962
  111OSM   H15T11435   0.271   4.387   4.923
  111OSM   C16S11436   0.375   4.518   4.771
  111OSM   H16S11437   0.411   4.623   4.760
  111OSM   H16T11438   0.291   4.509   4.699
  111OSM   C17S11439   0.488   4.424   4.717
  111OSM   H17S11440   0.439   4.325   4.711
  111OSM   H17T11441   0.577   4.416   4.784
  111OSM   C18S11442   0.539   4.481   4.584
  111OSM   H18S11443   0.465   4.489   4.501
  111OSM   H18T11444   0.603   4.410   4.527
  111OSM   H18U11445   0.594   4.577   4.597
  111OSM    C1F11446   0.997   3.993   5.995
  111OSM     OF11447   1.097   3.917   6.000
  111OSM    C2F11448   1.013   4.124   5.920
  111OSM    H2F11449   1.121   4.146   5.925
  111OSM    H2G11450   0.966   4.198   5.988
  111OSM    C3F11451   0.962   4.144   5.777
  111OSM    H3F11452   0.991   4.243   5.736
  111OSM    H3G11453   0.852   4.154   5.783
  111OSM    C4F11454   0.992   4.019   5.684
  111OSM    H4F11455   0.983   3.916   5.724
  111OSM    H4G11456   1.092   4.036   5.639
  111OSM    C5F11457   0.891   4.009   5.553
  111OSM    H5F11458   0.794   3.998   5.606
  111OSM    H5G11459   0.921   3.916   5.500
  111OSM    C6F11460   0.908   4.126   5.455
  111OSM    H6F11461   1.017   4.142   5.435
  111OSM    H6G11462   0.871   4.224   5.492
  111OSM    C7F11463   0.844   4.078   5.323
  111OSM    H7F11464   0.739   4.048   5.342
  111OSM    H7G11465   0.889   3.985   5.284
  111OSM    C8F11466   0.845   4.187   5.213
  111OSM    H8F11467   0.951   4.199   5.182
  111OSM    H8G11468   0.810   4.279   5.264
  111OSM    C9F11469   0.747   4.158   5.097
  111OSM    H9F11470   0.647   4.122   5.125
  111OSM   C10F11471   0.763   4.187   4.966
  111OSM   H10F11472   0.693   4.146   4.891
  111OSM   C11F11473   0.878   4.252   4.911
  111OSM   H11F11474   0.975   4.225   4.956
  111OSM   H11G11475   0.867   4.362   4.922
  111OSM   C12F11476   0.876   4.209   4.763
  111OSM   H12F11477   0.781   4.241   4.715
  111OSM   H12G11478   0.893   4.099   4.756
  111OSM   C13F11479   0.978   4.286   4.675
  111OSM   H13F11480   1.029   4.211   4.611
  111OSM   H13G11481   1.058   4.324   4.742
  111OSM   C14F11482   0.926   4.389   4.579
  111OSM   H14F11483   0.843   4.342   4.522
  111OSM   H14G11484   1.013   4.404   4.512
  111OSM   C15F11485   0.885   4.527   4.646
  111OSM   H15F11486   0.957   4.549   4.728
  111OSM   H15G11487   0.781   4.516   4.686
  111OSM   C16F11488   0.895   4.647   4.548
  111OSM   H16F11489   0.992   4.701   4.560
  111OSM   H16G11490   0.819   4.721   4.580
  111OSM   C17F11491   0.860   4.624   4.397
  111OSM   H17F11492   0.762   4.572   4.393
  111OSM   H17G11493   0.931   4.556   4.346
  111OSM   C18F11494   0.863   4.767   4.330
  111OSM   H18F11495   0.961   4.819   4.345
  111OSM   H18G11496   0.784   4.832   4.374
  111OSM   H18H11497   0.850   4.760   4.220
  112OSM      N11498   3.342   1.815   7.511
  112OSM    C1511499   3.388   1.933   7.599
  112OSM   H15A11500   3.343   2.024   7.562
  112OSM   H15B11501   3.496   1.942   7.607
  112OSM   H15C11502   3.348   1.931   7.699
  112OSM    C1411503   3.408   1.684   7.558
  112OSM   H14A11504   3.389   1.663   7.662
  112OSM   H14B11505   3.514   1.705   7.551
  112OSM   H14C11506   3.389   1.601   7.491
  112OSM    C1311507   3.195   1.799   7.536
  112OSM   H13A11508   3.174   1.776   7.639
  112OSM   H13B11509   3.149   1.718   7.481
  112OSM   H13C11510   3.143   1.891   7.515
  112OSM    C1211511   3.377   1.828   7.362
  112OSM   H12A11512   3.482   1.853   7.352
  112OSM   H12B11513   3.322   1.917   7.335
  112OSM    C1111514   3.329   1.707   7.272
  112OSM   H11A11515   3.333   1.733   7.164
  112OSM   H11B11516   3.223   1.678   7.283
  112OSM      P11517   3.534   1.554   7.204
  112OSM    O1311518   3.651   1.618   7.268
  112OSM    O1411519   3.536   1.402   7.202
  112OSM    O1111520   3.507   1.609   7.061
  112OSM    O1211521   3.403   1.587   7.294
  112OSM    C1S11522   3.597   1.581   6.954
  112OSM    H1S11523   3.594   1.472   6.932
  112OSM    H1T11524   3.701   1.608   6.984
  112OSM     NF11525   3.663   1.601   6.715
  112OSM    HNF11526   3.735   1.661   6.681
  112OSM    C2S11527   3.577   1.657   6.821
  112OSM    H2S11528   3.475   1.628   6.787
  112OSM    C3S11529   3.586   1.807   6.861
  112OSM    H3S11530   3.687   1.820   6.904
  112OSM     O311531   3.502   1.851   6.967
  112OSM    HO311532   3.479   1.770   7.012
  112OSM    C4S11533   3.571   1.884   6.744
  112OSM    H4S11534   3.473   1.885   6.695
  112OSM    C5S11535   3.657   1.972   6.698
  112OSM    H5S11536   3.755   1.992   6.744
  112OSM    C6S11537   3.624   2.056   6.582
  112OSM    H6S11538   3.590   2.153   6.621
  112OSM    H6T11539   3.545   2.009   6.520
  112OSM    C7S11540   3.755   2.078   6.496
  112OSM    H7S11541   3.815   1.986   6.478
  112OSM    H7T11542   3.830   2.146   6.543
  112OSM    C8S11543   3.724   2.143   6.354
  112OSM    H8S11544   3.706   2.252   6.362
  112OSM    H8T11545   3.628   2.103   6.317
  112OSM    C9S11546   3.823   2.121   6.242
  112OSM    H9S11547   3.773   2.062   6.162
  112OSM    H9T11548   3.914   2.064   6.274
  112OSM   C10S11549   3.885   2.243   6.183
  112OSM   H10S11550   3.949   2.283   6.264
  112OSM   H10T11551   3.810   2.321   6.157
  112OSM   C11S11552   3.982   2.213   6.075
  112OSM   H11S11553   4.035   2.118   6.098
  112OSM   H11T11554   4.057   2.295   6.071
  112OSM   C12S11555   3.913   2.199   5.936
  112OSM   H12S11556   3.887   2.296   5.888
  112OSM   H12T11557   3.827   2.128   5.936
  112OSM   C13S11558   4.005   2.137   5.831
  112OSM   H13S11559   4.016   2.034   5.872
  112OSM   H13T11560   4.104   2.187   5.819
  112OSM   C14S11561   3.935   2.132   5.695
  112OSM   H14S11562   3.924   2.230   5.645
  112OSM   H14T11563   3.834   2.096   5.725
  112OSM   C15S11564   3.998   2.037   5.594
  112OSM   H15S11565   3.976   1.931   5.619
  112OSM   H15T11566   4.108   2.048   5.602
  112OSM   C16S11567   3.974   2.061   5.445
  112OSM   H16S11568   4.047   2.006   5.381
  112OSM   H16T11569   3.975   2.170   5.423
  112OSM   C17S11570   3.831   2.011   5.405
  112OSM   H17S11571   3.744   2.053   5.460
  112OSM   H17T11572   3.842   1.903   5.427
  112OSM   C18S11573   3.810   2.006   5.251
  112OSM   H18S11574   3.882   1.941   5.197
  112OSM   H18T11575   3.828   2.112   5.222
  112OSM   H18U11576   3.703   1.984   5.232
  112OSM    C1F11577   3.652   1.479   6.658
  112OSM     OF11578   3.562   1.398   6.689
  112OSM    C2F11579   3.746   1.440   6.549
  112OSM    H2F11580   3.838   1.401   6.597
  112OSM    H2G11581   3.764   1.534   6.492
  112OSM    C3F11582   3.699   1.333   6.453
  112OSM    H3F11583   3.592   1.344   6.426
  112OSM    H3G11584   3.705   1.231   6.496
  112OSM    C4F11585   3.772   1.331   6.317
  112OSM    H4F11586   3.882   1.342   6.335
  112OSM    H4G11587   3.728   1.412   6.257
  112OSM    C5F11588   3.752   1.201   6.245
  112OSM    H5F11589   3.650   1.187   6.202
  112OSM    H5G11590   3.781   1.129   6.324
  112OSM    C6F11591   3.859   1.180   6.137
  112OSM    H6F11592   3.885   1.072   6.136
  112OSM    H6G11593   3.948   1.244   6.157
  112OSM    C7F11594   3.817   1.237   6.002
  112OSM    H7F11595   3.797   1.345   6.016
  112OSM    H7G11596   3.726   1.192   5.958
  112OSM    C8F11597   3.925   1.223   5.893
  112OSM    H8F11598   4.007   1.280   5.942
  112OSM    H8G11599   3.891   1.283   5.806
  112OSM    C9F11600   3.968   1.091   5.859
  112OSM    H9F11601   4.020   1.040   5.942
  112OSM   C10F11602   3.963   1.031   5.738
  112OSM   H10F11603   3.999   0.927   5.739
  112OSM   C11F11604   3.917   1.091   5.610
  112OSM   H11F11605   3.822   1.145   5.631
  112OSM   H11G11606   3.891   1.006   5.544
  112OSM   C12F11607   4.031   1.166   5.538
  112OSM   H12F11608   4.124   1.105   5.534
  112OSM   H12G11609   4.047   1.256   5.600
  112OSM   C13F11610   3.990   1.215   5.396
  112OSM   H13F11611   4.067   1.289   5.363
  112OSM   H13G11612   3.892   1.264   5.412
  112OSM   C14F11613   4.000   1.114   5.281
  112OSM   H14F11614   3.954   1.018   5.314
  112OSM   H14G11615   4.107   1.092   5.260
  112OSM   C15F11616   3.942   1.165   5.144
  112OSM   H15F11617   4.003   1.252   5.113
  112OSM   H15G11618   3.839   1.206   5.148
  112OSM   C16F11619   3.948   1.072   5.027
  112OSM   H16F11620   3.864   0.999   5.015
  112OSM   H16G11621   4.046   1.020   5.027
  112OSM   C17F11622   3.944   1.145   4.893
  112OSM   H17F11623   4.025   1.221   4.884
  112OSM   H17G11624   3.844   1.193   4.891
  112OSM   C18F11625   3.974   1.050   4.777
  112OSM   H18F11626   3.975   1.105   4.680
  112OSM   H18G11627   3.895   0.972   4.774
  112OSM   H18H11628   4.068   1.004   4.814
  113OSM      N11629   0.715   1.931   6.553
  113OSM    C1511630   0.614   1.911   6.660
  113OSM   H15A11631   0.546   1.831   6.636
  113OSM   H15B11632   0.554   2.000   6.669
  113OSM   H15C11633   0.662   1.889   6.754
  113OSM    C1411634   0.645   1.996   6.428
  113OSM   H14A11635   0.581   1.925   6.378
  113OSM   H14B11636   0.717   2.025   6.353
  113OSM   H14C11637   0.580   2.075   6.461
  113OSM    C1311638   0.810   2.038   6.593
  113OSM   H13A11639   0.754   2.130   6.597
  113OSM   H13B11640   0.894   2.050   6.526
  113OSM   H13C11641   0.856   2.023   6.690
  113OSM    C1211642   0.792   1.802   6.522
  113OSM   H12A11643   0.846   1.774   6.611
  113OSM   H12B11644   0.870   1.827   6.452
  113OSM    C1111645   0.716   1.674   6.477
  113OSM   H11A11646   0.784   1.590   6.452
  113OSM   H11B11647   0.663   1.693   6.381
  113OSM      P11648   0.509   1.531   6.551
  113OSM    O1311649   0.563   1.395   6.530
  113OSM    O1411650   0.412   1.542   6.664
  113OSM    O1111651   0.444   1.584   6.414
  113OSM    O1211652   0.622   1.638   6.581
  113OSM    C1S11653   0.439   1.510   6.295
  113OSM    H1S11654   0.399   1.409   6.316
  113OSM    H1T11655   0.540   1.507   6.249
  113OSM     NF11656   0.328   1.486   6.076
  113OSM    HNF11657   0.393   1.494   6.002
  113OSM    C2S11658   0.350   1.579   6.190
  113OSM    H2S11659   0.253   1.601   6.239
  113OSM    C3S11660   0.406   1.722   6.139
  113OSM    H3S11661   0.509   1.695   6.107
  113OSM     O311662   0.427   1.812   6.257
  113OSM    HO311663   0.433   1.757   6.336
  113OSM    C4S11664   0.328   1.779   6.027
  113OSM    H4S11665   0.353   1.727   5.933
  113OSM    C5S11666   0.230   1.871   6.036
  113OSM    H5S11667   0.213   1.922   6.132
  113OSM    C6S11668   0.137   1.914   5.923
  113OSM    H6S11669   0.126   2.025   5.928
  113OSM    H6T11670   0.035   1.882   5.952
  113OSM    C7S11671   0.179   1.873   5.776
  113OSM    H7S11672   0.188   1.763   5.764
  113OSM    H7T11673   0.278   1.923   5.775
  113OSM    C8S11674   0.078   1.929   5.664
  113OSM    H8S11675   0.084   2.039   5.649
  113OSM    H8T11676   6.767   1.900   5.692
  113OSM    C9S11677   0.108   1.869   5.526
  113OSM    H9S11678   0.058   1.770   5.526
  113OSM    H9T11679   0.218   1.855   5.513
  113OSM   C10S11680   0.056   1.956   5.406
  113OSM   H10S11681   0.114   2.051   5.404
  113OSM   H10T11682   6.743   1.981   5.427
  113OSM   C11S11683   0.062   1.883   5.270
  113OSM   H11S11684   0.010   1.786   5.280
  113OSM   H11T11685   0.167   1.851   5.253
  113OSM   C12S11686   6.792   1.958   5.157
  113OSM   H12S11687   0.055   2.052   5.145
  113OSM   H12T11688   6.686   1.971   5.191
  113OSM   C13S11689   6.786   1.878   5.033
  113OSM   H13S11690   6.714   1.794   5.049
  113OSM   H13T11691   0.095   1.843   5.006
  113OSM   C14S11692   6.751   1.957   4.908
  113OSM   H14S11693   0.042   2.029   4.894
  113OSM   H14T11694   6.652   2.003   4.927
  113OSM   C15S11695   6.731   1.869   4.782
  113OSM   H15S11696   0.023   1.800   4.765
  113OSM   H15T11697   6.708   1.930   4.692
  113OSM   C16S11698   6.607   1.776   4.796
  113OSM   H16S11699   6.524   1.850   4.793
  113OSM   H16T11700   6.597   1.723   4.893
  113OSM   C17S11701   6.592   1.683   4.672
  113OSM   H17S11702   6.682   1.618   4.678
  113OSM   H17T11703   6.593   1.745   4.580
  113OSM   C18S11704   6.468   1.595   4.655
  113OSM   H18S11705   6.376   1.647   4.688
  113OSM   H18T11706   6.484   1.500   4.711
  113OSM   H18U11707   6.434   1.568   4.552
  113OSM    C1F11708   0.241   1.385   6.082
  113OSM     OF11709   0.185   1.352   6.183
  113OSM    C2F11710   0.230   1.305   5.959
  113OSM    H2F11711   0.218   1.202   5.999
  113OSM    H2G11712   0.307   1.339   5.886
  113OSM    C3F11713   0.089   1.332   5.896
  113OSM    H3F11714   0.090   1.431   5.845
  113OSM    H3G11715   0.014   1.319   5.977
  113OSM    C4F11716   0.059   1.222   5.790
  113OSM    H4F11717   6.748   1.246   5.757
  113OSM    H4G11718   0.052   1.128   5.849
  113OSM    C5F11719   0.151   1.219   5.670
  113OSM    H5F11720   0.255   1.188   5.694
  113OSM    H5G11721   0.157   1.320   5.622
  113OSM    C6F11722   0.096   1.120   5.548
  113OSM    H6F11723   6.779   1.136   5.544
  113OSM    H6G11724   0.125   1.017   5.577
  113OSM    C7F11725   0.166   1.149   5.415
  113OSM    H7F11726   0.276   1.129   5.412
  113OSM    H7G11727   0.176   1.256   5.388
  113OSM    C8F11728   0.090   1.069   5.305
  113OSM    H8F11729   6.785   1.118   5.288
  113OSM    H8G11730   0.070   0.962   5.326
  113OSM    C9F11731   0.163   1.072   5.172
  113OSM    H9F11732   0.272   1.056   5.171
  113OSM   C10F11733   0.113   1.099   5.047
  113OSM   H10F11734   0.182   1.101   4.961
  113OSM   C11F11735   6.764   1.128   5.015
  113OSM   H11F11736   6.697   1.106   5.101
  113OSM   H11G11737   6.734   1.058   4.934
  113OSM   C12F11738   6.753   1.274   4.967
  113OSM   H12F11739   6.784   1.335   5.054
  113OSM   H12G11740   6.652   1.311   4.939
  113OSM   C13F11741   0.039   1.295   4.835
  113OSM   H13F11742   0.148   1.276   4.846
  113OSM   H13G11743   0.030   1.400   4.801
  113OSM   C14F11744   6.793   1.200   4.712
  113OSM   H14F11745   0.013   1.090   4.727
  113OSM   H14G11746   0.073   1.220   4.631
  113OSM   C15F11747   6.647   1.208   4.670
  113OSM   H15F11748   6.605   1.308   4.644
  113OSM   H15G11749   6.576   1.177   4.749
  113OSM   C16F11750   6.620   1.123   4.550
  113OSM   H16F11751   6.650   1.021   4.580
  113OSM   H16G11752   6.694   1.152   4.472
  113OSM   C17F11753   6.481   1.126   4.494
  113OSM   H17F11754   6.402   1.078   4.555
  113OSM   H17G11755   6.489   1.071   4.398
  113OSM   C18F11756   6.426   1.263   4.455
  113OSM   H18F11757   6.505   1.330   4.417
  113OSM   H18G11758   6.388   1.321   4.542
  113OSM   H18H11759   6.351   1.258   4.373
  114OSM      N11760   0.315   0.346   6.885
  114OSM    C1511761   0.460   0.390   6.899
  114OSM   H15A11762   0.521   0.326   6.838
  114OSM   H15B11763   0.498   0.371   6.999
  114OSM   H15C11764   0.477   0.493   6.870
  114OSM    C1411765   0.302   0.319   6.732
  114OSM   H14A11766   0.204   0.284   6.703
  114OSM   H14B11767   0.382   0.265   6.684
  114OSM   H14C11768   0.308   0.420   6.692
  114OSM    C1311769   0.300   0.219   6.964
  114OSM   H13A11770   0.306   0.240   7.070
  114OSM   H13B11771   0.379   0.145   6.955
  114OSM   H13C11772   0.207   0.168   6.943
  114OSM    C1211773   0.217   0.456   6.923
  114OSM   H12A11774   0.233   0.547   6.866
  114OSM   H12B11775   0.232   0.485   7.026
  114OSM    C1111776   0.067   0.417   6.909
  114OSM   H11A11777   0.052   0.404   6.800
  114OSM   H11B11778   0.009   0.508   6.937
  114OSM      P11779   6.678   0.251   6.981
  114OSM    O1311780   6.667   0.113   7.040
  114OSM    O1411781   6.580   0.352   7.019
  114OSM    O1111782   6.654   0.219   6.828
  114OSM    O1211783   0.029   0.304   6.995
  114OSM    C1S11784   6.704   0.096   6.770
  114OSM    H1S11785   6.661   0.010   6.826
  114OSM    H1T11786   0.022   0.091   6.779
  114OSM     NF11787   6.713   6.743   6.580
  114OSM    HNF11788   0.014   6.742   6.548
  114OSM    C2S11789   6.670   0.082   6.616
  114OSM    H2S11790   6.561   0.098   6.607
  114OSM    C3S11791   6.747   0.195   6.544
  114OSM    H3S11792   0.062   0.177   6.567
  114OSM     O311793   6.735   0.326   6.598
  114OSM    HO311794   6.682   0.321   6.678
  114OSM    C4S11795   6.713   0.184   6.395
  114OSM    H4S11796   6.764   0.102   6.342
  114OSM    C5S11797   6.610   0.251   6.339
  114OSM    H5S11798   6.541   0.315   6.395
  114OSM    C6S11799   6.569   0.224   6.197
  114OSM    H6S11800   6.575   0.320   6.141
  114OSM    H6T11801   6.461   0.203   6.191
  114OSM    C7S11802   6.646   0.115   6.118
  114OSM    H7S11803   6.635   0.021   6.175
  114OSM    H7T11804   6.754   0.141   6.120
  114OSM    C8S11805   6.580   0.091   5.981
  114OSM    H8S11806   6.478   0.047   5.991
  114OSM    H8T11807   6.647   0.017   5.933
  114OSM    C9S11808   6.575   0.216   5.890
  114OSM    H9S11809   6.679   0.251   5.875
  114OSM    H9T11810   6.511   0.303   5.916
  114OSM   C10S11811   6.539   0.165   5.753
  114OSM   H10S11812   6.435   0.125   5.750
  114OSM   H10T11813   6.606   0.078   5.733
  114OSM   C11S11814   6.557   0.272   5.645
  114OSM   H11S11815   6.660   0.313   5.651
  114OSM   H11T11816   6.496   0.360   5.677
  114OSM   C12S11817   6.507   0.226   5.503
  114OSM   H12S11818   6.396   0.216   5.512
  114OSM   H12T11819   6.555   0.132   5.469
  114OSM   C13S11820   6.527   0.337   5.395
  114OSM   H13S11821   6.636   0.359   5.398
  114OSM   H13T11822   6.485   0.439   5.410
  114OSM   C14S11823   6.483   0.290   5.259
  114OSM   H14S11824   6.379   0.251   5.265
  114OSM   H14T11825   6.540   0.200   5.226
  114OSM   C15S11826   6.490   0.401   5.143
  114OSM   H15S11827   6.586   0.457   5.136
  114OSM   H15T11828   6.417   0.479   5.171
  114OSM   C16S11829   6.457   0.345   5.006
  114OSM   H16S11830   6.457   0.425   4.929
  114OSM   H16T11831   6.354   0.304   5.020
  114OSM   C17S11832   6.548   0.239   4.952
  114OSM   H17S11833   6.518   0.216   4.847
  114OSM   H17T11834   6.538   0.152   5.020
  114OSM   C18S11835   6.693   0.290   4.961
  114OSM   H18S11836   6.761   0.218   4.909
  114OSM   H18T11837   6.733   0.321   5.060
  114OSM   H18U11838   6.695   0.375   4.890
  114OSM    C1F11839   6.642   6.625   6.610
  114OSM     OF11840   6.527   6.628   6.645
  114OSM    C2F11841   6.713   6.497   6.587
  114OSM    H2F11842   6.670   6.429   6.664
  114OSM    H2G11843   0.030   6.501   6.601
  114OSM    C3F11844   6.683   6.454   6.445
  114OSM    H3F11845   6.575   6.466   6.421
  114OSM    H3G11846   6.731   6.353   6.446
  114OSM    C4F11847   6.751   6.520   6.322
  114OSM    H4F11848   0.068   6.526   6.342
  114OSM    H4G11849   6.712   6.621   6.301
  114OSM    C5F11850   6.726   6.445   6.195
  114OSM    H5F11851   6.617   6.423   6.192
  114OSM    H5G11852   6.775   6.345   6.194
  114OSM    C6F11853   6.764   6.522   6.068
  114OSM    H6F11854   0.059   6.590   6.073
  114OSM    H6G11855   6.686   6.600   6.057
  114OSM    C7F11856   6.756   6.437   5.935
  114OSM    H7F11857   6.667   6.372   5.948
  114OSM    H7G11858   0.062   6.389   5.923
  114OSM    C8F11859   6.732   6.519   5.808
  114OSM    H8F11860   0.012   6.602   5.795
  114OSM    H8G11861   6.637   6.575   5.824
  114OSM    C9F11862   6.726   6.449   5.679
  114OSM    H9F11863   0.001   6.362   5.672
  114OSM   C10F11864   6.653   6.486   5.566
  114OSM   H10F11865   6.649   6.423   5.476
  114OSM   C11F11866   6.557   6.598   5.550
  114OSM   H11F11867   6.596   6.666   5.471
  114OSM   H11G11868   6.564   6.664   5.639
  114OSM   C12F11869   6.416   6.555   5.522
  114OSM   H12F11870   6.410   6.499   5.426
  114OSM   H12G11871   6.347   6.641   5.508
  114OSM   C13F11872   6.357   6.463   5.628
  114OSM   H13F11873   6.352   6.521   5.723
  114OSM   H13G11874   6.408   6.368   5.655
  114OSM   C14F11875   6.210   6.420   5.600
  114OSM   H14F11876   6.166   6.370   5.688
  114OSM   H14G11877   6.210   6.336   5.528
  114OSM   C15F11878   6.108   6.527   5.583
  114OSM   H15F11879   6.126   6.611   5.514
  114OSM   H15G11880   6.085   6.567   5.685
  114OSM   C16F11881   5.964   6.470   5.533
  114OSM   H16F11882   5.890   6.547   5.563
  114OSM   H16G11883   5.929   6.377   5.584
  114OSM   C17F11884   5.957   6.442   5.386
  114OSM   H17F11885   6.018   6.353   5.359
  114OSM   H17G11886   5.995   6.532   5.334
  114OSM   C18F11887   5.820   6.419   5.323
  114OSM   H18F11888   5.756   6.504   5.357
  114OSM   H18G11889   5.779   6.323   5.361
  114OSM   H18H11890   5.821   6.415   5.212
  115OSM      N11891   0.186   2.628   6.723
  115OSM    C1511892   0.104   2.509   6.786
  115OSM   H15A11893   0.162   2.462   6.864
  115OSM   H15B11894   0.080   2.435   6.712
  115OSM   H15C11895   0.006   2.538   6.822
  115OSM    C1411896   0.213   2.711   6.835
  115OSM   H14A11897   0.128   2.722   6.900
  115OSM   H14B11898   0.244   2.813   6.814
  115OSM   H14C11899   0.295   2.672   6.895
  115OSM    C1311900   0.313   2.576   6.670
  115OSM   H13A11901   0.380   2.538   6.745
  115OSM   H13B11902   0.368   2.650   6.615
  115OSM   H13C11903   0.303   2.506   6.588
  115OSM    C1211904   0.103   2.705   6.629
  115OSM   H12A11905   0.161   2.791   6.596
  115OSM   H12B11906   0.022   2.751   6.683
  115OSM    C1111907   0.048   2.625   6.498
  115OSM   H11A11908   0.131   2.562   6.461
  115OSM   H11B11909   0.012   2.694   6.418
  115OSM      P11910   6.590   2.624   6.563
  115OSM    O1311911   6.484   2.521   6.571
  115OSM    O1411912   6.594   2.718   6.679
  115OSM    O1111913   6.567   2.712   6.433
  115OSM    O1211914   6.728   2.550   6.533
  115OSM    C1S11915   6.561   2.666   6.297
  115OSM    H1S11916   6.484   2.585   6.295
  115OSM    H1T11917   6.660   2.632   6.262
  115OSM     NF11918   6.511   2.763   6.077
  115OSM    HNF11919   6.554   2.831   6.018
  115OSM    C2S11920   6.506   2.789   6.216
  115OSM    H2S11921   6.400   2.813   6.236
  115OSM    C3S11922   6.586   2.922   6.258
  115OSM    H3S11923   6.696   2.909   6.261
  115OSM     O311924   6.550   2.964   6.392
  115OSM    HO311925   6.547   2.881   6.440
  115OSM    C4S11926   6.565   3.039   6.160
  115OSM    H4S11927   6.628   3.049   6.070
  115OSM    C5S11928   6.484   3.143   6.175
  115OSM    H5S11929   6.441   3.154   6.276
  115OSM    C6S11930   6.443   3.248   6.077
  115OSM    H6S11931   6.480   3.343   6.120
  115OSM    H6T11932   6.335   3.271   6.077
  115OSM    C7S11933   6.494   3.244   5.934
  115OSM    H7S11934   6.474   3.152   5.876
  115OSM    H7T11935   6.605   3.252   5.938
  115OSM    C8S11936   6.444   3.363   5.860
  115OSM    H8S11937   6.449   3.455   5.922
  115OSM    H8T11938   6.335   3.348   5.842
  115OSM    C9S11939   6.519   3.393   5.731
  115OSM    H9S11940   6.554   3.293   5.697
  115OSM    H9T11941   6.612   3.449   5.750
  115OSM   C10S11942   6.421   3.460   5.635
  115OSM   H10S11943   6.412   3.570   5.650
  115OSM   H10T11944   6.323   3.409   5.621
  115OSM   C11S11945   6.475   3.443   5.489
  115OSM   H11S11946   6.482   3.335   5.461
  115OSM   H11T11947   6.577   3.487   5.479
  115OSM   C12S11948   6.376   3.502   5.387
  115OSM   H12S11949   6.367   3.609   5.414
  115OSM   H12T11950   6.271   3.466   5.394
  115OSM   C13S11951   6.413   3.487   5.235
  115OSM   H13S11952   6.519   3.515   5.215
  115OSM   H13T11953   6.355   3.565   5.182
  115OSM   C14S11954   6.370   3.359   5.166
  115OSM   H14S11955   6.260   3.342   5.168
  115OSM   H14T11956   6.418   3.280   5.227
  115OSM   C15S11957   6.404   3.344   5.019
  115OSM   H15S11958   6.401   3.236   4.996
  115OSM   H15T11959   6.508   3.381   5.006
  115OSM   C16S11960   6.316   3.421   4.924
  115OSM   H16S11961   6.302   3.523   4.967
  115OSM   H16T11962   6.213   3.382   4.910
  115OSM   C17S11963   6.377   3.439   4.785
  115OSM   H17S11964   6.288   3.433   4.718
  115OSM   H17T11965   6.442   3.350   4.768
  115OSM   C18S11966   6.465   3.565   4.786
  115OSM   H18S11967   6.420   3.659   4.823
  115OSM   H18T11968   6.502   3.594   4.685
  115OSM   H18U11969   6.550   3.549   4.854
  115OSM    C1F11970   6.440   2.661   6.030
  115OSM     OF11971   6.352   2.599   6.102
  115OSM    C2F11972   6.458   2.627   5.880
  115OSM    H2F11973   6.567   2.633   5.859
  115OSM    H2G11974   6.422   2.711   5.818
  115OSM    C3F11975   6.380   2.501   5.841
  115OSM    H3F11976   6.271   2.496   5.862
  115OSM    H3G11977   6.429   2.409   5.880
  115OSM    C4F11978   6.407   2.462   5.693
  115OSM    H4F11979   6.405   2.352   5.676
  115OSM    H4G11980   6.505   2.492   5.652
  115OSM    C5F11981   6.305   2.518   5.591
  115OSM    H5F11982   6.324   2.628   5.591
  115OSM    H5G11983   6.196   2.512   5.613
  115OSM    C6F11984   6.334   2.456   5.453
  115OSM    H6F11985   6.302   2.350   5.457
  115OSM    H6G11986   6.444   2.461   5.434
  115OSM    C7F11987   6.267   2.537   5.337
  115OSM    H7F11988   6.312   2.636   5.360
  115OSM    H7G11989   6.156   2.537   5.349
  115OSM    C8F11990   6.302   2.502   5.198
  115OSM    H8F11991   6.234   2.423   5.160
  115OSM    H8G11992   6.406   2.463   5.190
  115OSM    C9F11993   6.291   2.623   5.100
  115OSM    H9F11994   6.271   2.723   5.141
  115OSM   C10F11995   6.277   2.606   4.971
  115OSM   H10F11996   6.277   2.696   4.908
  115OSM   C11F11997   6.275   2.476   4.896
  115OSM   H11F11998   6.186   2.464   4.831
  115OSM   H11G11999   6.260   2.389   4.965
  115OSM   C12F12000   6.401   2.446   4.813
  115OSM   H12F12001   6.416   2.534   4.746
  115OSM   H12G12002   6.380   2.351   4.759
  115OSM   C13F12003   6.544   2.444   4.886
  115OSM   H13F12004   6.551   2.379   4.975
  115OSM   H13G12005   6.550   2.549   4.921
  115OSM   C14F12006   6.671   2.412   4.799
  115OSM   H14F12007   6.659   2.315   4.747
  115OSM   H14G12008   6.759   2.405   4.868
  115OSM   C15F12009   6.689   2.516   4.685
  115OSM   H15F12010   6.692   2.615   4.736
  115OSM   H15G12011   6.596   2.523   4.624
  115OSM   C16F12012   0.019   2.512   4.594
  115OSM   H16F12013   0.020   2.418   4.536
  115OSM   H16G12014   0.109   2.511   4.660
  115OSM   C17F12015   0.037   2.638   4.508
  115OSM   H17F12016   0.061   2.725   4.573
  115OSM   H17G12017   6.732   2.666   4.464
  115OSM   C18F12018   0.150   2.623   4.404
  115OSM   H18F12019   0.139   2.524   4.354
  115OSM   H18G12020   0.244   2.629   4.461
  115OSM   H18H12021   0.148   2.708   4.332
  116OSM      N12022   1.038   1.340   6.909
  116OSM    C1512023   0.900   1.288   6.890
  116OSM   H15A12024   0.871   1.267   6.788
  116OSM   H15B12025   0.829   1.367   6.910
  116OSM   H15C12026   0.872   1.200   6.947
  116OSM    C1412027   1.081   1.373   7.054
  116OSM   H14A12028   1.181   1.413   7.058
  116OSM   H14B12029   1.080   1.279   7.106
  116OSM   H14C12030   1.013   1.434   7.114
  116OSM    C1312031   1.146   1.239   6.865
  116OSM   H13A12032   1.127   1.221   6.760
  116OSM   H13B12033   1.154   1.151   6.928
  116OSM   H13C12034   1.246   1.280   6.865
  116OSM    C1212035   1.052   1.461   6.817
  116OSM   H12A12036   1.146   1.510   6.838
  116OSM   H12B12037   0.983   1.533   6.857
  116OSM    C1112038   1.023   1.456   6.665
  116OSM   H11A12039   1.013   1.558   6.622
  116OSM   H11B12040   0.922   1.419   6.640
  116OSM      P12041   1.258   1.463   6.541
  116OSM    O1312042   1.276   1.597   6.593
  116OSM    O1412043   1.373   1.369   6.552
  116OSM    O1112044   1.227   1.485   6.393
  116OSM    O1212045   1.132   1.391   6.599
  116OSM    C1S12046   1.090   1.483   6.345
  116OSM    H1S12047   1.042   1.569   6.398
  116OSM    H1T12048   1.028   1.399   6.382
  116OSM     NF12049   0.963   1.560   6.146
  116OSM    HNF12050   0.897   1.496   6.108
  116OSM    C2S12051   1.085   1.496   6.194
  116OSM    H2S12052   1.177   1.552   6.165
  116OSM    C3S12053   1.097   1.350   6.130
  116OSM    H3S12054   1.017   1.280   6.160
  116OSM     O312055   1.214   1.278   6.171
  116OSM    HO312056   1.259   1.340   6.228
  116OSM    C4S12057   1.092   1.367   5.983
  116OSM    H4S12058   0.993   1.381   5.937
  116OSM    C5S12059   1.192   1.373   5.892
  116OSM    H5S12060   1.294   1.348   5.926
  116OSM    C6S12061   1.183   1.391   5.746
  116OSM    H6S12062   1.192   1.289   5.702
  116OSM    H6T12063   1.272   1.443   5.704
  116OSM    C7S12064   1.048   1.448   5.689
  116OSM    H7S12065   1.025   1.552   5.721
  116OSM    H7T12066   0.956   1.398   5.729
  116OSM    C8S12067   1.052   1.419   5.533
  116OSM    H8S12068   1.077   1.314   5.506
  116OSM    H8T12069   1.137   1.479   5.494
  116OSM    C9S12070   0.923   1.468   5.463
  116OSM    H9S12071   0.914   1.576   5.440
  116OSM    H9T12072   0.843   1.457   5.539
  116OSM   C10S12073   0.886   1.371   5.350
  116OSM   H10S12074   0.779   1.389   5.325
  116OSM   H10T12075   0.884   1.263   5.376
  116OSM   C11S12076   0.973   1.397   5.231
  116OSM   H11S12077   1.081   1.376   5.241
  116OSM   H11T12078   0.956   1.505   5.211
  116OSM   C12S12079   0.913   1.326   5.110
  116OSM   H12S12080   0.811   1.369   5.107
  116OSM   H12T12081   0.903   1.216   5.124
  116OSM   C13S12082   0.983   1.368   4.984
  116OSM   H13S12083   1.085   1.324   4.981
  116OSM   H13T12084   1.005   1.477   4.987
  116OSM   C14S12085   0.909   1.335   4.859
  116OSM   H14S12086   0.801   1.360   4.867
  116OSM   H14T12087   0.932   1.228   4.837
  116OSM   C15S12088   0.963   1.417   4.745
  116OSM   H15S12089   1.073   1.425   4.743
  116OSM   H15T12090   0.922   1.518   4.769
  116OSM   C16S12091   0.912   1.370   4.605
  116OSM   H16S12092   0.801   1.378   4.610
  116OSM   H16T12093   0.945   1.264   4.599
  116OSM   C17S12094   0.979   1.449   4.492
  116OSM   H17S12095   1.090   1.449   4.507
  116OSM   H17T12096   0.958   1.556   4.513
  116OSM   C18S12097   0.934   1.408   4.351
  116OSM   H18S12098   0.968   1.477   4.271
  116OSM   H18T12099   0.823   1.408   4.356
  116OSM   H18U12100   0.966   1.304   4.330
  116OSM    C1F12101   0.934   1.691   6.173
  116OSM     OF12102   0.992   1.748   6.263
  116OSM    C2F12103   0.810   1.750   6.120
  116OSM    H2F12104   0.752   1.789   6.207
  116OSM    H2G12105   0.751   1.673   6.067
  116OSM    C3F12106   0.844   1.877   6.038
  116OSM    H3F12107   0.904   1.952   6.094
  116OSM    H3G12108   0.747   1.923   6.008
  116OSM    C4F12109   0.908   1.855   5.894
  116OSM    H4F12110   0.852   1.773   5.843
  116OSM    H4G12111   1.012   1.828   5.920
  116OSM    C5F12112   0.920   1.975   5.805
  116OSM    H5F12113   0.956   2.046   5.882
  116OSM    H5G12114   0.823   2.010   5.763
  116OSM    C6F12115   1.006   1.952   5.676
  116OSM    H6F12116   1.092   1.882   5.687
  116OSM    H6G12117   1.053   2.050   5.654
  116OSM    C7F12118   0.922   1.902   5.555
  116OSM    H7F12119   0.832   1.966   5.550
  116OSM    H7G12120   0.905   1.795   5.580
  116OSM    C8F12121   0.989   1.908   5.408
  116OSM    H8F12122   0.934   1.837   5.344
  116OSM    H8G12123   1.094   1.878   5.429
  116OSM    C9F12124   0.982   2.054   5.366
  116OSM    H9F12125   1.018   2.130   5.438
  116OSM   C10F12126   0.920   2.094   5.253
  116OSM   H10F12127   0.919   2.202   5.228
  116OSM   C11F12128   0.859   2.018   5.135
  116OSM   H11F12129   0.757   2.051   5.105
  116OSM   H11G12130   0.855   1.909   5.156
  116OSM   C12F12131   0.934   2.021   5.001
  116OSM   H12F12132   1.039   1.991   5.016
  116OSM   H12G12133   0.933   2.123   4.957
  116OSM   C13F12134   0.855   1.932   4.906
  116OSM   H13F12135   0.745   1.946   4.911
  116OSM   H13G12136   0.880   1.828   4.932
  116OSM   C14F12137   0.887   1.940   4.752
  116OSM   H14F12138   0.985   1.887   4.752
  116OSM   H14G12139   0.889   2.047   4.722
  116OSM   C15F12140   0.781   1.874   4.660
  116OSM   H15F12141   0.683   1.919   4.683
  116OSM   H15G12142   0.786   1.765   4.681
  116OSM   C16F12143   0.831   1.891   4.511
  116OSM   H16F12144   0.930   1.842   4.497
  116OSM   H16G12145   0.845   1.998   4.485
  116OSM   C17F12146   0.739   1.830   4.404
  116OSM   H17F12147   0.753   1.721   4.417
  116OSM   H17G12148   0.774   1.857   4.302
  116OSM   C18F12149   0.592   1.865   4.415
  116OSM   H18F12150   0.547   1.841   4.513
  116OSM   H18G12151   0.542   1.808   4.333
  116OSM   H18H12152   0.571   1.974   4.407
  117OSM      N12153   0.766   3.803   6.669
  117OSM    C1512154   0.802   3.674   6.717
  117OSM   H15A12155   0.883   3.640   6.654
  117OSM   H15B12156   0.720   3.604   6.717
  117OSM   H15C12157   0.843   3.674   6.817
  117OSM    C1412158   0.886   3.894   6.663
  117OSM   H14A12159   0.978   3.839   6.649
  117OSM   H14B12160   0.896   3.952   6.754
  117OSM   H14C12161   0.873   3.956   6.575
  117OSM    C1312162   0.709   3.800   6.531
  117OSM   H13A12163   0.781   3.765   6.458
  117OSM   H13B12164   0.677   3.901   6.508
  117OSM   H13C12165   0.619   3.741   6.519
  117OSM    C1212166   0.657   3.861   6.768
  117OSM   H12A12167   0.719   3.862   6.856
  117OSM   H12B12168   0.574   3.792   6.776
  117OSM    C1112169   0.605   4.007   6.740
  117OSM   H11A12170   0.689   4.073   6.770
  117OSM   H11B12171   0.523   4.025   6.813
  117OSM      P12172   0.423   4.079   6.561
  117OSM    O1312173   0.331   3.965   6.576
  117OSM    O1412174   0.392   4.203   6.623
  117OSM    O1112175   0.437   4.110   6.405
  117OSM    O1212176   0.570   4.030   6.603
  117OSM    C1S12177   0.510   4.220   6.349
  117OSM    H1S12178   0.616   4.185   6.342
  117OSM    H1T12179   0.518   4.309   6.415
  117OSM     NF12180   0.526   4.363   6.146
  117OSM    HNF12181   0.506   4.458   6.170
  117OSM    C2S12182   0.447   4.267   6.216
  117OSM    H2S12183   0.444   4.177   6.151
  117OSM    C3S12184   0.310   4.319   6.244
  117OSM    H3S12185   0.321   4.428   6.267
  117OSM     O312186   0.236   4.287   6.366
  117OSM    HO312187   0.292   4.215   6.395
  117OSM    C4S12188   0.226   4.324   6.117
  117OSM    H4S12189   0.268   4.383   6.034
  117OSM    C5S12190   0.105   4.270   6.105
  117OSM    H5S12191   0.053   4.221   6.189
  117OSM    C6S12192   0.013   4.276   5.985
  117OSM    H6S12193   6.737   4.362   5.996
  117OSM    H6T12194   6.746   4.183   5.973
  117OSM    C7S12195   0.074   4.313   5.847
  117OSM    H7S12196   0.143   4.231   5.818
  117OSM    H7T12197   0.127   4.411   5.853
  117OSM    C8S12198   6.765   4.341   5.731
  117OSM    H8S12199   6.705   4.432   5.746
  117OSM    H8T12200   6.692   4.257   5.737
  117OSM    C9S12201   0.039   4.352   5.590
  117OSM    H9S12202   0.137   4.301   5.587
  117OSM    H9T12203   0.049   4.460   5.568
  117OSM   C10S12204   6.741   4.282   5.482
  117OSM   H10S12205   6.649   4.343   5.465
  117OSM   H10T12206   6.701   4.184   5.515
  117OSM   C11S12207   0.019   4.273   5.348
  117OSM   H11S12208   0.083   4.183   5.347
  117OSM   H11T12209   0.094   4.355   5.340
  117OSM   C12S12210   6.712   4.279   5.231
  117OSM   H12S12211   6.647   4.369   5.236
  117OSM   H12T12212   6.640   4.194   5.233
  117OSM   C13S12213   6.782   4.285   5.096
  117OSM   H13S12214   0.065   4.205   5.089
  117OSM   H13T12215   0.053   4.376   5.088
  117OSM   C14S12216   6.683   4.290   4.982
  117OSM   H14S12217   6.742   4.319   4.892
  117OSM   H14T12218   6.617   4.379   4.993
  117OSM   C15S12219   6.605   4.165   4.953
  117OSM   H15S12220   6.539   4.143   5.039
  117OSM   H15T12221   6.673   4.079   4.937
  117OSM   C16S12222   6.516   4.177   4.826
  117OSM   H16S12223   6.502   4.286   4.809
  117OSM   H16T12224   6.418   4.130   4.848
  117OSM   C17S12225   6.578   4.112   4.708
  117OSM   H17S12226   6.570   4.001   4.709
  117OSM   H17T12227   6.683   4.147   4.707
  117OSM   C18S12228   6.506   4.161   4.582
  117OSM   H18S12229   6.398   4.138   4.587
  117OSM   H18T12230   6.552   4.099   4.501
  117OSM   H18U12231   6.527   4.270   4.576
  117OSM    C1F12232   0.633   4.343   6.068
  117OSM     OF12233   0.699   4.237   6.079
  117OSM    C2F12234   0.678   4.457   5.976
  117OSM    H2F12235   0.750   4.532   6.016
  117OSM    H2G12236   0.588   4.517   5.948
  117OSM    C3F12237   0.731   4.402   5.848
  117OSM    H3F12238   0.656   4.335   5.800
  117OSM    H3G12239   0.823   4.340   5.863
  117OSM    C4F12240   0.772   4.521   5.757
  117OSM    H4F12241   0.877   4.548   5.785
  117OSM    H4G12242   0.708   4.612   5.758
  117OSM    C5F12243   0.779   4.467   5.616
  117OSM    H5F12244   0.688   4.411   5.584
  117OSM    H5G12245   0.869   4.402   5.602
  117OSM    C6F12246   0.797   4.583   5.515
  117OSM    H6F12247   0.876   4.641   5.568
  117OSM    H6G12248   0.702   4.639   5.505
  117OSM    C7F12249   0.840   4.534   5.377
  117OSM    H7F12250   0.747   4.536   5.317
  117OSM    H7G12251   0.876   4.429   5.383
  117OSM    C8F12252   0.939   4.620   5.300
  117OSM    H8F12253   1.037   4.628   5.351
  117OSM    H8G12254   0.895   4.720   5.279
  117OSM    C9F12255   0.968   4.553   5.170
  117OSM    H9F12256   0.946   4.445   5.165
  117OSM   C10F12257   1.026   4.604   5.065
  117OSM   H10F12258   1.060   4.532   4.989
  117OSM   C11F12259   1.072   4.747   5.042
  117OSM   H11F12260   1.120   4.778   5.137
  117OSM   H11G12261   0.989   4.816   5.017
  117OSM   C12F12262   1.175   4.761   4.929
  117OSM   H12F12263   1.136   4.725   4.831
  117OSM   H12G12264   1.258   4.698   4.968
  117OSM   C13F12265   1.231   4.910   4.920
  117OSM   H13F12266   1.302   4.902   4.835
  117OSM   H13G12267   1.295   4.949   5.001
  117OSM   C14F12268   1.138   5.028   4.911
  117OSM   H14F12269   1.208   5.114   4.899
  117OSM   H14G12270   1.080   5.035   5.005
  117OSM   C15F12271   1.045   5.016   4.788
  117OSM   H15F12272   0.961   5.084   4.813
  117OSM   H15G12273   0.998   4.916   4.777
  117OSM   C16F12274   1.118   5.051   4.657
  117OSM   H16F12275   1.215   4.997   4.649
  117OSM   H16G12276   1.159   5.154   4.666
  117OSM   C17F12277   1.031   5.046   4.536
  117OSM   H17F12278   0.939   5.106   4.548
  117OSM   H17G12279   1.010   4.937   4.526
  117OSM   C18F12280   1.108   5.076   4.406
  117OSM   H18F12281   1.106   5.186   4.395
  117OSM   H18G12282   1.050   5.026   4.326
  117OSM   H18H12283   1.209   5.031   4.395
  118OSM      N12284   0.208   3.725   6.279
  118OSM    C1512285   0.313   3.772   6.373
  118OSM   H15A12286   0.397   3.821   6.326
  118OSM   H15B12287   0.361   3.690   6.424
  118OSM   H15C12288   0.278   3.829   6.457
  118OSM    C1412289   0.174   3.844   6.189
  118OSM   H14A12290   0.110   3.830   6.103
  118OSM   H14B12291   0.268   3.871   6.143
  118OSM   H14C12292   0.137   3.927   6.247
  118OSM    C1312293   0.268   3.620   6.205
  118OSM   H13A12294   0.200   3.574   6.135
  118OSM   H13B12295   0.317   3.545   6.265
  118OSM   H13C12296   0.344   3.663   6.141
  118OSM    C1212297   0.085   3.674   6.349
  118OSM   H12A12298   0.009   3.653   6.275
  118OSM   H12B12299   0.044   3.755   6.407
  118OSM    C1112300   0.104   3.552   6.442
  118OSM   H11A12301   0.017   3.546   6.510
  118OSM   H11B12302   0.198   3.571   6.498
  118OSM      P12303   6.781   3.362   6.293
  118OSM    O1312304   6.760   3.234   6.370
  118OSM    O1412305   6.663   3.447   6.284
  118OSM    O1112306   0.042   3.341   6.149
  118OSM    O1212307   0.119   3.437   6.353
  118OSM    C1S12308   0.171   3.271   6.129
  118OSM    H1S12309   0.163   3.164   6.158
  118OSM    H1T12310   0.250   3.326   6.183
  118OSM     NF12311   0.372   3.257   5.997
  118OSM    HNF12312   0.442   3.325   5.976
  118OSM    C2S12313   0.229   3.283   5.986
  118OSM    H2S12314   0.176   3.204   5.929
  118OSM    C3S12315   0.204   3.411   5.912
  118OSM    H3S12316   0.266   3.496   5.949
  118OSM     O312317   0.071   3.459   5.923
  118OSM    HO312318   0.038   3.420   6.004
  118OSM    C4S12319   0.245   3.386   5.766
  118OSM    H4S12320   0.201   3.295   5.723
  118OSM    C5S12321   0.348   3.452   5.707
  118OSM    H5S12322   0.411   3.519   5.766
  118OSM    C6S12323   0.403   3.412   5.570
  118OSM    H6S12324   0.513   3.403   5.575
  118OSM    H6T12325   0.391   3.492   5.494
  118OSM    C7S12326   0.351   3.279   5.510
  118OSM    H7S12327   0.246   3.288   5.476
  118OSM    H7T12328   0.355   3.204   5.593
  118OSM    C8S12329   0.435   3.215   5.393
  118OSM    H8S12330   0.388   3.119   5.364
  118OSM    H8T12331   0.536   3.178   5.421
  118OSM    C9S12332   0.437   3.304   5.265
  118OSM    H9S12333   0.490   3.400   5.276
  118OSM    H9T12334   0.331   3.327   5.240
  118OSM   C10S12335   0.500   3.240   5.145
  118OSM   H10S12336   0.447   3.147   5.118
  118OSM   H10T12337   0.609   3.226   5.166
  118OSM   C11S12338   0.499   3.336   5.025
  118OSM   H11S12339   0.552   3.433   5.033
  118OSM   H11T12340   0.391   3.353   5.002
  118OSM   C12S12341   0.555   3.255   4.902
  118OSM   H12S12342   0.496   3.161   4.893
  118OSM   H12T12343   0.659   3.231   4.932
  118OSM   C13S12344   0.566   3.335   4.771
  118OSM   H13S12345   0.640   3.287   4.704
  118OSM   H13T12346   0.610   3.435   4.793
  118OSM   C14S12347   0.432   3.356   4.697
  118OSM   H14S12348   0.362   3.402   4.770
  118OSM   H14T12349   0.384   3.262   4.663
  118OSM   C15S12350   0.444   3.454   4.580
  118OSM   H15S12351   0.526   3.423   4.511
  118OSM   H15T12352   0.478   3.555   4.612
  118OSM   C16S12353   0.312   3.464   4.502
  118OSM   H16S12354   0.227   3.488   4.569
  118OSM   H16T12355   0.271   3.375   4.449
  118OSM   C17S12356   0.320   3.572   4.390
  118OSM   H17S12357   0.389   3.535   4.311
  118OSM   H17T12358   0.359   3.661   4.444
  118OSM   C18S12359   0.186   3.606   4.316
  118OSM   H18S12360   0.199   3.686   4.240
  118OSM   H18T12361   0.126   3.640   4.403
  118OSM   H18U12362   0.143   3.515   4.271
  118OSM    C1F12363   0.410   3.129   6.006
  118OSM     OF12364   0.323   3.039   6.002
  118OSM    C2F12365   0.555   3.083   6.023
  118OSM    H2F12366   0.579   3.026   6.115
  118OSM    H2G12367   0.617   3.175   6.020
  118OSM    C3F12368   0.626   3.002   5.911
  118OSM    H3F12369   0.576   2.907   5.881
  118OSM    H3G12370   0.727   2.970   5.946
  118OSM    C4F12371   0.652   3.086   5.778
  118OSM    H4F12372   0.721   3.173   5.788
  118OSM    H4G12373   0.557   3.120   5.732
  118OSM    C5F12374   0.698   3.008   5.646
  118OSM    H5F12375   0.789   2.950   5.671
  118OSM    H5G12376   0.722   3.095   5.581
  118OSM    C6F12377   0.598   2.920   5.569
  118OSM    H6F12378   0.511   2.987   5.551
  118OSM    H6G12379   0.563   2.833   5.630
  118OSM    C7F12380   0.655   2.853   5.439
  118OSM    H7F12381   0.582   2.785   5.390
  118OSM    H7G12382   0.745   2.798   5.471
  118OSM    C8F12383   0.685   2.955   5.328
  118OSM    H8F12384   0.752   3.035   5.368
  118OSM    H8G12385   0.589   2.996   5.293
  118OSM    C9F12386   0.739   2.874   5.209
  118OSM    H9F12387   0.678   2.786   5.186
  118OSM   C10F12388   0.842   2.907   5.130
  118OSM   H10F12389   0.879   2.838   5.052
  118OSM   C11F12390   0.929   3.032   5.147
  118OSM   H11F12391   1.029   3.002   5.183
  118OSM   H11G12392   0.895   3.100   5.229
  118OSM   C12F12393   0.936   3.124   5.018
  118OSM   H12F12394   1.011   3.198   5.051
  118OSM   H12G12395   0.835   3.169   5.009
  118OSM   C13F12396   0.978   3.062   4.893
  118OSM   H13F12397   0.918   2.976   4.857
  118OSM   H13G12398   1.084   3.030   4.903
  118OSM   C14F12399   0.953   3.165   4.778
  118OSM   H14F12400   1.046   3.225   4.777
  118OSM   H14G12401   0.857   3.221   4.788
  118OSM   C15F12402   0.944   3.084   4.647
  118OSM   H15F12403   0.853   3.020   4.638
  118OSM   H15G12404   1.037   3.024   4.646
  118OSM   C16F12405   0.949   3.175   4.518
  118OSM   H16F12406   1.055   3.209   4.513
  118OSM   H16G12407   0.877   3.257   4.536
  118OSM   C17F12408   0.915   3.104   4.384
  118OSM   H17F12409   0.824   3.041   4.392
  118OSM   H17G12410   0.998   3.030   4.373
  118OSM   C18F12411   0.907   3.204   4.271
  118OSM   H18F12412   0.931   3.163   4.170
  118OSM   H18G12413   0.981   3.287   4.280
  118OSM   H18H12414   0.806   3.249   4.274
  119OSM      N12415   3.147   1.361   6.879
  119OSM    C1512416   3.288   1.381   6.832
  119OSM   H15A12417   3.362   1.344   6.901
  119OSM   H15B12418   3.324   1.481   6.812
  119OSM   H15C12419   3.301   1.326   6.740
  119OSM    C1412420   3.127   1.219   6.913
  119OSM   H14A12421   3.120   1.166   6.819
  119OSM   H14B12422   3.035   1.200   6.966
  119OSM   H14C12423   3.210   1.185   6.973
  119OSM    C1312424   3.141   1.441   7.007
  119OSM   H13A12425   3.127   1.547   6.992
  119OSM   H13B12426   3.237   1.425   7.052
  119OSM   H13C12427   3.058   1.412   7.070
  119OSM    C1212428   3.052   1.415   6.773
  119OSM   H12A12429   3.072   1.516   6.743
  119OSM   H12B12430   2.951   1.421   6.810
  119OSM    C1112431   3.050   1.348   6.634
  119OSM   H11A12432   3.157   1.352   6.603
  119OSM   H11B12433   2.979   1.397   6.563
  119OSM      P12434   2.852   1.182   6.654
  119OSM    O1312435   2.836   1.044   6.704
  119OSM    O1412436   2.782   1.295   6.724
  119OSM    O1112437   2.820   1.197   6.498
  119OSM    O1212438   3.008   1.214   6.655
  119OSM    C1S12439   2.856   1.097   6.404
  119OSM    H1S12440   2.813   1.000   6.435
  119OSM    H1T12441   2.964   1.073   6.406
  119OSM     NF12442   2.842   1.010   6.177
  119OSM    HNF12443   2.926   1.009   6.122
  119OSM    C2S12444   2.823   1.129   6.254
  119OSM    H2S12445   2.714   1.152   6.260
  119OSM    C3S12446   2.896   1.256   6.213
  119OSM    H3S12447   3.003   1.248   6.243
  119OSM     O312448   2.848   1.373   6.275
  119OSM    HO312449   2.789   1.336   6.342
  119OSM    C4S12450   2.879   1.282   6.066
  119OSM    H4S12451   2.773   1.293   6.039
  119OSM    C5S12452   2.971   1.287   5.972
  119OSM    H5S12453   3.074   1.260   6.000
  119OSM    C6S12454   2.938   1.311   5.831
  119OSM    H6S12455   2.850   1.378   5.818
  119OSM    H6T12456   2.898   1.214   5.796
  119OSM    C7S12457   3.063   1.343   5.740
  119OSM    H7S12458   3.148   1.285   5.781
  119OSM    H7T12459   3.090   1.451   5.739
  119OSM    C8S12460   3.038   1.303   5.598
  119OSM    H8S12461   2.936   1.340   5.574
  119OSM    H8T12462   3.028   1.193   5.600
  119OSM    C9S12463   3.156   1.339   5.503
  119OSM    H9S12464   3.247   1.278   5.524
  119OSM    H9T12465   3.178   1.447   5.517
  119OSM   C10S12466   3.124   1.314   5.353
  119OSM   H10S12467   3.035   1.377   5.334
  119OSM   H10T12468   3.094   1.208   5.337
  119OSM   C11S12469   3.224   1.376   5.254
  119OSM   H11S12470   3.332   1.359   5.273
  119OSM   H11T12471   3.217   1.486   5.270
  119OSM   C12S12472   3.165   1.353   5.113
  119OSM   H12S12473   3.069   1.407   5.104
  119OSM   H12T12474   3.149   1.244   5.102
  119OSM   C13S12475   3.267   1.408   5.002
  119OSM   H13S12476   3.344   1.334   4.972
  119OSM   H13T12477   3.321   1.495   5.045
  119OSM   C14S12478   3.195   1.459   4.874
  119OSM   H14S12479   3.138   1.554   4.887
  119OSM   H14T12480   3.127   1.384   4.828
  119OSM   C15S12481   3.291   1.513   4.758
  119OSM   H15S12482   3.233   1.514   4.664
  119OSM   H15T12483   3.373   1.438   4.756
  119OSM   C16S12484   3.342   1.654   4.781
  119OSM   H16S12485   3.371   1.681   4.885
  119OSM   H16T12486   3.258   1.718   4.746
  119OSM   C17S12487   3.460   1.693   4.685
  119OSM   H17S12488   3.422   1.701   4.580
  119OSM   H17T12489   3.536   1.611   4.692
  119OSM   C18S12490   3.535   1.822   4.717
  119OSM   H18S12491   3.634   1.815   4.668
  119OSM   H18T12492   3.562   1.829   4.824
  119OSM   H18U12493   3.487   1.919   4.692
  119OSM    C1F12494   2.767   0.897   6.195
  119OSM     OF12495   2.666   0.900   6.261
  119OSM    C2F12496   2.825   0.768   6.143
  119OSM    H2F12497   2.751   0.692   6.109
  119OSM    H2G12498   2.875   0.706   6.221
  119OSM    C3F12499   2.912   0.803   6.006
  119OSM    H3F12500   3.008   0.848   6.039
  119OSM    H3G12501   2.861   0.886   5.953
  119OSM    C4F12502   2.935   0.691   5.912
  119OSM    H4F12503   2.844   0.627   5.912
  119OSM    H4G12504   3.028   0.639   5.944
  119OSM    C5F12505   2.965   0.749   5.772
  119OSM    H5F12506   2.878   0.812   5.744
  119OSM    H5G12507   2.984   0.667   5.699
  119OSM    C6F12508   3.092   0.835   5.776
  119OSM    H6F12509   3.184   0.775   5.760
  119OSM    H6G12510   3.097   0.890   5.872
  119OSM    C7F12511   3.080   0.951   5.677
  119OSM    H7F12512   3.169   1.016   5.670
  119OSM    H7G12513   2.993   1.016   5.701
  119OSM    C8F12514   3.046   0.911   5.530
  119OSM    H8F12515   3.030   0.997   5.462
  119OSM    H8G12516   2.951   0.855   5.531
  119OSM    C9F12517   3.147   0.815   5.476
  119OSM    H9F12518   3.212   0.768   5.552
  119OSM   C10F12519   3.188   0.824   5.344
  119OSM   H10F12520   3.273   0.761   5.315
  119OSM   C11F12521   3.142   0.917   5.234
  119OSM   H11F12522   3.211   1.004   5.233
  119OSM   H11G12523   3.037   0.952   5.249
  119OSM   C12F12524   3.136   0.844   5.099
  119OSM   H12F12525   3.060   0.764   5.112
  119OSM   H12G12526   3.227   0.808   5.046
  119OSM   C13F12527   3.084   0.945   4.990
  119OSM   H13F12528   3.156   1.029   4.977
  119OSM   H13G12529   2.989   0.982   5.034
  119OSM   C14F12530   3.041   0.864   4.870
  119OSM   H14F12531   2.971   0.785   4.906
  119OSM   H14G12532   3.129   0.812   4.828
  119OSM   C15F12533   2.984   0.942   4.758
  119OSM   H15F12534   2.880   0.974   4.782
  119OSM   H15G12535   2.988   0.886   4.663
  119OSM   C16F12536   3.055   1.078   4.731
  119OSM   H16F12537   3.161   1.047   4.736
  119OSM   H16G12538   3.020   1.146   4.811
  119OSM   C17F12539   3.019   1.147   4.599
  119OSM   H17F12540   3.001   1.059   4.534
  119OSM   H17G12541   3.098   1.212   4.557
  119OSM   C18F12542   2.899   1.246   4.610
  119OSM   H18F12543   2.811   1.179   4.620
  119OSM   H18G12544   2.891   1.292   4.509
  119OSM   H18H12545   2.906   1.321   4.691
  120OSM      N12546   5.595   4.521   6.603
  120OSM    C1512547   5.725   4.523   6.673
  120OSM   H15A12548   5.804   4.570   6.617
  120OSM   H15B12549   5.750   4.422   6.699
  120OSM   H15C12550   5.711   4.580   6.764
  120OSM    C1412551   5.595   4.430   6.481
  120OSM   H14A12552   5.506   4.423   6.420
  120OSM   H14B12553   5.624   4.331   6.510
  120OSM   H14C12554   5.661   4.478   6.410
  120OSM    C1312555   5.490   4.459   6.692
  120OSM   H13A12556   5.481   4.518   6.782
  120OSM   H13B12557   5.525   4.363   6.727
  120OSM   H13C12558   5.393   4.448   6.645
  120OSM    C1212559   5.542   4.653   6.566
  120OSM   H12A12560   5.444   4.641   6.522
  120OSM   H12B12561   5.609   4.692   6.491
  120OSM    C1112562   5.532   4.755   6.682
  120OSM   H11A12563   5.476   4.709   6.767
  120OSM   H11B12564   5.469   4.839   6.645
  120OSM      P12565   5.723   4.922   6.634
  120OSM    O1312566   5.771   5.033   6.720
  120OSM    O1412567   5.832   4.854   6.567
  120OSM    O1112568   5.626   4.966   6.515
  120OSM    O1212569   5.655   4.810   6.722
  120OSM    C1S12570   5.658   5.058   6.413
  120OSM    H1S12571   5.761   5.039   6.376
  120OSM    H1T12572   5.649   5.160   6.455
  120OSM     NF12573   5.609   5.112   6.168
  120OSM    HNF12574   5.556   5.192   6.140
  120OSM    C2S12575   5.559   5.038   6.284
  120OSM    H2S12576   5.564   4.929   6.262
  120OSM    C3S12577   5.412   5.068   6.327
  120OSM    H3S12578   5.405   5.176   6.350
  120OSM     O312579   5.368   5.007   6.450
  120OSM    HO312580   5.448   4.979   6.495
  120OSM    C4S12581   5.308   5.035   6.228
  120OSM    H4S12582   5.292   4.927   6.212
  120OSM    C5S12583   5.239   5.111   6.141
  120OSM    H5S12584   5.254   5.220   6.135
  120OSM    C6S12585   5.129   5.056   6.052
  120OSM    H6S12586   5.100   5.139   5.984
  120OSM    H6T12587   5.036   5.032   6.109
  120OSM    C7S12588   5.175   4.940   5.959
  120OSM    H7S12589   5.184   4.848   6.020
  120OSM    H7T12590   5.273   4.955   5.909
  120OSM    C8S12591   5.070   4.902   5.856
  120OSM    H8S12592   4.969   4.917   5.901
  120OSM    H8T12593   5.074   4.794   5.832
  120OSM    C9S12594   5.069   4.980   5.723
  120OSM    H9S12595   5.169   4.955   5.681
  120OSM    H9T12596   5.080   5.090   5.736
  120OSM   C10S12597   4.946   4.952   5.638
  120OSM   H10S12598   4.850   4.978   5.688
  120OSM   H10T12599   4.931   4.844   5.617
  120OSM   C11S12600   4.949   5.034   5.506
  120OSM   H11S12601   4.957   5.144   5.520
  120OSM   H11T12602   4.848   5.008   5.468
  120OSM   C12S12603   5.049   4.978   5.402
  120OSM   H12S12604   5.038   4.869   5.391
  120OSM   H12T12605   5.151   5.007   5.435
  120OSM   C13S12606   5.041   5.033   5.258
  120OSM   H13S12607   5.139   4.998   5.218
  120OSM   H13T12608   5.054   5.143   5.256
  120OSM   C14S12609   4.927   4.989   5.175
  120OSM   H14S12610   4.829   4.988   5.227
  120OSM   H14T12611   4.947   4.884   5.145
  120OSM   C15S12612   4.920   5.068   5.039
  120OSM   H15S12613   4.950   5.173   5.061
  120OSM   H15T12614   4.819   5.058   4.994
  120OSM   C16S12615   5.027   5.018   4.942
  120OSM   H16S12616   5.037   4.908   4.944
  120OSM   H16T12617   5.124   5.059   4.977
  120OSM   C17S12618   5.015   5.053   4.798
  120OSM   H17S12619   5.026   5.163   4.791
  120OSM   H17T12620   4.918   5.025   4.752
  120OSM   C18S12621   5.123   4.994   4.703
  120OSM   H18S12622   5.222   5.042   4.722
  120OSM   H18T12623   5.094   5.015   4.598
  120OSM   H18U12624   5.120   4.883   4.713
  120OSM    C1F12625   5.719   5.074   6.115
  120OSM     OF12626   5.787   4.983   6.163
  120OSM    C2F12627   5.760   5.148   5.991
  120OSM    H2F12628   5.734   5.256   6.001
  120OSM    H2G12629   5.697   5.109   5.909
  120OSM    C3F12630   5.906   5.141   5.950
  120OSM    H3F12631   5.931   5.033   5.950
  120OSM    H3G12632   5.975   5.179   6.028
  120OSM    C4F12633   5.925   5.219   5.820
  120OSM    H4F12634   6.032   5.240   5.801
  120OSM    H4G12635   5.865   5.312   5.822
  120OSM    C5F12636   5.872   5.141   5.704
  120OSM    H5F12637   5.772   5.094   5.718
  120OSM    H5G12638   5.954   5.072   5.677
  120OSM    C6F12639   5.844   5.235   5.583
  120OSM    H6F12640   5.938   5.293   5.575
  120OSM    H6G12641   5.758   5.304   5.594
  120OSM    C7F12642   5.815   5.171   5.437
  120OSM    H7F12643   5.711   5.133   5.437
  120OSM    H7G12644   5.899   5.100   5.429
  120OSM    C8F12645   5.827   5.279   5.325
  120OSM    H8F12646   5.915   5.335   5.364
  120OSM    H8G12647   5.735   5.341   5.335
  120OSM    C9F12648   5.851   5.235   5.186
  120OSM    H9F12649   5.858   5.127   5.165
  120OSM   C10F12650   5.870   5.323   5.083
  120OSM   H10F12651   5.891   5.284   4.982
  120OSM   C11F12652   5.840   5.471   5.080
  120OSM   H11F12653   5.936   5.526   5.069
  120OSM   H11G12654   5.803   5.491   5.183
  120OSM   C12F12655   5.742   5.526   4.977
  120OSM   H12F12656   5.751   5.636   4.959
  120OSM   H12G12657   5.641   5.517   5.022
  120OSM   C13F12658   5.737   5.461   4.843
  120OSM   H13F12659   5.657   5.517   4.791
  120OSM   H13G12660   5.704   5.354   4.843
  120OSM   C14F12661   5.868   5.473   4.774
  120OSM   H14F12662   5.930   5.396   4.823
  120OSM   H14G12663   5.921   5.570   4.786
  120OSM   C15F12664   5.870   5.436   4.622
  120OSM   H15F12665   5.976   5.424   4.593
  120OSM   H15G12666   5.822   5.518   4.565
  120OSM   C16F12667   5.784   5.310   4.587
  120OSM   H16F12668   5.789   5.298   4.477
  120OSM   H16G12669   5.678   5.325   4.615
  120OSM   C17F12670   5.840   5.179   4.651
  120OSM   H17F12671   5.850   5.195   4.761
  120OSM   H17G12672   5.946   5.178   4.617
  120OSM   C18F12673   5.775   5.048   4.611
  120OSM   H18F12674   5.768   5.027   4.502
  120OSM   H18G12675   5.673   5.047   4.654
  120OSM   H18H12676   5.833   4.965   4.658
  121OSM      N12677   0.273   1.136   6.495
  121OSM    C1512678   0.194   1.261   6.496
  121OSM   H15A12679   0.123   1.270   6.577
  121OSM   H15B12680   0.130   1.276   6.410
  121OSM   H15C12681   0.264   1.343   6.500
  121OSM    C1412682   0.366   1.143   6.380
  121OSM   H14A12683   0.322   1.190   6.293
  121OSM   H14B12684   0.416   1.052   6.350
  121OSM   H14C12685   0.448   1.201   6.420
  121OSM    C1312686   0.349   1.120   6.616
  121OSM   H13A12687   0.412   1.205   6.634
  121OSM   H13B12688   0.410   1.031   6.617
  121OSM   H13C12689   0.283   1.107   6.700
  121OSM    C1212690   0.176   1.022   6.470
  121OSM   H12A12691   0.239   0.934   6.468
  121OSM   H12B12692   0.120   1.046   6.381
  121OSM    C1112693   0.070   0.986   6.578
  121OSM   H11A12694   0.121   0.981   6.677
  121OSM   H11B12695   0.019   0.888   6.574
  121OSM      P12696   6.638   1.113   6.675
  121OSM    O1312697   6.666   1.075   6.815
  121OSM    O1412698   6.587   1.252   6.644
  121OSM    O1112699   6.543   1.011   6.603
  121OSM    O1212700   6.769   1.094   6.593
  121OSM    C1S12701   6.473   1.046   6.482
  121OSM    H1S12702   6.466   1.155   6.466
  121OSM    H1T12703   6.372   1.001   6.492
  121OSM     NF12704   6.477   1.044   6.239
  121OSM    HNF12705   6.411   0.985   6.191
  121OSM    C2S12706   6.548   0.984   6.357
  121OSM    H2S12707   6.654   1.017   6.358
  121OSM    C3S12708   6.540   0.826   6.362
  121OSM    H3S12709   6.431   0.804   6.359
  121OSM     O312710   6.565   0.763   6.492
  121OSM    HO312711   6.570   0.836   6.555
  121OSM    C4S12712   6.609   0.756   6.250
  121OSM    H4S12713   6.716   0.772   6.233
  121OSM    C5S12714   6.539   0.680   6.162
  121OSM    H5S12715   6.432   0.670   6.187
  121OSM    C6S12716   6.612   0.622   6.039
  121OSM    H6S12717   6.578   0.520   6.008
  121OSM    H6T12718   6.719   0.603   6.060
  121OSM    C7S12719   6.596   0.726   5.937
  121OSM    H7S12720   6.653   0.819   5.956
  121OSM    H7T12721   6.491   0.757   5.916
  121OSM    C8S12722   6.632   0.676   5.798
  121OSM    H8S12723   6.571   0.590   5.764
  121OSM    H8T12724   6.742   0.662   5.789
  121OSM    C9S12725   6.613   0.779   5.682
  121OSM    H9S12726   6.656   0.880   5.701
  121OSM    H9T12727   6.504   0.800   5.680
  121OSM   C10S12728   6.639   0.723   5.539
  121OSM   H10S12729   6.594   0.621   5.540
  121OSM   H10T12730   6.749   0.716   5.528
  121OSM   C11S12731   6.582   0.804   5.420
  121OSM   H11S12732   6.606   0.911   5.442
  121OSM   H11T12733   6.471   0.800   5.425
  121OSM   C12S12734   6.641   0.761   5.292
  121OSM   H12S12735   6.633   0.651   5.279
  121OSM   H12T12736   6.752   0.770   5.298
  121OSM   C13S12737   6.591   0.834   5.172
  121OSM   H13S12738   6.679   0.885   5.126
  121OSM   H13T12739   6.515   0.910   5.202
  121OSM   C14S12740   6.524   0.735   5.074
  121OSM   H14S12741   6.454   0.676   5.137
  121OSM   H14T12742   6.601   0.664   5.039
  121OSM   C15S12743   6.458   0.802   4.952
  121OSM   H15S12744   6.419   0.897   4.994
  121OSM   H15T12745   6.367   0.755   4.911
  121OSM   C16S12746   6.546   0.819   4.824
  121OSM   H16S12747   6.646   0.857   4.854
  121OSM   H16T12748   6.497   0.897   4.762
  121OSM   C17S12749   6.554   0.688   4.733
  121OSM   H17S12750   6.457   0.636   4.717
  121OSM   H17T12751   6.616   0.616   4.791
  121OSM   C18S12752   6.597   0.716   4.588
  121OSM   H18S12753   6.511   0.770   4.544
  121OSM   H18T12754   6.607   0.622   4.530
  121OSM   H18U12755   6.683   0.786   4.581
  121OSM    C1F12756   6.484   1.168   6.208
  121OSM     OF12757   6.577   1.232   6.260
  121OSM    C2F12758   6.381   1.239   6.122
  121OSM    H2F12759   6.352   1.334   6.171
  121OSM    H2G12760   6.290   1.176   6.109
  121OSM    C3F12761   6.443   1.281   5.984
  121OSM    H3F12762   6.534   1.334   6.019
  121OSM    H3G12763   6.371   1.354   5.944
  121OSM    C4F12764   6.451   1.170   5.873
  121OSM    H4F12765   6.359   1.111   5.895
  121OSM    H4G12766   6.547   1.115   5.879
  121OSM    C5F12767   6.450   1.221   5.728
  121OSM    H5F12768   6.558   1.231   5.703
  121OSM    H5G12769   6.394   1.317   5.730
  121OSM    C6F12770   6.405   1.113   5.622
  121OSM    H6F12771   6.454   1.018   5.654
  121OSM    H6G12772   6.435   1.124   5.516
  121OSM    C7F12773   6.254   1.077   5.612
  121OSM    H7F12774   6.212   1.158   5.548
  121OSM    H7G12775   6.215   1.069   5.715
  121OSM    C8F12776   6.224   0.943   5.538
  121OSM    H8F12777   6.263   0.855   5.592
  121OSM    H8G12778   6.277   0.941   5.440
  121OSM    C9F12779   6.074   0.923   5.515
  121OSM    H9F12780   6.010   0.902   5.602
  121OSM   C10F12781   6.016   0.926   5.396
  121OSM   H10F12782   5.909   0.908   5.384
  121OSM   C11F12783   6.091   0.963   5.269
  121OSM   H11F12784   6.185   0.903   5.261
  121OSM   H11G12785   6.121   1.069   5.277
  121OSM   C12F12786   6.000   0.942   5.145
  121OSM   H12F12787   5.915   1.013   5.151
  121OSM   H12G12788   5.964   0.838   5.140
  121OSM   C13F12789   6.072   0.982   5.012
  121OSM   H13F12790   6.169   0.928   5.011
  121OSM   H13G12791   6.097   1.089   5.023
  121OSM   C14F12792   5.994   0.958   4.887
  121OSM   H14F12793   5.902   1.020   4.892
  121OSM   H14G12794   5.967   0.850   4.881
  121OSM   C15F12795   6.061   0.997   4.752
  121OSM   H15F12796   6.155   0.939   4.745
  121OSM   H15G12797   6.074   1.108   4.754
  121OSM   C16F12798   5.968   0.948   4.640
  121OSM   H16F12799   5.875   1.007   4.646
  121OSM   H16G12800   5.952   0.839   4.654
  121OSM   C17F12801   6.025   0.979   4.497
  121OSM   H17F12802   6.125   0.933   4.482
  121OSM   H17G12803   6.046   1.088   4.489
  121OSM   C18F12804   5.925   0.926   4.388
  121OSM   H18F12805   5.969   0.898   4.290
  121OSM   H18G12806   5.838   0.991   4.366
  121OSM   H18H12807   5.875   0.835   4.427
  122OSM      N12808   6.615   4.302   6.878
  122OSM    C1512809   6.515   4.276   6.982
  122OSM   H15A12810   6.564   4.274   7.079
  122OSM   H15B12811   6.468   4.179   6.973
  122OSM   H15C12812   6.439   4.353   6.980
  122OSM    C1412813   6.660   4.445   6.892
  122OSM   H14A12814   6.724   4.469   6.808
  122OSM   H14B12815   6.705   4.458   6.989
  122OSM   H14C12816   6.583   4.519   6.872
  122OSM    C1312817   6.729   4.207   6.917
  122OSM   H13A12818   0.010   4.199   6.838
  122OSM   H13B12819   6.691   4.107   6.932
  122OSM   H13C12820   6.778   4.241   7.007
  122OSM    C1212821   6.563   4.273   6.736
  122OSM   H12A12822   6.631   4.316   6.665
  122OSM   H12B12823   6.471   4.329   6.726
  122OSM    C1112824   6.519   4.131   6.694
  122OSM   H11A12825   6.600   4.059   6.720
  122OSM   H11B12826   6.499   4.133   6.584
  122OSM      P12827   6.305   3.974   6.723
  122OSM    O1312828   6.376   3.854   6.667
  122OSM    O1412829   6.206   3.956   6.837
  122OSM    O1112830   6.232   4.046   6.602
  122OSM    O1212831   6.418   4.073   6.773
  122OSM    C1S12832   6.266   4.054   6.462
  122OSM    H1S12833   6.330   3.971   6.428
  122OSM    H1T12834   6.323   4.147   6.441
  122OSM     NF12835   6.168   4.011   6.243
  122OSM    HNF12836   6.210   4.076   6.180
  122OSM    C2S12837   6.138   4.066   6.378
  122OSM    H2S12838   6.064   4.000   6.428
  122OSM    C3S12839   6.080   4.209   6.374
  122OSM    H3S12840   6.162   4.268   6.329
  122OSM     O312841   6.066   4.260   6.507
  122OSM    HO312842   6.123   4.208   6.564
  122OSM    C4S12843   5.950   4.247   6.316
  122OSM    H4S12844   5.858   4.223   6.372
  122OSM    C5S12845   5.931   4.316   6.200
  122OSM    H5S12846   6.020   4.341   6.140
  122OSM    C6S12847   5.795   4.330   6.134
  122OSM    H6S12848   5.758   4.433   6.152
  122OSM    H6T12849   5.715   4.273   6.187
  122OSM    C7S12850   5.798   4.300   5.982
  122OSM    H7S12851   5.828   4.193   5.972
  122OSM    H7T12852   5.866   4.373   5.933
  122OSM    C8S12853   5.664   4.314   5.912
  122OSM    H8S12854   5.621   4.416   5.927
  122OSM    H8T12855   5.585   4.244   5.947
  122OSM    C9S12856   5.695   4.299   5.765
  122OSM    H9S12857   5.769   4.217   5.764
  122OSM    H9T12858   5.741   4.389   5.719
  122OSM   C10S12859   5.569   4.254   5.686
  122OSM   H10S12860   5.490   4.333   5.689
  122OSM   H10T12861   5.531   4.157   5.725
  122OSM   C11S12862   5.605   4.224   5.537
  122OSM   H11S12863   5.520   4.159   5.505
  122OSM   H11T12864   5.699   4.168   5.519
  122OSM   C12S12865   5.581   4.352   5.454
  122OSM   H12S12866   5.648   4.431   5.494
  122OSM   H12T12867   5.477   4.392   5.456
  122OSM   C13S12868   5.597   4.319   5.305
  122OSM   H13S12869   5.505   4.298   5.247
  122OSM   H13T12870   5.678   4.246   5.289
  122OSM   C14S12871   5.647   4.450   5.223
  122OSM   H14S12872   5.748   4.476   5.261
  122OSM   H14T12873   5.581   4.534   5.254
  122OSM   C15S12874   5.628   4.443   5.079
  122OSM   H15S12875   5.520   4.432   5.059
  122OSM   H15T12876   5.669   4.349   5.035
  122OSM   C16S12877   5.689   4.559   4.995
  122OSM   H16S12878   5.797   4.581   5.006
  122OSM   H16T12879   5.629   4.648   5.023
  122OSM   C17S12880   5.685   4.536   4.848
  122OSM   H17S12881   5.580   4.519   4.815
  122OSM   H17T12882   5.749   4.447   4.833
  122OSM   C18S12883   5.733   4.657   4.762
  122OSM   H18S12884   5.667   4.745   4.784
  122OSM   H18T12885   5.721   4.634   4.654
  122OSM   H18U12886   5.835   4.687   4.796
  122OSM    C1F12887   6.181   3.882   6.221
  122OSM     OF12888   6.146   3.807   6.310
  122OSM    C2F12889   6.251   3.835   6.090
  122OSM    H2F12890   6.316   3.747   6.112
  122OSM    H2G12891   6.321   3.913   6.055
  122OSM    C3F12892   6.157   3.806   5.981
  122OSM    H3F12893   6.083   3.887   5.962
  122OSM    H3G12894   6.095   3.716   6.004
  122OSM    C4F12895   6.220   3.781   5.848
  122OSM    H4F12896   6.260   3.678   5.857
  122OSM    H4G12897   6.305   3.852   5.840
  122OSM    C5F12898   6.120   3.786   5.730
  122OSM    H5F12899   6.068   3.884   5.735
  122OSM    H5G12900   6.039   3.712   5.751
  122OSM    C6F12901   6.175   3.774   5.591
  122OSM    H6F12902   6.235   3.681   5.583
  122OSM    H6G12903   6.238   3.864   5.570
  122OSM    C7F12904   6.056   3.785   5.487
  122OSM    H7F12905   6.000   3.880   5.503
  122OSM    H7G12906   5.982   3.707   5.513
  122OSM    C8F12907   6.091   3.759   5.339
  122OSM    H8F12908   5.996   3.735   5.286
  122OSM    H8G12909   6.156   3.669   5.340
  122OSM    C9F12910   6.158   3.876   5.267
  122OSM    H9F12911   6.185   3.955   5.339
  122OSM   C10F12912   6.190   3.894   5.135
  122OSM   H10F12913   6.246   3.984   5.105
  122OSM   C11F12914   6.159   3.798   5.026
  122OSM   H11F12915   6.143   3.696   5.068
  122OSM   H11G12916   6.251   3.789   4.963
  122OSM   C12F12917   6.033   3.852   4.942
  122OSM   H12F12918   5.946   3.868   5.009
  122OSM   H12G12919   6.003   3.776   4.867
  122OSM   C13F12920   6.055   3.993   4.871
  122OSM   H13F12921   6.149   3.996   4.812
  122OSM   H13G12922   6.060   4.077   4.944
  122OSM   C14F12923   5.941   4.022   4.779
  122OSM   H14F12924   5.845   4.012   4.833
  122OSM   H14G12925   5.930   3.953   4.693
  122OSM   C15F12926   5.943   4.171   4.720
  122OSM   H15F12927   6.042   4.189   4.674
  122OSM   H15G12928   5.927   4.234   4.810
  122OSM   C16F12929   5.837   4.213   4.613
  122OSM   H16F12930   5.866   4.318   4.590
  122OSM   H16G12931   5.738   4.206   4.664
  122OSM   C17F12932   5.838   4.114   4.495
  122OSM   H17F12933   5.781   4.026   4.529
  122OSM   H17G12934   5.943   4.084   4.475
  122OSM   C18F12935   5.766   4.173   4.375
  122OSM   H18F12936   5.703   4.101   4.318
  122OSM   H18G12937   5.844   4.196   4.299
  122OSM   H18H12938   5.703   4.261   4.397
  123OSM      N12939   2.592   3.078   2.417
  123OSM    C1512940   2.542   3.190   2.340
  123OSM   H15A12941   2.435   3.179   2.328
  123OSM   H15B12942   2.583   3.201   2.241
  123OSM   H15C12943   2.581   3.282   2.382
  123OSM    C1412944   2.741   3.077   2.413
  123OSM   H14A12945   2.783   3.066   2.314
  123OSM   H14B12946   2.788   2.993   2.463
  123OSM   H14C12947   2.777   3.165   2.463
  123OSM    C1312948   2.544   3.098   2.562
  123OSM   H13A12949   2.583   3.180   2.621
  123OSM   H13B12950   2.555   2.999   2.603
  123OSM   H13C12951   2.439   3.124   2.558
  123OSM    C1212952   2.538   2.949   2.371
  123OSM   H12A12953   2.597   2.916   2.287
  123OSM   H12B12954   2.439   2.950   2.329
  123OSM    C1112955   2.527   2.823   2.471
  123OSM   H11A12956   2.509   2.739   2.400
  123OSM   H11B12957   2.439   2.836   2.537
  123OSM      P12958   2.690   2.658   2.590
  123OSM    O1312959   2.664   2.561   2.481
  123OSM    O1412960   2.828   2.666   2.642
  123OSM    O1112961   2.590   2.634   2.714
  123OSM    O1212962   2.654   2.802   2.540
  123OSM    C1S12963   2.474   2.554   2.688
  123OSM    H1S12964   2.499   2.450   2.660
  123OSM    H1T12965   2.404   2.603   2.617
  123OSM     NF12966   2.261   2.465   2.771
  123OSM    HNF12967   2.186   2.514   2.727
  123OSM    C2S12968   2.370   2.549   2.809
  123OSM    H2S12969   2.421   2.503   2.897
  123OSM    C3S12970   2.338   2.691   2.845
  123OSM    H3S12971   2.263   2.722   2.769
  123OSM     O312972   2.431   2.801   2.825
  123OSM    HO312973   2.504   2.753   2.784
  123OSM    C4S12974   2.262   2.695   2.966
  123OSM    H4S12975   2.154   2.685   2.947
  123OSM    C5S12976   2.313   2.705   3.090
  123OSM    H5S12977   2.420   2.722   3.105
  123OSM    C6S12978   2.224   2.709   3.211
  123OSM    H6S12979   2.118   2.695   3.178
  123OSM    H6T12980   2.236   2.798   3.276
  123OSM    C7S12981   2.255   2.577   3.290
  123OSM    H7S12982   2.361   2.562   3.318
  123OSM    H7T12983   2.227   2.489   3.228
  123OSM    C8S12984   2.172   2.573   3.420
  123OSM    H8S12985   2.068   2.607   3.403
  123OSM    H8T12986   2.213   2.656   3.482
  123OSM    C9S12987   2.177   2.438   3.498
  123OSM    H9S12988   2.276   2.420   3.545
  123OSM    H9T12989   2.158   2.355   3.426
  123OSM   C10S12990   2.090   2.443   3.621
  123OSM   H10S12991   1.989   2.460   3.579
  123OSM   H10T12992   2.121   2.519   3.696
  123OSM   C11S12993   2.088   2.314   3.697
  123OSM   H11S12994   2.192   2.276   3.694
  123OSM   H11T12995   2.031   2.247   3.630
  123OSM   C12S12996   2.018   2.311   3.828
  123OSM   H12S12997   1.914   2.350   3.827
  123OSM   H12T12998   2.090   2.367   3.892
  123OSM   C13S12999   2.011   2.166   3.880
  123OSM   H13S13000   2.115   2.129   3.886
  123OSM   H13T13001   1.965   2.093   3.810
  123OSM   C14S13002   1.931   2.160   4.014
  123OSM   H14S13003   1.824   2.172   3.986
  123OSM   H14T13004   1.963   2.249   4.072
  123OSM   C15S13005   1.956   2.036   4.101
  123OSM   H15S13006   2.047   2.047   4.165
  123OSM   H15T13007   1.978   1.948   4.036
  123OSM   C16S13008   1.845   2.009   4.210
  123OSM   H16S13009   1.747   1.999   4.159
  123OSM   H16T13010   1.838   2.101   4.272
  123OSM   C17S13011   1.868   1.889   4.303
  123OSM   H17S13012   1.772   1.863   4.353
  123OSM   H17T13013   1.944   1.912   4.379
  123OSM   C18S13014   1.913   1.760   4.235
  123OSM   H18S13015   1.846   1.742   4.148
  123OSM   H18T13016   1.890   1.688   4.316
  123OSM   H18U13017   2.022   1.758   4.215
  123OSM    C1F13018   2.265   2.329   2.773
  123OSM     OF13019   2.372   2.275   2.774
  123OSM    C2F13020   2.139   2.246   2.780
  123OSM    H2F13021   2.150   2.169   2.701
  123OSM    H2G13022   2.055   2.313   2.750
  123OSM    C3F13023   2.126   2.190   2.920
  123OSM    H3F13024   2.224   2.171   2.967
  123OSM    H3G13025   2.061   2.101   2.938
  123OSM    C4F13026   2.056   2.300   3.009
  123OSM    H4F13027   1.968   2.338   2.952
  123OSM    H4G13028   2.118   2.391   3.023
  123OSM    C5F13029   2.015   2.251   3.146
  123OSM    H5F13030   2.107   2.253   3.208
  123OSM    H5G13031   1.982   2.147   3.125
  123OSM    C6F13032   1.884   2.300   3.210
  123OSM    H6F13033   1.801   2.300   3.135
  123OSM    H6G13034   1.900   2.406   3.239
  123OSM    C7F13035   1.846   2.212   3.327
  123OSM    H7F13036   1.923   2.214   3.407
  123OSM    H7G13037   1.842   2.110   3.283
  123OSM    C8F13038   1.708   2.245   3.389
  123OSM    H8F13039   1.681   2.164   3.461
  123OSM    H8G13040   1.633   2.224   3.310
  123OSM    C9F13041   1.706   2.385   3.453
  123OSM    H9F13042   1.764   2.458   3.395
  123OSM   C10F13043   1.620   2.424   3.553
  123OSM   H10F13044   1.631   2.527   3.589
  123OSM   C11F13045   1.519   2.334   3.624
  123OSM   H11F13046   1.498   2.237   3.574
  123OSM   H11G13047   1.420   2.383   3.608
  123OSM   C12F13048   1.561   2.306   3.766
  123OSM   H12F13049   1.587   2.401   3.817
  123OSM   H12G13050   1.653   2.246   3.785
  123OSM   C13F13051   1.450   2.249   3.854
  123OSM   H13F13052   1.417   2.156   3.804
  123OSM   H13G13053   1.366   2.321   3.841
  123OSM   C14F13054   1.487   2.236   4.004
  123OSM   H14F13055   1.519   2.336   4.039
  123OSM   H14G13056   1.577   2.172   4.012
  123OSM   C15F13057   1.372   2.177   4.091
  123OSM   H15F13058   1.308   2.105   4.036
  123OSM   H15G13059   1.298   2.249   4.132
  123OSM   C16F13060   1.431   2.112   4.216
  123OSM   H16F13061   1.496   2.192   4.256
  123OSM   H16G13062   1.499   2.029   4.188
  123OSM   C17F13063   1.337   2.055   4.321
  123OSM   H17F13064   1.286   1.971   4.269
  123OSM   H17G13065   1.260   2.125   4.360
  123OSM   C18F13066   1.406   2.006   4.449
  123OSM   H18F13067   1.331   1.972   4.523
  123OSM   H18G13068   1.472   2.088   4.485
  123OSM   H18H13069   1.476   1.921   4.433
  124OSM      N13070   3.081   3.859   2.298
  124OSM    C1513071   2.986   3.823   2.403
  124OSM   H15A13072   2.884   3.819   2.366
  124OSM   H15B13073   2.988   3.884   2.492
  124OSM   H15C13074   3.008   3.722   2.435
  124OSM    C1413075   3.041   4.006   2.274
  124OSM   H14A13076   2.933   4.007   2.265
  124OSM   H14B13077   3.091   4.029   2.182
  124OSM   H14C13078   3.074   4.068   2.357
  124OSM    C1313079   3.222   3.852   2.342
  124OSM   H13A13080   3.281   3.835   2.253
  124OSM   H13B13081   3.240   3.786   2.425
  124OSM   H13C13082   3.258   3.948   2.376
  124OSM    C1213083   3.054   3.776   2.177
  124OSM   H12A13084   3.116   3.811   2.096
  124OSM   H12B13085   2.951   3.791   2.148
  124OSM    C1113086   3.078   3.619   2.188
  124OSM   H11A13087   3.184   3.603   2.215
  124OSM   H11B13088   3.063   3.571   2.089
  124OSM      P13089   2.837   3.539   2.243
  124OSM    O1313090   2.779   3.662   2.189
  124OSM    O1413091   2.816   3.413   2.163
  124OSM    O1113092   2.757   3.508   2.380
  124OSM    O1213093   2.991   3.553   2.282
  124OSM    C1S13094   2.836   3.477   2.500
  124OSM    H1S13095   2.938   3.522   2.505
  124OSM    H1T13096   2.838   3.367   2.515
  124OSM     NF13097   2.837   3.548   2.742
  124OSM    HNF13098   2.811   3.487   2.816
  124OSM    C2S13099   2.760   3.546   2.623
  124OSM    H2S13100   2.734   3.650   2.593
  124OSM    C3S13101   2.618   3.488   2.646
  124OSM    H3S13102   2.637   3.391   2.697
  124OSM     O313103   2.547   3.444   2.527
  124OSM    HO313104   2.613   3.458   2.458
  124OSM    C4S13105   2.537   3.565   2.751
  124OSM    H4S13106   2.560   3.542   2.856
  124OSM    C5S13107   2.443   3.659   2.718
  124OSM    H5S13108   2.427   3.685   2.612
  124OSM    C6S13109   2.366   3.737   2.819
  124OSM    H6S13110   2.267   3.763   2.777
  124OSM    H6T13111   2.426   3.828   2.844
  124OSM    C7S13112   2.354   3.663   2.952
  124OSM    H7S13113   2.453   3.635   2.994
  124OSM    H7T13114   2.294   3.571   2.934
  124OSM    C8S13115   2.280   3.737   3.060
  124OSM    H8S13116   2.181   3.748   3.011
  124OSM    H8T13117   2.320   3.839   3.079
  124OSM    C9S13118   2.279   3.653   3.193
  124OSM    H9S13119   2.384   3.628   3.218
  124OSM    H9T13120   2.221   3.560   3.176
  124OSM   C10S13121   2.216   3.736   3.304
  124OSM   H10S13122   2.115   3.768   3.270
  124OSM   H10T13123   2.288   3.817   3.329
  124OSM   C11S13124   2.207   3.652   3.440
  124OSM   H11S13125   2.313   3.627   3.463
  124OSM   H11T13126   2.153   3.556   3.427
  124OSM   C12S13127   2.149   3.737   3.552
  124OSM   H12S13128   2.039   3.738   3.536
  124OSM   H12T13129   2.186   3.842   3.552
  124OSM   C13S13130   2.186   3.668   3.687
  124OSM   H13S13131   2.297   3.664   3.691
  124OSM   H13T13132   2.141   3.567   3.671
  124OSM   C14S13133   2.106   3.734   3.803
  124OSM   H14S13134   2.000   3.743   3.770
  124OSM   H14T13135   2.144   3.836   3.823
  124OSM   C15S13136   2.105   3.646   3.929
  124OSM   H15S13137   2.210   3.616   3.951
  124OSM   H15T13138   2.050   3.551   3.914
  124OSM   C16S13139   2.051   3.711   4.059
  124OSM   H16S13140   1.946   3.739   4.033
  124OSM   H16T13141   2.105   3.805   4.084
  124OSM   C17S13142   2.059   3.620   4.179
  124OSM   H17S13143   2.166   3.594   4.195
  124OSM   H17T13144   2.003   3.525   4.169
  124OSM   C18S13145   2.006   3.675   4.312
  124OSM   H18S13146   1.999   3.593   4.387
  124OSM   H18T13147   1.905   3.720   4.305
  124OSM   H18U13148   2.067   3.759   4.350
  124OSM    C1F13149   2.956   3.611   2.757
  124OSM     OF13150   2.992   3.693   2.672
  124OSM    C2F13151   3.019   3.599   2.891
  124OSM    H2F13152   2.980   3.514   2.951
  124OSM    H2G13153   2.996   3.693   2.946
  124OSM    C3F13154   3.173   3.567   2.882
  124OSM    H3F13155   3.218   3.641   2.813
  124OSM    H3G13156   3.192   3.470   2.831
  124OSM    C4F13157   3.241   3.573   3.022
  124OSM    H4F13158   3.241   3.673   3.071
  124OSM    H4G13159   3.349   3.560   3.003
  124OSM    C5F13160   3.202   3.460   3.117
  124OSM    H5F13161   3.199   3.361   3.068
  124OSM    H5G13162   3.097   3.474   3.152
  124OSM    C6F13163   3.292   3.461   3.244
  124OSM    H6F13164   3.389   3.421   3.206
  124OSM    H6G13165   3.257   3.381   3.313
  124OSM    C7F13166   3.297   3.588   3.329
  124OSM    H7F13167   3.197   3.620   3.366
  124OSM    H7G13168   3.322   3.675   3.264
  124OSM    C8F13169   3.372   3.585   3.466
  124OSM    H8F13170   3.379   3.688   3.506
  124OSM    H8G13171   3.469   3.549   3.426
  124OSM    C9F13172   3.302   3.484   3.568
  124OSM    H9F13173   3.218   3.434   3.518
  124OSM   C10F13174   3.321   3.467   3.703
  124OSM   H10F13175   3.260   3.388   3.749
  124OSM   C11F13176   3.423   3.556   3.783
  124OSM   H11F13177   3.366   3.615   3.858
  124OSM   H11G13178   3.473   3.636   3.724
  124OSM   C12F13179   3.531   3.462   3.842
  124OSM   H12F13180   3.615   3.530   3.871
  124OSM   H12G13181   3.567   3.388   3.767
  124OSM   C13F13182   3.472   3.398   3.974
  124OSM   H13F13183   3.392   3.327   3.947
  124OSM   H13G13184   3.434   3.473   4.046
  124OSM   C14F13185   3.582   3.318   4.049
  124OSM   H14F13186   3.671   3.384   4.047
  124OSM   H14G13187   3.608   3.235   3.980
  124OSM   C15F13188   3.547   3.252   4.190
  124OSM   H15F13189   3.513   3.338   4.250
  124OSM   H15G13190   3.640   3.213   4.237
  124OSM   C16F13191   3.431   3.147   4.195
  124OSM   H16F13192   3.472   3.050   4.158
  124OSM   H16G13193   3.352   3.189   4.130
  124OSM   C17F13194   3.374   3.125   4.331
  124OSM   H17F13195   3.457   3.106   4.403
  124OSM   H17G13196   3.308   3.036   4.331
  124OSM   C18F13197   3.286   3.240   4.391
  124OSM   H18F13198   3.263   3.224   4.499
  124OSM   H18G13199   3.193   3.252   4.332
  124OSM   H18H13200   3.348   3.332   4.381
  125OSM      N13201   4.599   0.188   2.231
  125OSM    C1513202   4.474   0.252   2.178
  125OSM   H15A13203   4.500   0.305   2.087
  125OSM   H15B13204   4.449   0.331   2.247
  125OSM   H15C13205   4.396   0.182   2.153
  125OSM    C1413206   4.618   0.070   2.143
  125OSM   H14A13207   4.706   0.016   2.172
  125OSM   H14B13208   4.606   0.102   2.040
  125OSM   H14C13209   4.534   0.005   2.161
  125OSM    C1313210   4.719   0.280   2.216
  125OSM   H13A13211   4.706   0.363   2.283
  125OSM   H13B13212   4.746   0.318   2.118
  125OSM   H13C13213   4.816   0.241   2.241
  125OSM    C1213214   4.589   0.151   2.375
  125OSM   H12A13215   4.585   0.237   2.440
  125OSM   H12B13216   4.671   0.085   2.399
  125OSM    C1113217   4.461   0.058   2.399
  125OSM   H11A13218   4.364   0.105   2.370
  125OSM   H11B13219   4.459   0.058   2.510
  125OSM      P13220   4.398   6.596   2.405
  125OSM    O1313221   4.340   6.530   2.287
  125OSM    O1413222   4.494   6.520   2.485
  125OSM    O1113223   4.290   6.652   2.493
  125OSM    O1213224   4.476   6.723   2.348
  125OSM    C1S13225   4.217   6.584   2.592
  125OSM    H1S13226   4.285   6.519   2.651
  125OSM    H1T13227   4.129   6.532   2.548
  125OSM     NF13228   4.084   6.583   2.789
  125OSM    HNF13229   3.987   6.579   2.766
  125OSM    C2S13230   4.165   6.677   2.704
  125OSM    H2S13231   4.251   6.723   2.757
  125OSM    C3S13232   4.075   6.780   2.638
  125OSM    H3S13233   3.987   6.734   2.588
  125OSM     O313234   4.142   0.073   2.549
  125OSM    HO313235   4.215   0.022   2.513
  125OSM    C4S13236   4.025   0.082   2.745
  125OSM    H4S13237   3.927   0.049   2.781
  125OSM    C5S13238   4.082   0.195   2.799
  125OSM    H5S13239   4.177   0.235   2.760
  125OSM    C6S13240   4.035   0.266   2.923
  125OSM    H6S13241   3.997   0.365   2.892
  125OSM    H6T13242   4.117   0.275   2.997
  125OSM    C7S13243   3.921   0.193   2.995
  125OSM    H7S13244   3.964   0.108   3.053
  125OSM    H7T13245   3.850   0.141   2.927
  125OSM    C8S13246   3.836   0.288   3.082
  125OSM    H8S13247   3.746   0.230   3.114
  125OSM    H8T13248   3.814   0.379   3.022
  125OSM    C9S13249   3.904   0.348   3.212
  125OSM    H9S13250   3.828   0.411   3.263
  125OSM    H9T13251   3.987   0.411   3.173
  125OSM   C10S13252   3.969   0.255   3.318
  125OSM   H10S13253   4.073   0.228   3.290
  125OSM   H10T13254   3.921   0.157   3.298
  125OSM   C11S13255   3.965   0.294   3.466
  125OSM   H11S13256   3.986   0.403   3.475
  125OSM   H11T13257   4.054   0.248   3.516
  125OSM   C12S13258   3.837   0.243   3.526
  125OSM   H12S13259   3.833   0.140   3.485
  125OSM   H12T13260   3.757   0.312   3.492
  125OSM   C13S13261   3.834   0.229   3.681
  125OSM   H13S13262   3.861   0.328   3.724
  125OSM   H13T13263   3.907   0.155   3.720
  125OSM   C14S13264   3.696   0.179   3.725
  125OSM   H14S13265   3.690   0.070   3.703
  125OSM   H14T13266   3.621   0.222   3.655
  125OSM   C15S13267   3.661   0.209   3.865
  125OSM   H15S13268   3.572   0.147   3.890
  125OSM   H15T13269   3.640   0.318   3.874
  125OSM   C16S13270   3.764   0.165   3.976
  125OSM   H16S13271   3.845   0.241   3.964
  125OSM   H16T13272   3.809   0.069   3.943
  125OSM   C17S13273   3.703   0.156   4.110
  125OSM   H17S13274   3.633   0.071   4.125
  125OSM   H17T13275   3.645   0.248   4.132
  125OSM   C18S13276   3.819   0.142   4.214
  125OSM   H18S13277   3.882   0.052   4.200
  125OSM   H18T13278   3.779   0.127   4.317
  125OSM   H18U13279   3.878   0.236   4.218
  125OSM    C1F13280   4.133   6.499   2.873
  125OSM     OF13281   4.254   6.481   2.883
  125OSM    C2F13282   4.038   6.428   2.953
  125OSM    H2F13283   4.082   6.361   3.030
  125OSM    H2G13284   3.970   6.371   2.886
  125OSM    C3F13285   3.948   6.516   3.038
  125OSM    H3F13286   3.864   6.452   3.075
  125OSM    H3G13287   3.891   6.592   2.981
  125OSM    C4F13288   4.022   6.583   3.160
  125OSM    H4F13289   4.068   6.677   3.122
  125OSM    H4G13290   4.104   6.521   3.203
  125OSM    C5F13291   3.917   6.632   3.268
  125OSM    H5F13292   3.823   6.666   3.221
  125OSM    H5G13293   3.954   6.724   3.317
  125OSM    C6F13294   3.897   6.509   3.361
  125OSM    H6F13295   3.995   6.472   3.397
  125OSM    H6G13296   3.857   6.428   3.297
  125OSM    C7F13297   3.813   6.550   3.476
  125OSM    H7F13298   3.728   6.610   3.438
  125OSM    H7G13299   3.859   6.620   3.549
  125OSM    C8F13300   3.776   6.424   3.549
  125OSM    H8F13301   3.872   6.382   3.586
  125OSM    H8G13302   3.727   6.351   3.481
  125OSM    C9F13303   3.678   6.457   3.658
  125OSM    H9F13304   3.574   6.429   3.636
  125OSM   C10F13305   3.703   6.480   3.787
  125OSM   H10F13306   3.620   6.488   3.858
  125OSM   C11F13307   3.836   6.514   3.851
  125OSM   H11F13308   3.836   6.612   3.902
  125OSM   H11G13309   3.917   6.529   3.777
  125OSM   C12F13310   3.879   6.404   3.949
  125OSM   H12F13311   3.990   6.392   3.954
  125OSM   H12G13312   3.842   6.310   3.904
  125OSM   C13F13313   3.818   6.430   4.089
  125OSM   H13F13314   3.715   6.472   4.084
  125OSM   H13G13315   3.882   6.508   4.137
  125OSM   C14F13316   3.816   6.298   4.170
  125OSM   H14F13317   3.917   6.259   4.195
  125OSM   H14G13318   3.762   6.223   4.108
  125OSM   C15F13319   3.735   6.314   4.301
  125OSM   H15F13320   3.647   6.378   4.279
  125OSM   H15G13321   3.806   6.363   4.371
  125OSM   C16F13322   3.676   6.179   4.343
  125OSM   H16F13323   3.757   6.117   4.386
  125OSM   H16G13324   3.654   6.129   4.247
  125OSM   C17F13325   3.550   6.195   4.431
  125OSM   H17F13326   3.529   6.091   4.463
  125OSM   H17G13327   3.458   6.211   4.371
  125OSM   C18F13328   3.559   6.285   4.554
  125OSM   H18F13329   3.483   6.251   4.628
  125OSM   H18G13330   3.545   6.390   4.520
  125OSM   H18H13331   3.656   6.271   4.608
  126OSM      N13332   3.210   1.622   1.844
  126OSM    C1513333   3.350   1.618   1.788
  126OSM   H15A13334   3.390   1.520   1.764
  126OSM   H15B13335   3.423   1.655   1.858
  126OSM   H15C13336   3.362   1.662   1.690
  126OSM    C1413337   3.208   1.545   1.966
  126OSM   H14A13338   3.266   1.591   2.045
  126OSM   H14B13339   3.251   1.446   1.961
  126OSM   H14C13340   3.112   1.535   2.015
  126OSM    C1313341   3.176   1.767   1.866
  126OSM   H13A13342   3.142   1.813   1.774
  126OSM   H13B13343   3.265   1.816   1.902
  126OSM   H13C13344   3.090   1.779   1.931
  126OSM    C1213345   3.112   1.549   1.747
  126OSM   H12A13346   3.138   1.445   1.734
  126OSM   H12B13347   3.114   1.590   1.647
  126OSM    C1113348   2.963   1.542   1.792
  126OSM   H11A13349   2.906   1.507   1.703
  126OSM   H11B13350   2.911   1.638   1.811
  126OSM      P13351   2.920   1.312   1.897
  126OSM    O1313352   2.780   1.294   1.853
  126OSM    O1413353   3.027   1.244   1.816
  126OSM    O1113354   2.939   1.256   2.037
  126OSM    O1213355   2.946   1.466   1.909
  126OSM    C1S13356   3.066   1.246   2.108
  126OSM    H1S13357   3.105   1.350   2.115
  126OSM    H1T13358   3.147   1.191   2.055
  126OSM     NF13359   3.153   1.227   2.335
  126OSM    HNF13360   3.232   1.165   2.331
  126OSM    C2S13361   3.039   1.196   2.252
  126OSM    H2S13362   2.961   1.262   2.295
  126OSM    C3S13363   2.979   1.050   2.262
  126OSM    H3S13364   3.069   0.992   2.232
  126OSM     O313365   2.868   1.010   2.191
  126OSM    HO313366   2.880   1.065   2.114
  126OSM    C4S13367   2.949   1.015   2.402
  126OSM    H4S13368   2.856   1.059   2.441
  126OSM    C5S13369   3.022   0.933   2.476
  126OSM    H5S13370   3.116   0.885   2.448
  126OSM    C6S13371   2.988   0.904   2.620
  126OSM    H6S13372   2.953   0.799   2.634
  126OSM    H6T13373   2.914   0.981   2.648
  126OSM    C7S13374   3.119   0.926   2.701
  126OSM    H7S13375   3.145   1.026   2.661
  126OSM    H7T13376   3.201   0.864   2.657
  126OSM    C8S13377   3.111   0.916   2.852
  126OSM    H8S13378   3.208   0.909   2.905
  126OSM    H8T13379   3.057   0.820   2.866
  126OSM    C9S13380   3.022   1.021   2.924
  126OSM    H9S13381   2.921   1.012   2.879
  126OSM    H9T13382   3.062   1.123   2.908
  126OSM   C10S13383   3.016   0.995   3.079
  126OSM   H10S13384   3.120   1.000   3.117
  126OSM   H10T13385   2.971   0.895   3.097
  126OSM   C11S13386   2.937   1.108   3.142
  126OSM   H11S13387   2.833   1.104   3.101
  126OSM   H11T13388   2.979   1.208   3.120
  126OSM   C12S13389   2.920   1.089   3.294
  126OSM   H12S13390   3.009   1.114   3.355
  126OSM   H12T13391   2.892   0.983   3.310
  126OSM   C13S13392   2.812   1.175   3.358
  126OSM   H13S13393   2.712   1.139   3.325
  126OSM   H13T13394   2.831   1.275   3.313
  126OSM   C14S13395   2.819   1.166   3.512
  126OSM   H14S13396   2.925   1.194   3.532
  126OSM   H14T13397   2.796   1.060   3.536
  126OSM   C15S13398   2.728   1.265   3.580
  126OSM   H15S13399   2.625   1.267   3.539
  126OSM   H15T13400   2.756   1.372   3.563
  126OSM   C16S13401   2.723   1.251   3.734
  126OSM   H16S13402   2.690   1.349   3.774
  126OSM   H16T13403   2.829   1.237   3.762
  126OSM   C17S13404   2.641   1.129   3.788
  126OSM   H17S13405   2.677   1.033   3.743
  126OSM   H17T13406   2.540   1.130   3.743
  126OSM   C18S13407   2.645   1.104   3.934
  126OSM   H18S13408   2.603   1.191   3.988
  126OSM   H18T13409   2.748   1.088   3.972
  126OSM   H18U13410   2.589   1.009   3.947
  126OSM    C1F13411   3.181   1.353   2.378
  126OSM     OF13412   3.108   1.447   2.344
  126OSM    C2F13413   3.305   1.370   2.444
  126OSM    H2F13414   3.366   1.432   2.375
  126OSM    H2G13415   3.357   1.274   2.461
  126OSM    C3F13416   3.285   1.447   2.579
  126OSM    H3F13417   3.238   1.544   2.552
  126OSM    H3G13418   3.379   1.463   2.636
  126OSM    C4F13419   3.181   1.384   2.682
  126OSM    H4F13420   3.205   1.278   2.705
  126OSM    H4G13421   3.083   1.391   2.631
  126OSM    C5F13422   3.186   1.463   2.809
  126OSM    H5F13423   3.179   1.570   2.781
  126OSM    H5G13424   3.284   1.452   2.860
  126OSM    C6F13425   3.080   1.436   2.914
  126OSM    H6F13426   3.076   1.325   2.919
  126OSM    H6G13427   2.981   1.469   2.876
  126OSM    C7F13428   3.121   1.479   3.049
  126OSM    H7F13429   3.221   1.441   3.081
  126OSM    H7G13430   3.045   1.428   3.111
  126OSM    C8F13431   3.131   1.630   3.081
  126OSM    H8F13432   3.231   1.661   3.042
  126OSM    H8G13433   3.130   1.649   3.190
  126OSM    C9F13434   3.017   1.705   3.015
  126OSM    H9F13435   3.036   1.750   2.917
  126OSM   C10F13436   2.894   1.707   3.066
  126OSM   H10F13437   2.813   1.758   3.012
  126OSM   C11F13438   2.850   1.637   3.196
  126OSM   H11F13439   2.925   1.569   3.243
  126OSM   H11G13440   2.764   1.568   3.180
  126OSM   C12F13441   2.824   1.739   3.311
  126OSM   H12F13442   2.729   1.789   3.282
  126OSM   H12G13443   2.906   1.813   3.312
  126OSM   C13F13444   2.810   1.679   3.453
  126OSM   H13F13445   2.916   1.658   3.482
  126OSM   H13G13446   2.749   1.587   3.463
  126OSM   C14F13447   2.758   1.782   3.560
  126OSM   H14F13448   2.660   1.831   3.538
  126OSM   H14G13449   2.834   1.861   3.571
  126OSM   C15F13450   2.756   1.712   3.699
  126OSM   H15F13451   2.849   1.652   3.707
  126OSM   H15G13452   2.665   1.651   3.686
  126OSM   C16F13453   2.729   1.800   3.820
  126OSM   H16F13454   2.713   1.724   3.899
  126OSM   H16G13455   2.632   1.853   3.817
  126OSM   C17F13456   2.857   1.882   3.858
  126OSM   H17F13457   2.874   1.956   3.776
  126OSM   H17G13458   2.949   1.820   3.858
  126OSM   C18F13459   2.851   1.953   3.996
  126OSM   H18F13460   2.946   2.007   4.017
  126OSM   H18G13461   2.840   1.879   4.079
  126OSM   H18H13462   2.767   2.025   3.996
  127OSM      N13463   1.759   2.720   1.873
  127OSM    C1513464   1.634   2.746   1.787
  127OSM   H15A13465   1.581   2.823   1.842
  127OSM   H15B13466   1.573   2.657   1.786
  127OSM   H15C13467   1.649   2.794   1.691
  127OSM    C1413468   1.824   2.591   1.822
  127OSM   H14A13469   1.922   2.578   1.867
  127OSM   H14B13470   1.834   2.601   1.715
  127OSM   H14C13471   1.763   2.506   1.848
  127OSM    C1313472   1.864   2.829   1.847
  127OSM   H13A13473   1.821   2.926   1.866
  127OSM   H13B13474   1.902   2.823   1.746
  127OSM   H13C13475   1.946   2.814   1.916
  127OSM    C1213476   1.713   2.709   2.014
  127OSM   H12A13477   1.629   2.642   2.020
  127OSM   H12B13478   1.674   2.802   2.052
  127OSM    C1113479   1.812   2.658   2.123
  127OSM   H11A13480   1.836   2.552   2.097
  127OSM   H11B13481   1.755   2.663   2.218
  127OSM      P13482   2.069   2.689   2.145
  127OSM    O1313483   2.064   2.538   2.156
  127OSM    O1413484   2.164   2.743   2.045
  127OSM    O1113485   2.107   2.753   2.277
  127OSM    O1213486   1.921   2.750   2.127
  127OSM    C1S13487   2.013   2.768   2.393
  127OSM    H1S13488   1.969   2.667   2.410
  127OSM    H1T13489   1.926   2.830   2.365
  127OSM     NF13490   1.978   2.798   2.641
  127OSM    HNF13491   1.931   2.881   2.670
  127OSM    C2S13492   2.076   2.807   2.526
  127OSM    H2S13493   2.163   2.745   2.560
  127OSM    C3S13494   2.133   2.957   2.497
  127OSM    H3S13495   2.051   3.029   2.474
  127OSM     O313496   2.224   2.955   2.391
  127OSM    HO313497   2.196   2.873   2.348
  127OSM    C4S13498   2.198   3.029   2.618
  127OSM    H4S13499   2.240   2.953   2.685
  127OSM    C5S13500   2.194   3.158   2.642
  127OSM    H5S13501   2.153   3.223   2.563
  127OSM    C6S13502   2.258   3.240   2.749
  127OSM    H6S13503   2.181   3.305   2.797
  127OSM    H6T13504   2.324   3.314   2.697
  127OSM    C7S13505   2.330   3.169   2.868
  127OSM    H7S13506   2.365   3.257   2.926
  127OSM    H7T13507   2.423   3.111   2.847
  127OSM    C8S13508   2.242   3.088   2.954
  127OSM    H8S13509   2.290   3.050   3.047
  127OSM    H8T13510   2.224   2.990   2.906
  127OSM    C9S13511   2.095   3.141   2.995
  127OSM    H9S13512   2.029   3.139   2.906
  127OSM    H9T13513   2.098   3.246   3.031
  127OSM   C10S13514   2.029   3.049   3.098
  127OSM   H10S13515   2.046   2.940   3.083
  127OSM   H10T13516   1.918   3.056   3.091
  127OSM   C11S13517   2.073   3.065   3.248
  127OSM   H11S13518   2.179   3.036   3.264
  127OSM   H11T13519   2.022   2.982   3.303
  127OSM   C12S13520   2.046   3.206   3.310
  127OSM   H12S13521   1.940   3.237   3.301
  127OSM   H12T13522   2.095   3.284   3.248
  127OSM   C13S13523   2.112   3.226   3.452
  127OSM   H13S13524   2.141   3.331   3.475
  127OSM   H13T13525   2.210   3.173   3.440
  127OSM   C14S13526   2.019   3.172   3.574
  127OSM   H14S13527   1.996   3.064   3.565
  127OSM   H14T13528   1.926   3.234   3.577
  127OSM   C15S13529   2.099   3.192   3.709
  127OSM   H15S13530   2.110   3.302   3.717
  127OSM   H15T13531   2.199   3.144   3.700
  127OSM   C16S13532   2.021   3.131   3.828
  127OSM   H16S13533   2.036   3.021   3.824
  127OSM   H16T13534   1.915   3.154   3.805
  127OSM   C17S13535   2.060   3.177   3.965
  127OSM   H17S13536   1.990   3.123   4.032
  127OSM   H17T13537   2.039   3.286   3.970
  127OSM   C18S13538   2.208   3.160   3.997
  127OSM   H18S13539   2.223   3.187   4.104
  127OSM   H18T13540   2.277   3.225   3.939
  127OSM   H18U13541   2.237   3.054   3.983
  127OSM    C1F13542   1.946   2.680   2.690
  127OSM     OF13543   2.014   2.582   2.668
  127OSM    C2F13544   1.820   2.682   2.772
  127OSM    H2F13545   1.743   2.708   2.696
  127OSM    H2G13546   1.836   2.769   2.840
  127OSM    C3F13547   1.793   2.561   2.864
  127OSM    H3F13548   1.891   2.540   2.913
  127OSM    H3G13549   1.789   2.472   2.798
  127OSM    C4F13550   1.687   2.568   2.970
  127OSM    H4F13551   1.687   2.472   3.027
  127OSM    H4G13552   1.591   2.598   2.924
  127OSM    C5F13553   1.704   2.679   3.081
  127OSM    H5F13554   1.611   2.676   3.141
  127OSM    H5G13555   1.700   2.778   3.031
  127OSM    C6F13556   1.819   2.661   3.176
  127OSM    H6F13557   1.919   2.657   3.127
  127OSM    H6G13558   1.799   2.565   3.228
  127OSM    C7F13559   1.828   2.781   3.276
  127OSM    H7F13560   1.838   2.875   3.218
  127OSM    H7G13561   1.921   2.774   3.336
  127OSM    C8F13562   1.709   2.803   3.378
  127OSM    H8F13563   1.716   2.723   3.454
  127OSM    H8G13564   1.612   2.796   3.324
  127OSM    C9F13565   1.726   2.934   3.440
  127OSM    H9F13566   1.765   3.017   3.380
  127OSM   C10F13567   1.700   2.968   3.570
  127OSM   H10F13568   1.713   3.074   3.598
  127OSM   C11F13569   1.657   2.877   3.687
  127OSM   H11F13570   1.570   2.818   3.652
  127OSM   H11G13571   1.626   2.942   3.771
  127OSM   C12F13572   1.769   2.780   3.728
  127OSM   H12F13573   1.863   2.838   3.739
  127OSM   H12G13574   1.775   2.696   3.656
  127OSM   C13F13575   1.761   2.707   3.870
  127OSM   H13F13576   1.836   2.626   3.857
  127OSM   H13G13577   1.665   2.653   3.876
  127OSM   C14F13578   1.784   2.779   4.006
  127OSM   H14F13579   1.688   2.833   4.019
  127OSM   H14G13580   1.865   2.855   3.993
  127OSM   C15F13581   1.820   2.693   4.132
  127OSM   H15F13582   1.828   2.762   4.219
  127OSM   H15G13583   1.919   2.649   4.107
  127OSM   C16F13584   1.726   2.579   4.174
  127OSM   H16F13585   1.784   2.520   4.248
  127OSM   H16G13586   1.714   2.504   4.092
  127OSM   C17F13587   1.595   2.619   4.235
  127OSM   H17F13588   1.537   2.675   4.158
  127OSM   H17G13589   1.619   2.697   4.310
  127OSM   C18F13590   1.515   2.511   4.302
  127OSM   H18F13591   1.423   2.546   4.353
  127OSM   H18G13592   1.576   2.475   4.388
  127OSM   H18H13593   1.493   2.426   4.234
  128OSM      N13594   1.992   0.189   2.007
  128OSM    C1513595   1.920   0.092   2.094
  128OSM   H15A13596   1.920   0.113   2.200
  128OSM   H15B13597   1.961   6.788   2.070
  128OSM   H15C13598   1.815   0.092   2.070
  128OSM    C1413599   2.135   0.171   2.035
  128OSM   H14A13600   2.179   0.073   2.024
  128OSM   H14B13601   2.157   0.200   2.136
  128OSM   H14C13602   2.195   0.243   1.982
  128OSM    C1313603   1.967   0.147   1.866
  128OSM   H13A13604   1.999   0.043   1.864
  128OSM   H13B13605   2.027   0.202   1.794
  128OSM   H13C13606   1.864   0.165   1.841
  128OSM    C1213607   1.944   0.331   2.031
  128OSM   H12A13608   1.840   0.341   2.003
  128OSM   H12B13609   1.992   0.380   1.948
  128OSM    C1113610   1.963   0.408   2.167
  128OSM   H11A13611   1.895   0.361   2.242
  128OSM   H11B13612   1.922   0.509   2.149
  128OSM      P13613   2.196   0.535   2.222
  128OSM    O1313614   2.327   0.498   2.284
  128OSM    O1413615   2.200   0.597   2.094
  128OSM    O1113616   2.109   0.624   2.322
  128OSM    O1213617   2.100   0.408   2.218
  128OSM    C1S13618   2.082   0.583   2.461
  128OSM    H1S13619   2.183   0.589   2.506
  128OSM    H1T13620   2.035   0.483   2.448
  128OSM     NF13621   1.985   0.627   2.672
  128OSM    HNF13622   1.946   0.537   2.691
  128OSM    C2S13623   1.981   0.679   2.535
  128OSM    H2S13624   2.023   0.781   2.521
  128OSM    C3S13625   1.842   0.680   2.465
  128OSM    H3S13626   1.798   0.583   2.495
  128OSM     O313627   1.844   0.670   2.320
  128OSM    HO313628   1.938   0.666   2.299
  128OSM    C4S13629   1.746   0.781   2.522
  128OSM    H4S13630   1.696   0.731   2.607
  128OSM    C5S13631   1.725   0.912   2.489
  128OSM    H5S13632   1.777   0.952   2.400
  128OSM    C6S13633   1.625   1.004   2.562
  128OSM    H6S13634   1.559   1.045   2.483
  128OSM    H6T13635   1.684   1.083   2.614
  128OSM    C7S13636   1.539   0.940   2.668
  128OSM    H7S13637   1.598   0.879   2.741
  128OSM    H7T13638   1.477   0.859   2.626
  128OSM    C8S13639   1.472   1.042   2.767
  128OSM    H8S13640   1.419   0.982   2.844
  128OSM    H8T13641   1.389   1.095   2.716
  128OSM    C9S13642   1.573   1.138   2.836
  128OSM    H9S13643   1.579   1.233   2.778
  128OSM    H9T13644   1.673   1.090   2.829
  128OSM   C10S13645   1.528   1.165   2.980
  128OSM   H10S13646   1.571   1.081   3.038
  128OSM   H10T13647   1.417   1.172   2.986
  128OSM   C11S13648   1.578   1.300   3.032
  128OSM   H11S13649   1.527   1.376   2.969
  128OSM   H11T13650   1.688   1.304   3.015
  128OSM   C12S13651   1.531   1.343   3.179
  128OSM   H12S13652   1.425   1.325   3.208
  128OSM   H12T13653   1.548   1.452   3.188
  128OSM   C13S13654   1.612   1.271   3.284
  128OSM   H13S13655   1.709   1.246   3.237
  128OSM   H13T13656   1.557   1.177   3.307
  128OSM   C14S13657   1.634   1.366   3.402
  128OSM   H14S13658   1.538   1.402   3.446
  128OSM   H14T13659   1.682   1.462   3.377
  128OSM   C15S13660   1.724   1.306   3.507
  128OSM   H15S13661   1.820   1.271   3.463
  128OSM   H15T13662   1.681   1.221   3.563
  128OSM   C16S13663   1.760   1.411   3.611
  128OSM   H16S13664   1.669   1.453   3.660
  128OSM   H16T13665   1.798   1.502   3.562
  128OSM   C17S13666   1.855   1.367   3.719
  128OSM   H17S13667   1.866   1.451   3.791
  128OSM   H17T13668   1.950   1.355   3.663
  128OSM   C18S13669   1.818   1.255   3.817
  128OSM   H18S13670   1.724   1.283   3.870
  128OSM   H18T13671   1.898   1.234   3.891
  128OSM   H18U13672   1.792   1.163   3.759
  128OSM    C1F13673   2.083   0.658   2.759
  128OSM     OF13674   2.137   0.767   2.755
  128OSM    C2F13675   2.115   0.562   2.875
  128OSM    H2F13676   2.219   0.527   2.854
  128OSM    H2G13677   2.046   0.476   2.866
  128OSM    C3F13678   2.111   0.632   3.008
  128OSM    H3F13679   2.011   0.678   3.022
  128OSM    H3G13680   2.189   0.711   3.006
  128OSM    C4F13681   2.146   0.531   3.122
  128OSM    H4F13682   2.251   0.494   3.116
  128OSM    H4G13683   2.078   0.444   3.118
  128OSM    C5F13684   2.132   0.610   3.255
  128OSM    H5F13685   2.034   0.662   3.265
  128OSM    H5G13686   2.213   0.686   3.252
  128OSM    C6F13687   2.155   0.512   3.366
  128OSM    H6F13688   2.263   0.489   3.380
  128OSM    H6G13689   2.104   0.419   3.334
  128OSM    C7F13690   2.096   0.570   3.497
  128OSM    H7F13691   1.999   0.620   3.477
  128OSM    H7G13692   2.167   0.650   3.528
  128OSM    C8F13693   2.080   0.464   3.604
  128OSM    H8F13694   1.999   0.395   3.574
  128OSM    H8G13695   2.055   0.519   3.698
  128OSM    C9F13696   2.215   0.395   3.630
  128OSM    H9F13697   2.286   0.401   3.547
  128OSM   C10F13698   2.261   0.333   3.740
  128OSM   H10F13699   2.365   0.301   3.732
  128OSM   C11F13700   2.193   0.307   3.870
  128OSM   H11F13701   2.177   0.198   3.887
  128OSM   H11G13702   2.098   0.363   3.873
  128OSM   C12F13703   2.277   0.351   3.993
  128OSM   H12F13704   2.228   0.330   4.091
  128OSM   H12G13705   2.278   0.461   3.984
  128OSM   C13F13706   2.421   0.299   4.009
  128OSM   H13F13707   2.482   0.335   3.923
  128OSM   H13G13708   2.422   0.188   4.009
  128OSM   C14F13709   2.489   0.336   4.148
  128OSM   H14F13710   2.450   0.437   4.174
  128OSM   H14G13711   2.597   0.361   4.139
  128OSM   C15F13712   2.460   0.235   4.257
  128OSM   H15F13713   2.492   0.138   4.212
  128OSM   H15G13714   2.353   0.223   4.281
  128OSM   C16F13715   2.526   0.253   4.391
  128OSM   H16F13716   2.495   0.349   4.436
  128OSM   H16G13717   2.636   0.258   4.374
  128OSM   C17F13718   2.482   0.139   4.479
  128OSM   H17F13719   2.558   0.134   4.560
  128OSM   H17G13720   2.495   0.040   4.429
  128OSM   C18F13721   2.343   0.142   4.547
  128OSM   H18F13722   2.268   0.117   4.469
  128OSM   H18G13723   2.319   0.245   4.582
  128OSM   H18H13724   2.339   0.083   4.640
  129OSM      N13725   3.966   6.391   2.156
  129OSM    C1513726   4.003   6.304   2.045
  129OSM   H15A13727   4.108   6.312   2.020
  129OSM   H15B13728   3.944   6.331   1.958
  129OSM   H15C13729   3.983   6.199   2.058
  129OSM    C1413730   3.815   6.398   2.167
  129OSM   H14A13731   3.778   6.299   2.191
  129OSM   H14B13732   3.778   6.448   2.079
  129OSM   H14C13733   3.797   6.470   2.245
  129OSM    C1313734   4.029   6.325   2.277
  129OSM   H13A13735   4.131   6.302   2.251
  129OSM   H13B13736   3.978   6.235   2.310
  129OSM   H13C13737   4.034   6.391   2.363
  129OSM    C1213738   4.034   6.528   2.138
  129OSM   H12A13739   4.019   6.559   2.036
  129OSM   H12B13740   4.140   6.508   2.147
  129OSM    C1113741   4.004   6.647   2.230
  129OSM   H11A13742   4.070   6.733   2.209
  129OSM   H11B13743   4.024   6.617   2.335
  129OSM      P13744   3.827   6.792   2.115
  129OSM    O1313745   3.915   6.778   1.996
  129OSM    O1413746   3.684   6.768   2.081
  129OSM    O1113747   3.841   0.144   2.186
  129OSM    O1213748   3.872   6.693   2.222
  129OSM    C1S13749   3.739   0.183   2.281
  129OSM    H1S13750   3.673   0.101   2.315
  129OSM    H1T13751   3.673   0.262   2.238
  129OSM     NF13752   3.696   0.258   2.516
  129OSM    HNF13753   3.672   0.349   2.550
  129OSM    C2S13754   3.800   0.243   2.414
  129OSM    H2S13755   3.876   0.174   2.456
  129OSM    C3S13756   3.868   0.382   2.382
  129OSM    H3S13757   3.791   0.456   2.350
  129OSM     O313758   3.965   0.369   2.277
  129OSM    HO313759   3.937   0.288   2.233
  129OSM    C4S13760   3.941   0.430   2.506
  129OSM    H4S13761   4.024   0.372   2.548
  129OSM    C5S13762   3.925   0.552   2.565
  129OSM    H5S13763   3.849   0.619   2.522
  129OSM    C6S13764   4.013   0.602   2.679
  129OSM    H6S13765   4.056   0.701   2.653
  129OSM    H6T13766   4.096   0.530   2.699
  129OSM    C7S13767   3.937   0.621   2.812
  129OSM    H7S13768   3.899   0.527   2.859
  129OSM    H7T13769   3.854   0.693   2.801
  129OSM    C8S13770   4.034   0.689   2.922
  129OSM    H8S13771   4.086   0.772   2.869
  129OSM    H8T13772   4.115   0.619   2.954
  129OSM    C9S13773   3.956   0.742   3.042
  129OSM    H9S13774   3.894   0.662   3.088
  129OSM    H9T13775   3.880   0.812   3.000
  129OSM   C10S13776   4.038   0.818   3.149
  129OSM   H10S13777   4.096   0.895   3.094
  129OSM   H10T13778   4.124   0.754   3.180
  129OSM   C11S13779   3.962   0.861   3.268
  129OSM   H11S13780   3.865   0.912   3.249
  129OSM   H11T13781   4.014   0.943   3.322
  129OSM   C12S13782   3.949   0.748   3.370
  129OSM   H12S13783   4.046   0.694   3.379
  129OSM   H12T13784   3.879   0.663   3.352
  129OSM   C13S13785   3.921   0.802   3.510
  129OSM   H13S13786   3.888   0.909   3.505
  129OSM   H13T13787   4.017   0.791   3.564
  129OSM   C14S13788   3.822   0.718   3.585
  129OSM   H14S13789   3.870   0.617   3.591
  129OSM   H14T13790   3.733   0.716   3.518
  129OSM   C15S13791   3.786   0.791   3.715
  129OSM   H15S13792   3.742   0.893   3.705
  129OSM   H15T13793   3.882   0.809   3.770
  129OSM   C16S13794   3.704   0.711   3.817
  129OSM   H16S13795   3.707   0.600   3.820
  129OSM   H16T13796   3.601   0.721   3.776
  129OSM   C17S13797   3.715   0.774   3.959
  129OSM   H17S13798   3.705   0.884   3.951
  129OSM   H17T13799   3.814   0.767   4.008
  129OSM   C18S13800   3.617   0.715   4.059
  129OSM   H18S13801   3.508   0.707   4.041
  129OSM   H18T13802   3.632   0.754   4.161
  129OSM   H18U13803   3.640   0.608   4.078
  129OSM    C1F13804   3.627   0.146   2.569
  129OSM     OF13805   3.645   0.030   2.533
  129OSM    C2F13806   3.526   0.194   2.673
  129OSM    H2F13807   3.470   0.282   2.638
  129OSM    H2G13808   3.582   0.229   2.763
  129OSM    C3F13809   3.430   0.086   2.733
  129OSM    H3F13810   3.484   0.007   2.788
  129OSM    H3G13811   3.380   0.036   2.647
  129OSM    C4F13812   3.331   0.156   2.830
  129OSM    H4F13813   3.244   0.087   2.831
  129OSM    H4G13814   3.301   0.250   2.779
  129OSM    C5F13815   3.380   0.181   2.970
  129OSM    H5F13816   3.312   0.252   3.022
  129OSM    H5G13817   3.483   0.223   2.975
  129OSM    C6F13818   3.384   0.056   3.057
  129OSM    H6F13819   3.448   6.768   3.015
  129OSM    H6G13820   3.282   0.011   3.063
  129OSM    C7F13821   3.419   0.091   3.204
  129OSM    H7F13822   3.357   0.173   3.245
  129OSM    H7G13823   3.517   0.141   3.190
  129OSM    C8F13824   3.421   6.762   3.291
  129OSM    H8F13825   3.487   6.685   3.245
  129OSM    H8G13826   3.322   6.710   3.293
  129OSM    C9F13827   3.483   6.788   3.425
  129OSM    H9F13828   3.578   0.050   3.425
  129OSM   C10F13829   3.436   6.766   3.553
  129OSM   H10F13830   3.495   0.010   3.638
  129OSM   C11F13831   3.312   6.680   3.582
  129OSM   H11F13832   3.290   6.617   3.493
  129OSM   H11G13833   3.231   6.754   3.598
  129OSM   C12F13834   3.339   6.603   3.708
  129OSM   H12F13835   3.429   6.541   3.690
  129OSM   H12G13836   3.253   6.533   3.715
  129OSM   C13F13837   3.350   6.674   3.846
  129OSM   H13F13838   3.302   6.774   3.851
  129OSM   H13G13839   3.460   6.686   3.837
  129OSM   C14F13840   3.328   6.585   3.967
  129OSM   H14F13841   3.343   6.479   3.938
  129OSM   H14G13842   3.224   6.612   3.995
  129OSM   C15F13843   3.406   6.612   4.099
  129OSM   H15F13844   3.515   6.630   4.087
  129OSM   H15G13845   3.397   6.521   4.161
  129OSM   C16F13846   3.354   6.726   4.181
  129OSM   H16F13847   3.250   6.705   4.212
  129OSM   H16G13848   3.353   0.025   4.118
  129OSM   C17F13849   3.451   6.755   4.297
  129OSM   H17F13850   3.558   6.771   4.270
  129OSM   H17G13851   3.450   6.661   4.356
  129OSM   C18F13852   3.407   0.078   4.382
  129OSM   H18F13853   3.478   0.093   4.466
  129OSM   H18G13854   3.305   0.063   4.424
  129OSM   H18H13855   3.395   0.174   4.326
  130OSM      N13856   4.092   4.031   2.208
  130OSM    C1513857   4.172   4.156   2.182
  130OSM   H15A13858   4.236   4.144   2.096
  130OSM   H15B13859   4.233   4.169   2.270
  130OSM   H15C13860   4.104   4.239   2.171
  130OSM    C1413861   4.189   3.920   2.251
  130OSM   H14A13862   4.261   3.895   2.174
  130OSM   H14B13863   4.126   3.833   2.262
  130OSM   H14C13864   4.243   3.945   2.341
  130OSM    C1313865   4.015   4.066   2.330
  130OSM   H13A13866   3.946   4.146   2.309
  130OSM   H13B13867   4.084   4.087   2.410
  130OSM   H13C13868   3.960   3.978   2.363
  130OSM    C1213869   4.007   3.999   2.079
  130OSM   H12A13870   4.061   3.973   1.989
  130OSM   H12B13871   3.953   4.089   2.057
  130OSM    C1113872   3.893   3.890   2.090
  130OSM   H11A13873   3.937   3.795   2.128
  130OSM   H11B13874   3.862   3.894   1.983
  130OSM      P13875   3.652   3.852   2.186
  130OSM    O1313876   3.556   3.915   2.089
  130OSM    O1413877   3.685   3.704   2.166
  130OSM    O1113878   3.601   3.874   2.333
  130OSM    O1213879   3.784   3.932   2.179
  130OSM    C1S13880   3.686   3.949   2.427
  130OSM    H1S13881   3.684   4.057   2.399
  130OSM    H1T13882   3.791   3.914   2.416
  130OSM     NF13883   3.728   4.014   2.662
  130OSM    HNF13884   3.815   3.970   2.684
  130OSM    C2S13885   3.637   3.936   2.577
  130OSM    H2S13886   3.531   3.967   2.579
  130OSM    C3S13887   3.635   3.788   2.617
  130OSM    H3S13888   3.741   3.757   2.623
  130OSM     O313889   3.564   3.695   2.536
  130OSM    HO313890   3.566   3.738   2.450
  130OSM    C4S13891   3.575   3.778   2.754
  130OSM    H4S13892   3.466   3.792   2.753
  130OSM    C5S13893   3.647   3.754   2.868
  130OSM    H5S13894   3.756   3.741   2.866
  130OSM    C6S13895   3.581   3.755   3.005
  130OSM    H6S13896   3.551   3.650   3.025
  130OSM    H6T13897   3.490   3.819   2.998
  130OSM    C7S13898   3.672   3.800   3.123
  130OSM    H7S13899   3.704   3.905   3.103
  130OSM    H7T13900   3.757   3.729   3.126
  130OSM    C8S13901   3.609   3.784   3.261
  130OSM    H8S13902   3.586   3.675   3.261
  130OSM    H8T13903   3.510   3.835   3.258
  130OSM    C9S13904   3.689   3.834   3.381
  130OSM    H9S13905   3.707   3.943   3.378
  130OSM    H9T13906   3.792   3.800   3.356
  130OSM   C10S13907   3.643   3.779   3.519
  130OSM   H10S13908   3.622   3.670   3.508
  130OSM   H10T13909   3.549   3.829   3.548
  130OSM   C11S13910   3.755   3.796   3.625
  130OSM   H11S13911   3.855   3.764   3.588
  130OSM   H11T13912   3.728   3.754   3.724
  130OSM   C12S13913   3.773   3.946   3.659
  130OSM   H12S13914   3.671   3.986   3.645
  130OSM   H12T13915   3.839   3.985   3.579
  130OSM   C13S13916   3.819   3.967   3.799
  130OSM   H13S13917   3.863   4.069   3.802
  130OSM   H13T13918   3.900   3.898   3.833
  130OSM   C14S13919   3.706   3.951   3.903
  130OSM   H14S13920   3.672   3.846   3.895
  130OSM   H14T13921   3.619   4.017   3.879
  130OSM   C15S13922   3.770   3.969   4.037
  130OSM   H15S13923   3.869   3.921   4.048
  130OSM   H15T13924   3.710   3.918   4.116
  130OSM   C16S13925   3.768   4.111   4.085
  130OSM   H16S13926   3.683   4.172   4.046
  130OSM   H16T13927   3.860   4.155   4.040
  130OSM   C17S13928   3.791   4.129   4.243
  130OSM   H17S13929   3.716   4.066   4.294
  130OSM   H17T13930   3.767   4.234   4.269
  130OSM   C18S13931   3.933   4.109   4.287
  130OSM   H18S13932   3.947   4.158   4.386
  130OSM   H18T13933   4.008   4.149   4.216
  130OSM   H18U13934   3.951   4.000   4.298
  130OSM    C1F13935   3.710   4.147   2.670
  130OSM     OF13936   3.602   4.191   2.644
  130OSM    C2F13937   3.816   4.222   2.731
  130OSM    H2F13938   3.890   4.248   2.652
  130OSM    H2G13939   3.871   4.183   2.819
  130OSM    C3F13940   3.767   4.368   2.761
  130OSM    H3F13941   3.683   4.357   2.832
  130OSM    H3G13942   3.729   4.408   2.665
  130OSM    C4F13943   3.870   4.464   2.832
  130OSM    H4F13944   3.823   4.552   2.879
  130OSM    H4G13945   3.941   4.504   2.756
  130OSM    C5F13946   3.947   4.420   2.952
  130OSM    H5F13947   3.998   4.511   2.991
  130OSM    H5G13948   4.007   4.334   2.913
  130OSM    C6F13949   3.852   4.352   3.059
  130OSM    H6F13950   3.797   4.268   3.010
  130OSM    H6G13951   3.798   4.432   3.113
  130OSM    C7F13952   3.941   4.276   3.161
  130OSM    H7F13953   4.015   4.350   3.198
  130OSM    H7G13954   4.003   4.201   3.107
  130OSM    C8F13955   3.867   4.220   3.289
  130OSM    H8F13956   3.775   4.164   3.264
  130OSM    H8G13957   3.833   4.310   3.343
  130OSM    C9F13958   3.966   4.145   3.374
  130OSM    H9F13959   3.987   4.042   3.343
  130OSM   C10F13960   4.031   4.187   3.484
  130OSM   H10F13961   4.106   4.125   3.535
  130OSM   C11F13962   4.009   4.319   3.555
  130OSM   H11F13963   3.902   4.322   3.585
  130OSM   H11G13964   4.018   4.396   3.475
  130OSM   C12F13965   4.120   4.357   3.653
  130OSM   H12F13966   4.108   4.467   3.664
  130OSM   H12G13967   4.221   4.340   3.610
  130OSM   C13F13968   4.109   4.283   3.784
  130OSM   H13F13969   4.084   4.175   3.770
  130OSM   H13G13970   4.025   4.331   3.838
  130OSM   C14F13971   4.224   4.303   3.886
  130OSM   H14F13972   4.234   4.413   3.899
  130OSM   H14G13973   4.322   4.264   3.849
  130OSM   C15F13974   4.192   4.247   4.022
  130OSM   H15F13975   4.165   4.139   4.018
  130OSM   H15G13976   4.100   4.299   4.057
  130OSM   C16F13977   4.307   4.276   4.123
  130OSM   H16F13978   4.333   4.383   4.112
  130OSM   H16G13979   4.394   4.211   4.102
  130OSM   C17F13980   4.274   4.256   4.267
  130OSM   H17F13981   4.369   4.253   4.325
  130OSM   H17G13982   4.226   4.156   4.278
  130OSM   C18F13983   4.185   4.368   4.315
  130OSM   H18F13984   4.229   4.464   4.281
  130OSM   H18G13985   4.181   4.361   4.426
  130OSM   H18H13986   4.085   4.339   4.276
  131OSM      N13987   1.130   0.036   2.022
  131OSM    C1513988   1.213   6.712   1.985
  131OSM   H15A13989   1.150   6.625   1.995
  131OSM   H15B13990   1.279   6.697   2.070
  131OSM   H15C13991   1.259   6.719   1.887
  131OSM    C1413992   1.033   0.063   1.906
  131OSM   H14A13993   0.990   6.760   1.881
  131OSM   H14B13994   1.082   0.097   1.815
  131OSM   H14C13995   0.953   0.132   1.930
  131OSM    C1313996   1.029   6.790   2.132
  131OSM   H13A13997   0.981   6.695   2.111
  131OSM   H13B13998   0.946   0.066   2.125
  131OSM   H13C13999   1.072   6.777   2.230
  131OSM    C1214000   1.205   0.163   2.051
  131OSM   H12A14001   1.126   0.236   2.064
  131OSM   H12B14002   1.263   0.198   1.967
  131OSM    C1114003   1.298   0.155   2.169
  131OSM   H11A14004   1.244   0.089   2.240
  131OSM   H11B14005   1.303   0.254   2.220
  131OSM      P14006   1.534   0.180   2.068
  131OSM    O1314007   1.634   0.095   2.003
  131OSM    O1414008   1.472   0.279   1.983
  131OSM    O1114009   1.608   0.251   2.187
  131OSM    O1214010   1.423   0.100   2.140
  131OSM    C1S14011   1.553   0.343   2.277
  131OSM    H1S14012   1.462   0.391   2.236
  131OSM    H1T14013   1.625   0.427   2.271
  131OSM     NF14014   1.486   0.417   2.505
  131OSM    HNF14015   1.553   0.437   2.575
  131OSM    C2S14016   1.531   0.302   2.425
  131OSM    H2S14017   1.454   0.222   2.416
  131OSM    C3S14018   1.659   0.225   2.478
  131OSM    H3S14019   1.736   0.298   2.512
  131OSM     O314020   1.698   0.118   2.392
  131OSM    HO314021   1.687   0.151   2.303
  131OSM    C4S14022   1.631   0.162   2.617
  131OSM    H4S14023   1.702   0.194   2.695
  131OSM    C5S14024   1.545   0.060   2.650
  131OSM    H5S14025   1.515   6.785   2.568
  131OSM    C6S14026   1.524   6.779   2.777
  131OSM    H6S14027   1.599   6.698   2.776
  131OSM    H6T14028   1.426   6.727   2.773
  131OSM    C7S14029   1.540   0.068   2.899
  131OSM    H7S14030   1.458   0.142   2.904
  131OSM    H7T14031   1.637   0.122   2.907
  131OSM    C8S14032   1.544   6.779   3.029
  131OSM    H8S14033   1.625   6.703   3.021
  131OSM    H8T14034   1.447   6.729   3.050
  131OSM    C9S14035   1.581   0.078   3.151
  131OSM    H9S14036   1.499   0.152   3.153
  131OSM    H9T14037   1.677   0.130   3.132
  131OSM   C10S14038   1.589   0.005   3.281
  131OSM   H10S14039   1.686   6.743   3.277
  131OSM   H10T14040   1.508   6.722   3.275
  131OSM   C11S14041   1.573   0.094   3.407
  131OSM   H11S14042   1.476   0.147   3.397
  131OSM   H11T14043   1.656   0.167   3.391
  131OSM   C12S14044   1.572   0.026   3.551
  131OSM   H12S14045   1.666   6.762   3.568
  131OSM   H12T14046   1.483   6.756   3.571
  131OSM   C13S14047   1.570   0.138   3.660
  131OSM   H13S14048   1.494   0.216   3.640
  131OSM   H13T14049   1.662   0.199   3.643
  131OSM   C14S14050   1.570   0.083   3.804
  131OSM   H14S14051   1.661   0.021   3.815
  131OSM   H14T14052   1.482   0.015   3.803
  131OSM   C15S14053   1.555   0.188   3.912
  131OSM   H15S14054   1.507   0.139   3.999
  131OSM   H15T14055   1.495   0.273   3.874
  131OSM   C16S14056   1.682   0.260   3.949
  131OSM   H16S14057   1.701   0.349   3.886
  131OSM   H16T14058   1.772   0.197   3.934
  131OSM   C17S14059   1.689   0.315   4.100
  131OSM   H17S14060   1.691   0.233   4.175
  131OSM   H17T14061   1.593   0.370   4.109
  131OSM   C18S14062   1.806   0.412   4.117
  131OSM   H18S14063   1.813   0.476   4.208
  131OSM   H18T14064   1.816   0.478   4.029
  131OSM   H18U14065   1.894   0.344   4.125
  131OSM    C1F14066   1.368   0.475   2.486
  131OSM     OF14067   1.280   0.426   2.413
  131OSM    C2F14068   1.349   0.594   2.568
  131OSM    H2F14069   1.405   0.683   2.533
  131OSM    H2G14070   1.385   0.576   2.671
  131OSM    C3F14071   1.206   0.620   2.570
  131OSM    H3F14072   1.133   0.537   2.581
  131OSM    H3G14073   1.180   0.666   2.472
  131OSM    C4F14074   1.166   0.738   2.659
  131OSM    H4F14075   1.063   0.772   2.633
  131OSM    H4G14076   1.238   0.817   2.630
  131OSM    C5F14077   1.174   0.705   2.809
  131OSM    H5F14078   1.277   0.701   2.851
  131OSM    H5G14079   1.132   0.605   2.833
  131OSM    C6F14080   1.079   0.804   2.887
  131OSM    H6F14081   0.974   0.778   2.865
  131OSM    H6G14082   1.113   0.904   2.850
  131OSM    C7F14083   1.096   0.794   3.043
  131OSM    H7F14084   1.069   0.691   3.074
  131OSM    H7G14085   1.014   0.848   3.093
  131OSM    C8F14086   1.239   0.836   3.098
  131OSM    H8F14087   1.245   0.946   3.086
  131OSM    H8G14088   1.323   0.795   3.039
  131OSM    C9F14089   1.261   0.795   3.244
  131OSM    H9F14090   1.221   0.695   3.261
  131OSM   C10F14091   1.280   0.869   3.361
  131OSM   H10F14092   1.298   0.825   3.461
  131OSM   C11F14093   1.308   1.016   3.364
  131OSM   H11F14094   1.289   1.055   3.261
  131OSM   H11G14095   1.418   1.018   3.376
  131OSM   C12F14096   1.226   1.101   3.470
  131OSM   H12F14097   1.119   1.072   3.458
  131OSM   H12G14098   1.233   1.203   3.425
  131OSM   C13F14099   1.282   1.093   3.609
  131OSM   H13F14100   1.272   0.984   3.628
  131OSM   H13G14101   1.222   1.145   3.687
  131OSM   C14F14102   1.422   1.150   3.633
  131OSM   H14F14103   1.436   1.252   3.590
  131OSM   H14G14104   1.493   1.081   3.583
  131OSM   C15F14105   1.443   1.152   3.787
  131OSM   H15F14106   1.552   1.152   3.812
  131OSM   H15G14107   1.400   1.056   3.821
  131OSM   C16F14108   1.400   1.280   3.861
  131OSM   H16F14109   1.291   1.296   3.844
  131OSM   H16G14110   1.439   1.375   3.819
  131OSM   C17F14111   1.439   1.283   4.011
  131OSM   H17F14112   1.398   1.374   4.060
  131OSM   H17G14113   1.549   1.297   4.014
  131OSM   C18F14114   1.399   1.154   4.089
  131OSM   H18F14115   1.293   1.131   4.065
  131OSM   H18G14116   1.420   1.164   4.197
  131OSM   H18H14117   1.462   1.069   4.053
  132OSM      N14118   5.713   6.510   2.389
  132OSM    C1514119   5.673   6.369   2.394
  132OSM   H15A14120   5.604   6.342   2.316
  132OSM   H15B14121   5.618   6.345   2.484
  132OSM   H15C14122   5.764   6.313   2.379
  132OSM    C1414123   5.589   6.591   2.404
  132OSM   H14A14124   5.611   6.689   2.365
  132OSM   H14B14125   5.554   6.592   2.507
  132OSM   H14C14126   5.506   6.549   2.350
  132OSM    C1314127   5.805   6.544   2.506
  132OSM   H13A14128   5.763   6.504   2.597
  132OSM   H13B14129   5.811   6.649   2.531
  132OSM   H13C14130   5.903   6.506   2.482
  132OSM    C1214131   5.774   6.546   2.253
  132OSM   H12A14132   5.786   6.653   2.244
  132OSM   H12B14133   5.704   6.527   2.173
  132OSM    C1114134   5.912   6.479   2.235
  132OSM   H11A14135   5.953   6.497   2.133
  132OSM   H11B14136   5.889   6.370   2.242
  132OSM      P14137   6.085   6.655   2.293
  132OSM    O1314138   6.196   6.616   2.204
  132OSM    O1414139   5.988   6.756   2.238
  132OSM    O1114140   6.142   6.699   2.443
  132OSM    O1214141   6.009   6.529   2.326
  132OSM    C1S14142   6.203   6.598   2.522
  132OSM    H1S14143   6.269   6.532   2.462
  132OSM    H1T14144   6.124   6.531   2.561
  132OSM     NF14145   6.354   6.534   2.701
  132OSM    HNF14146   6.308   6.482   2.773
  132OSM    C2S14147   6.290   6.650   2.648
  132OSM    H2S14148   6.367   6.721   2.612
  132OSM    C3S14149   6.193   6.718   2.746
  132OSM    H3S14150   6.124   6.637   2.779
  132OSM     O314151   6.106   0.025   2.687
  132OSM    HO314152   6.121   0.016   2.592
  132OSM    C4S14153   6.274   6.782   2.850
  132OSM    H4S14154   6.335   0.070   2.806
  132OSM    C5S14155   6.269   6.746   2.977
  132OSM    H5S14156   6.210   6.657   3.007
  132OSM    C6S14157   6.338   0.003   3.102
  132OSM    H6S14158   6.260   0.048   3.167
  132OSM    H6T14159   6.420   0.076   3.081
  132OSM    C7S14160   6.411   6.682   3.173
  132OSM    H7S14161   6.494   6.652   3.106
  132OSM    H7T14162   6.347   6.593   3.187
  132OSM    C8S14163   6.470   6.728   3.312
  132OSM    H8S14164   6.522   0.034   3.311
  132OSM    H8T14165   6.549   6.654   3.338
  132OSM    C9S14166   6.377   6.722   3.429
  132OSM    H9S14167   6.282   6.766   3.393
  132OSM    H9T14168   6.429   6.777   3.510
  132OSM   C10S14169   6.349   6.577   3.466
  132OSM   H10S14170   6.444   6.522   3.478
  132OSM   H10T14171   6.291   6.522   3.389
  132OSM   C11S14172   6.273   6.559   3.603
  132OSM   H11S14173   6.236   6.456   3.622
  132OSM   H11T14174   6.188   6.630   3.594
  132OSM   C12S14175   6.359   6.600   3.722
  132OSM   H12S14176   6.382   6.709   3.726
  132OSM   H12T14177   6.455   6.544   3.714
  132OSM   C13S14178   6.296   6.559   3.857
  132OSM   H13S14179   6.248   6.459   3.850
  132OSM   H13T14180   6.220   6.632   3.891
  132OSM   C14S14181   6.401   6.543   3.971
  132OSM   H14S14182   6.346   6.561   4.066
  132OSM   H14T14183   6.476   6.625   3.967
  132OSM   C15S14184   6.473   6.412   3.956
  132OSM   H15S14185   6.542   6.405   3.869
  132OSM   H15T14186   6.401   6.329   3.943
  132OSM   C16S14187   6.567   6.390   4.074
  132OSM   H16S14188   6.517   6.419   4.169
  132OSM   H16T14189   6.648   6.464   4.055
  132OSM   C17S14190   6.611   6.247   4.075
  132OSM   H17S14191   6.650   6.227   3.973
  132OSM   H17T14192   6.517   6.193   4.099
  132OSM   C18S14193   6.712   6.209   4.185
  132OSM   H18S14194   6.652   6.203   4.278
  132OSM   H18T14195   6.789   6.289   4.188
  132OSM   H18U14196   6.757   6.110   4.160
  132OSM    C1F14197   6.457   6.475   2.632
  132OSM     OF14198   6.506   6.538   2.540
  132OSM    C2F14199   6.523   6.352   2.689
  132OSM    H2F14200   6.631   6.377   2.694
  132OSM    H2G14201   6.525   6.279   2.606
  132OSM    C3F14202   6.478   6.286   2.824
  132OSM    H3F14203   6.540   6.195   2.828
  132OSM    H3G14204   6.370   6.261   2.830
  132OSM    C4F14205   6.524   6.358   2.954
  132OSM    H4F14206   6.463   6.448   2.976
  132OSM    H4G14207   6.632   6.381   2.943
  132OSM    C5F14208   6.523   6.270   3.079
  132OSM    H5F14209   6.559   6.169   3.050
  132OSM    H5G14210   6.416   6.254   3.106
  132OSM    C6F14211   6.595   6.316   3.203
  132OSM    H6F14212   6.558   6.420   3.215
  132OSM    H6G14213   6.702   6.314   3.173
  132OSM    C7F14214   6.584   6.221   3.323
  132OSM    H7F14215   6.593   6.113   3.300
  132OSM    H7G14216   6.480   6.236   3.360
  132OSM    C8F14217   6.689   6.250   3.433
  132OSM    H8F14218   6.697   6.360   3.442
  132OSM    H8G14219   0.001   6.222   3.410
  132OSM    C9F14220   6.647   6.194   3.568
  132OSM    H9F14221   6.556   6.245   3.602
  132OSM   C10F14222   6.708   6.098   3.639
  132OSM   H10F14223   6.655   6.064   3.730
  132OSM   C11F14224   0.033   6.006   3.597
  132OSM   H11F14225   0.033   5.979   3.489
  132OSM   H11G14226   0.013   5.912   3.653
  132OSM   C12F14227   0.170   6.054   3.637
  132OSM   H12F14228   0.186   6.155   3.595
  132OSM   H12G14229   0.244   5.994   3.579
  132OSM   C13F14230   0.186   6.039   3.790
  132OSM   H13F14231   0.178   5.931   3.816
  132OSM   H13G14232   0.115   6.101   3.849
  132OSM   C14F14233   0.324   6.089   3.834
  132OSM   H14F14234   0.348   6.182   3.778
  132OSM   H14G14235   0.398   6.010   3.808
  132OSM   C15F14236   0.336   6.114   3.980
  132OSM   H15F14237   0.323   6.014   4.026
  132OSM   H15G14238   0.253   6.177   4.019
  132OSM   C16F14239   0.469   6.175   4.016
  132OSM   H16F14240   0.484   6.273   3.966
  132OSM   H16G14241   0.550   6.103   3.993
  132OSM   C17F14242   0.459   6.211   4.161
  132OSM   H17F14243   0.462   6.124   4.230
  132OSM   H17G14244   0.360   6.257   4.182
  132OSM   C18F14245   0.563   6.301   4.213
  132OSM   H18F14246   0.575   6.388   4.144
  132OSM   H18G14247   0.662   6.251   4.220
  132OSM   H18H14248   0.535   6.347   4.310
  133OSM      N14249   4.581   3.382   2.070
  133OSM    C1514250   4.473   3.461   2.009
  133OSM   H15A14251   4.428   3.403   1.930
  133OSM   H15B14252   4.514   3.549   1.962
  133OSM   H15C14253   4.395   3.490   2.078
  133OSM    C1414254   4.677   3.334   1.964
  133OSM   H14A14255   4.616   3.265   1.907
  133OSM   H14B14256   4.756   3.277   2.010
  133OSM   H14C14257   4.723   3.415   1.909
  133OSM    C1314258   4.664   3.478   2.156
  133OSM   H13A14259   4.754   3.425   2.185
  133OSM   H13B14260   4.612   3.515   2.243
  133OSM   H13C14261   4.691   3.565   2.098
  133OSM    C1214262   4.524   3.274   2.162
  133OSM   H12A14263   4.469   3.204   2.101
  133OSM   H12B14264   4.443   3.318   2.218
  133OSM    C1114265   4.617   3.189   2.252
  133OSM   H11A14266   4.557   3.123   2.320
  133OSM   H11B14267   4.683   3.251   2.317
  133OSM      P14268   4.843   3.069   2.176
  133OSM    O1314269   4.882   2.935   2.127
  133OSM    O1414270   4.908   3.187   2.117
  133OSM    O1114271   4.868   3.069   2.336
  133OSM    O1214272   4.689   3.099   2.161
  133OSM    C1S14273   4.854   2.954   2.413
  133OSM    H1S14274   4.935   2.877   2.407
  133OSM    H1T14275   4.769   2.888   2.385
  133OSM     NF14276   4.834   2.852   2.625
  133OSM    HNF14277   4.739   2.822   2.627
  133OSM    C2S14278   4.852   2.980   2.564
  133OSM    H2S14279   4.953   3.012   2.598
  133OSM    C3S14280   4.743   3.076   2.618
  133OSM    H3S14281   4.643   3.036   2.589
  133OSM     O314282   4.747   3.207   2.560
  133OSM    HO314283   4.783   3.188   2.473
  133OSM    C4S14284   4.738   3.091   2.773
  133OSM    H4S14285   4.838   3.096   2.818
  133OSM    C5S14286   4.630   3.072   2.859
  133OSM    H5S14287   4.526   3.066   2.823
  133OSM    C6S14288   4.642   3.081   3.007
  133OSM    H6S14289   4.604   2.983   3.044
  133OSM    H6T14290   4.574   3.166   3.033
  133OSM    C7S14291   4.783   3.103   3.071
  133OSM    H7S14292   4.766   3.114   3.180
  133OSM    H7T14293   4.823   3.200   3.035
  133OSM    C8S14294   4.867   2.983   3.067
  133OSM    H8S14295   4.896   2.959   2.962
  133OSM    H8T14296   4.803   2.903   3.109
  133OSM    C9S14297   5.010   2.994   3.135
  133OSM    H9S14298   4.987   3.050   3.228
  133OSM    H9T14299   5.078   3.053   3.070
  133OSM   C10S14300   5.073   2.861   3.182
  133OSM   H10S14301   5.180   2.873   3.206
  133OSM   H10T14302   5.069   2.797   3.091
  133OSM   C11S14303   5.006   2.798   3.305
  133OSM   H11S14304   5.021   2.688   3.306
  133OSM   H11T14305   4.899   2.827   3.305
  133OSM   C12S14306   5.078   2.850   3.429
  133OSM   H12S14307   5.065   2.960   3.445
  133OSM   H12T14308   5.186   2.825   3.440
  133OSM   C13S14309   5.010   2.791   3.559
  133OSM   H13S14310   4.902   2.770   3.541
  133OSM   H13T14311   5.017   2.862   3.644
  133OSM   C14S14312   5.076   2.656   3.596
  133OSM   H14S14313   5.187   2.665   3.603
  133OSM   H14T14314   5.065   2.583   3.513
  133OSM   C15S14315   5.024   2.596   3.729
  133OSM   H15S14316   5.063   2.493   3.747
  133OSM   H15T14317   4.916   2.579   3.710
  133OSM   C16S14318   5.025   2.683   3.851
  133OSM   H16S14319   4.968   2.616   3.919
  133OSM   H16T14320   4.975   2.782   3.843
  133OSM   C17S14321   5.160   2.702   3.908
  133OSM   H17S14322   5.218   2.768   3.841
  133OSM   H17T14323   5.218   2.607   3.916
  133OSM   C18S14324   5.167   2.773   4.044
  133OSM   H18S14325   5.077   2.837   4.052
  133OSM   H18T14326   5.255   2.839   4.061
  133OSM   H18U14327   5.171   2.707   4.134
  133OSM    C1F14328   4.927   2.761   2.658
  133OSM     OF14329   5.045   2.787   2.630
  133OSM    C2F14330   4.886   2.639   2.724
  133OSM    H2F14331   4.894   2.554   2.652
  133OSM    H2G14332   4.778   2.653   2.742
  133OSM    C3F14333   4.945   2.624   2.866
  133OSM    H3F14334   4.901   2.693   2.940
  133OSM    H3G14335   5.054   2.643   2.873
  133OSM    C4F14336   4.932   2.475   2.922
  133OSM    H4F14337   4.971   2.418   2.835
  133OSM    H4G14338   4.822   2.462   2.932
  133OSM    C5F14339   5.013   2.453   3.049
  133OSM    H5F14340   4.989   2.544   3.108
  133OSM    H5G14341   5.117   2.445   3.013
  133OSM    C6F14342   4.972   2.328   3.135
  133OSM    H6F14343   5.014   2.234   3.092
  133OSM    H6G14344   4.861   2.320   3.142
  133OSM    C7F14345   5.026   2.339   3.275
  133OSM    H7F14346   4.998   2.429   3.333
  133OSM    H7G14347   5.136   2.331   3.270
  133OSM    C8F14348   5.002   2.213   3.354
  133OSM    H8F14349   5.066   2.131   3.315
  133OSM    H8G14350   4.893   2.196   3.356
  133OSM    C9F14351   5.032   2.226   3.504
  133OSM    H9F14352   5.007   2.321   3.553
  133OSM   C10F14353   5.080   2.135   3.593
  133OSM   H10F14354   5.079   2.159   3.701
  133OSM   C11F14355   5.103   1.987   3.564
  133OSM   H11F14356   5.190   1.956   3.626
  133OSM   H11G14357   5.122   1.966   3.457
  133OSM   C12F14358   4.971   1.909   3.600
  133OSM   H12F14359   4.976   1.805   3.564
  133OSM   H12G14360   4.879   1.951   3.553
  133OSM   C13F14361   4.932   1.905   3.753
  133OSM   H13F14362   4.823   1.922   3.743
  133OSM   H13G14363   4.975   1.996   3.801
  133OSM   C14F14364   4.981   1.783   3.829
  133OSM   H14F14365   5.089   1.761   3.824
  133OSM   H14G14366   4.920   1.699   3.789
  133OSM   C15F14367   4.937   1.793   3.978
  133OSM   H15F14368   4.826   1.800   3.980
  133OSM   H15G14369   4.991   1.884   4.012
  133OSM   C16F14370   4.980   1.673   4.061
  133OSM   H16F14371   5.088   1.654   4.049
  133OSM   H16G14372   4.919   1.587   4.027
  133OSM   C17F14373   4.937   1.698   4.204
  133OSM   H17F14374   4.969   1.606   4.257
  133OSM   H17G14375   4.828   1.698   4.227
  133OSM   C18F14376   5.000   1.818   4.280
  133OSM   H18F14377   4.962   1.824   4.385
  133OSM   H18G14378   4.968   1.915   4.237
  133OSM   H18H14379   5.111   1.814   4.276
  134OSM      N14380   5.516   5.205   1.829
  134OSM    C1514381   5.646   5.180   1.766
  134OSM   H15A14382   5.671   5.075   1.773
  134OSM   H15B14383   5.729   5.234   1.809
  134OSM   H15C14384   5.637   5.209   1.662
  134OSM    C1414385   5.475   5.341   1.779
  134OSM   H14A14386   5.387   5.382   1.826
  134OSM   H14B14387   5.454   5.333   1.673
  134OSM   H14C14388   5.562   5.404   1.787
  134OSM    C1314389   5.414   5.097   1.801
  134OSM   H13A14390   5.460   5.003   1.825
  134OSM   H13B14391   5.374   5.093   1.701
  134OSM   H13C14392   5.330   5.098   1.870
  134OSM    C1214393   5.538   5.225   1.978
  134OSM   H12A14394   5.590   5.319   1.991
  134OSM   H12B14395   5.615   5.158   2.013
  134OSM    C1114396   5.420   5.208   2.076
  134OSM   H11A14397   5.463   5.221   2.177
  134OSM   H11B14398   5.377   5.106   2.076
  134OSM      P14399   5.283   5.419   2.133
  134OSM    O1314400   5.383   5.526   2.112
  134OSM    O1414401   5.149   5.463   2.102
  134OSM    O1114402   5.286   5.363   2.282
  134OSM    O1214403   5.314   5.299   2.046
  134OSM    C1S14404   5.255   5.442   2.392
  134OSM    H1S14405   5.145   5.460   2.390
  134OSM    H1T14406   5.301   5.543   2.387
  134OSM     NF14407   5.224   5.431   2.634
  134OSM    HNF14408   5.265   5.494   2.699
  134OSM    C2S14409   5.294   5.373   2.523
  134OSM    H2S14410   5.269   5.265   2.512
  134OSM    C3S14411   5.454   5.381   2.527
  134OSM    H3S14412   5.485   5.488   2.533
  134OSM     O314413   5.520   5.335   2.410
  134OSM    HO314414   5.453   5.315   2.344
  134OSM    C4S14415   5.501   5.308   2.649
  134OSM    H4S14416   5.556   5.370   2.720
  134OSM    C5S14417   5.487   5.177   2.668
  134OSM    H5S14418   5.444   5.107   2.595
  134OSM    C6S14419   5.542   5.105   2.789
  134OSM    H6S14420   5.643   5.061   2.776
  134OSM    H6T14421   5.472   5.026   2.822
  134OSM    C7S14422   5.559   5.192   2.917
  134OSM    H7S14423   5.463   5.244   2.936
  134OSM    H7T14424   5.645   5.261   2.899
  134OSM    C8S14425   5.605   5.115   3.040
  134OSM    H8S14426   5.707   5.074   3.029
  134OSM    H8T14427   5.542   5.025   3.058
  134OSM    C9S14428   5.597   5.196   3.170
  134OSM    H9S14429   5.492   5.219   3.200
  134OSM    H9T14430   5.654   5.289   3.150
  134OSM   C10S14431   5.676   5.125   3.278
  134OSM   H10S14432   5.783   5.148   3.262
  134OSM   H10T14433   5.656   5.016   3.268
  134OSM   C11S14434   5.636   5.171   3.419
  134OSM   H11S14435   5.526   5.185   3.421
  134OSM   H11T14436   5.678   5.271   3.442
  134OSM   C12S14437   5.682   5.066   3.524
  134OSM   H12S14438   5.787   5.031   3.517
  134OSM   H12T14439   5.621   4.979   3.492
  134OSM   C13S14440   5.670   5.109   3.667
  134OSM   H13S14441   5.701   5.020   3.727
  134OSM   H13T14442   5.567   5.141   3.695
  134OSM   C14S14443   5.754   5.230   3.690
  134OSM   H14S14444   5.760   5.300   3.605
  134OSM   H14T14445   5.858   5.196   3.709
  134OSM   C15S14446   5.696   5.321   3.807
  134OSM   H15S14447   5.601   5.358   3.764
  134OSM   H15T14448   5.776   5.398   3.819
  134OSM   C16S14449   5.667   5.245   3.940
  134OSM   H16S14450   5.758   5.194   3.979
  134OSM   H16T14451   5.595   5.163   3.917
  134OSM   C17S14452   5.620   5.340   4.039
  134OSM   H17S14453   5.531   5.402   4.016
  134OSM   H17T14454   5.704   5.411   4.053
  134OSM   C18S14455   5.604   5.268   4.175
  134OSM   H18S14456   5.695   5.224   4.221
  134OSM   H18T14457   5.531   5.185   4.161
  134OSM   H18U14458   5.557   5.335   4.250
  134OSM    C1F14459   5.097   5.412   2.659
  134OSM     OF14460   5.030   5.315   2.618
  134OSM    C2F14461   5.041   5.518   2.747
  134OSM    H2F14462   4.943   5.546   2.703
  134OSM    H2G14463   5.108   5.606   2.756
  134OSM    C3F14464   5.006   5.468   2.892
  134OSM    H3F14465   5.104   5.433   2.932
  134OSM    H3G14466   4.934   5.384   2.899
  134OSM    C4F14467   4.952   5.591   2.969
  134OSM    H4F14468   4.868   5.629   2.906
  134OSM    H4G14469   5.034   5.665   2.982
  134OSM    C5F14470   4.889   5.559   3.106
  134OSM    H5F14471   4.945   5.482   3.163
  134OSM    H5G14472   4.788   5.517   3.084
  134OSM    C6F14473   4.878   5.682   3.193
  134OSM    H6F14474   4.854   5.772   3.133
  134OSM    H6G14475   4.971   5.700   3.251
  134OSM    C7F14476   4.770   5.667   3.307
  134OSM    H7F14477   4.675   5.681   3.251
  134OSM    H7G14478   4.775   5.761   3.367
  134OSM    C8F14479   4.776   5.548   3.399
  134OSM    H8F14480   4.774   5.456   3.337
  134OSM    H8G14481   4.680   5.543   3.454
  134OSM    C9F14482   4.895   5.539   3.495
  134OSM    H9F14483   4.985   5.491   3.453
  134OSM   C10F14484   4.898   5.587   3.624
  134OSM   H10F14485   4.996   5.580   3.675
  134OSM   C11F14486   4.785   5.656   3.695
  134OSM   H11F14487   4.722   5.710   3.621
  134OSM   H11G14488   4.819   5.734   3.767
  134OSM   C12F14489   4.701   5.540   3.762
  134OSM   H12F14490   4.644   5.486   3.683
  134OSM   H12G14491   4.630   5.587   3.834
  134OSM   C13F14492   4.776   5.440   3.850
  134OSM   H13F14493   4.836   5.507   3.914
  134OSM   H13G14494   4.843   5.378   3.787
  134OSM   C14F14495   4.678   5.346   3.915
  134OSM   H14F14496   4.617   5.307   3.832
  134OSM   H14G14497   4.621   5.405   3.990
  134OSM   C15F14498   4.751   5.234   3.995
  134OSM   H15F14499   4.851   5.213   3.953
  134OSM   H15G14500   4.684   5.145   4.003
  134OSM   C16F14501   4.799   5.274   4.141
  134OSM   H16F14502   4.705   5.313   4.186
  134OSM   H16G14503   4.869   5.360   4.141
  134OSM   C17F14504   4.871   5.168   4.229
  134OSM   H17F14505   4.971   5.134   4.194
  134OSM   H17G14506   4.803   5.080   4.219
  134OSM   C18F14507   4.889   5.215   4.374
  134OSM   H18F14508   4.789   5.241   4.414
  134OSM   H18G14509   4.941   5.313   4.372
  134OSM   H18H14510   4.944   5.151   4.447
  135OSM      N14511   0.231   0.483   1.783
  135OSM    C1514512   0.172   0.348   1.777
  135OSM   H15A14513   0.226   0.275   1.836
  135OSM   H15B14514   0.173   0.310   1.675
  135OSM   H15C14515   0.069   0.350   1.810
  135OSM    C1414516   0.364   0.484   1.716
  135OSM   H14A14517   0.422   0.567   1.752
  135OSM   H14B14518   0.366   0.489   1.609
  135OSM   H14C14519   0.417   0.394   1.745
  135OSM    C1314520   0.144   0.573   1.703
  135OSM   H13A14521   0.044   0.570   1.746
  135OSM   H13B14522   0.140   0.556   1.597
  135OSM   H13C14523   0.159   0.679   1.720
  135OSM    C1214524   0.241   0.526   1.920
  135OSM   H12A14525   0.150   0.518   1.978
  135OSM   H12B14526   0.263   0.632   1.919
  135OSM    C1114527   0.361   0.464   1.997
  135OSM   H11A14528   0.377   0.527   2.087
  135OSM   H11B14529   0.459   0.469   1.947
  135OSM      P14530   0.218   0.310   2.138
  135OSM    O1314531   0.091   0.331   2.070
  135OSM    O1414532   0.244   0.188   2.219
  135OSM    O1114533   0.232   0.429   2.244
  135OSM    O1214534   0.331   0.325   2.030
  135OSM    C1S14535   0.127   0.450   2.338
  135OSM    H1S14536   0.085   0.356   2.379
  135OSM    H1T14537   0.030   0.483   2.295
  135OSM     NF14538   0.090   0.537   2.563
  135OSM    HNF14539   0.035   0.619   2.558
  135OSM    C2S14540   0.178   0.532   2.456
  135OSM    H2S14541   0.273   0.485   2.489
  135OSM    C3S14542   0.221   0.675   2.407
  135OSM    H3S14543   0.127   0.732   2.395
  135OSM     O314544   0.286   0.680   2.276
  135OSM    HO314545   0.285   0.590   2.243
  135OSM    C4S14546   0.309   0.746   2.500
  135OSM    H4S14547   0.417   0.730   2.487
  135OSM    C5S14548   0.275   0.837   2.593
  135OSM    H5S14549   0.171   0.872   2.600
  135OSM    C6S14550   0.370   0.913   2.678
  135OSM    H6S14551   0.348   0.879   2.781
  135OSM    H6T14552   0.336   1.018   2.661
  135OSM    C7S14553   0.519   0.902   2.654
  135OSM    H7S14554   0.532   0.923   2.545
  135OSM    H7T14555   0.549   0.796   2.672
  135OSM    C8S14556   0.607   0.988   2.744
  135OSM    H8S14557   0.596   1.094   2.713
  135OSM    H8T14558   0.714   0.961   2.732
  135OSM    C9S14559   0.581   0.966   2.895
  135OSM    H9S14560   0.573   0.855   2.896
  135OSM    H9T14561   0.481   1.006   2.924
  135OSM   C10S14562   0.698   1.017   2.977
  135OSM   H10S14563   0.713   1.124   2.949
  135OSM   H10T14564   0.789   0.957   2.955
  135OSM   C11S14565   0.665   1.001   3.131
  135OSM   H11S14566   0.653   0.891   3.139
  135OSM   H11T14567   0.565   1.050   3.133
  135OSM   C12S14568   0.759   1.086   3.225
  135OSM   H12S14569   0.750   1.196   3.206
  135OSM   H12T14570   0.867   1.064   3.212
  135OSM   C13S14571   0.731   1.052   3.373
  135OSM   H13S14572   0.743   0.945   3.399
  135OSM   H13T14573   0.632   1.087   3.410
  135OSM   C14S14574   0.815   1.141   3.459
  135OSM   H14S14575   0.788   1.247   3.437
  135OSM   H14T14576   0.920   1.152   3.426
  135OSM   C15S14577   0.823   1.104   3.611
  135OSM   H15S14578   0.893   1.018   3.616
  135OSM   H15T14579   0.724   1.091   3.660
  135OSM   C16S14580   0.889   1.228   3.682
  135OSM   H16S14581   0.840   1.326   3.662
  135OSM   H16T14582   0.998   1.218   3.663
  135OSM   C17S14583   0.877   1.208   3.841
  135OSM   H17S14584   0.922   1.108   3.856
  135OSM   H17T14585   0.773   1.189   3.877
  135OSM   C18S14586   0.955   1.310   3.914
  135OSM   H18S14587   0.926   1.412   3.882
  135OSM   H18T14588   1.064   1.295   3.896
  135OSM   H18U14589   0.924   1.304   4.021
  135OSM    C1F14590   0.087   0.449   2.661
  135OSM     OF14591   0.140   0.340   2.647
  135OSM    C2F14592   0.010   0.505   2.783
  135OSM    H2F14593   6.731   0.424   2.812
  135OSM    H2G14594   6.743   0.592   2.749
  135OSM    C3F14595   0.097   0.534   2.909
  135OSM    H3F14596   0.166   0.446   2.913
  135OSM    H3G14597   0.039   0.547   3.002
  135OSM    C4F14598   0.171   0.670   2.891
  135OSM    H4F14599   0.098   0.754   2.900
  135OSM    H4G14600   0.206   0.660   2.786
  135OSM    C5F14601   0.290   0.673   2.986
  135OSM    H5F14602   0.351   0.763   2.959
  135OSM    H5G14603   0.361   0.592   2.959
  135OSM    C6F14604   0.270   0.665   3.134
  135OSM    H6F14605   0.202   0.578   3.146
  135OSM    H6G14606   0.211   0.758   3.149
  135OSM    C7F14607   0.399   0.651   3.222
  135OSM    H7F14608   0.462   0.739   3.198
  135OSM    H7G14609   0.465   0.564   3.199
  135OSM    C8F14610   0.385   0.651   3.376
  135OSM    H8F14611   0.484   0.625   3.420
  135OSM    H8G14612   0.310   0.575   3.406
  135OSM    C9F14613   0.339   0.781   3.426
  135OSM    H9F14614   0.396   0.871   3.397
  135OSM   C10F14615   0.216   0.802   3.494
  135OSM   H10F14616   0.192   0.905   3.524
  135OSM   C11F14617   0.108   0.707   3.530
  135OSM   H11F14618   0.092   0.636   3.447
  135OSM   H11G14619   0.015   0.768   3.539
  135OSM   C12F14620   0.122   0.636   3.668
  135OSM   H12F14621   0.225   0.599   3.683
  135OSM   H12G14622   0.061   0.543   3.670
  135OSM   C13F14623   0.088   0.732   3.786
  135OSM   H13F14624   6.781   0.778   3.767
  135OSM   H13G14625   0.156   0.819   3.788
  135OSM   C14F14626   0.091   0.654   3.920
  135OSM   H14F14627   0.193   0.611   3.930
  135OSM   H14G14628   0.019   0.570   3.911
  135OSM   C15F14629   0.046   0.750   4.035
  135OSM   H15F14630   6.728   0.750   4.043
  135OSM   H15G14631   0.073   0.856   4.017
  135OSM   C16F14632   0.092   0.706   4.173
  135OSM   H16F14633   0.201   0.721   4.184
  135OSM   H16G14634   0.067   0.598   4.179
  135OSM   C17F14635   0.024   0.787   4.285
  135OSM   H17F14636   0.029   0.732   4.381
  135OSM   H17G14637   6.708   0.787   4.262
  135OSM   C18F14638   0.082   0.935   4.304
  135OSM   H18F14639   0.028   0.967   4.395
  135OSM   H18G14640   0.030   0.984   4.218
  135OSM   H18H14641   0.193   0.935   4.306
  136OSM      N14642   2.322   4.546   1.983
  136OSM    C1514643   2.251   4.601   2.095
  136OSM   H15A14644   2.153   4.636   2.065
  136OSM   H15B14645   2.299   4.695   2.118
  136OSM   H15C14646   2.243   4.546   2.188
  136OSM    C1414647   2.248   4.434   1.918
  136OSM   H14A14648   2.310   4.397   1.838
  136OSM   H14B14649   2.156   4.468   1.874
  136OSM   H14C14650   2.227   4.365   1.999
  136OSM    C1314651   2.354   4.646   1.878
  136OSM   H13A14652   2.418   4.611   1.799
  136OSM   H13B14653   2.415   4.722   1.925
  136OSM   H13C14654   2.273   4.700   1.831
  136OSM    C1214655   2.452   4.487   2.033
  136OSM   H12A14656   2.512   4.459   1.948
  136OSM   H12B14657   2.438   4.392   2.083
  136OSM    C1114658   2.542   4.577   2.118
  136OSM   H11A14659   2.620   4.502   2.142
  136OSM   H11B14660   2.487   4.609   2.209
  136OSM      P14661   2.723   4.691   1.976
  136OSM    O1314662   2.737   4.561   1.902
  136OSM    O1414663   2.739   4.822   1.906
  136OSM    O1114664   2.823   4.700   2.092
  136OSM    O1214665   2.584   4.699   2.054
  136OSM    C1S14666   2.804   4.798   2.197
  136OSM    H1S14667   2.717   4.863   2.171
  136OSM    H1T14668   2.896   4.858   2.213
  136OSM     NF14669   2.740   4.836   2.439
  136OSM    HNF14670   2.810   4.858   2.507
  136OSM    C2S14671   2.768   4.734   2.335
  136OSM    H2S14672   2.677   4.671   2.324
  136OSM    C3S14673   2.877   4.625   2.382
  136OSM    H3S14674   2.969   4.683   2.403
  136OSM     O314675   2.895   4.525   2.284
  136OSM    HO314676   2.847   4.552   2.205
  136OSM    C4S14677   2.841   4.554   2.511
  136OSM    H4S14678   2.801   4.451   2.509
  136OSM    C5S14679   2.869   4.598   2.633
  136OSM    H5S14680   2.927   4.691   2.640
  136OSM    C6S14681   2.848   4.526   2.767
  136OSM    H6S14682   2.933   4.552   2.834
  136OSM    H6T14683   2.851   4.416   2.751
  136OSM    C7S14684   2.727   4.552   2.852
  136OSM    H7S14685   2.641   4.492   2.816
  136OSM    H7T14686   2.703   4.661   2.848
  136OSM    C8S14687   2.744   4.520   3.004
  136OSM    H8S14688   2.652   4.553   3.056
  136OSM    H8T14689   2.826   4.591   3.031
  136OSM    C9S14690   2.779   4.370   3.043
  136OSM    H9S14691   2.881   4.349   3.003
  136OSM    H9T14692   2.701   4.311   2.991
  136OSM   C10S14693   2.764   4.350   3.194
  136OSM   H10S14694   2.793   4.244   3.214
  136OSM   H10T14695   2.659   4.364   3.229
  136OSM   C11S14696   2.855   4.436   3.269
  136OSM   H11S14697   2.849   4.544   3.242
  136OSM   H11T14698   2.961   4.409   3.254
  136OSM   C12S14699   2.822   4.433   3.420
  136OSM   H12S14700   2.809   4.339   3.478
  136OSM   H12T14701   2.727   4.489   3.436
  136OSM   C13S14702   2.927   4.504   3.499
  136OSM   H13S14703   2.974   4.588   3.444
  136OSM   H13T14704   3.014   4.437   3.514
  136OSM   C14S14705   2.883   4.552   3.640
  136OSM   H14S14706   2.843   4.463   3.693
  136OSM   H14T14707   2.804   4.628   3.622
  136OSM   C15S14708   3.000   4.612   3.722
  136OSM   H15S14709   3.060   4.689   3.669
  136OSM   H15T14710   3.061   4.521   3.745
  136OSM   C16S14711   2.963   4.678   3.856
  136OSM   H16S14712   2.928   4.783   3.843
  136OSM   H16T14713   3.063   4.688   3.904
  136OSM   C17S14714   2.870   4.611   3.948
  136OSM   H17S14715   2.896   4.632   4.054
  136OSM   H17T14716   2.870   4.501   3.935
  136OSM   C18S14717   2.724   4.659   3.920
  136OSM   H18S14718   2.717   4.768   3.942
  136OSM   H18T14719   2.660   4.604   3.993
  136OSM   H18U14720   2.693   4.649   3.814
  136OSM    C1F14721   2.641   4.916   2.437
  136OSM     OF14722   2.552   4.916   2.346
  136OSM    C2F14723   2.628   5.012   2.545
  136OSM    H2F14724   2.628   5.114   2.501
  136OSM    H2G14725   2.712   5.016   2.617
  136OSM    C3F14726   2.491   4.993   2.628
  136OSM    H3F14727   2.408   4.995   2.554
  136OSM    H3G14728   2.499   5.073   2.705
  136OSM    C4F14729   2.480   4.851   2.694
  136OSM    H4F14730   2.574   4.822   2.745
  136OSM    H4G14731   2.472   4.778   2.610
  136OSM    C5F14732   2.358   4.834   2.780
  136OSM    H5F14733   2.357   4.728   2.812
  136OSM    H5G14734   2.264   4.858   2.725
  136OSM    C6F14735   2.349   4.921   2.903
  136OSM    H6F14736   2.259   4.908   2.966
  136OSM    H6G14737   2.349   5.030   2.882
  136OSM    C7F14738   2.465   4.903   3.006
  136OSM    H7F14739   2.447   4.986   3.078
  136OSM    H7G14740   2.559   4.939   2.959
  136OSM    C8F14741   2.470   4.772   3.087
  136OSM    H8F14742   2.573   4.769   3.128
  136OSM    H8G14743   2.460   4.688   3.014
  136OSM    C9F14744   2.357   4.769   3.192
  136OSM    H9F14745   2.257   4.766   3.146
  136OSM   C10F14746   2.365   4.751   3.323
  136OSM   H10F14747   2.272   4.741   3.382
  136OSM   C11F14748   2.487   4.719   3.408
  136OSM   H11F14749   2.579   4.723   3.345
  136OSM   H11G14750   2.475   4.616   3.446
  136OSM   C12F14751   2.522   4.819   3.529
  136OSM   H12F14752   2.546   4.920   3.489
  136OSM   H12G14753   2.617   4.787   3.577
  136OSM   C13F14754   2.419   4.856   3.629
  136OSM   H13F14755   2.351   4.769   3.639
  136OSM   H13G14756   2.365   4.943   3.586
  136OSM   C14F14757   2.471   4.880   3.770
  136OSM   H14F14758   2.564   4.941   3.759
  136OSM   H14G14759   2.497   4.778   3.804
  136OSM   C15F14760   2.371   4.961   3.858
  136OSM   H15F14761   2.278   4.905   3.834
  136OSM   H15G14762   2.357   5.063   3.817
  136OSM   C16F14763   2.402   4.948   4.006
  136OSM   H16F14764   2.417   4.840   4.026
  136OSM   H16G14765   2.310   4.978   4.060
  136OSM   C17F14766   2.525   5.030   4.047
  136OSM   H17F14767   2.505   5.130   4.003
  136OSM   H17G14768   2.613   4.989   3.992
  136OSM   C18F14769   2.550   5.051   4.196
  136OSM   H18F14770   2.461   5.088   4.250
  136OSM   H18G14771   2.633   5.121   4.219
  136OSM   H18H14772   2.584   4.953   4.237
  137OSM      N14773   0.484   1.399   2.070
  137OSM    C1514774   0.537   1.289   1.985
  137OSM   H15A14775   0.604   1.225   2.041
  137OSM   H15B14776   0.597   1.321   1.901
  137OSM   H15C14777   0.450   1.240   1.944
  137OSM    C1414778   0.379   1.468   2.000
  137OSM   H14A14779   0.406   1.475   1.896
  137OSM   H14B14780   0.365   1.568   2.039
  137OSM   H14C14781   0.282   1.421   2.002
  137OSM    C1314782   0.426   1.327   2.187
  137OSM   H13A14783   0.373   1.390   2.257
  137OSM   H13B14784   0.506   1.278   2.241
  137OSM   H13C14785   0.371   1.241   2.152
  137OSM    C1214786   0.596   1.498   2.099
  137OSM   H12A14787   0.643   1.533   2.008
  137OSM   H12B14788   0.678   1.446   2.147
  137OSM    C1114789   0.560   1.628   2.177
  137OSM   H11A14790   0.643   1.693   2.212
  137OSM   H11B14791   0.513   1.585   2.269
  137OSM      P14792   0.493   1.833   2.023
  137OSM    O1314793   0.535   1.786   1.889
  137OSM    O1414794   0.369   1.913   2.032
  137OSM    O1114795   0.619   1.906   2.089
  137OSM    O1214796   0.460   1.704   2.111
  137OSM    C1S14797   0.603   1.995   2.204
  137OSM    H1S14798   0.580   1.937   2.297
  137OSM    H1T14799   0.527   2.075   2.188
  137OSM     NF14800   0.729   2.133   2.372
  137OSM    HNF14801   0.716   2.231   2.365
  137OSM    C2S14802   0.746   2.063   2.245
  137OSM    H2S14803   0.814   1.979   2.271
  137OSM    C3S14804   0.791   2.157   2.127
  137OSM    H3S14805   0.707   2.227   2.104
  137OSM     O314806   0.815   2.078   2.008
  137OSM    HO314807   0.786   1.991   2.037
  137OSM    C4S14808   0.918   2.230   2.155
  137OSM    H4S14809   1.003   2.166   2.183
  137OSM    C5S14810   0.939   2.359   2.138
  137OSM    H5S14811   0.868   2.421   2.083
  137OSM    C6S14812   1.067   2.439   2.161
  137OSM    H6S14813   1.034   2.542   2.187
  137OSM    H6T14814   1.115   2.451   2.061
  137OSM    C7S14815   1.173   2.371   2.252
  137OSM    H7S14816   1.259   2.441   2.252
  137OSM    H7T14817   1.216   2.275   2.219
  137OSM    C8S14818   1.144   2.361   2.401
  137OSM    H8S14819   1.040   2.322   2.400
  137OSM    H8T14820   1.142   2.464   2.442
  137OSM    C9S14821   1.226   2.273   2.492
  137OSM    H9S14822   1.331   2.308   2.485
  137OSM    H9T14823   1.232   2.169   2.452
  137OSM   C10S14824   1.164   2.265   2.636
  137OSM   H10S14825   1.208   2.174   2.682
  137OSM   H10T14826   1.056   2.246   2.618
  137OSM   C11S14827   1.197   2.388   2.720
  137OSM   H11S14828   1.157   2.484   2.680
  137OSM   H11T14829   1.307   2.391   2.726
  137OSM   C12S14830   1.152   2.368   2.861
  137OSM   H12S14831   1.049   2.326   2.867
  137OSM   H12T14832   1.161   2.471   2.900
  137OSM   C13S14833   1.232   2.277   2.953
  137OSM   H13S14834   1.339   2.296   2.928
  137OSM   H13T14835   1.216   2.170   2.928
  137OSM   C14S14836   1.207   2.317   3.097
  137OSM   H14S14837   1.099   2.334   3.117
  137OSM   H14T14838   1.259   2.415   3.099
  137OSM   C15S14839   1.268   2.217   3.195
  137OSM   H15S14840   1.365   2.198   3.144
  137OSM   H15T14841   1.210   2.124   3.211
  137OSM   C16S14842   1.276   2.270   3.341
  137OSM   H16S14843   1.300   2.378   3.330
  137OSM   H16T14844   1.356   2.219   3.398
  137OSM   C17S14845   1.138   2.279   3.415
  137OSM   H17S14846   1.092   2.178   3.419
  137OSM   H17T14847   1.074   2.339   3.347
  137OSM   C18S14848   1.140   2.343   3.552
  137OSM   H18S14849   1.038   2.345   3.596
  137OSM   H18T14850   1.178   2.447   3.543
  137OSM   H18U14851   1.210   2.286   3.617
  137OSM    C1F14852   0.718   2.071   2.490
  137OSM     OF14853   0.717   1.950   2.498
  137OSM    C2F14854   0.699   2.166   2.606
  137OSM    H2F14855   0.614   2.237   2.594
  137OSM    H2G14856   0.790   2.229   2.622
  137OSM    C3F14857   0.661   2.091   2.737
  137OSM    H3F14858   0.737   2.017   2.768
  137OSM    H3G14859   0.565   2.039   2.721
  137OSM    C4F14860   0.636   2.183   2.853
  137OSM    H4F14861   0.563   2.260   2.820
  137OSM    H4G14862   0.731   2.238   2.868
  137OSM    C5F14863   0.584   2.126   2.983
  137OSM    H5F14864   0.630   2.025   2.991
  137OSM    H5G14865   0.474   2.120   2.967
  137OSM    C6F14866   0.604   2.205   3.106
  137OSM    H6F14867   0.587   2.314   3.095
  137OSM    H6G14868   0.710   2.189   3.133
  137OSM    C7F14869   0.509   2.160   3.223
  137OSM    H7F14870   0.523   2.053   3.250
  137OSM    H7G14871   0.405   2.179   3.189
  137OSM    C8F14872   0.540   2.242   3.350
  137OSM    H8F14873   0.527   2.351   3.333
  137OSM    H8G14874   0.651   2.234   3.355
  137OSM    C9F14875   0.486   2.194   3.488
  137OSM    H9F14876   0.449   2.091   3.477
  137OSM   C10F14877   0.438   2.250   3.596
  137OSM   H10F14878   0.414   2.185   3.681
  137OSM   C11F14879   0.448   2.396   3.625
  137OSM   H11F14880   0.346   2.432   3.648
  137OSM   H11G14881   0.486   2.458   3.541
  137OSM   C12F14882   0.534   2.449   3.747
  137OSM   H12F14883   0.505   2.548   3.790
  137OSM   H12G14884   0.639   2.452   3.713
  137OSM   C13F14885   0.536   2.356   3.883
  137OSM   H13F14886   0.568   2.255   3.850
  137OSM   H13G14887   0.437   2.366   3.932
  137OSM   C14F14888   0.658   2.413   3.964
  137OSM   H14F14889   0.656   2.524   3.978
  137OSM   H14G14890   0.750   2.382   3.910
  137OSM   C15F14891   0.666   2.356   4.100
  137OSM   H15F14892   0.766   2.387   4.138
  137OSM   H15G14893   0.671   2.245   4.102
  137OSM   C16F14894   0.554   2.410   4.189
  137OSM   H16F14895   0.455   2.394   4.140
  137OSM   H16G14896   0.572   2.520   4.192
  137OSM   C17F14897   0.550   2.336   4.321
  137OSM   H17F14898   0.628   2.383   4.386
  137OSM   H17G14899   0.578   2.229   4.315
  137OSM   C18F14900   0.417   2.359   4.391
  137OSM   H18F14901   0.404   2.460   4.435
  137OSM   H18G14902   0.405   2.283   4.472
  137OSM   H18H14903   0.330   2.341   4.324
  138OSM      N14904   6.318   6.219   2.143
  138OSM    C1514905   6.449   6.153   2.097
  138OSM   H15A14906   6.502   6.220   2.031
  138OSM   H15B14907   6.428   6.059   2.048
  138OSM   H15C14908   6.515   6.126   2.179
  138OSM    C1414909   6.353   6.316   2.256
  138OSM   H14A14910   6.426   6.390   2.227
  138OSM   H14B14911   6.388   6.262   2.344
  138OSM   H14C14912   6.262   6.365   2.287
  138OSM    C1314913   6.263   6.303   2.034
  138OSM   H13A14914   6.162   6.335   2.056
  138OSM   H13B14915   6.254   6.244   1.943
  138OSM   H13C14916   6.317   6.393   2.011
  138OSM    C1214917   6.212   6.119   2.199
  138OSM   H12A14918   6.263   6.063   2.276
  138OSM   H12B14919   6.188   6.048   2.121
  138OSM    C1114920   6.082   6.181   2.254
  138OSM   H11A14921   6.028   6.231   2.171
  138OSM   H11B14922   6.098   6.256   2.334
  138OSM      P14923   6.024   5.960   2.398
  138OSM    O1314924   5.931   5.850   2.377
  138OSM    O1414925   6.165   5.918   2.398
  138OSM    O1114926   6.004   6.036   2.540
  138OSM    O1214927   5.992   6.072   2.293
  138OSM    C1S14928   5.886   6.122   2.559
  138OSM    H1S14929   5.796   6.064   2.530
  138OSM    H1T14930   5.888   6.204   2.484
  138OSM     NF14931   5.749   6.243   2.738
  138OSM    HNF14932   5.741   6.332   2.782
  138OSM    C2S14933   5.882   6.194   2.700
  138OSM    H2S14934   5.904   6.120   2.780
  138OSM    C3S14935   5.997   6.295   2.698
  138OSM    H3S14936   5.975   6.379   2.629
  138OSM     O314937   6.123   6.245   2.640
  138OSM    HO314938   6.097   6.163   2.597
  138OSM    C4S14939   6.009   6.356   2.833
  138OSM    H4S14940   5.929   6.425   2.864
  138OSM    C5S14941   6.096   6.325   2.935
  138OSM    H5S14942   6.165   6.242   2.918
  138OSM    C6S14943   6.124   6.391   3.068
  138OSM    H6S14944   6.220   6.448   3.070
  138OSM    H6T14945   6.140   6.316   3.148
  138OSM    C7S14946   6.005   6.482   3.111
  138OSM    H7S14947   5.910   6.425   3.118
  138OSM    H7T14948   5.985   6.564   3.039
  138OSM    C8S14949   6.027   6.534   3.253
  138OSM    H8S14950   6.124   6.587   3.241
  138OSM    H8T14951   6.047   6.447   3.320
  138OSM    C9S14952   5.909   6.618   3.302
  138OSM    H9S14953   5.821   6.560   3.335
  138OSM    H9T14954   5.870   6.681   3.219
  138OSM   C10S14955   5.942   6.707   3.428
  138OSM   H10S14956   5.866   6.788   3.435
  138OSM   H10T14957   6.039   6.761   3.430
  138OSM   C11S14958   5.916   6.623   3.557
  138OSM   H11S14959   5.988   6.538   3.557
  138OSM   H11T14960   5.814   6.578   3.551
  138OSM   C12S14961   5.926   6.709   3.683
  138OSM   H12S14962   5.857   0.004   3.680
  138OSM   H12T14963   6.026   6.755   3.698
  138OSM   C13S14964   5.900   6.622   3.804
  138OSM   H13S14965   5.994   6.565   3.822
  138OSM   H13T14966   5.820   6.547   3.785
  138OSM   C14S14967   5.859   6.713   3.920
  138OSM   H14S14968   5.764   6.763   3.888
  138OSM   H14T14969   5.939   6.789   3.933
  138OSM   C15S14970   5.855   6.653   4.059
  138OSM   H15S14971   5.957   6.622   4.090
  138OSM   H15T14972   5.796   6.558   4.062
  138OSM   C16S14973   5.772   6.734   4.165
  138OSM   H16S14974   5.667   6.711   4.138
  138OSM   H16T14975   5.785   0.049   4.142
  138OSM   C17S14976   5.786   6.689   4.304
  138OSM   H17S14977   5.892   6.699   4.335
  138OSM   H17T14978   5.760   6.581   4.315
  138OSM   C18S14979   5.704   6.779   4.400
  138OSM   H18S14980   5.695   6.745   4.506
  138OSM   H18T14981   5.599   6.790   4.365
  138OSM   H18U14982   5.743   0.090   4.408
  138OSM    C1F14983   5.641   6.168   2.747
  138OSM     OF14984   5.646   6.042   2.721
  138OSM    C2F14985   5.512   6.229   2.769
  138OSM    H2F14986   5.462   6.200   2.674
  138OSM    H2G14987   5.524   6.340   2.773
  138OSM    C3F14988   5.458   6.179   2.898
  138OSM    H3F14989   5.455   6.068   2.896
  138OSM    H3G14990   5.353   6.216   2.894
  138OSM    C4F14991   5.535   6.236   3.032
  138OSM    H4F14992   5.564   6.338   3.000
  138OSM    H4G14993   5.628   6.176   3.043
  138OSM    C5F14994   5.450   6.218   3.155
  138OSM    H5F14995   5.408   6.115   3.150
  138OSM    H5G14996   5.369   6.293   3.145
  138OSM    C6F14997   5.536   6.246   3.278
  138OSM    H6F14998   5.592   6.339   3.256
  138OSM    H6G14999   5.602   6.157   3.286
  138OSM    C7F15000   5.458   6.237   3.406
  138OSM    H7F15001   5.426   6.131   3.410
  138OSM    H7G15002   5.367   6.299   3.420
  138OSM    C8F15003   5.550   6.251   3.532
  138OSM    H8F15004   5.627   6.174   3.510
  138OSM    H8G15005   5.488   6.223   3.620
  138OSM    C9F15006   5.603   6.388   3.539
  138OSM    H9F15007   5.664   6.425   3.455
  138OSM   C10F15008   5.581   6.472   3.641
  138OSM   H10F15009   5.630   6.571   3.637
  138OSM   C11F15010   5.530   6.426   3.775
  138OSM   H11F15011   5.614   6.373   3.826
  138OSM   H11G15012   5.441   6.362   3.762
  138OSM   C12F15013   5.487   6.551   3.851
  138OSM   H12F15014   5.409   6.599   3.788
  138OSM   H12G15015   5.566   6.627   3.865
  138OSM   C13F15016   5.425   6.510   3.987
  138OSM   H13F15017   5.329   6.464   3.956
  138OSM   H13G15018   5.383   6.601   4.035
  138OSM   C14F15019   5.515   6.431   4.077
  138OSM   H14F15020   5.611   6.485   4.088
  138OSM   H14G15021   5.530   6.339   4.018
  138OSM   C15F15022   5.454   6.401   4.217
  138OSM   H15F15023   5.523   6.323   4.256
  138OSM   H15G15024   5.354   6.353   4.210
  138OSM   C16F15025   5.437   6.509   4.319
  138OSM   H16F15026   5.354   6.575   4.286
  138OSM   H16G15027   5.530   6.570   4.324
  138OSM   C17F15028   5.401   6.443   4.460
  138OSM   H17F15029   5.484   6.371   4.480
  138OSM   H17G15030   5.308   6.382   4.451
  138OSM   C18F15031   5.385   6.549   4.564
  138OSM   H18F15032   5.361   6.501   4.662
  138OSM   H18G15033   5.301   6.611   4.527
  138OSM   H18H15034   5.478   6.611   4.565
  139OSM      N15035   1.450   0.987   1.844
  139OSM    C1515036   1.583   0.962   1.771
  139OSM   H15A15037   1.575   0.879   1.703
  139OSM   H15B15038   1.662   0.931   1.838
  139OSM   H15C15039   1.622   1.049   1.722
  139OSM    C1415040   1.473   1.085   1.951
  139OSM   H14A15041   1.509   1.177   1.909
  139OSM   H14B15042   1.536   1.047   2.030
  139OSM   H14C15043   1.383   1.102   2.007
  139OSM    C1315044   1.351   1.032   1.739
  139OSM   H13A15045   1.253   1.048   1.781
  139OSM   H13B15046   1.346   0.947   1.673
  139OSM   H13C15047   1.387   1.119   1.686
  139OSM    C1215048   1.400   0.848   1.907
  139OSM   H12A15049   1.472   0.808   1.977
  139OSM   H12B15050   1.399   0.774   1.829
  139OSM    C1115051   1.255   0.845   1.973
  139OSM   H11A15052   1.237   0.741   2.007
  139OSM   H11B15053   1.174   0.860   1.899
  139OSM      P15054   1.288   0.898   2.228
  139OSM    O1315055   1.191   0.799   2.277
  139OSM    O1415056   1.434   0.882   2.235
  139OSM    O1115057   1.257   1.034   2.301
  139OSM    O1215058   1.245   0.939   2.085
  139OSM    C1S15059   1.134   1.106   2.288
  139OSM    H1S15060   1.046   1.042   2.313
  139OSM    H1T15061   1.118   1.141   2.184
  139OSM     NF15062   0.997   1.280   2.391
  139OSM    HNF15063   0.967   1.358   2.336
  139OSM    C2S15064   1.131   1.229   2.383
  139OSM    H2S15065   1.150   1.195   2.487
  139OSM    C3S15066   1.252   1.324   2.353
  139OSM    H3S15067   1.234   1.386   2.262
  139OSM     O315068   1.377   1.260   2.328
  139OSM    HO315069   1.341   1.173   2.310
  139OSM    C4S15070   1.262   1.417   2.475
  139OSM    H4S15071   1.184   1.494   2.484
  139OSM    C5S15072   1.335   1.384   2.584
  139OSM    H5S15073   1.389   1.289   2.578
  139OSM    C6S15074   1.318   1.462   2.711
  139OSM    H6S15075   1.260   1.555   2.692
  139OSM    H6T15076   1.421   1.496   2.736
  139OSM    C7S15077   1.249   1.385   2.825
  139OSM    H7S15078   1.260   1.449   2.915
  139OSM    H7T15079   1.306   1.294   2.855
  139OSM    C8S15080   1.105   1.336   2.799
  139OSM    H8S15081   1.103   1.281   2.702
  139OSM    H8T15082   1.033   1.420   2.798
  139OSM    C9S15083   1.067   1.232   2.901
  139OSM    H9S15084   1.121   1.134   2.898
  139OSM    H9T15085   0.964   1.199   2.876
  139OSM   C10S15086   1.063   1.271   3.050
  139OSM   H10S15087   1.162   1.315   3.073
  139OSM   H10T15088   1.041   1.184   3.115
  139OSM   C11S15089   0.959   1.389   3.076
  139OSM   H11S15090   0.856   1.349   3.058
  139OSM   H11T15091   0.982   1.484   3.023
  139OSM   C12S15092   0.954   1.405   3.233
  139OSM   H12S15093   0.909   1.312   3.274
  139OSM   H12T15094   0.867   1.472   3.254
  139OSM   C13S15095   1.085   1.453   3.293
  139OSM   H13S15096   1.104   1.550   3.241
  139OSM   H13T15097   1.171   1.384   3.279
  139OSM   C14S15098   1.085   1.465   3.445
  139OSM   H14S15099   1.038   1.369   3.475
  139OSM   H14T15100   1.008   1.543   3.463
  139OSM   C15S15101   1.222   1.508   3.502
  139OSM   H15S15102   1.260   1.602   3.457
  139OSM   H15T15103   1.291   1.427   3.471
  139OSM   C16S15104   1.225   1.524   3.652
  139OSM   H16S15105   1.331   1.537   3.683
  139OSM   H16T15106   1.183   1.431   3.696
  139OSM   C17S15107   1.139   1.639   3.707
  139OSM   H17S15108   1.034   1.602   3.700
  139OSM   H17T15109   1.142   1.733   3.648
  139OSM   C18S15110   1.156   1.668   3.856
  139OSM   H18S15111   1.134   1.578   3.917
  139OSM   H18T15112   1.077   1.745   3.869
  139OSM   H18U15113   1.259   1.709   3.867
  139OSM    C1F15114   0.894   1.224   2.455
  139OSM     OF15115   0.913   1.109   2.486
  139OSM    C2F15116   0.759   1.287   2.443
  139OSM    H2F15117   0.690   1.209   2.405
  139OSM    H2G15118   0.747   1.383   2.388
  139OSM    C3F15119   0.700   1.339   2.576
  139OSM    H3F15120   0.748   1.432   2.613
  139OSM    H3G15121   0.717   1.262   2.654
  139OSM    C4F15122   0.542   1.367   2.573
  139OSM    H4F15123   0.493   1.279   2.525
  139OSM    H4G15124   0.519   1.454   2.509
  139OSM    C5F15125   0.461   1.382   2.708
  139OSM    H5F15126   0.453   1.285   2.762
  139OSM    H5G15127   0.359   1.415   2.681
  139OSM    C6F15128   0.529   1.486   2.807
  139OSM    H6F15129   0.630   1.458   2.843
  139OSM    H6G15130   0.463   1.483   2.896
  139OSM    C7F15131   0.522   1.629   2.739
  139OSM    H7F15132   0.423   1.631   2.689
  139OSM    H7G15133   0.591   1.613   2.653
  139OSM    C8F15134   0.557   1.744   2.824
  139OSM    H8F15135   0.588   1.835   2.769
  139OSM    H8G15136   0.651   1.730   2.881
  139OSM    C9F15137   0.440   1.773   2.915
  139OSM    H9F15138   0.355   1.817   2.861
  139OSM   C10F15139   0.422   1.749   3.044
  139OSM   H10F15140   0.335   1.793   3.094
  139OSM   C11F15141   0.508   1.690   3.152
  139OSM   H11F15142   0.529   1.779   3.216
  139OSM   H11G15143   0.592   1.633   3.108
  139OSM   C12F15144   0.413   1.592   3.230
  139OSM   H12F15145   0.370   1.511   3.166
  139OSM   H12G15146   0.331   1.658   3.266
  139OSM   C13F15147   0.480   1.522   3.345
  139OSM   H13F15148   0.556   1.450   3.308
  139OSM   H13G15149   0.401   1.467   3.402
  139OSM   C14F15150   0.544   1.626   3.438
  139OSM   H14F15151   0.483   1.718   3.452
  139OSM   H14G15152   0.632   1.660   3.380
  139OSM   C15F15153   0.569   1.557   3.570
  139OSM   H15F15154   0.634   1.467   3.558
  139OSM   H15G15155   0.474   1.510   3.604
  139OSM   C16F15156   0.622   1.658   3.671
  139OSM   H16F15157   0.580   1.761   3.673
  139OSM   H16G15158   0.730   1.675   3.652
  139OSM   C17F15159   0.621   1.585   3.812
  139OSM   H17F15160   0.669   1.487   3.796
  139OSM   H17G15161   0.518   1.561   3.848
  139OSM   C18F15162   0.705   1.667   3.912
  139OSM   H18F15163   0.664   1.761   3.954
  139OSM   H18G15164   0.803   1.690   3.865
  139OSM   H18H15165   0.727   1.612   4.006
  140OSM      N15166   5.169   0.015   1.833
  140OSM    C1515167   5.279   0.110   1.859
  140OSM   H15A15168   5.299   0.110   1.965
  140OSM   H15B15169   5.263   0.210   1.822
  140OSM   H15C15170   5.369   0.081   1.807
  140OSM    C1415171   5.143   0.010   1.685
  140OSM   H14A15172   5.219   0.054   1.622
  140OSM   H14B15173   5.056   0.068   1.658
  140OSM   H14C15174   5.110   6.703   1.662
  140OSM    C1315175   5.223   6.673   1.879
  140OSM   H13A15176   5.159   6.596   1.838
  140OSM   H13B15177   5.226   6.655   1.985
  140OSM   H13C15178   5.323   6.645   1.849
  140OSM    C1215179   5.040   0.037   1.923
  140OSM   H12A15180   4.968   6.750   1.907
  140OSM   H12B15181   5.000   0.130   1.884
  140OSM    C1115182   5.064   0.054   2.076
  140OSM   H11A15183   4.976   0.104   2.122
  140OSM   H11B15184   5.146   0.128   2.083
  140OSM      P15185   4.977   6.621   2.165
  140OSM    O1315186   4.909   6.600   2.038
  140OSM    O1415187   5.029   6.497   2.222
  140OSM    O1115188   4.887   6.700   2.268
  140OSM    O1215189   5.095   6.724   2.140
  140OSM    C1S15190   4.826   6.647   2.391
  140OSM    H1S15191   4.828   6.536   2.394
  140OSM    H1T15192   4.717   6.668   2.391
  140OSM     NF15193   4.886   6.613   2.630
  140OSM    HNF15194   4.810   6.634   2.691
  140OSM    C2S15195   4.905   6.701   2.520
  140OSM    H2S15196   5.014   6.700   2.495
  140OSM    C3S15197   4.868   0.055   2.544
  140OSM    H3S15198   4.757   0.062   2.554
  140OSM     O315199   4.904   0.139   2.428
  140OSM    HO315200   4.947   0.080   2.366
  140OSM    C4S15201   4.927   0.094   2.677
  140OSM    H4S15202   4.861   0.074   2.763
  140OSM    C5S15203   5.050   0.140   2.700
  140OSM    H5S15204   5.129   0.140   2.623
  140OSM    C6S15205   5.121   0.151   2.839
  140OSM    H6S15206   5.192   0.234   2.819
  140OSM    H6T15207   5.190   0.066   2.854
  140OSM    C7S15208   5.034   0.174   2.963
  140OSM    H7S15209   4.943   0.110   2.955
  140OSM    H7T15210   4.993   0.277   2.965
  140OSM    C8S15211   5.109   0.164   3.092
  140OSM    H8S15212   5.209   0.212   3.096
  140OSM    H8T15213   5.140   0.058   3.109
  140OSM    C9S15214   5.020   0.201   3.210
  140OSM    H9S15215   4.931   0.135   3.204
  140OSM    H9T15216   4.981   0.302   3.187
  140OSM   C10S15217   5.073   0.203   3.356
  140OSM   H10S15218   5.152   0.281   3.354
  140OSM   H10T15219   5.109   0.103   3.389
  140OSM   C11S15220   4.965   0.238   3.461
  140OSM   H11S15221   4.890   0.157   3.452
  140OSM   H11T15222   4.926   0.341   3.450
  140OSM   C12S15223   5.025   0.215   3.600
  140OSM   H12S15224   5.118   0.276   3.600
  140OSM   H12T15225   5.060   0.113   3.628
  140OSM   C13S15226   4.932   0.266   3.709
  140OSM   H13S15227   4.848   0.194   3.718
  140OSM   H13T15228   4.881   0.360   3.681
  140OSM   C14S15229   4.998   0.279   3.847
  140OSM   H14S15230   5.074   0.356   3.824
  140OSM   H14T15231   5.058   0.191   3.882
  140OSM   C15S15232   4.896   0.320   3.951
  140OSM   H15S15233   4.815   0.248   3.928
  140OSM   H15T15234   4.862   0.423   3.926
  140OSM   C16S15235   4.955   0.302   4.096
  140OSM   H16S15236   5.052   0.355   4.105
  140OSM   H16T15237   4.987   0.196   4.100
  140OSM   C17S15238   4.853   0.331   4.212
  140OSM   H17S15239   4.757   0.291   4.171
  140OSM   H17T15240   4.838   0.439   4.231
  140OSM   C18S15241   4.882   0.262   4.349
  140OSM   H18S15242   4.797   0.282   4.417
  140OSM   H18T15243   4.972   0.311   4.392
  140OSM   H18U15244   4.913   0.157   4.327
  140OSM    C1F15245   4.965   6.507   2.649
  140OSM     OF15246   5.032   6.454   2.566
  140OSM    C2F15247   4.963   6.453   2.792
  140OSM    H2F15248   5.015   6.355   2.785
  140OSM    H2G15249   4.859   6.452   2.832
  140OSM    C3F15250   5.041   6.547   2.891
  140OSM    H3F15251   4.988   6.645   2.891
  140OSM    H3G15252   5.145   6.562   2.854
  140OSM    C4F15253   5.053   6.480   3.026
  140OSM    H4F15254   5.135   6.409   3.007
  140OSM    H4G15255   4.961   6.427   3.062
  140OSM    C5F15256   5.095   6.580   3.129
  140OSM    H5F15257   5.016   6.657   3.142
  140OSM    H5G15258   5.191   6.620   3.090
  140OSM    C6F15259   5.111   6.511   3.268
  140OSM    H6F15260   5.213   6.467   3.273
  140OSM    H6G15261   5.030   6.437   3.284
  140OSM    C7F15262   5.111   6.613   3.387
  140OSM    H7F15263   5.007   6.651   3.395
  140OSM    H7G15264   5.172   6.701   3.358
  140OSM    C8F15265   5.161   6.549   3.524
  140OSM    H8F15266   5.258   6.500   3.500
  140OSM    H8G15267   5.091   6.468   3.554
  140OSM    C9F15268   5.186   6.646   3.633
  140OSM    H9F15269   5.282   6.695   3.612
  140OSM   C10F15270   5.108   6.689   3.734
  140OSM   H10F15271   5.142   6.777   3.790
  140OSM   C11F15272   4.970   6.637   3.775
  140OSM   H11F15273   4.948   6.529   3.759
  140OSM   H11G15274   4.899   6.687   3.706
  140OSM   C12F15275   4.921   6.676   3.914
  140OSM   H12F15276   4.814   6.647   3.929
  140OSM   H12G15277   4.917   6.787   3.928
  140OSM   C13F15278   4.997   6.626   4.031
  140OSM   H13F15279   5.103   6.658   4.019
  140OSM   H13G15280   4.985   6.516   4.037
  140OSM   C14F15281   4.947   6.687   4.164
  140OSM   H14F15282   4.932   0.003   4.151
  140OSM   H14G15283   5.034   6.680   4.232
  140OSM   C15F15284   4.815   6.630   4.233
  140OSM   H15F15285   4.737   6.634   4.154
  140OSM   H15G15286   4.775   6.686   4.319
  140OSM   C16F15287   4.831   6.489   4.292
  140OSM   H16F15288   4.858   6.415   4.213
  140OSM   H16G15289   4.736   6.449   4.333
  140OSM   C17F15290   4.934   6.480   4.400
  140OSM   H17F15291   4.909   6.542   4.489
  140OSM   H17G15292   5.029   6.516   4.354
  140OSM   C18F15293   4.967   6.337   4.443
  140OSM   H18F15294   5.005   6.274   4.360
  140OSM   H18G15295   4.888   6.270   4.485
  140OSM   H18H15296   5.047   6.345   4.520
  141OSM      N15297   0.958   3.884   1.617
  141OSM    C1515298   0.893   3.832   1.490
  141OSM   H15A15299   0.870   3.726   1.488
  141OSM   H15B15300   0.954   3.856   1.404
  141OSM   H15C15301   0.801   3.882   1.467
  141OSM    C1415302   1.105   3.838   1.617
  141OSM   H14A15303   1.120   3.731   1.607
  141OSM   H14B15304   1.138   3.867   1.716
  141OSM   H14C15305   1.164   3.888   1.543
  141OSM    C1315306   0.949   4.035   1.601
  141OSM   H13A15307   1.025   4.078   1.664
  141OSM   H13B15308   0.850   4.068   1.628
  141OSM   H13C15309   0.970   4.056   1.497
  141OSM    C1215310   0.883   3.840   1.737
  141OSM   H12A15311   0.857   3.735   1.736
  141OSM   H12B15312   0.786   3.888   1.737
  141OSM    C1115313   0.937   3.866   1.881
  141OSM   H11A15314   1.039   3.822   1.881
  141OSM   H11B15315   0.881   3.803   1.953
  141OSM      P15316   0.805   4.083   1.926
  141OSM    O1315317   0.833   4.223   1.887
  141OSM    O1415318   0.692   4.016   1.861
  141OSM    O1115319   0.793   4.088   2.084
  141OSM    O1215320   0.937   4.004   1.904
  141OSM    C1S15321   0.803   3.977   2.161
  141OSM    H1S15322   0.895   3.914   2.150
  141OSM    H1T15323   0.710   3.919   2.148
  141OSM     NF15324   0.800   3.888   2.389
  141OSM    HNF15325   0.715   3.857   2.430
  141OSM    C2S15326   0.796   4.015   2.315
  141OSM    H2S15327   0.884   4.075   2.346
  141OSM    C3S15328   0.670   4.106   2.344
  141OSM    H3S15329   0.579   4.049   2.316
  141OSM     O315330   0.665   4.229   2.265
  141OSM    HO315331   0.713   4.202   2.187
  141OSM    C4S15332   0.668   4.135   2.494
  141OSM    H4S15333   0.638   4.045   2.548
  141OSM    C5S15334   0.703   4.251   2.553
  141OSM    H5S15335   0.729   4.343   2.498
  141OSM    C6S15336   0.717   4.293   2.696
  141OSM    H6S15337   0.663   4.389   2.714
  141OSM    H6T15338   0.821   4.329   2.713
  141OSM    C7S15339   0.694   4.183   2.801
  141OSM    H7S15340   0.750   4.092   2.768
  141OSM    H7T15341   0.584   4.165   2.805
  141OSM    C8S15342   0.727   4.233   2.944
  141OSM    H8S15343   0.729   4.344   2.943
  141OSM    H8T15344   0.834   4.208   2.958
  141OSM    C9S15345   0.638   4.171   3.052
  141OSM    H9S15346   0.639   4.060   3.050
  141OSM    H9T15347   0.536   4.205   3.025
  141OSM   C10S15348   0.679   4.222   3.188
  141OSM   H10S15349   0.675   4.332   3.181
  141OSM   H10T15350   0.789   4.212   3.204
  141OSM   C11S15351   0.614   4.160   3.312
  141OSM   H11S15352   0.629   4.050   3.307
  141OSM   H11T15353   0.506   4.184   3.308
  141OSM   C12S15354   0.659   4.220   3.443
  141OSM   H12S15355   0.623   4.324   3.456
  141OSM   H12T15356   0.768   4.208   3.459
  141OSM   C13S15357   0.591   4.152   3.562
  141OSM   H13S15358   0.644   4.163   3.659
  141OSM   H13T15359   0.594   4.043   3.542
  141OSM   C14S15360   0.440   4.192   3.585
  141OSM   H14S15361   0.383   4.170   3.492
  141OSM   H14T15362   0.447   4.302   3.593
  141OSM   C15S15363   0.358   4.141   3.708
  141OSM   H15S15364   0.408   4.153   3.807
  141OSM   H15T15365   0.328   4.037   3.682
  141OSM   C16S15366   0.224   4.217   3.728
  141OSM   H16S15367   0.175   4.199   3.630
  141OSM   H16T15368   0.241   4.325   3.744
  141OSM   C17S15369   0.141   4.163   3.842
  141OSM   H17S15370   0.192   4.174   3.940
  141OSM   H17T15371   0.120   4.057   3.816
  141OSM   C18S15372   0.017   4.244   3.838
  141OSM   H18S15373   6.723   4.188   3.797
  141OSM   H18T15374   0.035   4.335   3.777
  141OSM   H18U15375   6.779   4.288   3.935
  141OSM    C1F15376   0.913   3.816   2.412
  141OSM     OF15377   1.026   3.854   2.388
  141OSM    C2F15378   0.890   3.677   2.474
  141OSM    H2F15379   0.867   3.609   2.389
  141OSM    H2G15380   0.802   3.684   2.540
  141OSM    C3F15381   1.013   3.614   2.536
  141OSM    H3F15382   1.091   3.582   2.463
  141OSM    H3G15383   0.983   3.514   2.572
  141OSM    C4F15384   1.087   3.687   2.650
  141OSM    H4F15385   1.106   3.790   2.614
  141OSM    H4G15386   1.181   3.640   2.686
  141OSM    C5F15387   0.982   3.692   2.759
  141OSM    H5F15388   0.922   3.599   2.770
  141OSM    H5G15389   0.908   3.765   2.719
  141OSM    C6F15390   1.029   3.747   2.898
  141OSM    H6F15391   1.100   3.830   2.882
  141OSM    H6G15392   1.087   3.675   2.961
  141OSM    C7F15393   0.910   3.794   2.985
  141OSM    H7F15394   0.835   3.713   2.998
  141OSM    H7G15395   0.858   3.879   2.937
  141OSM    C8F15396   0.973   3.831   3.119
  141OSM    H8F15397   1.066   3.886   3.096
  141OSM    H8G15398   1.002   3.738   3.173
  141OSM    C9F15399   0.885   3.903   3.210
  141OSM    H9F15400   0.821   3.976   3.156
  141OSM   C10F15401   0.872   3.900   3.348
  141OSM   H10F15402   0.817   3.977   3.403
  141OSM   C11F15403   0.943   3.805   3.442
  141OSM   H11F15404   1.018   3.738   3.395
  141OSM   H11G15405   0.870   3.728   3.475
  141OSM   C12F15406   1.006   3.879   3.559
  141OSM   H12F15407   1.080   3.945   3.508
  141OSM   H12G15408   1.059   3.806   3.623
  141OSM   C13F15409   0.918   3.969   3.645
  141OSM   H13F15410   0.812   3.938   3.655
  141OSM   H13G15411   0.918   4.073   3.605
  141OSM   C14F15412   0.976   3.978   3.791
  141OSM   H14F15413   1.081   4.013   3.787
  141OSM   H14G15414   0.980   3.875   3.835
  141OSM   C15F15415   0.890   4.062   3.887
  141OSM   H15F15416   0.782   4.036   3.897
  141OSM   H15G15417   0.885   4.166   3.847
  141OSM   C16F15418   0.951   4.062   4.033
  141OSM   H16F15419   1.055   4.095   4.011
  141OSM   H16G15420   0.957   3.955   4.063
  141OSM   C17F15421   0.868   4.150   4.127
  141OSM   H17F15422   0.888   4.129   4.235
  141OSM   H17G15423   0.761   4.122   4.117
  141OSM   C18F15424   0.881   4.303   4.113
  141OSM   H18F15425   0.859   4.330   4.008
  141OSM   H18G15426   0.980   4.342   4.143
  141OSM   H18H15427   0.808   4.367   4.168
  142OSM      N15428   2.173   5.709   1.944
  142OSM    C1515429   2.071   5.613   1.887
  142OSM   H15A15430   2.105   5.566   1.796
  142OSM   H15B15431   1.979   5.662   1.860
  142OSM   H15C15432   2.049   5.535   1.958
  142OSM    C1415433   2.297   5.635   1.970
  142OSM   H14A15434   2.384   5.695   1.990
  142OSM   H14B15435   2.329   5.581   1.882
  142OSM   H14C15436   2.281   5.572   2.056
  142OSM    C1315437   2.207   5.810   1.832
  142OSM   H13A15438   2.277   5.884   1.868
  142OSM   H13B15439   2.116   5.860   1.800
  142OSM   H13C15440   2.245   5.761   1.744
  142OSM    C1215441   2.122   5.778   2.076
  142OSM   H12A15442   2.035   5.839   2.056
  142OSM   H12B15443   2.203   5.844   2.105
  142OSM    C1115444   2.069   5.703   2.199
  142OSM   H11A15445   2.046   5.776   2.280
  142OSM   H11B15446   2.155   5.644   2.237
  142OSM      P15447   1.808   5.682   2.199
  142OSM    O1315448   1.811   5.823   2.175
  142OSM    O1415449   1.712   5.595   2.127
  142OSM    O1115450   1.779   5.653   2.346
  142OSM    O1215451   1.953   5.625   2.170
  142OSM    C1S15452   1.871   5.589   2.434
  142OSM    H1S15453   1.973   5.634   2.435
  142OSM    H1T15454   1.892   5.485   2.401
  142OSM     NF15455   1.914   5.556   2.673
  142OSM    HNF15456   1.915   5.466   2.717
  142OSM    C2S15457   1.807   5.579   2.575
  142OSM    H2S15458   1.769   5.682   2.596
  142OSM    C3S15459   1.688   5.483   2.582
  142OSM    H3S15460   1.722   5.380   2.560
  142OSM     O315461   1.598   5.498   2.470
  142OSM    HO315462   1.646   5.554   2.410
  142OSM    C4S15463   1.620   5.497   2.717
  142OSM    H4S15464   1.679   5.461   2.802
  142OSM    C5S15465   1.495   5.550   2.737
  142OSM    H5S15466   1.441   5.591   2.650
  142OSM    C6S15467   1.422   5.559   2.869
  142OSM    H6S15468   1.335   5.490   2.862
  142OSM    H6T15469   1.386   5.664   2.876
  142OSM    C7S15470   1.509   5.527   2.997
  142OSM    H7S15471   1.597   5.595   3.005
  142OSM    H7T15472   1.549   5.423   2.989
  142OSM    C8S15473   1.426   5.536   3.131
  142OSM    H8S15474   1.334   5.475   3.117
  142OSM    H8T15475   1.388   5.639   3.145
  142OSM    C9S15476   1.504   5.490   3.251
  142OSM    H9S15477   1.606   5.529   3.232
  142OSM    H9T15478   1.501   5.379   3.256
  142OSM   C10S15479   1.455   5.547   3.382
  142OSM   H10S15480   1.351   5.508   3.391
  142OSM   H10T15481   1.455   5.658   3.382
  142OSM   C11S15482   1.533   5.490   3.499
  142OSM   H11S15483   1.643   5.498   3.484
  142OSM   H11T15484   1.503   5.383   3.500
  142OSM   C12S15485   1.503   5.555   3.640
  142OSM   H12S15486   1.395   5.551   3.663
  142OSM   H12T15487   1.536   5.661   3.639
  142OSM   C13S15488   1.586   5.481   3.745
  142OSM   H13S15489   1.683   5.463   3.694
  142OSM   H13T15490   1.543   5.383   3.775
  142OSM   C14S15491   1.616   5.566   3.878
  142OSM   H14S15492   1.527   5.621   3.915
  142OSM   H14T15493   1.685   5.648   3.848
  142OSM   C15S15494   1.671   5.484   3.992
  142OSM   H15S15495   1.777   5.477   3.960
  142OSM   H15T15496   1.626   5.383   4.001
  142OSM   C16S15497   1.662   5.555   4.132
  142OSM   H16S15498   1.564   5.602   4.155
  142OSM   H16T15499   1.732   5.641   4.131
  142OSM   C17S15500   1.699   5.447   4.235
  142OSM   H17S15501   1.805   5.419   4.215
  142OSM   H17T15502   1.628   5.363   4.219
  142OSM   C18S15503   1.686   5.496   4.379
  142OSM   H18S15504   1.581   5.530   4.391
  142OSM   H18T15505   1.759   5.578   4.400
  142OSM   H18U15506   1.699   5.413   4.452
  142OSM    C1F15507   1.999   5.645   2.705
  142OSM     OF15508   2.004   5.745   2.644
  142OSM    C2F15509   2.094   5.614   2.814
  142OSM    H2F15510   2.187   5.567   2.777
  142OSM    H2G15511   2.051   5.549   2.893
  142OSM    C3F15512   2.131   5.745   2.895
  142OSM    H3F15513   2.201   5.801   2.830
  142OSM    H3G15514   2.185   5.711   2.987
  142OSM    C4F15515   2.010   5.833   2.931
  142OSM    H4F15516   1.966   5.888   2.845
  142OSM    H4G15517   2.055   5.920   2.983
  142OSM    C5F15518   1.897   5.765   3.013
  142OSM    H5F15519   1.840   5.687   2.958
  142OSM    H5G15520   1.824   5.842   3.046
  142OSM    C6F15521   1.947   5.704   3.145
  142OSM    H6F15522   2.034   5.637   3.131
  142OSM    H6G15523   1.862   5.646   3.189
  142OSM    C7F15524   1.981   5.811   3.253
  142OSM    H7F15525   1.902   5.885   3.276
  142OSM    H7G15526   2.057   5.870   3.196
  142OSM    C8F15527   2.046   5.752   3.380
  142OSM    H8F15528   2.058   5.837   3.451
  142OSM    H8G15529   2.147   5.711   3.361
  142OSM    C9F15530   1.954   5.655   3.447
  142OSM    H9F15531   1.903   5.575   3.390
  142OSM   C10F15532   1.943   5.641   3.578
  142OSM   H10F15533   1.879   5.561   3.618
  142OSM   C11F15534   2.016   5.719   3.681
  142OSM   H11F15535   2.024   5.829   3.665
  142OSM   H11G15536   2.124   5.694   3.671
  142OSM   C12F15537   1.983   5.684   3.822
  142OSM   H12F15538   2.004   5.577   3.840
  142OSM   H12G15539   1.874   5.691   3.841
  142OSM   C13F15540   2.063   5.763   3.930
  142OSM   H13F15541   2.032   5.867   3.910
  142OSM   H13G15542   2.173   5.748   3.919
  142OSM   C14F15543   2.030   5.730   4.075
  142OSM   H14F15544   2.111   5.702   4.146
  142OSM   H14G15545   1.955   5.648   4.070
  142OSM   C15F15546   1.970   5.856   4.147
  142OSM   H15F15547   1.879   5.887   4.091
  142OSM   H15G15548   2.033   5.947   4.149
  142OSM   C16F15549   1.918   5.838   4.293
  142OSM   H16F15550   1.815   5.797   4.298
  142OSM   H16G15551   1.914   5.941   4.334
  142OSM   C17F15552   1.998   5.746   4.383
  142OSM   H17F15553   2.107   5.766   4.369
  142OSM   H17G15554   1.992   5.639   4.351
  142OSM   C18F15555   1.956   5.761   4.529
  142OSM   H18F15556   1.850   5.728   4.527
  142OSM   H18G15557   1.962   5.867   4.561
  142OSM   H18H15558   1.995   5.693   4.608
  143OSM      N15559   1.495   4.863   1.773
  143OSM    C1515560   1.451   4.828   1.908
  143OSM   H15A15561   1.520   4.773   1.971
  143OSM   H15B15562   1.358   4.772   1.909
  143OSM   H15C15563   1.424   4.913   1.968
  143OSM    C1415564   1.505   4.741   1.687
  143OSM   H14A15565   1.567   4.672   1.743
  143OSM   H14B15566   1.564   4.760   1.598
  143OSM   H14C15567   1.406   4.700   1.670
  143OSM    C1315568   1.398   4.953   1.707
  143OSM   H13A15569   1.403   5.054   1.744
  143OSM   H13B15570   1.298   4.914   1.712
  143OSM   H13C15571   1.412   4.962   1.600
  143OSM    C1215572   1.625   4.928   1.772
  143OSM   H12A15573   1.626   5.013   1.838
  143OSM   H12B15574   1.633   4.965   1.671
  143OSM    C1115575   1.754   4.851   1.809
  143OSM   H11A15576   1.838   4.924   1.814
  143OSM   H11B15577   1.775   4.780   1.727
  143OSM      P15578   1.806   4.650   1.965
  143OSM    O1315579   1.727   4.549   1.894
  143OSM    O1415580   1.951   4.667   1.936
  143OSM    O1115581   1.785   4.647   2.120
  143OSM    O1215582   1.737   4.791   1.939
  143OSM    C1S15583   1.656   4.675   2.172
  143OSM    H1S15584   1.587   4.598   2.132
  143OSM    H1T15585   1.608   4.770   2.141
  143OSM     NF15586   1.505   4.716   2.358
  143OSM    HNF15587   1.488   4.807   2.396
  143OSM    C2S15588   1.639   4.673   2.326
  143OSM    H2S15589   1.658   4.569   2.360
  143OSM    C3S15590   1.742   4.763   2.387
  143OSM    H3S15591   1.715   4.870   2.372
  143OSM     O315592   1.876   4.748   2.341
  143OSM    HO315593   1.866   4.708   2.255
  143OSM    C4S15594   1.750   4.735   2.537
  143OSM    H4S15595   1.725   4.823   2.598
  143OSM    C5S15596   1.800   4.620   2.594
  143OSM    H5S15597   1.838   4.537   2.532
  143OSM    C6S15598   1.824   4.599   2.742
  143OSM    H6S15599   1.929   4.564   2.754
  143OSM    H6T15600   1.760   4.517   2.781
  143OSM    C7S15601   1.798   4.730   2.826
  143OSM    H7S15602   1.693   4.762   2.806
  143OSM    H7T15603   1.866   4.814   2.799
  143OSM    C8S15604   1.800   4.710   2.979
  143OSM    H8S15605   1.693   4.693   3.002
  143OSM    H8T15606   1.834   4.809   3.015
  143OSM    C9S15607   1.880   4.603   3.041
  143OSM    H9S15608   1.984   4.611   3.004
  143OSM    H9T15609   1.843   4.500   3.020
  143OSM   C10S15610   1.893   4.626   3.195
  143OSM   H10S15611   1.796   4.606   3.244
  143OSM   H10T15612   1.923   4.733   3.203
  143OSM   C11S15613   2.003   4.545   3.265
  143OSM   H11S15614   2.100   4.578   3.221
  143OSM   H11T15615   1.986   4.436   3.250
  143OSM   C12S15616   2.017   4.560   3.419
  143OSM   H12S15617   1.917   4.530   3.457
  143OSM   H12T15618   2.043   4.664   3.449
  143OSM   C13S15619   2.115   4.459   3.483
  143OSM   H13S15620   2.210   4.474   3.427
  143OSM   H13T15621   2.083   4.354   3.469
  143OSM   C14S15622   2.125   4.501   3.633
  143OSM   H14S15623   2.035   4.457   3.681
  143OSM   H14T15624   2.119   4.611   3.645
  143OSM   C15S15625   2.255   4.448   3.688
  143OSM   H15S15626   2.333   4.525   3.668
  143OSM   H15T15627   2.282   4.353   3.637
  143OSM   C16S15628   2.246   4.422   3.843
  143OSM   H16S15629   2.208   4.318   3.853
  143OSM   H16T15630   2.172   4.485   3.898
  143OSM   C17S15631   2.386   4.426   3.906
  143OSM   H17S15632   2.416   4.532   3.920
  143OSM   H17T15633   2.460   4.362   3.854
  143OSM   C18S15634   2.383   4.357   4.044
  143OSM   H18S15635   2.474   4.370   4.107
  143OSM   H18T15636   2.371   4.247   4.036
  143OSM   H18U15637   2.301   4.395   4.109
  143OSM    C1F15638   1.403   4.639   2.358
  143OSM     OF15639   1.424   4.523   2.330
  143OSM    C2F15640   1.272   4.688   2.403
  143OSM    H2F15641   1.216   4.711   2.309
  143OSM    H2G15642   1.290   4.779   2.463
  143OSM    C3F15643   1.195   4.588   2.494
  143OSM    H3F15644   1.262   4.566   2.579
  143OSM    H3G15645   1.194   4.494   2.434
  143OSM    C4F15646   1.072   4.654   2.551
  143OSM    H4F15647   1.017   4.703   2.468
  143OSM    H4G15648   1.080   4.732   2.630
  143OSM    C5F15649   0.960   4.559   2.616
  143OSM    H5F15650   0.948   4.465   2.557
  143OSM    H5G15651   0.863   4.612   2.626
  143OSM    C6F15652   1.017   4.527   2.757
  143OSM    H6F15653   1.126   4.522   2.736
  143OSM    H6G15654   0.978   4.426   2.781
  143OSM    C7F15655   0.966   4.624   2.871
  143OSM    H7F15656   0.858   4.637   2.850
  143OSM    H7G15657   1.022   4.719   2.858
  143OSM    C8F15658   0.981   4.564   3.007
  143OSM    H8F15659   1.085   4.541   3.038
  143OSM    H8G15660   0.915   4.475   2.999
  143OSM    C9F15661   0.939   4.665   3.119
  143OSM    H9F15662   0.923   4.766   3.079
  143OSM   C10F15663   0.906   4.635   3.247
  143OSM   H10F15664   0.866   4.716   3.310
  143OSM   C11F15665   0.929   4.500   3.309
  143OSM   H11F15666   0.963   4.420   3.240
  143OSM   H11G15667   0.826   4.469   3.337
  143OSM   C12F15668   1.037   4.506   3.427
  143OSM   H12F15669   1.133   4.536   3.380
  143OSM   H12G15670   1.046   4.402   3.466
  143OSM   C13F15671   0.995   4.605   3.540
  143OSM   H13F15672   1.006   4.713   3.518
  143OSM   H13G15673   1.069   4.593   3.623
  143OSM   C14F15674   0.857   4.580   3.591
  143OSM   H14F15675   0.834   4.472   3.580
  143OSM   H14G15676   0.788   4.639   3.527
  143OSM   C15F15677   0.839   4.623   3.734
  143OSM   H15F15678   0.853   4.731   3.754
  143OSM   H15G15679   0.911   4.566   3.797
  143OSM   C16F15680   0.710   4.585   3.804
  143OSM   H16F15681   0.712   4.475   3.813
  143OSM   H16G15682   0.622   4.614   3.742
  143OSM   C17F15683   0.699   4.645   3.949
  143OSM   H17F15684   0.706   4.756   3.936
  143OSM   H17G15685   0.781   4.606   4.012
  143OSM   C18F15686   0.569   4.607   4.012
  143OSM   H18F15687   0.479   4.650   3.964
  143OSM   H18G15688   0.573   4.640   4.118
  143OSM   H18H15689   0.556   4.497   4.020
  144OSM      N15690   0.817   5.420   1.697
  144OSM    C1515691   0.825   5.558   1.642
  144OSM   H15A15692   0.887   5.575   1.555
  144OSM   H15B15693   0.870   5.625   1.714
  144OSM   H15C15694   0.726   5.587   1.612
  144OSM    C1415695   0.743   5.331   1.604
  144OSM   H14A15696   0.789   5.323   1.506
  144OSM   H14B15697   0.641   5.360   1.589
  144OSM   H14C15698   0.749   5.231   1.645
  144OSM    C1315699   0.956   5.377   1.709
  144OSM   H13A15700   1.008   5.358   1.616
  144OSM   H13B15701   0.973   5.294   1.776
  144OSM   H13C15702   1.015   5.452   1.759
  144OSM    C1215703   0.733   5.417   1.822
  144OSM   H12A15704   0.729   5.313   1.851
  144OSM   H12B15705   0.631   5.441   1.796
  144OSM    C1115706   0.770   5.502   1.942
  144OSM   H11A15707   0.696   5.490   2.024
  144OSM   H11B15708   0.754   5.608   1.912
  144OSM      P15709   0.934   5.354   2.074
  144OSM    O1315710   0.822   5.256   2.061
  144OSM    O1415711   1.081   5.320   2.053
  144OSM    O1115712   0.920   5.399   2.225
  144OSM    O1215713   0.897   5.483   1.993
  144OSM    C1S15714   0.897   5.525   2.277
  144OSM    H1S15715   0.799   5.554   2.232
  144OSM    H1T15716   0.980   5.595   2.253
  144OSM     NF15717   0.849   5.651   2.485
  144OSM    HNF15718   0.923   5.701   2.529
  144OSM    C2S15719   0.879   5.517   2.432
  144OSM    H2S15720   0.789   5.453   2.450
  144OSM    C3S15721   0.994   5.436   2.510
  144OSM    H3S15722   1.084   5.503   2.511
  144OSM     O315723   1.037   5.308   2.446
  144OSM    HO315724   0.994   5.318   2.360
  144OSM    C4S15725   0.955   5.406   2.653
  144OSM    H4S15726   0.878   5.328   2.654
  144OSM    C5S15727   1.007   5.456   2.768
  144OSM    H5S15728   1.082   5.537   2.774
  144OSM    C6S15729   0.963   5.416   2.906
  144OSM    H6S15730   0.974   5.307   2.918
  144OSM    H6T15731   0.854   5.435   2.916
  144OSM    C7S15732   1.044   5.494   3.006
  144OSM    H7S15733   1.037   5.605   2.995
  144OSM    H7T15734   1.151   5.469   2.991
  144OSM    C8S15735   1.009   5.440   3.145
  144OSM    H8S15736   1.081   5.502   3.203
  144OSM    H8T15737   1.017   5.331   3.159
  144OSM    C9S15738   0.872   5.487   3.187
  144OSM    H9S15739   0.784   5.446   3.132
  144OSM    H9T15740   0.871   5.596   3.162
  144OSM   C10S15741   0.854   5.479   3.345
  144OSM   H10S15742   0.936   5.545   3.382
  144OSM   H10T15743   0.883   5.378   3.379
  144OSM   C11S15744   0.715   5.534   3.383
  144OSM   H11S15745   0.650   5.471   3.318
  144OSM   H11T15746   0.713   5.640   3.350
  144OSM   C12S15747   0.676   5.532   3.530
  144OSM   H12S15748   0.663   5.425   3.558
  144OSM   H12T15749   0.579   5.584   3.536
  144OSM   C13S15750   0.777   5.599   3.623
  144OSM   H13S15751   0.837   5.672   3.564
  144OSM   H13T15752   0.854   5.527   3.659
  144OSM   C14S15753   0.704   5.674   3.738
  144OSM   H14S15754   0.613   5.619   3.769
  144OSM   H14T15755   0.680   5.775   3.699
  144OSM   C15S15756   0.799   5.693   3.862
  144OSM   H15S15757   0.885   5.759   3.837
  144OSM   H15T15758   0.848   5.597   3.889
  144OSM   C16S15759   0.737   5.739   3.997
  144OSM   H16S15760   0.695   5.648   4.045
  144OSM   H16T15761   0.655   5.805   3.960
  144OSM   C17S15762   0.826   5.801   4.107
  144OSM   H17S15763   0.764   5.816   4.198
  144OSM   H17T15764   0.877   5.888   4.062
  144OSM   C18S15765   0.931   5.696   4.145
  144OSM   H18S15766   0.986   5.669   4.053
  144OSM   H18T15767   0.879   5.602   4.174
  144OSM   H18U15768   0.999   5.727   4.227
  144OSM    C1F15769   0.732   5.714   2.467
  144OSM     OF15770   0.639   5.646   2.421
  144OSM    C2F15771   0.724   5.862   2.488
  144OSM    H2F15772   0.720   5.897   2.382
  144OSM    H2G15773   0.820   5.906   2.522
  144OSM    C3F15774   0.612   5.922   2.578
  144OSM    H3F15775   0.507   5.897   2.550
  144OSM    H3G15776   0.626   6.031   2.564
  144OSM    C4F15777   0.636   5.900   2.733
  144OSM    H4F15778   0.741   5.921   2.763
  144OSM    H4G15779   0.619   5.795   2.765
  144OSM    C5F15780   0.546   5.981   2.820
  144OSM    H5F15781   0.439   5.957   2.808
  144OSM    H5G15782   0.563   6.086   2.788
  144OSM    C6F15783   0.595   5.978   2.959
  144OSM    H6F15784   0.705   5.991   2.949
  144OSM    H6G15785   0.567   5.886   3.015
  144OSM    C7F15786   0.538   6.101   3.034
  144OSM    H7F15787   0.428   6.092   3.032
  144OSM    H7G15788   0.565   6.194   2.979
  144OSM    C8F15789   0.574   6.107   3.184
  144OSM    H8F15790   0.548   6.204   3.231
  144OSM    H8G15791   0.684   6.103   3.202
  144OSM    C9F15792   0.505   6.003   3.264
  144OSM    H9F15793   0.421   5.952   3.214
  144OSM   C10F15794   0.527   5.969   3.392
  144OSM   H10F15795   0.470   5.883   3.431
  144OSM   C11F15796   0.639   6.017   3.478
  144OSM   H11F15797   0.700   6.097   3.430
  144OSM   H11G15798   0.703   5.930   3.503
  144OSM   C12F15799   0.580   6.073   3.606
  144OSM   H12F15800   0.546   5.989   3.671
  144OSM   H12G15801   0.481   6.121   3.593
  144OSM   C13F15802   0.679   6.168   3.687
  144OSM   H13F15803   0.623   6.218   3.769
  144OSM   H13G15804   0.705   6.250   3.617
  144OSM   C14F15805   0.803   6.099   3.734
  144OSM   H14F15806   0.855   6.056   3.646
  144OSM   H14G15807   0.773   6.019   3.805
  144OSM   C15F15808   0.895   6.197   3.802
  144OSM   H15F15809   0.871   6.303   3.781
  144OSM   H15G15810   0.998   6.177   3.767
  144OSM   C16F15811   0.901   6.182   3.952
  144OSM   H16F15812   0.950   6.083   3.967
  144OSM   H16G15813   0.797   6.188   3.989
  144OSM   C17F15814   0.983   6.293   4.016
  144OSM   H17F15815   0.966   6.296   4.126
  144OSM   H17G15816   0.953   6.393   3.978
  144OSM   C18F15817   1.132   6.270   3.999
  144OSM   H18F15818   1.182   6.353   4.053
  144OSM   H18G15819   1.149   6.267   3.889
  144OSM   H18H15820   1.158   6.171   4.040
  145SAPE     N15821   1.015   0.377   6.366
  145SAPE   HN115822   0.987   0.304   6.434
  145SAPE   HN215823   0.952   0.378   6.283
  145SAPE   HN315824   1.103   0.347   6.319
  145SAPE   C1215825   1.042   0.502   6.442
  145SAPE  H12A15826   1.145   0.499   6.483
  145SAPE  H12B15827   0.965   0.518   6.520
  145SAPE   C1115828   1.041   0.617   6.330
  145SAPE  H11A15829   1.108   0.595   6.245
  145SAPE  H11B15830   1.078   0.708   6.383
  145SAPE     P15831   0.813   0.746   6.321
  145SAPE   O1315832   0.684   0.718   6.260
  145SAPE   O1415833   0.821   0.736   6.470
  145SAPE   O1215834   0.917   0.638   6.270
  145SAPE   O1115835   0.854   0.887   6.276
  145SAPE    C115836   0.951   0.935   6.192
  145SAPE    HA15837   0.977   1.039   6.222
  145SAPE    HB15838   1.042   0.872   6.190
  145SAPE    C215839   0.895   0.953   6.046
  145SAPE    HS15840   0.813   1.028   6.045
  145SAPE   O2115841   0.851   0.823   5.983
  145SAPE   C2115842   0.738   0.830   5.916
  145SAPE   O2215843   0.670   0.931   5.890
  145SAPE   C2215844   0.695   0.696   5.871
  145SAPE   H2R15845   0.764   0.619   5.911
  145SAPE   H2S15846   0.595   0.680   5.916
  145SAPE    C315847   1.005   1.024   5.957
  145SAPE    HX15848   1.105   0.979   5.974
  145SAPE    HY15849   1.026   1.126   5.995
  145SAPE   O3115850   0.959   1.031   5.816
  145SAPE   C3115851   0.864   1.120   5.775
  145SAPE   O3215852   0.822   1.204   5.850
  145SAPE   C3215853   0.816   1.090   5.632
  145SAPE   H2X15854   0.807   0.980   5.622
  145SAPE   H2Y15855   0.877   1.139   5.553
  145SAPE   C2315856   0.699   0.683   5.715
  145SAPE   H3R15857   0.801   0.714   5.685
  145SAPE   H3S15858   0.619   0.748   5.673
  145SAPE   C2415859   0.674   0.544   5.665
  145SAPE   H4R15860   0.592   0.516   5.735
  145SAPE   H4S15861   0.754   0.469   5.688
  145SAPE   C2515862   0.619   0.554   5.520
  145SAPE   H5R15863   0.509   0.557   5.522
  145SAPE   C2615864   0.684   0.575   5.403
  145SAPE   H6R15865   0.637   0.576   5.303
  145SAPE   C2715866   0.835   0.572   5.385
  145SAPE   H7R15867   0.878   0.494   5.451
  145SAPE   H7S15868   0.873   0.677   5.392
  145SAPE   C2815869   0.884   0.522   5.251
  145SAPE   H8R15870   0.962   0.445   5.257
  145SAPE   C2915871   0.863   0.567   5.126
  145SAPE   H9R15872   0.918   0.511   5.049
  145SAPE  C21015873   0.789   0.690   5.080
  145SAPE  H10R15874   0.864   0.766   5.050
  145SAPE  H10S15875   0.738   0.738   5.166
  145SAPE  C21115876   0.702   0.669   4.962
  145SAPE  H11R15877   0.598   0.662   4.998
  145SAPE  C21215878   0.724   0.677   4.827
  145SAPE  H12R15879   0.639   0.684   4.757
  145SAPE  C21315880   0.863   0.695   4.775
  145SAPE  H13R15881   0.926   0.674   4.864
  145SAPE  H13S15882   0.875   0.803   4.752
  145SAPE  C21415883   0.914   0.604   4.664
  145SAPE  H14R15884   0.833   0.536   4.634
  145SAPE  C21515885   1.036   0.606   4.604
  145SAPE  H15R15886   1.055   0.543   4.515
  145SAPE  C21615887   1.153   0.690   4.643
  145SAPE  H16R15888   1.231   0.626   4.691
  145SAPE  H16S15889   1.127   0.761   4.725
  145SAPE  C21715890   1.209   0.782   4.534
  145SAPE  H17R15891   1.273   0.857   4.586
  145SAPE  H17S15892   1.128   0.841   4.486
  145SAPE  C21815893   1.287   0.721   4.417
  145SAPE  H18R15894   1.317   0.802   4.347
  145SAPE  H18S15895   1.228   0.664   4.343
  145SAPE  C21915896   1.410   0.643   4.467
  145SAPE  H19R15897   1.363   0.556   4.518
  145SAPE  H19S15898   1.468   0.705   4.538
  145SAPE  C22015899   1.508   0.593   4.355
  145SAPE  H20R15900   1.543   0.666   4.279
  145SAPE  H20S15901   1.463   0.510   4.297
  145SAPE  H20T15902   1.600   0.547   4.398
  145SAPE   C3315903   0.668   1.141   5.614
  145SAPE   H3X15904   0.674   1.251   5.598
  145SAPE   H3Y15905   0.609   1.118   5.705
  145SAPE   C3415906   0.599   1.080   5.484
  145SAPE   H4X15907   0.494   1.116   5.485
  145SAPE   H4Y15908   0.579   0.973   5.503
  145SAPE   C3515909   0.658   1.111   5.350
  145SAPE   H5X15910   0.758   1.064   5.344
  145SAPE   H5Y15911   0.676   1.221   5.340
  145SAPE   C3615912   0.561   1.083   5.230
  145SAPE   H6X15913   0.478   1.155   5.246
  145SAPE   H6Y15914   0.515   0.983   5.245
  145SAPE   C3715915   0.639   1.104   5.103
  145SAPE   H7X15916   0.733   1.046   5.113
  145SAPE   H7Y15917   0.667   1.211   5.094
  145SAPE   C3815918   0.552   1.051   4.980
  145SAPE   H8X15919   0.452   1.097   4.965
  145SAPE   H8Y15920   0.526   0.944   4.999
  145SAPE   C3915921   0.631   1.068   4.847
  145SAPE   H9X15922   0.732   1.022   4.843
  145SAPE   H9Y15923   0.645   1.175   4.820
  145SAPE  C31015924   0.561   1.011   4.721
  145SAPE  H10X15925   0.482   1.082   4.689
  145SAPE  H10Y15926   0.510   0.916   4.748
  145SAPE  C31115927   0.660   0.991   4.608
  145SAPE  H11X15928   0.714   0.899   4.638
  145SAPE  H11Y15929   0.731   1.077   4.604
  145SAPE  C31215930   0.593   0.973   4.474
  145SAPE  H12X15931   0.492   0.930   4.491
  145SAPE  H12Y15932   0.651   0.899   4.415
  145SAPE  C31315933   0.550   1.101   4.406
  145SAPE  H13X15934   0.649   1.150   4.397
  145SAPE  H13Y15935   0.494   1.160   4.482
  145SAPE  C31415936   0.481   1.080   4.269
  145SAPE  H14X15937   0.468   1.176   4.213
  145SAPE  H14Y15938   0.376   1.047   4.286
  145SAPE  C31515939   0.566   0.994   4.169
  145SAPE  H15X15940   0.547   0.886   4.190
  145SAPE  H15Y15941   0.672   1.007   4.197
  145SAPE  C31615942   0.533   1.018   4.020
  145SAPE  H16X15943   0.592   1.099   3.972
  145SAPE  H16Y15944   0.424   1.032   4.002
  145SAPE  C31715945   0.580   0.897   3.936
  145SAPE  H17X15946   0.569   0.803   3.994
  145SAPE  H17Y15947   0.690   0.901   3.928
  145SAPE  C31815948   0.507   0.900   3.805
  145SAPE  H18X15949   0.400   0.883   3.825
  145SAPE  H18Y15950   0.538   0.810   3.747
  145SAPE  H18Z15951   0.520   0.998   3.754
  146SAPE     N15952   3.559   0.581   7.338
  146SAPE   HN115953   3.513   0.589   7.245
  146SAPE   HN215954   3.501   0.601   7.422
  146SAPE   HN315955   3.637   0.649   7.330
  146SAPE   C1215956   3.610   0.440   7.345
  146SAPE  H12A15957   3.533   0.376   7.392
  146SAPE  H12B15958   3.701   0.440   7.409
  146SAPE   C1115959   3.645   0.384   7.208
  146SAPE  H11A15960   3.697   0.287   7.224
  146SAPE  H11B15961   3.718   0.449   7.156
  146SAPE     P15962   3.500   0.456   7.005
  146SAPE   O1315963   3.373   0.411   6.943
  146SAPE   O1415964   3.507   0.595   7.054
  146SAPE   O1215965   3.527   0.353   7.121
  146SAPE   O1115966   3.625   0.425   6.908
  146SAPE    C115967   3.639   0.283   6.872
  146SAPE    HA15968   3.666   0.225   6.962
  146SAPE    HB15969   3.549   0.248   6.816
  146SAPE    C215970   3.763   0.265   6.780
  146SAPE    HS15971   3.856   0.288   6.836
  146SAPE   O2115972   3.746   0.350   6.661
  146SAPE   C2115973   3.853   0.409   6.620
  146SAPE   O2215974   3.967   0.403   6.663
  146SAPE   C2215975   3.821   0.467   6.488
  146SAPE   H2R15976   3.740   0.404   6.446
  146SAPE   H2S15977   3.779   0.568   6.506
  146SAPE    C315978   3.767   0.119   6.735
  146SAPE    HX15979   3.666   0.107   6.692
  146SAPE    HY15980   3.778   0.057   6.826
  146SAPE   O3115981   3.875   0.089   6.648
  146SAPE   C3115982   3.851   0.074   6.521
  146SAPE   O3215983   3.741   0.099   6.468
  146SAPE   C3215984   3.976   0.032   6.445
  146SAPE   H2X15985   4.056   0.023   6.522
  146SAPE   H2Y15986   4.018   0.113   6.381
  146SAPE   C2315987   3.944   0.497   6.403
  146SAPE   H3R15988   4.001   0.410   6.363
  146SAPE   H3S15989   4.014   0.556   6.466
  146SAPE   C2415990   3.909   0.587   6.283
  146SAPE   H4R15991   3.850   0.678   6.310
  146SAPE   H4S15992   3.825   0.535   6.232
  146SAPE   C2515993   4.038   0.626   6.214
  146SAPE   H5R15994   4.118   0.634   6.288
  146SAPE   C2615995   4.066   0.639   6.086
  146SAPE   H6R15996   4.173   0.648   6.059
  146SAPE   C2715997   3.961   0.619   5.978
  146SAPE   H7R15998   3.866   0.668   6.009
  146SAPE   H7S15999   3.943   0.512   5.953
  146SAPE   C2816000   4.012   0.676   5.854
  146SAPE   H8R16001   4.094   0.749   5.861
  146SAPE   C2916002   3.967   0.659   5.731
  146SAPE   H9R16003   4.032   0.691   5.648
  146SAPE  C21016004   3.859   0.566   5.692
  146SAPE  H10R16005   3.843   0.487   5.769
  146SAPE  H10S16006   3.876   0.509   5.599
  146SAPE  C21116007   3.730   0.646   5.681
  146SAPE  H11R16008   3.676   0.648   5.777
  146SAPE  C21216009   3.681   0.726   5.583
  146SAPE  H12R16010   3.588   0.784   5.584
  146SAPE  C21316011   3.754   0.731   5.449
  146SAPE  H13R16012   3.856   0.689   5.463
  146SAPE  H13S16013   3.759   0.836   5.415
  146SAPE  C21416014   3.685   0.637   5.342
  146SAPE  H14R16015   3.590   0.594   5.378
  146SAPE  C21516016   3.710   0.629   5.214
  146SAPE  H15R16017   3.649   0.571   5.142
  146SAPE  C21616018   3.829   0.708   5.158
  146SAPE  H16R16019   3.915   0.700   5.228
  146SAPE  H16S16020   3.805   0.817   5.167
  146SAPE  C21716021   3.862   0.676   5.010
  146SAPE  H17R16022   3.949   0.742   4.989
  146SAPE  H17S16023   3.777   0.719   4.953
  146SAPE  C21816024   3.877   0.532   4.966
  146SAPE  H18R16025   3.911   0.535   4.860
  146SAPE  H18S16026   3.781   0.477   4.975
  146SAPE  C21916027   3.979   0.457   5.052
  146SAPE  H19R16028   3.939   0.447   5.155
  146SAPE  H19S16029   4.074   0.515   5.051
  146SAPE  C22016030   4.017   0.324   4.997
  146SAPE  H20R16031   4.066   0.268   5.080
  146SAPE  H20S16032   4.088   0.333   4.912
  146SAPE  H20T16033   3.919   0.279   4.972
  146SAPE   C3316034   3.962   6.692   6.376
  146SAPE   H3X16035   3.873   6.695   6.310
  146SAPE   H3Y16036   3.963   6.602   6.441
  146SAPE   C3416037   4.077   6.669   6.267
  146SAPE   H4X16038   4.181   6.668   6.306
  146SAPE   H4Y16039   4.073   6.757   6.200
  146SAPE   C3516040   4.067   6.534   6.197
  146SAPE   H5X16041   3.966   6.519   6.154
  146SAPE   H5Y16042   4.074   6.451   6.271
  146SAPE   C3616043   4.173   6.510   6.080
  146SAPE   H6X16044   4.263   6.550   6.131
  146SAPE   H6Y16045   4.145   6.584   6.002
  146SAPE   C3716046   4.184   6.367   6.017
  146SAPE   H7X16047   4.084   6.351   5.972
  146SAPE   H7Y16048   4.191   6.284   6.090
  146SAPE   C3816049   4.293   6.367   5.903
  146SAPE   H8X16050   4.356   6.277   5.914
  146SAPE   H8Y16051   4.360   6.454   5.921
  146SAPE   C3916052   4.222   6.374   5.771
  146SAPE   H9X16053   4.158   6.464   5.788
  146SAPE   H9Y16054   4.162   6.281   5.757
  146SAPE  C31016055   4.326   6.390   5.665
  146SAPE  H10X16056   4.366   6.293   5.630
  146SAPE  H10Y16057   4.410   6.446   5.714
  146SAPE  C31116058   4.295   6.473   5.534
  146SAPE  H11X16059   4.256   6.575   5.552
  146SAPE  H11Y16060   4.220   6.411   5.479
  146SAPE  C31216061   4.417   6.484   5.448
  146SAPE  H12X16062   4.474   6.388   5.449
  146SAPE  H12Y16063   4.491   6.560   5.481
  146SAPE  C31316064   4.398   6.506   5.297
  146SAPE  H13X16065   4.359   6.414   5.247
  146SAPE  H13Y16066   4.494   6.535   5.250
  146SAPE  C31416067   4.308   6.624   5.253
  146SAPE  H14X16068   4.361   6.711   5.296
  146SAPE  H14Y16069   4.203   6.612   5.289
  146SAPE  C31516070   4.313   6.624   5.097
  146SAPE  H15X16071   4.274   6.526   5.062
  146SAPE  H15Y16072   4.418   6.648   5.071
  146SAPE  C31616073   4.211   6.727   5.041
  146SAPE  H16X16074   4.236   0.040   5.060
  146SAPE  H16Y16075   4.112   6.710   5.088
  146SAPE  C31716076   4.198   6.719   4.886
  146SAPE  H17X16077   4.298   6.748   4.847
  146SAPE  H17Y16078   4.139   0.017   4.862
  146SAPE  C31816079   4.154   6.597   4.812
  146SAPE  H18X16080   4.236   6.523   4.823
  146SAPE  H18Y16081   4.129   6.608   4.704
  146SAPE  H18Z16082   4.062   6.553   4.856
  147SAPE     N16083   4.833   5.669   7.071
  147SAPE   HN116084   4.852   5.675   7.173
  147SAPE   HN216085   4.817   5.760   7.023
  147SAPE   HN316086   4.749   5.608   7.058
  147SAPE   C1216087   4.954   5.606   7.006
  147SAPE  H12A16088   4.974   5.515   7.066
  147SAPE  H12B16089   5.033   5.684   7.006
  147SAPE   C1116090   4.915   5.565   6.863
  147SAPE  H11A16091   4.828   5.496   6.864
  147SAPE  H11B16092   5.005   5.517   6.819
  147SAPE     P16093   4.809   5.707   6.677
  147SAPE   O1316094   4.676   5.743   6.727
  147SAPE   O1416095   4.875   5.795   6.572
  147SAPE   O1216096   4.903   5.684   6.795
  147SAPE   O1116097   4.793   5.554   6.625
  147SAPE    C116098   4.883   5.487   6.536
  147SAPE    HA16099   4.982   5.536   6.527
  147SAPE    HB16100   4.905   5.383   6.567
  147SAPE    C216101   4.825   5.473   6.395
  147SAPE    HS16102   4.897   5.409   6.337
  147SAPE   O2116103   4.817   5.599   6.329
  147SAPE   C2116104   4.933   5.660   6.295
  147SAPE   O2216105   5.045   5.607   6.304
  147SAPE   C2216106   4.902   5.800   6.243
  147SAPE   H2R16107   4.823   5.790   6.165
  147SAPE   H2S16108   4.851   5.851   6.328
  147SAPE    C316109   4.691   5.395   6.403
  147SAPE    HX16110   4.629   5.463   6.466
  147SAPE    HY16111   4.696   5.293   6.447
  147SAPE   O3116112   4.625   5.402   6.279
  147SAPE   C3116113   4.659   5.296   6.203
  147SAPE   O3216114   4.744   5.214   6.231
  147SAPE   C3216115   4.582   5.310   6.067
  147SAPE   H2X16116   4.654   5.316   5.983
  147SAPE   H2Y16117   4.527   5.407   6.069
  147SAPE   C2316118   5.024   5.874   6.193
  147SAPE   H3R16119   5.079   5.811   6.120
  147SAPE   H3S16120   5.099   5.897   6.272
  147SAPE   C2416121   4.983   6.010   6.119
  147SAPE   H4R16122   4.939   6.071   6.200
  147SAPE   H4S16123   4.900   5.986   6.049
  147SAPE   C2516124   5.098   6.085   6.056
  147SAPE   H5R16125   5.143   6.155   6.129
  147SAPE   C2616126   5.140   6.096   5.923
  147SAPE   H6R16127   5.234   6.148   5.903
  147SAPE   C2716128   5.076   6.022   5.808
  147SAPE   H7R16129   4.968   6.002   5.823
  147SAPE   H7S16130   5.117   5.920   5.797
  147SAPE   C2816131   5.082   6.093   5.679
  147SAPE   H8R16132   5.116   6.198   5.680
  147SAPE   C2916133   5.061   6.034   5.553
  147SAPE   H9R16134   5.076   6.098   5.465
  147SAPE  C21016135   5.017   5.893   5.522
  147SAPE  H10R16136   4.928   5.888   5.456
  147SAPE  H10S16137   4.988   5.854   5.622
  147SAPE  C21116138   5.137   5.805   5.486
  147SAPE  H11R16139   5.228   5.819   5.547
  147SAPE  C21216140   5.148   5.716   5.380
  147SAPE  H12R16141   5.240   5.656   5.372
  147SAPE  C21316142   5.046   5.685   5.277
  147SAPE  H13R16143   4.945   5.716   5.311
  147SAPE  H13S16144   5.029   5.576   5.275
  147SAPE  C21416145   5.084   5.714   5.132
  147SAPE  H14R16146   5.152   5.798   5.117
  147SAPE  C21516147   5.033   5.650   5.030
  147SAPE  H15R16148   5.042   5.691   4.928
  147SAPE  C21616149   4.924   5.537   5.043
  147SAPE  H16R16150   4.937   5.477   5.135
  147SAPE  H16S16151   4.947   5.468   4.959
  147SAPE  C21716152   4.772   5.565   5.028
  147SAPE  H17R16153   4.732   5.633   5.107
  147SAPE  H17S16154   4.719   5.468   5.043
  147SAPE  C21816155   4.727   5.618   4.892
  147SAPE  H18R16156   4.727   5.533   4.821
  147SAPE  H18S16157   4.793   5.698   4.852
  147SAPE  C21916158   4.583   5.677   4.890
  147SAPE  H19R16159   4.564   5.707   4.785
  147SAPE  H19S16160   4.588   5.766   4.957
  147SAPE  C22016161   4.463   5.593   4.916
  147SAPE  H20R16162   4.362   5.636   4.901
  147SAPE  H20S16163   4.458   5.551   5.019
  147SAPE  H20T16164   4.471   5.514   4.839
  147SAPE   C3316165   4.494   5.193   6.029
  147SAPE   H3X16166   4.414   5.186   6.106
  147SAPE   H3Y16167   4.552   5.100   6.048
  147SAPE   C3416168   4.417   5.198   5.887
  147SAPE   H4X16169   4.361   5.294   5.890
  147SAPE   H4Y16170   4.355   5.106   5.879
  147SAPE   C3516171   4.502   5.211   5.764
  147SAPE   H5X16172   4.596   5.156   5.785
  147SAPE   H5Y16173   4.541   5.315   5.757
  147SAPE   C3616174   4.446   5.166   5.633
  147SAPE   H6X16175   4.354   5.227   5.617
  147SAPE   H6Y16176   4.421   5.058   5.639
  147SAPE   C3716177   4.532   5.192   5.511
  147SAPE   H7X16178   4.627   5.138   5.497
  147SAPE   H7Y16179   4.546   5.302   5.502
  147SAPE   C3816180   4.449   5.167   5.384
  147SAPE   H8X16181   4.397   5.264   5.368
  147SAPE   H8Y16182   4.384   5.080   5.404
  147SAPE   C3916183   4.543   5.162   5.262
  147SAPE   H9X16184   4.609   5.072   5.267
  147SAPE   H9Y16185   4.614   5.244   5.285
  147SAPE  C31016186   4.485   5.187   5.123
  147SAPE  H10X16187   4.447   5.290   5.109
  147SAPE  H10Y16188   4.395   5.123   5.106
  147SAPE  C31116189   4.577   5.141   5.010
  147SAPE  H11X16190   4.621   5.041   5.032
  147SAPE  H11Y16191   4.661   5.213   4.998
  147SAPE  C31216192   4.497   5.118   4.879
  147SAPE  H12X16193   4.436   5.208   4.858
  147SAPE  H12Y16194   4.419   5.041   4.897
  147SAPE  C31316195   4.591   5.086   4.760
  147SAPE  H13X16196   4.653   4.998   4.786
  147SAPE  H13Y16197   4.662   5.170   4.754
  147SAPE  C31416198   4.523   5.044   4.632
  147SAPE  H14X16199   4.605   5.020   4.561
  147SAPE  H14Y16200   4.471   5.129   4.583
  147SAPE  C31516201   4.423   4.936   4.640
  147SAPE  H15X16202   4.323   4.952   4.686
  147SAPE  H15Y16203   4.467   4.855   4.702
  147SAPE  C31616204   4.395   4.884   4.500
  147SAPE  H16X16205   4.470   4.808   4.467
  147SAPE  H16Y16206   4.401   4.975   4.437
  147SAPE  C31716207   4.259   4.819   4.478
  147SAPE  H17X16208   4.176   4.891   4.490
  147SAPE  H17Y16209   4.249   4.747   4.563
  147SAPE  C31816210   4.236   4.738   4.346
  147SAPE  H18X16211   4.329   4.680   4.324
  147SAPE  H18Y16212   4.234   4.807   4.259
  147SAPE  H18Z16213   4.142   4.679   4.347
  148SAPE     N16214   2.107   0.537   6.739
  148SAPE   HN116215   2.027   0.502   6.795
  148SAPE   HN216216   2.156   0.599   6.806
  148SAPE   HN316217   2.067   0.586   6.657
  148SAPE   C1216218   2.195   0.423   6.689
  148SAPE  H12A16219   2.192   0.348   6.771
  148SAPE  H12B16220   2.298   0.462   6.675
  148SAPE   C1116221   2.140   0.366   6.554
  148SAPE  H11A16222   2.218   0.299   6.512
  148SAPE  H11B16223   2.133   0.445   6.477
  148SAPE     P16224   1.973   0.157   6.620
  148SAPE   O1316225   2.087   0.118   6.707
  148SAPE   O1416226   1.849   0.177   6.691
  148SAPE   O1216227   2.014   0.297   6.562
  148SAPE   O1116228   1.963   0.056   6.497
  148SAPE    C116229   1.852   0.033   6.407
  148SAPE    HA16230   1.800   6.730   6.425
  148SAPE    HB16231   1.774   0.112   6.410
  148SAPE    C216232   1.906   0.024   6.263
  148SAPE    HS16233   1.994   6.751   6.277
  148SAPE   O2116234   1.935   0.156   6.220
  148SAPE   C2116235   2.060   0.192   6.220
  148SAPE   O2216236   2.158   0.124   6.260
  148SAPE   C2216237   2.068   0.324   6.149
  148SAPE   H2R16238   1.969   0.372   6.135
  148SAPE   H2S16239   2.131   0.400   6.199
  148SAPE    C316240   1.799   6.753   6.171
  148SAPE    HX16241   1.698   0.008   6.177
  148SAPE    HY16242   1.801   6.650   6.211
  148SAPE   O3116243   1.852   6.753   6.036
  148SAPE   C3116244   1.807   6.665   5.959
  148SAPE   O3216245   1.737   6.565   5.992
  148SAPE   C3216246   1.881   6.679   5.835
  148SAPE   H2X16247   1.989   6.656   5.847
  148SAPE   H2Y16248   1.872   6.786   5.804
  148SAPE   C2316249   2.118   0.309   6.005
  148SAPE   H3R16250   2.222   0.268   6.003
  148SAPE   H3S16251   2.148   0.411   5.973
  148SAPE   C2416252   2.035   0.232   5.898
  148SAPE   H4R16253   2.003   0.138   5.948
  148SAPE   H4S16254   2.099   0.202   5.813
  148SAPE   C2516255   1.922   0.316   5.863
  148SAPE   H5R16256   1.866   0.346   5.952
  148SAPE   C2616257   1.896   0.356   5.735
  148SAPE   H6R16258   1.807   0.419   5.714
  148SAPE   C2716259   1.971   0.342   5.608
  148SAPE   H7R16260   1.911   0.291   5.530
  148SAPE   H7S16261   2.053   0.271   5.630
  148SAPE   C2816262   2.038   0.468   5.557
  148SAPE   H8R16263   2.086   0.532   5.632
  148SAPE   C2916264   2.018   0.525   5.436
  148SAPE   H9R16265   2.062   0.620   5.405
  148SAPE  C21016266   1.933   0.459   5.327
  148SAPE  H10R16267   1.841   0.421   5.375
  148SAPE  H10S16268   1.991   0.369   5.294
  148SAPE  C21116269   1.914   0.557   5.211
  148SAPE  H11R16270   1.814   0.602   5.199
  148SAPE  C21216271   2.002   0.567   5.110
  148SAPE  H12R16272   1.980   0.647   5.037
  148SAPE  C21316273   2.141   0.508   5.110
  148SAPE  H13R16274   2.124   0.398   5.100
  148SAPE  H13S16275   2.182   0.521   5.213
  148SAPE  C21416276   2.251   0.547   5.011
  148SAPE  H14R16277   2.278   0.477   4.930
  148SAPE  C21516278   2.332   0.656   5.015
  148SAPE  H15R16279   2.408   0.659   4.936
  148SAPE  C21616280   2.321   0.767   5.118
  148SAPE  H16R16281   2.233   0.742   5.182
  148SAPE  H16S16282   2.298   0.869   5.082
  148SAPE  C21716283   2.454   0.789   5.185
  148SAPE  H17R16284   2.446   0.870   5.261
  148SAPE  H17S16285   2.534   0.830   5.120
  148SAPE  C21816286   2.512   0.677   5.264
  148SAPE  H18R16287   2.526   0.593   5.192
  148SAPE  H18S16288   2.450   0.642   5.349
  148SAPE  C21916289   2.656   0.709   5.315
  148SAPE  H19R16290   2.690   0.639   5.394
  148SAPE  H19S16291   2.645   0.809   5.361
  148SAPE  C22016292   2.765   0.716   5.213
  148SAPE  H20R16293   2.756   0.633   5.139
  148SAPE  H20S16294   2.867   0.709   5.255
  148SAPE  H20T16295   2.767   0.804   5.145
  148SAPE   C3316296   1.830   6.589   5.720
  148SAPE   H3X16297   1.728   6.619   5.689
  148SAPE   H3Y16298   1.826   6.482   5.750
  148SAPE   C3416299   1.921   6.596   5.598
  148SAPE   H4X16300   1.873   6.523   5.528
  148SAPE   H4Y16301   2.026   6.573   5.626
  148SAPE   C3516302   1.919   6.734   5.544
  148SAPE   H5X16303   1.958   0.016   5.616
  148SAPE   H5Y16304   1.818   6.763   5.508
  148SAPE   C3616305   2.017   6.745   5.428
  148SAPE   H6X16306   1.996   6.654   5.368
  148SAPE   H6Y16307   2.123   6.738   5.461
  148SAPE   C3716308   1.982   0.071   5.337
  148SAPE   H7X16309   2.013   0.153   5.405
  148SAPE   H7Y16310   1.878   0.080   5.298
  148SAPE   C3816311   2.068   0.078   5.202
  148SAPE   H8X16312   2.017   0.156   5.141
  148SAPE   H8Y16313   2.041   6.780   5.144
  148SAPE   C3916314   2.217   0.100   5.217
  148SAPE   H9X16315   2.248   0.009   5.274
  148SAPE   H9Y16316   2.240   0.194   5.270
  148SAPE  C31016317   2.289   0.114   5.083
  148SAPE  H10X16318   2.240   0.193   5.024
  148SAPE  H10Y16319   2.272   0.011   5.044
  148SAPE  C31116320   2.441   0.139   5.090
  148SAPE  H11X16321   2.495   0.063   5.150
  148SAPE  H11Y16322   2.451   0.231   5.152
  148SAPE  C31216323   2.508   0.165   4.953
  148SAPE  H12X16324   2.467   0.263   4.920
  148SAPE  H12Y16325   2.469   0.092   4.879
  148SAPE  C31316326   2.662   0.154   4.965
  148SAPE  H13X16327   2.687   0.053   5.003
  148SAPE  H13Y16328   2.692   0.217   5.051
  148SAPE  C31416329   2.743   0.176   4.833
  148SAPE  H14X16330   2.724   0.095   4.760
  148SAPE  H14Y16331   2.849   0.171   4.869
  148SAPE  C31516332   2.729   0.309   4.773
  148SAPE  H15X16333   2.747   0.387   4.850
  148SAPE  H15Y16334   2.631   0.320   4.721
  148SAPE  C31616335   2.841   0.337   4.663
  148SAPE  H16X16336   2.803   0.287   4.571
  148SAPE  H16Y16337   2.936   0.287   4.690
  148SAPE  C31716338   2.855   0.491   4.635
  148SAPE  H17X16339   2.952   0.515   4.585
  148SAPE  H17Y16340   2.852   0.538   4.736
  148SAPE  C31816341   2.735   0.545   4.554
  148SAPE  H18X16342   2.722   0.655   4.555
  148SAPE  H18Y16343   2.645   0.495   4.596
  148SAPE  H18Z16344   2.751   0.518   4.447
  149SAPE     N16345   2.059   1.907   6.383
  149SAPE   HN116346   1.986   1.940   6.317
  149SAPE   HN216347   2.146   1.885   6.330
  149SAPE   HN316348   2.029   1.819   6.430
  149SAPE   C1216349   2.100   2.012   6.486
  149SAPE  H12A16350   2.156   2.098   6.443
  149SAPE  H12B16351   2.171   1.953   6.548
  149SAPE   C1116352   1.971   2.064   6.562
  149SAPE  H11A16353   1.928   2.138   6.491
  149SAPE  H11B16354   1.997   2.131   6.647
  149SAPE     P16355   1.728   2.003   6.651
  149SAPE   O1316356   1.701   1.930   6.774
  149SAPE   O1416357   1.717   2.151   6.642
  149SAPE   O1216358   1.873   1.965   6.606
  149SAPE   O1116359   1.652   1.935   6.534
  149SAPE    C116360   1.648   1.790   6.516
  149SAPE    HA16361   1.744   1.743   6.543
  149SAPE    HB16362   1.577   1.750   6.591
  149SAPE    C216363   1.585   1.756   6.384
  149SAPE    HS16364   1.513   1.673   6.397
  149SAPE   O2116365   1.689   1.721   6.292
  149SAPE   C2116366   1.739   1.593   6.311
  149SAPE   O2216367   1.697   1.524   6.405
  149SAPE   C2216368   1.832   1.556   6.190
  149SAPE   H2R16369   1.914   1.632   6.192
  149SAPE   H2S16370   1.858   1.449   6.207
  149SAPE    C316371   1.495   1.873   6.329
  149SAPE    HX16372   1.551   1.969   6.314
  149SAPE    HY16373   1.426   1.888   6.414
  149SAPE   O3116374   1.428   1.832   6.214
  149SAPE   C3116375   1.492   1.851   6.099
  149SAPE   O3216376   1.598   1.913   6.078
  149SAPE   C3216377   1.403   1.779   5.993
  149SAPE   H2X16378   1.300   1.822   6.001
  149SAPE   H2Y16379   1.406   1.672   6.022
  149SAPE   C2316380   1.766   1.551   6.051
  149SAPE   H3R16381   1.836   1.506   5.977
  149SAPE   H3S16382   1.742   1.653   6.013
  149SAPE   C2416383   1.631   1.478   6.041
  149SAPE   H4R16384   1.597   1.482   5.935
  149SAPE   H4S16385   1.560   1.534   6.106
  149SAPE   C2516386   1.645   1.341   6.092
  149SAPE   H5R16387   1.643   1.311   6.198
  149SAPE   C2616388   1.640   1.236   6.004
  149SAPE   H6R16389   1.649   1.141   6.058
  149SAPE   C2716390   1.629   1.239   5.856
  149SAPE   H7R16391   1.544   1.305   5.828
  149SAPE   H7S16392   1.594   1.141   5.817
  149SAPE   C2816393   1.756   1.275   5.790
  149SAPE   H8R16394   1.850   1.245   5.838
  149SAPE   C2916395   1.761   1.319   5.664
  149SAPE   H9R16396   1.865   1.345   5.637
  149SAPE  C21016397   1.641   1.340   5.574
  149SAPE  H10R16398   1.551   1.353   5.639
  149SAPE  H10S16399   1.615   1.257   5.505
  149SAPE  C21116400   1.654   1.468   5.490
  149SAPE  H11R16401   1.666   1.556   5.555
  149SAPE  C21216402   1.656   1.478   5.357
  149SAPE  H12R16403   1.661   1.583   5.326
  149SAPE  C21316404   1.629   1.377   5.253
  149SAPE  H13R16405   1.561   1.416   5.174
  149SAPE  H13S16406   1.575   1.288   5.291
  149SAPE  C21416407   1.756   1.312   5.196
  149SAPE  H14R16408   1.797   1.244   5.272
  149SAPE  C21516409   1.822   1.350   5.085
  149SAPE  H15R16410   1.918   1.310   5.050
  149SAPE  C21616411   1.774   1.450   4.985
  149SAPE  H16R16412   1.796   1.545   5.038
  149SAPE  H16S16413   1.665   1.441   4.967
  149SAPE  C21716414   1.839   1.440   4.846
  149SAPE  H17R16415   1.767   1.495   4.782
  149SAPE  H17S16416   1.833   1.335   4.811
  149SAPE  C21816417   1.974   1.504   4.822
  149SAPE  H18R16418   2.053   1.465   4.891
  149SAPE  H18S16419   1.945   1.608   4.849
  149SAPE  C21916420   2.028   1.501   4.675
  149SAPE  H19R16421   1.943   1.520   4.605
  149SAPE  H19S16422   2.068   1.400   4.652
  149SAPE  C22016423   2.135   1.603   4.639
  149SAPE  H20R16424   2.086   1.700   4.661
  149SAPE  H20S16425   2.170   1.605   4.534
  149SAPE  H20T16426   2.217   1.596   4.715
  149SAPE   C3316427   1.459   1.786   5.850
  149SAPE   H3X16428   1.565   1.766   5.825
  149SAPE   H3Y16429   1.447   1.894   5.827
  149SAPE   C3416430   1.370   1.706   5.752
  149SAPE   H4X16431   1.262   1.728   5.764
  149SAPE   H4Y16432   1.380   1.597   5.773
  149SAPE   C3516433   1.407   1.747   5.614
  149SAPE   H5X16434   1.516   1.743   5.592
  149SAPE   H5Y16435   1.390   1.856   5.607
  149SAPE   C3616436   1.332   1.665   5.509
  149SAPE   H6X16437   1.228   1.688   5.538
  149SAPE   H6Y16438   1.355   1.557   5.517
  149SAPE   C3716439   1.348   1.716   5.366
  149SAPE   H7X16440   1.451   1.690   5.334
  149SAPE   H7Y16441   1.347   1.827   5.356
  149SAPE   C3816442   1.238   1.670   5.283
  149SAPE   H8X16443   1.146   1.704   5.335
  149SAPE   H8Y16444   1.232   1.559   5.284
  149SAPE   C3916445   1.223   1.706   5.135
  149SAPE   H9X16446   1.211   1.816   5.127
  149SAPE   H9Y16447   1.124   1.667   5.102
  149SAPE  C31016448   1.342   1.651   5.057
  149SAPE  H10X16449   1.308   1.548   5.034
  149SAPE  H10Y16450   1.434   1.635   5.117
  149SAPE  C31116451   1.370   1.732   4.925
  149SAPE  H11X16452   1.390   1.840   4.943
  149SAPE  H11Y16453   1.272   1.733   4.874
  149SAPE  C31216454   1.490   1.677   4.838
  149SAPE  H12X16455   1.488   1.567   4.826
  149SAPE  H12Y16456   1.585   1.704   4.890
  149SAPE  C31316457   1.505   1.755   4.706
  149SAPE  H13X16458   1.515   1.864   4.726
  149SAPE  H13Y16459   1.401   1.742   4.670
  149SAPE  C31416460   1.599   1.702   4.594
  149SAPE  H14X16461   1.690   1.671   4.650
  149SAPE  H14Y16462   1.627   1.778   4.518
  149SAPE  C31516463   1.554   1.567   4.530
  149SAPE  H15X16464   1.461   1.587   4.474
  149SAPE  H15Y16465   1.512   1.490   4.599
  149SAPE  C31616466   1.664   1.511   4.442
  149SAPE  H16X16467   1.706   1.423   4.495
  149SAPE  H16Y16468   1.754   1.574   4.430
  149SAPE  C31716469   1.625   1.482   4.298
  149SAPE  H17X16470   1.608   1.583   4.256
  149SAPE  H17Y16471   1.532   1.421   4.297
  149SAPE  C31816472   1.745   1.416   4.224
  149SAPE  H18X16473   1.834   1.483   4.234
  149SAPE  H18Y16474   1.721   1.390   4.118
  149SAPE  H18Z16475   1.774   1.326   4.281
  150SAPE     N16476   4.680   3.257   6.834
  150SAPE   HN116477   4.718   3.208   6.750
  150SAPE   HN216478   4.601   3.323   6.819
  150SAPE   HN316479   4.758   3.314   6.873
  150SAPE   C1216480   4.659   3.163   6.943
  150SAPE  H12A16481   4.557   3.119   6.945
  150SAPE  H12B16482   4.663   3.221   7.038
  150SAPE   C1116483   4.771   3.050   6.942
  150SAPE  H11A16484   4.758   3.000   7.041
  150SAPE  H11B16485   4.876   3.087   6.946
  150SAPE     P16486   4.730   2.804   6.844
  150SAPE   O1316487   4.860   2.737   6.823
  150SAPE   O1416488   4.655   2.770   6.971
  150SAPE   O1216489   4.756   2.963   6.832
  150SAPE   O1116490   4.635   2.774   6.715
  150SAPE    C116491   4.603   2.882   6.629
  150SAPE    HA16492   4.528   2.954   6.667
  150SAPE    HB16493   4.689   2.947   6.600
  150SAPE    C216494   4.544   2.837   6.490
  150SAPE    HS16495   4.446   2.792   6.517
  150SAPE   O2116496   4.633   2.752   6.417
  150SAPE   C2116497   4.627   2.621   6.441
  150SAPE   O2216498   4.550   2.566   6.518
  150SAPE   C2216499   4.747   2.561   6.364
  150SAPE   H2R16500   4.845   2.579   6.413
  150SAPE   H2S16501   4.738   2.450   6.359
  150SAPE    C316502   4.521   2.961   6.398
  150SAPE    HX16503   4.596   3.035   6.432
  150SAPE    HY16504   4.425   3.014   6.421
  150SAPE   O3116505   4.536   2.949   6.253
  150SAPE   C3116506   4.445   2.858   6.205
  150SAPE   O3216507   4.360   2.806   6.272
  150SAPE   C3216508   4.498   2.821   6.059
  150SAPE   H2X16509   4.609   2.831   6.064
  150SAPE   H2Y16510   4.465   2.904   5.993
  150SAPE   C2316511   4.747   2.626   6.226
  150SAPE   H3R16512   4.769   2.735   6.237
  150SAPE   H3S16513   4.641   2.618   6.191
  150SAPE   C2416514   4.842   2.553   6.127
  150SAPE   H4R16515   4.940   2.542   6.178
  150SAPE   H4S16516   4.849   2.621   6.039
  150SAPE   C2516517   4.799   2.415   6.082
  150SAPE   H5R16518   4.784   2.341   6.162
  150SAPE   C2616519   4.779   2.367   5.955
  150SAPE   H6R16520   4.765   2.260   5.938
  150SAPE   C2716521   4.796   2.443   5.824
  150SAPE   H7R16522   4.862   2.379   5.761
  150SAPE   H7S16523   4.851   2.537   5.844
  150SAPE   C2816524   4.661   2.460   5.754
  150SAPE   H8R16525   4.575   2.482   5.818
  150SAPE   C2916526   4.638   2.465   5.619
  150SAPE   H9R16527   4.536   2.476   5.577
  150SAPE  C21016528   4.747   2.442   5.513
  150SAPE  H10R16529   4.726   2.345   5.463
  150SAPE  H10S16530   4.852   2.447   5.550
  150SAPE  C21116531   4.722   2.555   5.418
  150SAPE  H11R16532   4.681   2.642   5.470
  150SAPE  C21216533   4.742   2.566   5.284
  150SAPE  H12R16534   4.714   2.659   5.232
  150SAPE  C21316535   4.798   2.459   5.198
  150SAPE  H13R16536   4.798   2.492   5.092
  150SAPE  H13S16537   4.737   2.366   5.199
  150SAPE  C21416538   4.938   2.414   5.222
  150SAPE  H14R16539   4.938   2.347   5.310
  150SAPE  C21516540   5.053   2.439   5.159
  150SAPE  H15R16541   5.146   2.413   5.213
  150SAPE  C21616542   5.071   2.530   5.039
  150SAPE  H16R16543   5.148   2.606   5.064
  150SAPE  H16S16544   4.973   2.574   5.012
  150SAPE  C21716545   5.131   2.457   4.919
  150SAPE  H17R16546   5.082   2.358   4.923
  150SAPE  H17S16547   5.240   2.443   4.935
  150SAPE  C21816548   5.109   2.526   4.789
  150SAPE  H18R16549   5.000   2.545   4.786
  150SAPE  H18S16550   5.140   2.449   4.714
  150SAPE  C21916551   5.194   2.657   4.780
  150SAPE  H19R16552   5.299   2.624   4.799
  150SAPE  H19S16553   5.166   2.735   4.855
  150SAPE  C22016554   5.207   2.712   4.630
  150SAPE  H20R16555   5.106   2.707   4.585
  150SAPE  H20S16556   5.272   2.633   4.586
  150SAPE  H20T16557   5.254   2.813   4.627
  150SAPE   C3316558   4.451   2.684   5.999
  150SAPE   H3X16559   4.474   2.600   6.067
  150SAPE   H3Y16560   4.500   2.671   5.900
  150SAPE   C3416561   4.294   2.692   5.983
  150SAPE   H4X16562   4.275   2.781   5.919
  150SAPE   H4Y16563   4.247   2.713   6.081
  150SAPE   C3516564   4.226   2.569   5.915
  150SAPE   H5X16565   4.124   2.574   5.957
  150SAPE   H5Y16566   4.282   2.482   5.957
  150SAPE   C3616567   4.236   2.574   5.763
  150SAPE   H6X16568   4.343   2.574   5.736
  150SAPE   H6Y16569   4.189   2.666   5.723
  150SAPE   C3716570   4.173   2.447   5.700
  150SAPE   H7X16571   4.063   2.446   5.718
  150SAPE   H7Y16572   4.216   2.358   5.752
  150SAPE   C3816573   4.200   2.460   5.551
  150SAPE   H8X16574   4.306   2.435   5.527
  150SAPE   H8Y16575   4.180   2.565   5.522
  150SAPE   C3916576   4.116   2.376   5.457
  150SAPE   H9X16577   4.011   2.409   5.472
  150SAPE   H9Y16578   4.130   2.269   5.487
  150SAPE  C31016579   4.147   2.390   5.309
  150SAPE  H10X16580   4.256   2.379   5.291
  150SAPE  H10Y16581   4.123   2.495   5.284
  150SAPE  C31116582   4.083   2.301   5.219
  150SAPE  H11X16583   3.974   2.321   5.220
  150SAPE  H11Y16584   4.102   2.199   5.258
  150SAPE  C31216585   4.128   2.315   5.073
  150SAPE  H12X16586   4.077   2.233   5.018
  150SAPE  H12Y16587   4.238   2.306   5.055
  150SAPE  C31316588   4.089   2.455   5.017
  150SAPE  H13X16589   4.165   2.531   5.045
  150SAPE  H13Y16590   3.993   2.486   5.063
  150SAPE  C31416591   4.089   2.455   4.864
  150SAPE  H14X16592   4.085   2.559   4.827
  150SAPE  H14Y16593   4.001   2.403   4.818
  150SAPE  C31516594   4.204   2.377   4.802
  150SAPE  H15X16595   4.188   2.267   4.804
  150SAPE  H15Y16596   4.291   2.400   4.867
  150SAPE  C31616597   4.235   2.428   4.662
  150SAPE  H16X16598   4.237   2.539   4.662
  150SAPE  H16Y16599   4.156   2.392   4.592
  150SAPE  C31716600   4.376   2.394   4.614
  150SAPE  H17X16601   4.392   2.284   4.604
  150SAPE  H17Y16602   4.458   2.427   4.682
  150SAPE  C31816603   4.398   2.452   4.476
  150SAPE  H18X16604   4.394   2.562   4.493
  150SAPE  H18Y16605   4.309   2.427   4.413
  150SAPE  H18Z16606   4.490   2.420   4.423
  151SAPE     N16607   4.744   6.277   7.283
  151SAPE   HN116608   4.695   6.216   7.214
  151SAPE   HN216609   4.815   6.326   7.223
  151SAPE   HN316610   4.781   6.212   7.355
  151SAPE   C1216611   4.647   6.375   7.354
  151SAPE  H12A16612   4.656   6.345   7.461
  151SAPE  H12B16613   4.546   6.343   7.321
  151SAPE   C1116614   4.676   6.517   7.321
  151SAPE  H11A16615   4.783   6.535   7.346
  151SAPE  H11B16616   4.620   6.593   7.379
  151SAPE     P16617   4.549   6.586   7.112
  151SAPE   O1316618   4.440   6.623   7.208
  151SAPE   O1416619   4.585   6.688   7.013
  151SAPE   O1216620   4.678   6.526   7.183
  151SAPE   O1116621   4.493   6.457   7.039
  151SAPE    C116622   4.572   6.390   6.938
  151SAPE    HA16623   4.664   6.451   6.921
  151SAPE    HB16624   4.597   6.289   6.979
  151SAPE    C216625   4.509   6.368   6.799
  151SAPE    HS16626   4.582   6.333   6.723
  151SAPE   O2116627   4.441   6.486   6.748
  151SAPE   C2116628   4.525   6.575   6.698
  151SAPE   O2216629   4.645   6.559   6.682
  151SAPE   C2216630   4.432   6.694   6.656
  151SAPE   H2R16631   4.348   6.655   6.595
  151SAPE   H2S16632   4.390   6.742   6.747
  151SAPE    C316633   4.400   6.254   6.806
  151SAPE    HX16634   4.326   6.261   6.889
  151SAPE    HY16635   4.455   6.161   6.832
  151SAPE   O3116636   4.333   6.244   6.672
  151SAPE   C3116637   4.398   6.191   6.576
  151SAPE   O3216638   4.505   6.132   6.585
  151SAPE   C3216639   4.320   6.227   6.444
  151SAPE   H2X16640   4.239   6.301   6.459
  151SAPE   H2Y16641   4.269   6.133   6.412
  151SAPE   C2316642   4.493   0.007   6.563
  151SAPE   H3R16643   4.546   6.760   6.474
  151SAPE   H3S16644   4.570   0.063   6.620
  151SAPE   C2416645   4.389   0.112   6.518
  151SAPE   H4R16646   4.351   0.168   6.606
  151SAPE   H4S16647   4.294   0.070   6.478
  151SAPE   C2516648   4.460   0.205   6.424
  151SAPE   H5R16649   4.540   0.265   6.470
  151SAPE   C2616650   4.419   0.231   6.299
  151SAPE   H6R16651   4.460   0.315   6.240
  151SAPE   C2716652   4.313   0.170   6.214
  151SAPE   H7R16653   4.272   0.074   6.253
  151SAPE   H7S16654   4.351   0.147   6.113
  151SAPE   C2816655   4.191   0.259   6.201
  151SAPE   H8R16656   4.154   0.291   6.299
  151SAPE   C2916657   4.149   0.307   6.084
  151SAPE   H9R16658   4.053   0.361   6.087
  151SAPE  C21016659   4.190   0.269   5.939
  151SAPE  H10R16660   4.119   0.301   5.860
  151SAPE  H10S16661   4.192   0.158   5.940
  151SAPE  C21116662   4.326   0.328   5.889
  151SAPE  H11R16663   4.389   0.373   5.968
  151SAPE  C21216664   4.377   0.322   5.760
  151SAPE  H12R16665   4.477   0.361   5.735
  151SAPE  C21316666   4.312   0.252   5.647
  151SAPE  H13R16667   4.258   0.332   5.593
  151SAPE  H13S16668   4.229   0.185   5.679
  151SAPE  C21416669   4.405   0.175   5.557
  151SAPE  H14R16670   4.483   0.124   5.614
  151SAPE  C21516671   4.416   0.182   5.419
  151SAPE  H15R16672   4.482   0.109   5.369
  151SAPE  C21616673   4.324   0.264   5.323
  151SAPE  H16R16674   4.260   0.345   5.366
  151SAPE  H16S16675   4.256   0.185   5.284
  151SAPE  C21716676   4.399   0.323   5.205
  151SAPE  H17R16677   4.464   0.409   5.229
  151SAPE  H17S16678   4.318   0.358   5.138
  151SAPE  C21816679   4.472   0.212   5.121
  151SAPE  H18R16680   4.424   0.112   5.112
  151SAPE  H18S16681   4.573   0.196   5.165
  151SAPE  C21916682   4.495   0.263   4.983
  151SAPE  H19R16683   4.555   0.356   4.985
  151SAPE  H19S16684   4.395   0.292   4.944
  151SAPE  C22016685   4.555   0.168   4.888
  151SAPE  H20R16686   4.646   0.123   4.934
  151SAPE  H20S16687   4.582   0.211   4.789
  151SAPE  H20T16688   4.470   0.101   4.863
  151SAPE   C3316689   4.404   6.255   6.322
  151SAPE   H3X16690   4.333   6.282   6.241
  151SAPE   H3Y16691   4.464   6.164   6.300
  151SAPE   C3416692   4.494   6.380   6.330
  151SAPE   H4X16693   4.571   6.373   6.411
  151SAPE   H4Y16694   4.425   6.465   6.350
  151SAPE   C3516695   4.578   6.411   6.200
  151SAPE   H5X16696   4.617   6.514   6.210
  151SAPE   H5Y16697   4.503   6.398   6.119
  151SAPE   C3616698   4.697   6.314   6.188
  151SAPE   H6X16699   4.679   6.223   6.249
  151SAPE   H6Y16700   4.787   6.367   6.225
  151SAPE   C3716701   4.712   6.258   6.045
  151SAPE   H7X16702   4.608   6.233   6.014
  151SAPE   H7Y16703   4.769   6.163   6.050
  151SAPE   C3816704   4.778   6.348   5.948
  151SAPE   H8X16705   4.889   6.345   5.957
  151SAPE   H8Y16706   4.740   6.450   5.968
  151SAPE   C3916707   4.736   6.328   5.801
  151SAPE   H9X16708   4.635   6.374   5.791
  151SAPE   H9Y16709   4.717   6.221   5.778
  151SAPE  C31016710   4.825   6.396   5.698
  151SAPE  H10X16711   4.932   6.367   5.691
  151SAPE  H10Y16712   4.823   6.501   5.733
  151SAPE  C31116713   4.759   6.398   5.558
  151SAPE  H11X16714   4.808   6.484   5.508
  151SAPE  H11Y16715   4.651   6.422   5.569
  151SAPE  C31216716   4.787   6.261   5.490
  151SAPE  H12X16717   4.768   6.183   5.567
  151SAPE  H12Y16718   4.893   6.246   5.460
  151SAPE  C31316719   4.690   6.212   5.376
  151SAPE  H13X16720   4.587   6.229   5.413
  151SAPE  H13Y16721   4.710   6.103   5.364
  151SAPE  C31416722   4.705   6.274   5.240
  151SAPE  H14X16723   4.696   6.384   5.252
  151SAPE  H14Y16724   4.620   6.237   5.178
  151SAPE  C31516725   4.835   6.245   5.167
  151SAPE  H15X16726   4.924   6.265   5.231
  151SAPE  H15Y16727   4.837   6.318   5.084
  151SAPE  C31616728   4.852   6.102   5.108
  151SAPE  H16X16729   4.776   6.100   5.027
  151SAPE  H16Y16730   4.824   6.027   5.186
  151SAPE  C31716731   4.989   6.060   5.049
  151SAPE  H17X16732   4.977   5.956   5.010
  151SAPE  H17Y16733   5.058   6.065   5.136
  151SAPE  C31816734   5.039   6.147   4.938
  151SAPE  H18X16735   5.020   6.256   4.942
  151SAPE  H18Y16736   4.980   6.135   4.845
  151SAPE  H18Z16737   5.147   6.130   4.916
  152SAPE     N16738   0.285   1.476   6.892
  152SAPE   HN116739   0.316   1.386   6.933
  152SAPE   HN216740   0.347   1.512   6.816
  152SAPE   HN316741   0.294   1.550   6.964
  152SAPE   C1216742   0.141   1.480   6.861
  152SAPE  H12A16743   0.090   1.467   6.959
  152SAPE  H12B16744   0.114   1.391   6.800
  152SAPE   C1116745   0.105   1.617   6.800
  152SAPE  H11A16746   0.173   1.645   6.716
  152SAPE  H11B16747   0.116   1.696   6.878
  152SAPE     P16748   6.712   1.760   6.684
  152SAPE   O1316749   6.586   1.731   6.615
  152SAPE   O1416750   6.708   1.864   6.780
  152SAPE   O1216751   6.764   1.622   6.744
  152SAPE   O1116752   0.035   1.793   6.576
  152SAPE    C116753   0.031   1.741   6.440
  152SAPE    HA16754   0.134   1.730   6.401
  152SAPE    HB16755   6.793   1.634   6.438
  152SAPE    C216756   6.747   1.815   6.336
  152SAPE    HS16757   6.645   1.815   6.380
  152SAPE   O2116758   6.763   1.744   6.213
  152SAPE   C2116759   6.674   1.652   6.180
  152SAPE   O2216760   6.569   1.628   6.239
  152SAPE   C2216761   6.705   1.591   6.047
  152SAPE   H2R16762   0.014   1.626   6.020
  152SAPE   H2S16763   6.713   1.481   6.060
  152SAPE    C316764   6.774   1.963   6.327
  152SAPE    HX16765   0.091   1.973   6.308
  152SAPE    HY16766   6.763   2.016   6.424
  152SAPE   O3116767   6.702   2.028   6.219
  152SAPE   C3116768   6.570   2.056   6.250
  152SAPE   O3216769   6.517   2.030   6.353
  152SAPE   C3216770   6.502   2.114   6.124
  152SAPE   H2X16771   6.532   2.220   6.109
  152SAPE   H2Y16772   6.396   2.122   6.156
  152SAPE   C2316773   6.601   1.620   5.936
  152SAPE   H3R16774   6.553   1.719   5.950
  152SAPE   H3S16775   6.521   1.548   5.963
  152SAPE   C2416776   6.648   1.607   5.792
  152SAPE   H4R16777   6.676   1.500   5.776
  152SAPE   H4S16778   6.738   1.666   5.764
  152SAPE   C2516779   6.539   1.617   5.685
  152SAPE   H5R16780   6.451   1.670   5.723
  152SAPE   C2616781   6.552   1.597   5.550
  152SAPE   H6R16782   6.462   1.614   5.490
  152SAPE   C2716783   6.679   1.539   5.480
  152SAPE   H7R16784   6.753   1.513   5.558
  152SAPE   H7S16785   6.732   1.616   5.419
  152SAPE   C2816786   6.652   1.425   5.391
  152SAPE   H8R16787   6.700   1.335   5.431
  152SAPE   C2916788   6.582   1.431   5.277
  152SAPE   H9R16789   6.555   1.335   5.230
  152SAPE  C21016790   6.524   1.556   5.222
  152SAPE  H10R16791   6.598   1.639   5.228
  152SAPE  H10S16792   6.438   1.596   5.279
  152SAPE  C21116793   6.492   1.528   5.077
  152SAPE  H11R16794   6.578   1.522   5.008
  152SAPE  C21216795   6.372   1.507   5.029
  152SAPE  H12R16796   6.368   1.503   4.919
  152SAPE  C21316797   6.243   1.492   5.100
  152SAPE  H13R16798   6.252   1.529   5.204
  152SAPE  H13S16799   6.219   1.384   5.097
  152SAPE  C21416800   6.123   1.545   5.032
  152SAPE  H14R16801   6.074   1.623   5.092
  152SAPE  C21516802   6.058   1.495   4.924
  152SAPE  H15R16803   5.975   1.557   4.887
  152SAPE  C21616804   6.108   1.390   4.827
  152SAPE  H16R16805   6.034   1.310   4.810
  152SAPE  H16S16806   6.205   1.342   4.851
  152SAPE  C21716807   6.121   1.456   4.689
  152SAPE  H17R16808   6.175   1.387   4.620
  152SAPE  H17S16809   6.186   1.546   4.696
  152SAPE  C21816810   5.993   1.492   4.609
  152SAPE  H18R16811   5.931   1.563   4.668
  152SAPE  H18S16812   5.936   1.397   4.598
  152SAPE  C21916813   6.017   1.563   4.479
  152SAPE  H19R16814   6.124   1.558   4.447
  152SAPE  H19S16815   6.001   1.671   4.496
  152SAPE  C22016816   5.928   1.509   4.373
  152SAPE  H20R16817   5.822   1.534   4.394
  152SAPE  H20S16818   5.927   1.398   4.380
  152SAPE  H20T16819   5.960   1.549   4.275
  152SAPE   C3316820   6.514   2.025   6.003
  152SAPE   H3X16821   6.457   1.932   6.023
  152SAPE   H3Y16822   6.616   1.987   5.981
  152SAPE   C3416823   6.454   2.081   5.878
  152SAPE   H4X16824   6.503   2.173   5.839
  152SAPE   H4Y16825   6.350   2.119   5.891
  152SAPE   C3516826   6.449   1.979   5.771
  152SAPE   H5X16827   6.384   1.894   5.802
  152SAPE   H5Y16828   6.549   1.939   5.743
  152SAPE   C3616829   6.400   2.036   5.640
  152SAPE   H6X16830   6.467   2.119   5.609
  152SAPE   H6Y16831   6.303   2.085   5.664
  152SAPE   C3716832   6.400   1.929   5.531
  152SAPE   H7X16833   6.354   1.832   5.562
  152SAPE   H7Y16834   6.501   1.900   5.494
  152SAPE   C3816835   6.313   1.988   5.414
  152SAPE   H8X16836   6.345   2.092   5.396
  152SAPE   H8Y16837   6.206   1.997   5.443
  152SAPE   C3916838   6.335   1.908   5.279
  152SAPE   H9X16839   6.279   1.813   5.289
  152SAPE   H9Y16840   6.434   1.866   5.252
  152SAPE  C31016841   6.276   1.983   5.160
  152SAPE  H10X16842   6.335   2.074   5.137
  152SAPE  H10Y16843   6.179   2.021   5.198
  152SAPE  C31116844   6.260   1.898   5.033
  152SAPE  H11X16845   6.180   1.827   5.062
  152SAPE  H11Y16846   6.352   1.845   5.001
  152SAPE  C31216847   6.210   1.989   4.924
  152SAPE  H12X16848   6.287   2.065   4.900
  152SAPE  H12Y16849   6.110   2.027   4.955
  152SAPE  C31316850   6.196   1.920   4.789
  152SAPE  H13X16851   6.153   1.818   4.796
  152SAPE  H13Y16852   6.299   1.903   4.752
  152SAPE  C31416853   6.110   1.993   4.688
  152SAPE  H14X16854   6.008   2.007   4.730
  152SAPE  H14Y16855   6.096   1.928   4.599
  152SAPE  C31516856   6.177   2.129   4.651
  152SAPE  H15X16857   6.282   2.105   4.627
  152SAPE  H15Y16858   6.184   2.202   4.734
  152SAPE  C31616859   6.115   2.197   4.530
  152SAPE  H16X16860   6.114   2.124   4.446
  152SAPE  H16Y16861   6.182   2.281   4.502
  152SAPE  C31716862   5.972   2.248   4.543
  152SAPE  H17X16863   5.900   2.168   4.570
  152SAPE  H17Y16864   5.936   2.287   4.446
  152SAPE  C31816865   5.956   2.370   4.637
  152SAPE  H18X16866   6.028   2.447   4.602
  152SAPE  H18Y16867   5.992   2.343   4.739
  152SAPE  H18Z16868   5.851   2.407   4.635
  153SAPE     N16869   6.436   1.467   6.603
  153SAPE   HN116870   6.373   1.454   6.685
  153SAPE   HN216871   6.490   1.379   6.596
  153SAPE   HN316872   6.497   1.549   6.624
  153SAPE   C1216873   6.339   1.484   6.490
  153SAPE  H12A16874   6.391   1.463   6.395
  153SAPE  H12B16875   6.307   1.591   6.488
  153SAPE   C1116876   6.235   1.377   6.509
  153SAPE  H11A16877   6.280   1.276   6.518
  153SAPE  H11B16878   6.165   1.379   6.423
  153SAPE     P16879   6.075   1.291   6.703
  153SAPE   O1316880   6.142   1.196   6.793
  153SAPE   O1416881   5.972   1.373   6.773
  153SAPE   O1216882   6.182   1.385   6.637
  153SAPE   O1116883   6.023   1.215   6.578
  153SAPE    C116884   6.058   1.081   6.545
  153SAPE    HA16885   6.161   1.061   6.580
  153SAPE    HB16886   5.998   1.009   6.605
  153SAPE    C216887   6.063   1.046   6.391
  153SAPE    HS16888   6.145   1.110   6.353
  153SAPE   O2116889   5.937   1.088   6.344
  153SAPE   C2116890   5.943   1.154   6.233
  153SAPE   O2216891   6.042   1.169   6.157
  153SAPE   C2216892   5.805   1.203   6.177
  153SAPE   H2R16893   5.822   1.273   6.092
  153SAPE   H2S16894   5.757   1.110   6.141
  153SAPE    C316895   6.092   0.892   6.369
  153SAPE    HX16896   6.015   0.838   6.429
  153SAPE    HY16897   6.189   0.864   6.414
  153SAPE   O3116898   6.068   0.842   6.232
  153SAPE   C3116899   6.152   0.856   6.141
  153SAPE   O3216900   6.268   0.897   6.156
  153SAPE   C3216901   6.098   0.812   6.001
  153SAPE   H2X16902   6.131   0.895   5.935
  153SAPE   H2Y16903   5.990   0.788   6.018
  153SAPE   C2316904   5.708   1.266   6.283
  153SAPE   H3R16905   5.699   1.202   6.373
  153SAPE   H3S16906   5.607   1.270   6.236
  153SAPE   C2416907   5.749   1.411   6.308
  153SAPE   H4R16908   5.776   1.455   6.210
  153SAPE   H4S16909   5.832   1.425   6.382
  153SAPE   C2516910   5.635   1.488   6.373
  153SAPE   H5R16911   5.614   1.457   6.477
  153SAPE   C2616912   5.552   1.577   6.317
  153SAPE   H6R16913   5.463   1.603   6.376
  153SAPE   C2716914   5.551   1.605   6.172
  153SAPE   H7R16915   5.538   1.511   6.115
  153SAPE   H7S16916   5.655   1.637   6.151
  153SAPE   C2816917   5.454   1.712   6.132
  153SAPE   H8R16918   5.366   1.727   6.197
  153SAPE   C2916919   5.468   1.796   6.029
  153SAPE   H9R16920   5.383   1.862   6.005
  153SAPE  C21016921   5.587   1.798   5.934
  153SAPE  H10R16922   5.619   1.694   5.911
  153SAPE  H10S16923   5.675   1.845   5.982
  153SAPE  C21116924   5.554   1.867   5.801
  153SAPE  H11R16925   5.524   1.814   5.709
  153SAPE  C21216926   5.569   2.002   5.790
  153SAPE  H12R16927   5.565   2.046   5.690
  153SAPE  C21316928   5.595   2.094   5.906
  153SAPE  H13R16929   5.681   2.163   5.890
  153SAPE  H13S16930   5.621   2.039   5.999
  153SAPE  C21416931   5.474   2.183   5.938
  153SAPE  H14R16932   5.416   2.143   6.022
  153SAPE  C21516933   5.430   2.293   5.879
  153SAPE  H15R16934   5.342   2.342   5.924
  153SAPE  C21616935   5.500   2.369   5.766
  153SAPE  H16R16936   5.601   2.324   5.755
  153SAPE  H16S16937   5.525   2.471   5.804
  153SAPE  C21716938   5.422   2.370   5.641
  153SAPE  H17R16939   5.319   2.410   5.655
  153SAPE  H17S16940   5.403   2.264   5.614
  153SAPE  C21816941   5.482   2.440   5.515
  153SAPE  H18R16942   5.581   2.394   5.495
  153SAPE  H18S16943   5.514   2.545   5.534
  153SAPE  C21916944   5.396   2.422   5.398
  153SAPE  H19R16945   5.299   2.474   5.409
  153SAPE  H19S16946   5.378   2.313   5.387
  153SAPE  C22016947   5.463   2.475   5.270
  153SAPE  H20R16948   5.394   2.487   5.184
  153SAPE  H20S16949   5.556   2.425   5.235
  153SAPE  H20T16950   5.492   2.580   5.295
  153SAPE   C3316951   6.174   0.684   5.956
  153SAPE   H3X16952   6.160   0.596   6.022
  153SAPE   H3Y16953   6.283   0.708   5.961
  153SAPE   C3416954   6.141   0.641   5.807
  153SAPE   H4X16955   6.147   0.726   5.736
  153SAPE   H4Y16956   6.038   0.599   5.807
  153SAPE   C3516957   6.242   0.540   5.752
  153SAPE   H5X16958   6.252   0.450   5.817
  153SAPE   H5Y16959   6.341   0.590   5.746
  153SAPE   C3616960   6.199   0.467   5.615
  153SAPE   H6X16961   6.099   0.424   5.635
  153SAPE   H6Y16962   6.270   0.381   5.609
  153SAPE   C3716963   6.203   0.561   5.494
  153SAPE   H7X16964   6.309   0.589   5.479
  153SAPE   H7Y16965   6.144   0.653   5.516
  153SAPE   C3816966   6.151   0.491   5.367
  153SAPE   H8X16967   6.045   0.465   5.387
  153SAPE   H8Y16968   6.205   0.396   5.345
  153SAPE   C3916969   6.152   0.573   5.237
  153SAPE   H9X16970   6.253   0.611   5.212
  153SAPE   H9Y16971   6.089   0.662   5.256
  153SAPE  C31016972   6.102   0.494   5.124
  153SAPE  H10X16973   5.991   0.498   5.124
  153SAPE  H10Y16974   6.150   0.394   5.118
  153SAPE  C31116975   6.146   0.562   4.990
  153SAPE  H11X16976   6.256   0.552   4.999
  153SAPE  H11Y16977   6.113   0.668   5.001
  153SAPE  C31216978   6.098   0.501   4.860
  153SAPE  H12X16979   5.988   0.484   4.850
  153SAPE  H12Y16980   6.148   0.402   4.858
  153SAPE  C31316981   6.157   0.581   4.741
  153SAPE  H13X16982   6.263   0.612   4.754
  153SAPE  H13Y16983   6.096   0.671   4.720
  153SAPE  C31416984   6.139   0.498   4.607
  153SAPE  H14X16985   6.036   0.457   4.613
  153SAPE  H14Y16986   6.222   0.425   4.620
  153SAPE  C31516987   6.166   0.585   4.480
  153SAPE  H15X16988   6.244   0.662   4.497
  153SAPE  H15Y16989   6.074   0.643   4.454
  153SAPE  C31616990   6.215   0.502   4.365
  153SAPE  H16X16991   6.222   0.574   4.281
  153SAPE  H16Y16992   6.146   0.418   4.341
  153SAPE  C31716993   6.360   0.452   4.390
  153SAPE  H17X16994   6.356   0.347   4.356
  153SAPE  H17Y16995   6.387   0.458   4.497
  153SAPE  C31816996   6.469   0.516   4.299
  153SAPE  H18X16997   6.477   0.625   4.321
  153SAPE  H18Y16998   6.442   0.501   4.192
  153SAPE  H18Z16999   6.573   0.479   4.308
  154SAPE     N17000   4.052   0.798   6.841
  154SAPE   HN117001   4.092   0.716   6.790
  154SAPE   HN217002   4.119   0.841   6.907
  154SAPE   HN317003   3.964   0.768   6.889
  154SAPE   C1217004   4.018   0.912   6.748
  154SAPE  H12A17005   4.115   0.959   6.722
  154SAPE  H12B17006   3.957   0.976   6.816
  154SAPE   C1117007   3.941   0.880   6.618
  154SAPE  H11A17008   4.012   0.819   6.559
  154SAPE  H11B17009   3.925   0.975   6.562
  154SAPE     P17010   3.681   0.864   6.692
  154SAPE   O1317011   3.594   0.749   6.737
  154SAPE   O1417012   3.715   0.972   6.794
  154SAPE   O1217013   3.822   0.805   6.642
  154SAPE   O1117014   3.630   0.928   6.558
  154SAPE    C117015   3.652   0.875   6.428
  154SAPE    HA17016   3.630   0.951   6.350
  154SAPE    HB17017   3.759   0.859   6.403
  154SAPE    C217018   3.559   0.759   6.392
  154SAPE    HS17019   3.587   0.678   6.463
  154SAPE   O2117020   3.583   0.707   6.254
  154SAPE   C2117021   3.525   0.585   6.239
  154SAPE   O2217022   3.461   0.530   6.327
  154SAPE   C2217023   3.542   0.537   6.093
  154SAPE   H2R17024   3.464   0.587   6.033
  154SAPE   H2S17025   3.637   0.573   6.047
  154SAPE    C317026   3.416   0.804   6.425
  154SAPE    HX17027   3.407   0.833   6.532
  154SAPE    HY17028   3.349   0.716   6.418
  154SAPE   O3117029   3.373   0.911   6.335
  154SAPE   C3117030   3.329   0.876   6.209
  154SAPE   O3217031   3.301   0.760   6.169
  154SAPE   C3217032   3.318   0.989   6.112
  154SAPE   H2X17033   3.330   1.084   6.168
  154SAPE   H2Y17034   3.220   0.995   6.060
  154SAPE   C2317035   3.534   0.381   6.099
  154SAPE   H3R17036   3.527   0.345   5.994
  154SAPE   H3S17037   3.443   0.346   6.153
  154SAPE   C2417038   3.662   0.327   6.153
  154SAPE   H4R17039   3.682   0.359   6.257
  154SAPE   H4S17040   3.750   0.366   6.097
  154SAPE   C2517041   3.645   0.175   6.174
  154SAPE   H5R17042   3.595   0.152   6.270
  154SAPE   C2617043   3.693   0.078   6.092
  154SAPE   H6R17044   3.655   6.768   6.100
  154SAPE   C2717045   3.760   0.094   5.957
  154SAPE   H7R17046   3.779   0.202   5.941
  154SAPE   H7S17047   3.690   0.068   5.875
  154SAPE   C2817048   3.888   0.013   5.961
  154SAPE   H8R17049   3.953   0.033   6.048
  154SAPE   C2917050   3.945   6.749   5.852
  154SAPE   H9R17051   4.042   6.697   5.867
  154SAPE  C21017052   3.894   6.753   5.713
  154SAPE  H10R17053   3.787   6.784   5.712
  154SAPE  H10S17054   3.916   6.653   5.669
  154SAPE  C21117055   3.971   0.076   5.647
  154SAPE  H11R17056   4.001   0.165   5.705
  154SAPE  C21217057   3.991   0.079   5.508
  154SAPE  H12R17058   4.035   0.170   5.466
  154SAPE  C21317059   3.955   6.766   5.410
  154SAPE  H13R17060   3.992   6.672   5.457
  154SAPE  H13S17061   4.020   6.775   5.320
  154SAPE  C21417062   3.803   6.759   5.383
  154SAPE  H14R17063   3.741   6.767   5.474
  154SAPE  C21517064   3.738   6.792   5.266
  154SAPE  H15R17065   3.628   0.013   5.267
  154SAPE  C21617066   3.794   0.030   5.130
  154SAPE  H16R17067   3.888   6.764   5.115
  154SAPE  H16S17068   3.819   0.137   5.113
  154SAPE  C21717069   3.689   6.775   5.034
  154SAPE  H17R17070   3.586   0.024   5.033
  154SAPE  H17S17071   3.682   6.664   5.047
  154SAPE  C21817072   3.730   0.006   4.890
  154SAPE  H18R17073   3.841   0.007   4.887
  154SAPE  H18S17074   3.681   0.099   4.856
  154SAPE  C21917075   3.678   6.695   4.790
  154SAPE  H19R17076   3.570   6.695   4.819
  154SAPE  H19S17077   3.712   6.594   4.822
  154SAPE  C22017078   3.709   6.714   4.643
  154SAPE  H20R17079   3.648   0.009   4.610
  154SAPE  H20S17080   3.675   6.620   4.595
  154SAPE  H20T17081   3.815   6.740   4.624
  154SAPE   C3317082   3.420   0.967   5.994
  154SAPE   H3X17083   3.402   0.870   5.943
  154SAPE   H3Y17084   3.527   0.959   6.025
  154SAPE   C3417085   3.424   1.080   5.891
  154SAPE   H4X17086   3.456   1.177   5.935
  154SAPE   H4Y17087   3.319   1.104   5.864
  154SAPE   C3517088   3.501   1.042   5.761
  154SAPE   H5X17089   3.487   0.932   5.754
  154SAPE   H5Y17090   3.611   1.060   5.759
  154SAPE   C3617091   3.457   1.104   5.621
  154SAPE   H6X17092   3.492   1.209   5.624
  154SAPE   H6Y17093   3.346   1.112   5.619
  154SAPE   C3717094   3.508   1.023   5.503
  154SAPE   H7X17095   3.475   0.917   5.509
  154SAPE   H7Y17096   3.619   1.030   5.500
  154SAPE   C3817097   3.469   1.084   5.371
  154SAPE   H8X17098   3.508   1.187   5.356
  154SAPE   H8Y17099   3.359   1.092   5.367
  154SAPE   C3917100   3.520   1.002   5.257
  154SAPE   H9X17101   3.495   0.895   5.272
  154SAPE   H9Y17102   3.631   1.007   5.253
  154SAPE  C31017103   3.476   1.051   5.115
  154SAPE  H10X17104   3.485   1.161   5.107
  154SAPE  H10Y17105   3.369   1.022   5.123
  154SAPE  C31117106   3.545   0.969   5.005
  154SAPE  H11X17107   3.535   0.863   5.037
  154SAPE  H11Y17108   3.650   1.003   4.990
  154SAPE  C31217109   3.468   0.993   4.873
  154SAPE  H12X17110   3.466   1.103   4.854
  154SAPE  H12Y17111   3.363   0.956   4.876
  154SAPE  C31317112   3.544   0.919   4.758
  154SAPE  H13X17113   3.643   0.968   4.752
  154SAPE  H13Y17114   3.487   0.942   4.665
  154SAPE  C31417115   3.547   0.765   4.762
  154SAPE  H14X17116   3.443   0.729   4.748
  154SAPE  H14Y17117   3.589   0.715   4.852
  154SAPE  C31517118   3.619   0.711   4.636
  154SAPE  H15X17119   3.713   0.770   4.638
  154SAPE  H15Y17120   3.562   0.739   4.545
  154SAPE  C31617121   3.647   0.559   4.648
  154SAPE  H16X17122   3.553   0.501   4.658
  154SAPE  H16Y17123   3.699   0.555   4.747
  154SAPE  C31717124   3.741   0.491   4.542
  154SAPE  H17X17125   3.847   0.523   4.553
  154SAPE  H17Y17126   3.707   0.518   4.439
  154SAPE  C31817127   3.735   0.339   4.560
  154SAPE  H18X17128   3.659   0.279   4.504
  154SAPE  H18Y17129   3.720   0.323   4.669
  154SAPE  H18Z17130   3.828   0.285   4.533
  155SAPE     N17131   5.976   6.049   6.433
  155SAPE   HN117132   5.981   6.023   6.332
  155SAPE   HN217133   6.060   6.092   6.477
  155SAPE   HN317134   5.955   5.962   6.485
  155SAPE   C1217135   5.858   6.144   6.455
  155SAPE  H12A17136   5.880   6.244   6.412
  155SAPE  H12B17137   5.839   6.158   6.564
  155SAPE   C1117138   5.734   6.100   6.389
  155SAPE  H11A17139   5.752   6.084   6.281
  155SAPE  H11B17140   5.658   6.180   6.402
  155SAPE     P17141   5.656   5.852   6.389
  155SAPE   O1317142   5.766   5.803   6.304
  155SAPE   O1417143   5.603   5.761   6.493
  155SAPE   O1217144   5.689   5.989   6.455
  155SAPE   O1117145   5.534   5.904   6.304
  155SAPE    C117146   5.425   5.813   6.274
  155SAPE    HA17147   5.392   5.738   6.349
  155SAPE    HB17148   5.333   5.873   6.257
  155SAPE    C217149   5.456   5.735   6.139
  155SAPE    HS17150   5.564   5.713   6.151
  155SAPE   O2117151   5.427   5.830   6.029
  155SAPE   C2117152   5.497   5.800   5.918
  155SAPE   O2217153   5.599   5.732   5.910
  155SAPE   C2217154   5.450   5.879   5.794
  155SAPE   H2R17155   5.368   5.818   5.751
  155SAPE   H2S17156   5.400   5.971   5.831
  155SAPE    C317157   5.379   5.598   6.121
  155SAPE    HX17158   5.277   5.615   6.163
  155SAPE    HY17159   5.427   5.532   6.197
  155SAPE   O3117160   5.388   5.543   5.986
  155SAPE   C3117161   5.452   5.429   5.976
  155SAPE   O3217162   5.492   5.362   6.066
  155SAPE   C3217163   5.446   5.382   5.828
  155SAPE   H2X17164   5.552   5.393   5.796
  155SAPE   H2Y17165   5.386   5.461   5.778
  155SAPE   C2317166   5.565   5.909   5.696
  155SAPE   H3R17167   5.591   5.809   5.654
  155SAPE   H3S17168   5.661   5.940   5.744
  155SAPE   C2417169   5.524   6.008   5.588
  155SAPE   H4R17170   5.419   5.988   5.557
  155SAPE   H4S17171   5.573   5.993   5.489
  155SAPE   C2517172   5.526   6.151   5.634
  155SAPE   H5R17173   5.572   6.159   5.733
  155SAPE   C2617174   5.490   6.257   5.553
  155SAPE   H6R17175   5.496   6.363   5.580
  155SAPE   C2717176   5.428   6.245   5.418
  155SAPE   H7R17177   5.361   6.157   5.408
  155SAPE   H7S17178   5.504   6.227   5.339
  155SAPE   C2817179   5.338   6.361   5.386
  155SAPE   H8R17180   5.249   6.359   5.450
  155SAPE   C2917181   5.351   6.455   5.289
  155SAPE   H9R17182   5.269   6.529   5.284
  155SAPE  C21017183   5.456   6.466   5.183
  155SAPE  H10R17184   5.546   6.404   5.202
  155SAPE  H10S17185   5.515   6.559   5.191
  155SAPE  C21117186   5.400   6.465   5.044
  155SAPE  H11R17187   5.371   6.564   5.005
  155SAPE  C21217188   5.427   6.366   4.953
  155SAPE  H12R17189   5.392   6.378   4.849
  155SAPE  C21317190   5.485   6.237   5.002
  155SAPE  H13R17191   5.446   6.223   5.105
  155SAPE  H13S17192   5.592   6.254   5.026
  155SAPE  C21417193   5.456   6.122   4.912
  155SAPE  H14R17194   5.484   6.132   4.806
  155SAPE  C21517195   5.427   5.996   4.952
  155SAPE  H15R17196   5.405   5.921   4.875
  155SAPE  C21617197   5.423   5.960   5.100
  155SAPE  H16R17198   5.322   5.953   5.147
  155SAPE  H16S17199   5.482   6.033   5.159
  155SAPE  C21717200   5.487   5.820   5.118
  155SAPE  H17R17201   5.580   5.807   5.059
  155SAPE  H17S17202   5.412   5.748   5.078
  155SAPE  C21817203   5.497   5.791   5.269
  155SAPE  H18R17204   5.398   5.789   5.317
  155SAPE  H18S17205   5.562   5.869   5.315
  155SAPE  C21917206   5.567   5.653   5.285
  155SAPE  H19R17207   5.672   5.657   5.248
  155SAPE  H19S17208   5.517   5.575   5.224
  155SAPE  C22017209   5.569   5.601   5.427
  155SAPE  H20R17210   5.585   5.693   5.486
  155SAPE  H20S17211   5.653   5.532   5.453
  155SAPE  H20T17212   5.473   5.566   5.469
  155SAPE   C3317213   5.385   5.248   5.799
  155SAPE   H3X17214   5.276   5.247   5.819
  155SAPE   H3Y17215   5.430   5.172   5.867
  155SAPE   C3417216   5.408   5.197   5.655
  155SAPE   H4X17217   5.415   5.087   5.653
  155SAPE   H4Y17218   5.510   5.232   5.626
  155SAPE   C3517219   5.313   5.266   5.552
  155SAPE   H5X17220   5.310   5.377   5.562
  155SAPE   H5Y17221   5.216   5.213   5.547
  155SAPE   C3617222   5.374   5.250   5.413
  155SAPE   H6X17223   5.356   5.145   5.380
  155SAPE   H6Y17224   5.481   5.279   5.409
  155SAPE   C3717225   5.302   5.323   5.295
  155SAPE   H7X17226   5.327   5.431   5.297
  155SAPE   H7Y17227   5.192   5.319   5.303
  155SAPE   C3817228   5.329   5.271   5.151
  155SAPE   H8X17229   5.266   5.180   5.140
  155SAPE   H8Y17230   5.434   5.237   5.134
  155SAPE   C3917231   5.262   5.360   5.049
  155SAPE   H9X17232   5.294   5.465   5.066
  155SAPE   H9Y17233   5.152   5.355   5.057
  155SAPE  C31017234   5.293   5.321   4.908
  155SAPE  H10X17235   5.262   5.215   4.893
  155SAPE  H10Y17236   5.404   5.312   4.915
  155SAPE  C31117237   5.245   5.417   4.800
  155SAPE  H11X17238   5.285   5.519   4.822
  155SAPE  H11Y17239   5.134   5.421   4.793
  155SAPE  C31217240   5.285   5.371   4.654
  155SAPE  H12X17241   5.231   5.279   4.624
  155SAPE  H12Y17242   5.393   5.343   4.659
  155SAPE  C31317243   5.269   5.486   4.550
  155SAPE  H13X17244   5.298   5.584   4.594
  155SAPE  H13Y17245   5.162   5.504   4.531
  155SAPE  C31417246   5.346   5.465   4.419
  155SAPE  H14X17247   5.320   5.361   4.389
  155SAPE  H14Y17248   5.456   5.463   4.440
  155SAPE  C31517249   5.323   5.559   4.292
  155SAPE  H15X17250   5.380   5.535   4.200
  155SAPE  H15Y17251   5.352   5.661   4.324
  155SAPE  C31617252   5.175   5.562   4.257
  155SAPE  H16X17253   5.118   5.610   4.339
  155SAPE  H16Y17254   5.121   5.468   4.233
  155SAPE  C31717255   5.149   5.652   4.133
  155SAPE  H17X17256   5.207   5.608   4.049
  155SAPE  H17Y17257   5.189   5.756   4.140
  155SAPE  C31817258   5.004   5.663   4.095
  155SAPE  H18X17259   4.971   5.558   4.112
  155SAPE  H18Y17260   4.986   5.703   3.993
  155SAPE  H18Z17261   4.953   5.732   4.166
  156SAPE     N17262   0.686   0.545   6.619
  156SAPE   HN117263   0.748   0.511   6.696
  156SAPE   HN217264   0.736   0.627   6.581
  156SAPE   HN317265   0.611   0.590   6.676
  156SAPE   C1217266   0.611   0.449   6.531
  156SAPE  H12A17267   0.601   0.357   6.593
  156SAPE  H12B17268   0.677   0.423   6.445
  156SAPE   C1117269   0.480   0.515   6.493
  156SAPE  H11A17270   0.428   0.430   6.444
  156SAPE  H11B17271   0.490   0.597   6.418
  156SAPE     P17272   0.369   0.716   6.621
  156SAPE   O1317273   0.299   0.734   6.754
  156SAPE   O1417274   0.498   0.789   6.593
  156SAPE   O1217275   0.410   0.566   6.602
  156SAPE   O1117276   0.271   0.735   6.488
  156SAPE    C117277   0.154   0.647   6.466
  156SAPE    HA17278   0.144   0.565   6.541
  156SAPE    HB17279   0.057   0.698   6.482
  156SAPE    C217280   0.170   0.593   6.323
  156SAPE    HS17281   0.266   0.537   6.317
  156SAPE   O2117282   0.153   0.694   6.228
  156SAPE   C2117283   0.240   0.687   6.129
  156SAPE   O2217284   0.332   0.602   6.118
  156SAPE   C2217285   0.213   0.806   6.031
  156SAPE   H2R17286   0.115   0.803   5.979
  156SAPE   H2S17287   0.210   0.901   6.088
  156SAPE    C317288   0.062   0.481   6.299
  156SAPE    HX17289   6.754   0.520   6.323
  156SAPE    HY17290   0.085   0.404   6.376
  156SAPE   O3117291   0.080   0.439   6.161
  156SAPE   C3117292   0.166   0.342   6.139
  156SAPE   O3217293   0.233   0.288   6.227
  156SAPE   C3217294   0.182   0.318   5.990
  156SAPE   H2X17295   0.262   0.384   5.949
  156SAPE   H2Y17296   0.087   0.336   5.937
  156SAPE   C2317297   0.328   0.811   5.925
  156SAPE   H3R17298   0.335   0.710   5.880
  156SAPE   H3S17299   0.416   0.845   5.984
  156SAPE   C2417300   0.296   0.906   5.809
  156SAPE   H4R17301   0.296   1.009   5.852
  156SAPE   H4S17302   0.188   0.895   5.785
  156SAPE   C2517303   0.376   0.884   5.685
  156SAPE   H5R17304   0.481   0.919   5.688
  156SAPE   C2617305   0.334   0.815   5.581
  156SAPE   H6R17306   0.408   0.793   5.502
  156SAPE   C2717307   0.208   0.731   5.562
  156SAPE   H7R17308   0.137   0.781   5.493
  156SAPE   H7S17309   0.147   0.729   5.655
  156SAPE   C2817310   0.223   0.586   5.523
  156SAPE   H8R17311   0.221   0.510   5.603
  156SAPE   C2917312   0.223   0.550   5.396
  156SAPE   H9R17313   0.236   0.442   5.376
  156SAPE  C21017314   0.210   0.644   5.271
  156SAPE  H10R17315   0.311   0.677   5.239
  156SAPE  H10S17316   0.163   0.739   5.303
  156SAPE  C21117317   0.158   0.569   5.152
  156SAPE  H11R17318   0.097   0.483   5.183
  156SAPE  C21217319   0.182   0.592   5.022
  156SAPE  H12R17320   0.139   0.515   4.956
  156SAPE  C21317321   0.283   0.686   4.965
  156SAPE  H13R17322   0.364   0.631   4.912
  156SAPE  H13S17323   0.323   0.752   5.045
  156SAPE  C21417324   0.219   0.771   4.856
  156SAPE  H14R17325   0.130   0.826   4.889
  156SAPE  C21517326   0.245   0.783   4.725
  156SAPE  H15R17327   0.195   0.865   4.671
  156SAPE  C21617328   0.343   0.704   4.640
  156SAPE  H16R17329   0.397   0.628   4.700
  156SAPE  H16S17330   0.417   0.775   4.599
  156SAPE  C21717331   0.290   0.637   4.514
  156SAPE  H17R17332   0.370   0.596   4.448
  156SAPE  H17S17333   0.231   0.713   4.458
  156SAPE  C21817334   0.194   0.522   4.559
  156SAPE  H18R17335   0.110   0.568   4.616
  156SAPE  H18S17336   0.246   0.462   4.636
  156SAPE  C21917337   0.140   0.429   4.446
  156SAPE  H19R17338   0.078   0.477   4.367
  156SAPE  H19S17339   0.074   0.358   4.501
  156SAPE  C22017340   0.247   0.347   4.377
  156SAPE  H20R17341   0.312   0.290   4.447
  156SAPE  H20S17342   0.308   0.424   4.325
  156SAPE  H20T17343   0.207   0.274   4.303
  156SAPE   C3317344   0.223   0.167   5.968
  156SAPE   H3X17345   0.147   0.097   6.007
  156SAPE   H3Y17346   0.311   0.157   6.035
  156SAPE   C3417347   0.256   0.146   5.825
  156SAPE   H4X17348   0.303   0.046   5.817
  156SAPE   H4Y17349   0.324   0.223   5.783
  156SAPE   C3517350   0.132   0.158   5.730
  156SAPE   H5X17351   0.103   0.262   5.702
  156SAPE   H5Y17352   0.050   0.116   5.792
  156SAPE   C3617353   0.150   0.073   5.603
  156SAPE   H6X17354   0.170   6.758   5.618
  156SAPE   H6Y17355   0.245   0.109   5.557
  156SAPE   C3717356   0.040   0.086   5.499
  156SAPE   H7X17357   0.048   0.193   5.470
  156SAPE   H7Y17358   6.734   0.084   5.550
  156SAPE   C3817359   0.063   6.787   5.373
  156SAPE   H8X17360   6.763   6.767   5.316
  156SAPE   H8Y17361   0.078   6.680   5.397
  156SAPE   C3917362   0.183   0.034   5.283
  156SAPE   H9X17363   0.205   6.747   5.209
  156SAPE   H9Y17364   0.278   0.039   5.341
  156SAPE  C31017365   0.154   0.160   5.204
  156SAPE  H10X17366   0.130   0.241   5.275
  156SAPE  H10Y17367   0.059   0.159   5.145
  156SAPE  C31117368   0.278   0.208   5.118
  156SAPE  H11X17369   0.266   0.313   5.084
  156SAPE  H11Y17370   0.266   0.153   5.022
  156SAPE  C31217371   0.419   0.193   5.179
  156SAPE  H12X17372   0.434   0.086   5.205
  156SAPE  H12Y17373   0.407   0.248   5.275
  156SAPE  C31317374   0.542   0.237   5.102
  156SAPE  H13X17375   0.626   0.171   5.134
  156SAPE  H13Y17376   0.560   0.345   5.122
  156SAPE  C31417377   0.527   0.220   4.949
  156SAPE  H14X17378   0.460   0.298   4.909
  156SAPE  H14Y17379   0.481   0.121   4.929
  156SAPE  C31517380   0.659   0.237   4.869
  156SAPE  H15X17381   0.728   0.169   4.925
  156SAPE  H15Y17382   0.699   0.340   4.881
  156SAPE  C31617383   0.658   0.191   4.728
  156SAPE  H16X17384   0.578   0.248   4.675
  156SAPE  H16Y17385   0.615   0.089   4.718
  156SAPE  C31717386   0.785   0.215   4.642
  156SAPE  H17X17387   0.876   0.166   4.683
  156SAPE  H17Y17388   0.806   0.324   4.649
  156SAPE  C31817389   0.760   0.176   4.500
  156SAPE  H18X17390   0.663   0.206   4.455
  156SAPE  H18Y17391   0.747   0.066   4.497
  156SAPE  H18Z17392   0.844   0.219   4.441
  157SAPE     N17393   0.161   5.814   6.475
  157SAPE   HN117394   0.145   5.902   6.423
  157SAPE   HN217395   0.240   5.767   6.426
  157SAPE   HN317396   0.074   5.761   6.458
  157SAPE   C1217397   0.198   5.829   6.618
  157SAPE  H12A17398   0.179   5.735   6.674
  157SAPE  H12B17399   0.126   5.906   6.652
  157SAPE   C1117400   0.346   5.869   6.632
  157SAPE  H11A17401   0.410   5.783   6.602
  157SAPE  H11B17402   0.363   5.900   6.737
  157SAPE     P17403   0.484   6.090   6.565
  157SAPE   O1317404   0.409   6.203   6.627
  157SAPE   O1417405   0.599   6.035   6.635
  157SAPE   O1217406   0.378   5.975   6.536
  157SAPE   O1117407   0.518   6.134   6.420
  157SAPE    C117408   0.442   6.097   6.304
  157SAPE    HA17409   0.495   6.113   6.208
  157SAPE    HB17410   0.423   5.987   6.303
  157SAPE    C217411   0.306   6.165   6.296
  157SAPE    HS17412   0.246   6.123   6.379
  157SAPE   O2117413   0.249   6.155   6.166
  157SAPE   C2117414   0.182   6.047   6.149
  157SAPE   O2217415   0.168   5.952   6.224
  157SAPE   C2217416   0.133   6.047   6.006
  157SAPE   H2R17417   0.032   6.002   5.993
  157SAPE   H2S17418   0.123   6.152   5.971
  157SAPE    C317419   0.312   6.315   6.324
  157SAPE    HX17420   0.351   6.337   6.426
  157SAPE    HY17421   0.206   6.346   6.312
  157SAPE   O3117422   0.389   6.386   6.229
  157SAPE   C3117423   0.364   6.524   6.212
  157SAPE   O3217424   0.284   6.590   6.280
  157SAPE   C3217425   0.464   6.579   6.122
  157SAPE   H2X17426   0.549   6.507   6.114
  157SAPE   H2Y17427   0.497   6.670   6.176
  157SAPE   C2317428   0.236   5.989   5.916
  157SAPE   H3R17429   0.276   5.888   5.939
  157SAPE   H3S17430   0.329   6.049   5.912
  157SAPE   C2417431   0.171   5.980   5.772
  157SAPE   H4R17432   0.126   6.080   5.751
  157SAPE   H4S17433   0.085   5.910   5.769
  157SAPE   C2517434   0.268   5.932   5.668
  157SAPE   H5R17435   0.349   5.869   5.707
  157SAPE   C2617436   0.263   5.960   5.539
  157SAPE   H6R17437   0.354   5.928   5.486
  157SAPE   C2717438   0.152   6.044   5.479
  157SAPE   H7R17439   0.186   6.150   5.480
  157SAPE   H7S17440   0.056   6.056   5.533
  157SAPE   C2817441   0.112   6.016   5.340
  157SAPE   H8R17442   0.063   5.918   5.331
  157SAPE   C2917443   0.102   6.103   5.240
  157SAPE   H9R17444   0.044   6.066   5.154
  157SAPE  C21017445   0.142   6.251   5.228
  157SAPE  H10R17446   0.160   6.272   5.120
  157SAPE  H10S17447   0.238   6.270   5.281
  157SAPE  C21117448   0.038   6.343   5.286
  157SAPE  H11R17449   0.014   6.322   5.391
  157SAPE  C21217450   6.780   6.456   5.232
  157SAPE  H12R17451   6.712   6.520   5.290
  157SAPE  C21317452   0.014   6.522   5.103
  157SAPE  H13R17453   0.118   6.496   5.073
  157SAPE  H13S17454   0.019   6.630   5.128
  157SAPE  C21417455   6.715   6.486   4.989
  157SAPE  H14R17456   6.687   6.380   5.000
  157SAPE  C21517457   6.663   6.564   4.883
  157SAPE  H15R17458   6.621   6.511   4.797
  157SAPE  C21617459   6.698   6.707   4.866
  157SAPE  H16R17460   6.693   6.755   4.966
  157SAPE  H16S17461   6.624   6.757   4.800
  157SAPE  C21717462   0.053   6.728   4.831
  157SAPE  H17R17463   0.124   6.693   4.909
  157SAPE  H17S17464   0.076   0.043   4.816
  157SAPE  C21817465   0.099   6.657   4.700
  157SAPE  H18R17466   0.033   6.688   4.617
  157SAPE  H18S17467   0.071   6.552   4.726
  157SAPE  C21917468   0.242   6.668   4.679
  157SAPE  H19R17469   0.299   6.614   4.757
  157SAPE  H19S17470   0.279   6.772   4.690
  157SAPE  C22017471   0.284   6.609   4.547
  157SAPE  H20R17472   0.229   6.655   4.462
  157SAPE  H20S17473   0.255   6.503   4.537
  157SAPE  H20T17474   0.392   6.616   4.520
  157SAPE   C3317475   0.408   6.614   5.990
  157SAPE   H3X17476   0.489   6.671   5.940
  157SAPE   H3Y17477   0.313   6.672   5.987
  157SAPE   C3417478   0.388   6.491   5.903
  157SAPE   H4X17479   0.298   6.429   5.920
  157SAPE   H4Y17480   0.469   6.418   5.926
  157SAPE   C3517481   0.409   6.527   5.753
  157SAPE   H5X17482   0.517   6.549   5.749
  157SAPE   H5Y17483   0.343   6.614   5.733
  157SAPE   C3617484   0.377   6.404   5.659
  157SAPE   H6X17485   0.272   6.373   5.677
  157SAPE   H6Y17486   0.448   6.323   5.686
  157SAPE   C3717487   0.390   6.430   5.507
  157SAPE   H7X17488   0.333   6.522   5.481
  157SAPE   H7Y17489   0.329   6.358   5.448
  157SAPE   C3817490   0.536   6.459   5.462
  157SAPE   H8X17491   0.602   6.388   5.515
  157SAPE   H8Y17492   0.569   6.558   5.503
  157SAPE   C3917493   0.562   6.454   5.308
  157SAPE   H9X17494   0.544   6.358   5.255
  157SAPE   H9Y17495   0.663   6.496   5.289
  157SAPE  C31017496   0.470   6.550   5.225
  157SAPE  H10X17497   0.501   6.649   5.265
  157SAPE  H10Y17498   0.363   6.540   5.251
  157SAPE  C31117499   0.497   6.528   5.074
  157SAPE  H11X17500   0.412   6.574   5.020
  157SAPE  H11Y17501   0.495   6.418   5.061
  157SAPE  C31217502   0.624   6.593   5.019
  157SAPE  H12X17503   0.704   6.552   5.083
  157SAPE  H12Y17504   0.612   6.702   5.040
  157SAPE  C31317505   0.648   6.570   4.867
  157SAPE  H13X17506   0.563   6.606   4.804
  157SAPE  H13Y17507   0.662   6.461   4.851
  157SAPE  C31417508   0.778   6.616   4.803
  157SAPE  H14X17509   0.858   6.564   4.861
  157SAPE  H14Y17510   0.787   6.726   4.818
  157SAPE  C31517511   0.788   6.587   4.655
  157SAPE  H15X17512   0.707   6.639   4.600
  157SAPE  H15Y17513   0.765   6.480   4.636
  157SAPE  C31617514   0.918   6.625   4.586
  157SAPE  H16X17515   0.989   6.551   4.630
  157SAPE  H16Y17516   0.945   6.730   4.609
  157SAPE  C31717517   0.904   6.610   4.435
  157SAPE  H17X17518   0.865   6.701   4.385
  157SAPE  H17Y17519   0.832   6.527   4.418
  157SAPE  C31817520   1.040   6.578   4.367
  157SAPE  H18X17521   1.080   6.483   4.409
  157SAPE  H18Y17522   1.109   6.664   4.378
  157SAPE  H18Z17523   1.037   6.567   4.257
  158SAPE     N17524   2.520   5.303   6.826
  158SAPE   HN117525   2.424   5.274   6.850
  158SAPE   HN217526   2.580   5.220   6.843
  158SAPE   HN317527   2.550   5.381   6.888
  158SAPE   C1217528   2.540   5.351   6.684
  158SAPE  H12A17529   2.491   5.277   6.618
  158SAPE  H12B17530   2.648   5.353   6.658
  158SAPE   C1117531   2.473   5.490   6.659
  158SAPE  H11A17532   2.496   5.513   6.553
  158SAPE  H11B17533   2.522   5.570   6.720
  158SAPE     P17534   2.227   5.435   6.589
  158SAPE   O1317535   2.169   5.308   6.637
  158SAPE   O1417536   2.128   5.538   6.560
  158SAPE   O1217537   2.334   5.482   6.693
  158SAPE   O1117538   2.308   5.418   6.462
  158SAPE    C117539   2.325   5.283   6.406
  158SAPE    HA17540   2.327   5.206   6.486
  158SAPE    HB17541   2.249   5.257   6.329
  158SAPE    C217542   2.460   5.277   6.325
  158SAPE    HS17543   2.532   5.290   6.408
  158SAPE   O2117544   2.454   5.390   6.239
  158SAPE   C2117545   2.571   5.450   6.218
  158SAPE   O2217546   2.674   5.443   6.288
  158SAPE   C2217547   2.559   5.560   6.111
  158SAPE   H2R17548   2.661   5.576   6.069
  158SAPE   H2S17549   2.496   5.513   6.032
  158SAPE    C317550   2.485   5.134   6.262
  158SAPE    HX17551   2.402   5.100   6.196
  158SAPE    HY17552   2.476   5.071   6.352
  158SAPE   O3117553   2.608   5.129   6.190
  158SAPE   C3117554   2.717   5.101   6.262
  158SAPE   O3217555   2.723   5.090   6.382
  158SAPE   C3217556   2.844   5.096   6.177
  158SAPE   H2X17557   2.874   4.990   6.187
  158SAPE   H2Y17558   2.918   5.163   6.226
  158SAPE   C2317559   2.516   5.700   6.164
  158SAPE   H3R17560   2.583   5.720   6.251
  158SAPE   H3S17561   2.411   5.709   6.199
  158SAPE   C2417562   2.538   5.814   6.056
  158SAPE   H4R17563   2.647   5.812   6.034
  158SAPE   H4S17564   2.523   5.906   6.116
  158SAPE   C2517565   2.457   5.818   5.935
  158SAPE   H5R17566   2.375   5.745   5.929
  158SAPE   C2617567   2.494   5.897   5.830
  158SAPE   H6R17568   2.418   5.907   5.751
  158SAPE   C2717569   2.603   5.999   5.830
  158SAPE   H7R17570   2.642   6.020   5.728
  158SAPE   H7S17571   2.680   5.960   5.899
  158SAPE   C2817572   2.559   6.137   5.882
  158SAPE   H8R17573   2.564   6.155   5.990
  158SAPE   C2917574   2.504   6.239   5.817
  158SAPE   H9R17575   2.492   6.337   5.866
  158SAPE  C21017576   2.471   6.227   5.676
  158SAPE  H10R17577   2.378   6.171   5.656
  158SAPE  H10S17578   2.555   6.177   5.624
  158SAPE  C21117579   2.452   6.362   5.614
  158SAPE  H11R17580   2.522   6.442   5.644
  158SAPE  C21217581   2.370   6.413   5.521
  158SAPE  H12R17582   2.371   6.522   5.506
  158SAPE  C21317583   2.275   6.339   5.436
  158SAPE  H13R17584   2.216   6.265   5.495
  158SAPE  H13S17585   2.333   6.275   5.367
  158SAPE  C21417586   2.185   6.435   5.364
  158SAPE  H14R17587   2.097   6.469   5.422
  158SAPE  C21517588   2.198   6.483   5.236
  158SAPE  H15R17589   2.117   6.547   5.200
  158SAPE  C21617590   2.309   6.464   5.143
  158SAPE  H16R17591   2.359   6.365   5.145
  158SAPE  H16S17592   2.381   6.546   5.166
  158SAPE  C21717593   2.266   6.490   5.000
  158SAPE  H17R17594   2.176   6.556   5.003
  158SAPE  H17S17595   2.231   6.400   4.944
  158SAPE  C21817596   2.382   6.538   4.905
  158SAPE  H18R17597   2.407   6.641   4.940
  158SAPE  H18S17598   2.341   6.543   4.802
  158SAPE  C21917599   2.509   6.456   4.893
  158SAPE  H19R17600   2.474   6.353   4.871
  158SAPE  H19S17601   2.559   6.456   4.992
  158SAPE  C22017602   2.613   6.513   4.797
  158SAPE  H20R17603   2.555   6.514   4.702
  158SAPE  H20S17604   2.712   6.464   4.792
  158SAPE  H20T17605   2.634   6.620   4.817
  158SAPE   C3317606   2.825   5.135   6.022
  158SAPE   H3X17607   2.789   5.240   6.012
  158SAPE   H3Y17608   2.748   5.071   5.975
  158SAPE   C3417609   2.967   5.117   5.961
  158SAPE   H4X17610   3.021   5.040   6.020
  158SAPE   H4Y17611   3.015   5.216   5.980
  158SAPE   C3517612   2.974   5.073   5.818
  158SAPE   H5X17613   2.928   5.148   5.751
  158SAPE   H5Y17614   2.907   4.986   5.801
  158SAPE   C3617615   3.110   5.034   5.764
  158SAPE   H6X17616   3.125   4.930   5.802
  158SAPE   H6Y17617   3.191   5.100   5.802
  158SAPE   C3717618   3.099   5.018   5.614
  158SAPE   H7X17619   3.032   4.938   5.576
  158SAPE   H7Y17620   3.201   4.986   5.586
  158SAPE   C3817621   3.071   5.150   5.529
  158SAPE   H8X17622   3.137   5.229   5.569
  158SAPE   H8Y17623   2.962   5.170   5.543
  158SAPE   C3917624   3.099   5.148   5.375
  158SAPE   H9X17625   3.047   5.069   5.316
  158SAPE   H9Y17626   3.203   5.115   5.353
  158SAPE  C31017627   3.084   5.289   5.312
  158SAPE  H10X17628   3.116   5.365   5.387
  158SAPE  H10Y17629   2.977   5.316   5.306
  158SAPE  C31117630   3.156   5.308   5.179
  158SAPE  H11X17631   3.240   5.235   5.176
  158SAPE  H11Y17632   3.199   5.409   5.169
  158SAPE  C31217633   3.061   5.277   5.063
  158SAPE  H12X17634   2.972   5.343   5.059
  158SAPE  H12Y17635   3.010   5.181   5.085
  158SAPE  C31317636   3.143   5.289   4.933
  158SAPE  H13X17637   3.241   5.239   4.951
  158SAPE  H13Y17638   3.161   5.398   4.918
  158SAPE  C31417639   3.087   5.205   4.815
  158SAPE  H14X17640   3.084   5.097   4.840
  158SAPE  H14Y17641   3.160   5.216   4.732
  158SAPE  C31517642   2.953   5.268   4.762
  158SAPE  H15X17643   2.966   5.370   4.718
  158SAPE  H15Y17644   2.901   5.288   4.858
  158SAPE  C31617645   2.873   5.184   4.666
  158SAPE  H16X17646   2.811   5.111   4.721
  158SAPE  H16Y17647   2.943   5.128   4.599
  158SAPE  C31717648   2.783   5.273   4.590
  158SAPE  H17X17649   2.843   5.342   4.528
  158SAPE  H17Y17650   2.728   5.327   4.670
  158SAPE  C31817651   2.687   5.199   4.491
  158SAPE  H18X17652   2.613   5.146   4.554
  158SAPE  H18Y17653   2.744   5.127   4.429
  158SAPE  H18Z17654   2.633   5.278   4.434
  159SAPE     N17655   5.443   2.903   2.330
  159SAPE   HN117656   5.381   2.929   2.409
  159SAPE   HN217657   5.383   2.843   2.270
  159SAPE   HN317658   5.523   2.848   2.368
  159SAPE   C1217659   5.470   3.014   2.233
  159SAPE  H12A17660   5.371   3.055   2.208
  159SAPE  H12B17661   5.518   2.958   2.150
  159SAPE   C1117662   5.576   3.111   2.276
  159SAPE  H11A17663   5.555   3.164   2.371
  159SAPE  H11B17664   5.596   3.180   2.191
  159SAPE     P17665   5.833   3.110   2.348
  159SAPE   O1317666   5.943   3.017   2.314
  159SAPE   O1417667   5.846   3.239   2.279
  159SAPE   O1217668   5.696   3.037   2.306
  159SAPE   O1117669   5.832   3.127   2.507
  159SAPE    C117670   5.743   3.062   2.595
  159SAPE    HA17671   5.741   3.107   2.696
  159SAPE    HB17672   5.637   3.069   2.564
  159SAPE    C217673   5.783   2.914   2.616
  159SAPE    HS17674   5.758   2.847   2.531
  159SAPE   O2117675   5.708   2.857   2.724
  159SAPE   C2117676   5.576   2.849   2.703
  159SAPE   O2217677   5.526   2.859   2.594
  159SAPE   C2217678   5.506   2.831   2.837
  159SAPE   H2R17679   5.507   2.726   2.873
  159SAPE   H2S17680   5.563   2.887   2.915
  159SAPE    C317681   5.934   2.894   2.648
  159SAPE    HX17682   5.990   2.942   2.565
  159SAPE    HY17683   5.957   2.786   2.629
  159SAPE   O3117684   5.969   2.927   2.783
  159SAPE   C3117685   6.078   3.004   2.797
  159SAPE   O3217686   6.139   3.056   2.702
  159SAPE   C3217687   6.119   3.032   2.942
  159SAPE   H2X17688   6.153   2.936   2.984
  159SAPE   H2Y17689   6.022   3.053   2.992
  159SAPE   C2317690   5.358   2.875   2.846
  159SAPE   H3R17691   5.306   2.825   2.931
  159SAPE   H3S17692   5.317   2.854   2.745
  159SAPE   C2417693   5.365   3.027   2.869
  159SAPE   H4R17694   5.421   3.029   2.965
  159SAPE   H4S17695   5.262   3.058   2.894
  159SAPE   C2517696   5.423   3.105   2.758
  159SAPE   H5R17697   5.387   3.083   2.656
  159SAPE   C2617698   5.497   3.214   2.768
  159SAPE   H6R17699   5.538   3.253   2.673
  159SAPE   C2717700   5.536   3.292   2.892
  159SAPE   H7R17701   5.473   3.262   2.978
  159SAPE   H7S17702   5.516   3.397   2.862
  159SAPE   C2817703   5.676   3.265   2.933
  159SAPE   H8R17704   5.751   3.285   2.856
  159SAPE   C2917705   5.731   3.226   3.051
  159SAPE   H9R17706   5.838   3.203   3.047
  159SAPE  C21017707   5.671   3.197   3.182
  159SAPE  H10R17708   5.596   3.275   3.208
  159SAPE  H10S17709   5.750   3.207   3.259
  159SAPE  C21117710   5.608   3.059   3.203
  159SAPE  H11R17711   5.679   2.975   3.193
  159SAPE  C21217712   5.481   3.026   3.220
  159SAPE  H12R17713   5.457   2.920   3.239
  159SAPE  C21317714   5.370   3.130   3.238
  159SAPE  H13R17715   5.274   3.073   3.244
  159SAPE  H13S17716   5.370   3.201   3.153
  159SAPE  C21417717   5.357   3.213   3.367
  159SAPE  H14R17718   5.350   3.320   3.341
  159SAPE  C21517719   5.364   3.188   3.497
  159SAPE  H15R17720   5.345   3.266   3.572
  159SAPE  C21617721   5.379   3.052   3.547
  159SAPE  H16R17722   5.483   3.033   3.582
  159SAPE  H16S17723   5.356   2.973   3.472
  159SAPE  C21717724   5.284   3.026   3.664
  159SAPE  H17R17725   5.281   2.917   3.682
  159SAPE  H17S17726   5.186   3.054   3.620
  159SAPE  C21817727   5.300   3.088   3.801
  159SAPE  H18R17728   5.215   3.060   3.867
  159SAPE  H18S17729   5.303   3.195   3.771
  159SAPE  C21917730   5.438   3.072   3.863
  159SAPE  H19R17731   5.524   3.109   3.803
  159SAPE  H19S17732   5.454   2.962   3.871
  159SAPE  C22017733   5.438   3.144   4.001
  159SAPE  H20R17734   5.354   3.114   4.067
  159SAPE  H20S17735   5.447   3.254   3.990
  159SAPE  H20T17736   5.528   3.101   4.049
  159SAPE   C3317737   6.213   3.156   2.946
  159SAPE   H3X17738   6.159   3.248   2.916
  159SAPE   H3Y17739   6.310   3.142   2.892
  159SAPE   C3417740   6.251   3.175   3.092
  159SAPE   H4X17741   6.348   3.227   3.106
  159SAPE   H4Y17742   6.249   3.077   3.144
  159SAPE   C3517743   6.145   3.258   3.161
  159SAPE   H5X17744   6.057   3.192   3.178
  159SAPE   H5Y17745   6.132   3.347   3.096
  159SAPE   C3617746   6.180   3.291   3.306
  159SAPE   H6X17747   6.283   3.331   3.299
  159SAPE   H6Y17748   6.181   3.203   3.374
  159SAPE   C3717749   6.087   3.404   3.359
  159SAPE   H7X17750   5.988   3.355   3.368
  159SAPE   H7Y17751   6.077   3.488   3.287
  159SAPE   C3817752   6.115   3.470   3.498
  159SAPE   H8X17753   6.017   3.504   3.538
  159SAPE   H8Y17754   6.190   3.551   3.495
  159SAPE   C3917755   6.170   3.365   3.602
  159SAPE   H9X17756   6.269   3.324   3.571
  159SAPE   H9Y17757   6.091   3.288   3.603
  159SAPE  C31017758   6.189   3.438   3.735
  159SAPE  H10X17759   6.096   3.486   3.771
  159SAPE  H10Y17760   6.260   3.523   3.724
  159SAPE  C31117761   6.251   3.346   3.844
  159SAPE  H11X17762   6.332   3.297   3.785
  159SAPE  H11Y17763   6.175   3.268   3.868
  159SAPE  C31217764   6.300   3.404   3.971
  159SAPE  H12X17765   6.391   3.467   3.957
  159SAPE  H12Y17766   6.338   3.315   4.026
  159SAPE  C31317767   6.192   3.467   4.058
  159SAPE  H13X17768   6.106   3.398   4.072
  159SAPE  H13Y17769   6.156   3.544   3.987
  159SAPE  C31417770   6.264   3.510   4.185
  159SAPE  H14X17771   6.368   3.541   4.163
  159SAPE  H14Y17772   6.279   3.428   4.259
  159SAPE  C31517773   6.188   3.628   4.239
  159SAPE  H15X17774   6.090   3.587   4.272
  159SAPE  H15Y17775   6.190   3.706   4.160
  159SAPE  C31617776   6.253   3.681   4.367
  159SAPE  H16X17777   6.343   3.744   4.348
  159SAPE  H16Y17778   6.297   3.596   4.424
  159SAPE  C31717779   6.159   3.767   4.453
  159SAPE  H17X17780   6.062   3.713   4.463
  159SAPE  H17Y17781   6.148   3.859   4.392
  159SAPE  C31817782   6.211   3.807   4.590
  159SAPE  H18X17783   6.132   3.873   4.634
  159SAPE  H18Y17784   6.303   3.868   4.585
  159SAPE  H18Z17785   6.225   3.713   4.646
  160SAPE     N17786   4.591   2.271   2.503
  160SAPE   HN117787   4.619   2.327   2.420
  160SAPE   HN217788   4.586   2.172   2.472
  160SAPE   HN317789   4.495   2.304   2.527
  160SAPE   C1217790   4.670   2.293   2.630
  160SAPE  H12A17791   4.607   2.243   2.707
  160SAPE  H12B17792   4.669   2.402   2.647
  160SAPE   C1117793   4.804   2.232   2.618
  160SAPE  H11A17794   4.868   2.264   2.703
  160SAPE  H11B17795   4.864   2.286   2.542
  160SAPE     P17796   4.805   1.984   2.700
  160SAPE   O1317797   4.696   2.026   2.798
  160SAPE   O1417798   4.787   1.851   2.645
  160SAPE   O1217799   4.805   2.094   2.590
  160SAPE   O1117800   4.941   1.977   2.772
  160SAPE    C117801   4.952   2.024   2.903
  160SAPE    HA17802   5.056   2.060   2.917
  160SAPE    HB17803   4.879   2.104   2.929
  160SAPE    C217804   4.938   1.908   3.015
  160SAPE    HS17805   4.930   1.965   3.110
  160SAPE   O2117806   5.046   1.809   3.001
  160SAPE   C2117807   5.152   1.853   3.062
  160SAPE   O2217808   5.165   1.955   3.122
  160SAPE   C2217809   5.260   1.751   3.045
  160SAPE   H2R17810   5.295   1.771   2.942
  160SAPE   H2S17811   5.331   1.775   3.128
  160SAPE    C317812   4.802   1.825   3.015
  160SAPE    HX17813   4.776   1.790   2.912
  160SAPE    HY17814   4.726   1.902   3.037
  160SAPE   O3117815   4.797   1.713   3.113
  160SAPE   C3117816   4.806   1.594   3.062
  160SAPE   O3217817   4.826   1.556   2.949
  160SAPE   C3217818   4.791   1.487   3.181
  160SAPE   H2X17819   4.886   1.432   3.162
  160SAPE   H2Y17820   4.697   1.429   3.163
  160SAPE   C2317821   5.208   1.604   3.062
  160SAPE   H3R17822   5.267   1.523   3.014
  160SAPE   H3S17823   5.112   1.608   3.005
  160SAPE   C2417824   5.176   1.557   3.207
  160SAPE   H4R17825   5.130   1.456   3.209
  160SAPE   H4S17826   5.103   1.623   3.260
  160SAPE   C2517827   5.307   1.540   3.287
  160SAPE   H5R17828   5.381   1.497   3.219
  160SAPE   C2617829   5.329   1.566   3.417
  160SAPE   H6R17830   5.430   1.548   3.456
  160SAPE   C2717831   5.223   1.609   3.511
  160SAPE   H7R17832   5.133   1.651   3.461
  160SAPE   H7S17833   5.268   1.694   3.567
  160SAPE   C2817834   5.183   1.489   3.599
  160SAPE   H8R17835   5.107   1.426   3.548
  160SAPE   C2917836   5.218   1.458   3.723
  160SAPE   H9R17837   5.170   1.373   3.774
  160SAPE  C21017838   5.327   1.530   3.802
  160SAPE  H10R17839   5.318   1.640   3.814
  160SAPE  H10S17840   5.426   1.520   3.753
  160SAPE  C21117841   5.335   1.480   3.944
  160SAPE  H11R17842   5.293   1.380   3.959
  160SAPE  C21217843   5.366   1.556   4.051
  160SAPE  H12R17844   5.352   1.518   4.153
  160SAPE  C21317845   5.402   1.702   4.045
  160SAPE  H13R17846   5.321   1.748   3.984
  160SAPE  H13S17847   5.496   1.703   3.986
  160SAPE  C21417848   5.436   1.778   4.176
  160SAPE  H14R17849   5.482   1.719   4.257
  160SAPE  C21517850   5.453   1.912   4.182
  160SAPE  H15R17851   5.445   1.971   4.274
  160SAPE  C21617852   5.430   2.013   4.079
  160SAPE  H16R17853   5.414   1.971   3.978
  160SAPE  H16S17854   5.527   2.067   4.078
  160SAPE  C21717855   5.320   2.120   4.105
  160SAPE  H17R17856   5.375   2.217   4.107
  160SAPE  H17S17857   5.262   2.103   4.198
  160SAPE  C21817858   5.234   2.130   3.980
  160SAPE  H18R17859   5.213   2.031   3.935
  160SAPE  H18S17860   5.289   2.177   3.895
  160SAPE  C21917861   5.095   2.197   4.004
  160SAPE  H19R17862   5.038   2.134   4.075
  160SAPE  H19S17863   5.036   2.212   3.911
  160SAPE  C22017864   5.106   2.341   4.059
  160SAPE  H20R17865   5.006   2.381   4.087
  160SAPE  H20S17866   5.150   2.401   3.977
  160SAPE  H20T17867   5.164   2.346   4.154
  160SAPE   C3317868   4.783   1.544   3.326
  160SAPE   H3X17869   4.676   1.570   3.340
  160SAPE   H3Y17870   4.840   1.640   3.326
  160SAPE   C3417871   4.816   1.449   3.438
  160SAPE   H4X17872   4.926   1.436   3.432
  160SAPE   H4Y17873   4.777   1.347   3.417
  160SAPE   C3517874   4.811   1.504   3.582
  160SAPE   H5X17875   4.712   1.548   3.605
  160SAPE   H5Y17876   4.878   1.591   3.601
  160SAPE   C3617877   4.827   1.401   3.698
  160SAPE   H6X17878   4.838   1.454   3.796
  160SAPE   H6Y17879   4.920   1.342   3.680
  160SAPE   C3717880   4.706   1.300   3.712
  160SAPE   H7X17881   4.708   1.225   3.630
  160SAPE   H7Y17882   4.620   1.369   3.701
  160SAPE   C3817883   4.714   1.240   3.854
  160SAPE   H8X17884   4.736   1.326   3.920
  160SAPE   H8Y17885   4.788   1.157   3.859
  160SAPE   C3917886   4.570   1.188   3.892
  160SAPE   H9X17887   4.539   1.109   3.820
  160SAPE   H9Y17888   4.495   1.268   3.874
  160SAPE  C31017889   4.543   1.138   4.028
  160SAPE  H10X17890   4.437   1.127   4.060
  160SAPE  H10Y17891   4.577   1.209   4.107
  160SAPE  C31117892   4.610   1.001   4.048
  160SAPE  H11X17893   4.712   0.987   4.007
  160SAPE  H11Y17894   4.543   0.929   3.996
  160SAPE  C31217895   4.621   0.951   4.197
  160SAPE  H12X17896   4.518   0.948   4.239
  160SAPE  H12Y17897   4.659   1.029   4.267
  160SAPE  C31317898   4.688   0.812   4.207
  160SAPE  H13X17899   4.796   0.817   4.183
  160SAPE  H13Y17900   4.629   0.737   4.149
  160SAPE  C31417901   4.686   0.759   4.354
  160SAPE  H14X17902   4.737   0.830   4.421
  160SAPE  H14Y17903   4.753   0.671   4.348
  160SAPE  C31517904   4.551   0.705   4.405
  160SAPE  H15X17905   4.521   0.627   4.331
  160SAPE  H15Y17906   4.474   0.784   4.416
  160SAPE  C31617907   4.555   0.634   4.540
  160SAPE  H16X17908   4.601   0.706   4.611
  160SAPE  H16Y17909   4.623   0.546   4.545
  160SAPE  C31717910   4.414   0.579   4.584
  160SAPE  H17X17911   4.383   0.515   4.499
  160SAPE  H17Y17912   4.346   0.668   4.588
  160SAPE  C31817913   4.424   0.502   4.715
  160SAPE  H18X17914   4.330   0.458   4.753
  160SAPE  H18Y17915   4.475   0.571   4.786
  160SAPE  H18Z17916   4.485   0.412   4.694
  161SAPE     N17917   2.560   3.764   2.106
  161SAPE   HN117918   2.654   3.728   2.132
  161SAPE   HN217919   2.530   3.727   2.014
  161SAPE   HN317920   2.560   3.867   2.091
  161SAPE   C1217921   2.472   3.727   2.218
  161SAPE  H12A17922   2.462   3.616   2.221
  161SAPE  H12B17923   2.374   3.779   2.207
  161SAPE   C1117924   2.516   3.779   2.355
  161SAPE  H11A17925   2.616   3.744   2.389
  161SAPE  H11B17926   2.434   3.749   2.425
  161SAPE     P17927   2.635   4.021   2.371
  161SAPE   O1317928   2.750   3.974   2.283
  161SAPE   O1417929   2.581   4.151   2.345
  161SAPE   O1217930   2.511   3.922   2.361
  161SAPE   O1117931   2.672   4.005   2.520
  161SAPE    C117932   2.588   3.985   2.632
  161SAPE    HA17933   2.487   3.949   2.601
  161SAPE    HB17934   2.632   3.897   2.684
  161SAPE    C217935   2.585   4.106   2.729
  161SAPE    HS17936   2.675   4.170   2.722
  161SAPE   O2117937   2.547   4.059   2.865
  161SAPE   C2117938   2.654   4.018   2.934
  161SAPE   O2217939   2.767   4.014   2.894
  161SAPE   C2217940   2.601   3.947   3.064
  161SAPE   H2R17941   2.623   4.012   3.150
  161SAPE   H2S17942   2.491   3.953   3.053
  161SAPE    C317943   2.463   4.191   2.684
  161SAPE    HX17944   2.381   4.116   2.691
  161SAPE    HY17945   2.478   4.231   2.582
  161SAPE   O3117946   2.443   4.304   2.774
  161SAPE   C3117947   2.313   4.327   2.806
  161SAPE   O3217948   2.213   4.272   2.766
  161SAPE   C3217949   2.313   4.428   2.922
  161SAPE   H2X17950   2.247   4.512   2.893
  161SAPE   H2Y17951   2.414   4.473   2.934
  161SAPE   C2317952   2.658   3.810   3.099
  161SAPE   H3R17953   2.684   3.778   2.996
  161SAPE   H3S17954   2.598   3.737   3.157
  161SAPE   C2417955   2.792   3.818   3.174
  161SAPE   H4R17956   2.852   3.901   3.131
  161SAPE   H4S17957   2.845   3.723   3.152
  161SAPE   C2517958   2.766   3.858   3.319
  161SAPE   H5R17959   2.709   3.951   3.325
  161SAPE   C2617960   2.803   3.796   3.426
  161SAPE   H6R17961   2.797   3.855   3.518
  161SAPE   C2717962   2.880   3.666   3.420
  161SAPE   H7R17963   2.966   3.686   3.352
  161SAPE   H7S17964   2.842   3.575   3.370
  161SAPE   C2817965   2.925   3.634   3.564
  161SAPE   H8R17966   3.033   3.643   3.584
  161SAPE   C2917967   2.848   3.589   3.663
  161SAPE   H9R17968   2.887   3.560   3.762
  161SAPE  C21017969   2.696   3.564   3.666
  161SAPE  H10R17970   2.643   3.619   3.585
  161SAPE  H10S17971   2.654   3.608   3.760
  161SAPE  C21117972   2.675   3.412   3.648
  161SAPE  H11R17973   2.686   3.373   3.546
  161SAPE  C21217974   2.662   3.326   3.750
  161SAPE  H12R17975   2.647   3.218   3.737
  161SAPE  C21317976   2.675   3.360   3.895
  161SAPE  H13R17977   2.669   3.469   3.913
  161SAPE  H13S17978   2.780   3.332   3.917
  161SAPE  C21417979   2.570   3.296   3.982
  161SAPE  H14R17980   2.473   3.347   3.973
  161SAPE  C21517981   2.586   3.194   4.065
  161SAPE  H15R17982   2.498   3.167   4.125
  161SAPE  C21617983   2.712   3.124   4.091
  161SAPE  H16R17984   2.776   3.112   4.001
  161SAPE  H16S17985   2.690   3.019   4.118
  161SAPE  C21717986   2.800   3.191   4.206
  161SAPE  H17R17987   2.805   3.301   4.189
  161SAPE  H17S17988   2.900   3.146   4.216
  161SAPE  C21817989   2.737   3.172   4.346
  161SAPE  H18R17990   2.692   3.071   4.354
  161SAPE  H18S17991   2.653   3.245   4.354
  161SAPE  C21917992   2.846   3.175   4.449
  161SAPE  H19R17993   2.906   3.267   4.434
  161SAPE  H19S17994   2.908   3.083   4.442
  161SAPE  C22017995   2.814   3.161   4.602
  161SAPE  H20R17996   2.904   3.175   4.666
  161SAPE  H20S17997   2.762   3.070   4.638
  161SAPE  H20T17998   2.753   3.248   4.634
  161SAPE   C3317999   2.258   4.371   3.058
  161SAPE   H3X18000   2.151   4.342   3.052
  161SAPE   H3Y18001   2.282   4.438   3.143
  161SAPE   C3418002   2.339   4.241   3.082
  161SAPE   H4X18003   2.445   4.273   3.072
  161SAPE   H4Y18004   2.324   4.157   3.011
  161SAPE   C3518005   2.316   4.172   3.218
  161SAPE   H5X18006   2.318   4.062   3.201
  161SAPE   H5Y18007   2.212   4.175   3.257
  161SAPE   C3618008   2.428   4.203   3.322
  161SAPE   H6X18009   2.419   4.309   3.355
  161SAPE   H6Y18010   2.529   4.174   3.286
  161SAPE   C3718011   2.405   4.115   3.447
  161SAPE   H7X18012   2.402   4.010   3.411
  161SAPE   H7Y18013   2.308   4.138   3.497
  161SAPE   C3818014   2.517   4.147   3.547
  161SAPE   H8X18015   2.530   4.257   3.551
  161SAPE   H8Y18016   2.618   4.108   3.523
  161SAPE   C3918017   2.479   4.105   3.688
  161SAPE   H9X18018   2.379   4.145   3.713
  161SAPE   H9Y18019   2.549   4.143   3.765
  161SAPE  C31018020   2.493   3.956   3.718
  161SAPE  H10X18021   2.600   3.932   3.696
  161SAPE  H10Y18022   2.433   3.902   3.641
  161SAPE  C31118023   2.454   3.929   3.864
  161SAPE  H11X18024   2.403   3.830   3.856
  161SAPE  H11Y18025   2.399   4.023   3.886
  161SAPE  C31218026   2.573   3.928   3.962
  161SAPE  H12X18027   2.625   4.026   3.958
  161SAPE  H12Y18028   2.650   3.861   3.917
  161SAPE  C31318029   2.539   3.882   4.105
  161SAPE  H13X18030   2.444   3.933   4.130
  161SAPE  H13Y18031   2.627   3.920   4.161
  161SAPE  C31418032   2.524   3.734   4.098
  161SAPE  H14X18033   2.607   3.682   4.047
  161SAPE  H14Y18034   2.425   3.706   4.056
  161SAPE  C31518035   2.520   3.656   4.234
  161SAPE  H15X18036   2.440   3.707   4.291
  161SAPE  H15Y18037   2.618   3.672   4.284
  161SAPE  C31618038   2.487   3.502   4.233
  161SAPE  H16X18039   2.584   3.448   4.241
  161SAPE  H16Y18040   2.429   3.474   4.143
  161SAPE  C31718041   2.408   3.456   4.352
  161SAPE  H17X18042   2.409   3.345   4.355
  161SAPE  H17Y18043   2.304   3.483   4.322
  161SAPE  C31818044   2.431   3.508   4.490
  161SAPE  H18X18045   2.541   3.520   4.499
  161SAPE  H18Y18046   2.372   3.453   4.566
  161SAPE  H18Z18047   2.393   3.612   4.496
  162SAPE     N18048   2.538   0.415   2.146
  162SAPE   HN118049   2.451   0.448   2.193
  162SAPE   HN218050   2.576   0.491   2.087
  162SAPE   HN318051   2.526   0.335   2.080
  162SAPE   C1218052   2.659   0.398   2.236
  162SAPE  H12A18053   2.681   0.502   2.269
  162SAPE  H12B18054   2.745   0.354   2.182
  162SAPE   C1118055   2.636   0.304   2.350
  162SAPE  H11A18056   2.539   0.330   2.398
  162SAPE  H11B18057   2.722   0.331   2.416
  162SAPE     P18058   2.637   0.045   2.411
  162SAPE   O1318059   2.526   6.745   2.387
  162SAPE   O1418060   2.768   6.774   2.416
  162SAPE   O1218061   2.637   0.166   2.305
  162SAPE   O1118062   2.618   0.123   2.551
  162SAPE    C118063   2.716   0.113   2.657
  162SAPE    HA18064   2.818   0.147   2.630
  162SAPE    HB18065   2.688   0.186   2.737
  162SAPE    C218066   2.727   6.767   2.728
  162SAPE    HS18067   2.779   6.697   2.659
  162SAPE   O2118068   2.596   6.736   2.781
  162SAPE   C2118069   2.571   6.608   2.790
  162SAPE   O2218070   2.647   6.515   2.751
  162SAPE   C2218071   2.433   6.589   2.854
  162SAPE   H2R18072   2.352   6.654   2.814
  162SAPE   H2S18073   2.402   6.483   2.843
  162SAPE    C318074   2.825   6.779   2.849
  162SAPE    HX18075   2.773   0.051   2.923
  162SAPE    HY18076   2.910   0.049   2.814
  162SAPE   O3118077   2.866   6.653   2.907
  162SAPE   C3118078   2.995   6.620   2.907
  162SAPE   O3218079   3.083   6.682   2.850
  162SAPE   C3218080   3.019   6.494   2.994
  162SAPE   H2X18081   3.127   6.494   3.019
  162SAPE   H2Y18082   2.996   6.416   2.920
  162SAPE   C2318083   2.452   6.636   3.001
  162SAPE   H3R18084   2.358   6.617   3.057
  162SAPE   H3S18085   2.456   6.747   2.999
  162SAPE   C2418086   2.568   6.561   3.069
  162SAPE   H4R18087   2.654   6.621   3.031
  162SAPE   H4S18088   2.567   6.455   3.037
  162SAPE   C2518089   2.572   6.575   3.223
  162SAPE   H5R18090   2.603   6.673   3.261
  162SAPE   C2618091   2.569   6.480   3.316
  162SAPE   H6R18092   2.560   6.514   3.420
  162SAPE   C2718093   2.539   6.335   3.298
  162SAPE   H7R18094   2.563   6.290   3.199
  162SAPE   H7S18095   2.430   6.317   3.312
  162SAPE   C2818096   2.593   6.250   3.412
  162SAPE   H8R18097   2.694   6.208   3.397
  162SAPE   C2918098   2.541   6.229   3.535
  162SAPE   H9R18099   2.606   6.173   3.604
  162SAPE  C21018100   2.403   6.272   3.582
  162SAPE  H10R18101   2.341   6.281   3.490
  162SAPE  H10S18102   2.411   6.371   3.631
  162SAPE  C21118103   2.318   6.186   3.678
  162SAPE  H11R18104   2.258   6.115   3.619
  162SAPE  C21218105   2.321   6.173   3.815
  162SAPE  H12R18106   2.242   6.116   3.866
  162SAPE  C21318107   2.401   6.243   3.914
  162SAPE  H13R18108   2.348   6.232   4.010
  162SAPE  H13S18109   2.401   6.353   3.897
  162SAPE  C21418110   2.549   6.206   3.919
  162SAPE  H14R18111   2.597   6.200   3.820
  162SAPE  C21518112   2.631   6.177   4.025
  162SAPE  H15R18113   2.739   6.176   4.006
  162SAPE  C21618114   2.592   6.180   4.170
  162SAPE  H16R18115   2.492   6.220   4.196
  162SAPE  H16S18116   2.658   6.256   4.217
  162SAPE  C21718117   2.610   6.037   4.242
  162SAPE  H17R18118   2.590   6.047   4.351
  162SAPE  H17S18119   2.713   5.998   4.225
  162SAPE  C21818120   2.513   5.928   4.191
  162SAPE  H18R18121   2.537   5.841   4.256
  162SAPE  H18S18122   2.536   5.894   4.088
  162SAPE  C21918123   2.364   5.969   4.206
  162SAPE  H19R18124   2.299   5.896   4.153
  162SAPE  H19S18125   2.337   6.061   4.150
  162SAPE  C22018126   2.308   5.987   4.347
  162SAPE  H20R18127   2.335   5.895   4.403
  162SAPE  H20S18128   2.198   5.998   4.358
  162SAPE  H20T18129   2.356   6.072   4.402
  162SAPE   C3318130   2.943   6.479   3.125
  162SAPE   H3X18131   2.846   6.431   3.101
  162SAPE   H3Y18132   2.917   6.583   3.156
  162SAPE   C3418133   3.022   6.413   3.237
  162SAPE   H4X18134   3.118   6.463   3.259
  162SAPE   H4Y18135   3.039   6.308   3.203
  162SAPE   C3518136   2.942   6.410   3.370
  162SAPE   H5X18137   2.857   6.341   3.350
  162SAPE   H5Y18138   2.907   6.514   3.386
  162SAPE   C3618139   3.008   6.358   3.498
  162SAPE   H6X18140   3.088   6.428   3.529
  162SAPE   H6Y18141   3.069   6.269   3.472
  162SAPE   C3718142   2.907   6.320   3.613
  162SAPE   H7X18143   2.962   6.281   3.702
  162SAPE   H7Y18144   2.837   6.243   3.574
  162SAPE   C3818145   2.833   6.435   3.670
  162SAPE   H8X18146   2.755   6.402   3.743
  162SAPE   H8Y18147   2.777   6.495   3.595
  162SAPE   C3918148   2.922   6.546   3.729
  162SAPE   H9X18149   2.865   6.640   3.743
  162SAPE   H9Y18150   2.996   6.577   3.652
  162SAPE  C31018151   2.999   6.502   3.849
  162SAPE  H10X18152   3.050   6.592   3.890
  162SAPE  H10Y18153   3.079   6.433   3.816
  162SAPE  C31118154   2.923   6.432   3.966
  162SAPE  H11X18155   2.912   6.324   3.942
  162SAPE  H11Y18156   2.827   6.478   3.996
  162SAPE  C31218157   3.011   6.426   4.093
  162SAPE  H12X18158   2.985   6.523   4.141
  162SAPE  H12Y18159   3.117   6.422   4.063
  162SAPE  C31318160   2.985   6.310   4.190
  162SAPE  H13X18161   2.991   6.215   4.133
  162SAPE  H13Y18162   2.884   6.321   4.234
  162SAPE  C31418163   3.093   6.301   4.310
  162SAPE  H14X18164   3.200   6.299   4.280
  162SAPE  H14Y18165   3.075   6.203   4.359
  162SAPE  C31518166   3.087   6.417   4.406
  162SAPE  H15X18167   2.988   6.432   4.453
  162SAPE  H15Y18168   3.111   6.521   4.374
  162SAPE  C31618169   3.183   6.393   4.524
  162SAPE  H16X18170   3.286   6.394   4.481
  162SAPE  H16Y18171   3.167   6.287   4.552
  162SAPE  C31718172   3.161   6.480   4.648
  162SAPE  H17X18173   3.181   6.583   4.611
  162SAPE  H17Y18174   3.232   6.442   4.724
  162SAPE  C31818175   3.018   6.477   4.719
  162SAPE  H18X18176   3.030   6.502   4.826
  162SAPE  H18Y18177   2.978   6.374   4.712
  162SAPE  H18Z18178   2.950   6.552   4.674
  163SAPE     N18179   2.291   3.092   1.994
  163SAPE   HN118180   2.272   3.193   1.978
  163SAPE   HN218181   2.393   3.073   2.004
  163SAPE   HN318182   2.249   3.043   1.913
  163SAPE   C1218183   2.219   3.059   2.118
  163SAPE  H12A18184   2.250   3.129   2.199
  163SAPE  H12B18185   2.240   2.954   2.147
  163SAPE   C1118186   2.072   3.058   2.097
  163SAPE  H11A18187   2.033   3.030   2.197
  163SAPE  H11B18188   2.035   2.978   2.029
  163SAPE     P18189   1.862   3.207   2.039
  163SAPE   O1318190   1.845   3.347   1.993
  163SAPE   O1418191   1.805   3.104   1.948
  163SAPE   O1218192   2.016   3.179   2.053
  163SAPE   O1118193   1.793   3.184   2.174
  163SAPE    C118194   1.854   3.234   2.287
  163SAPE    HA18195   1.951   3.189   2.318
  163SAPE    HB18196   1.889   3.338   2.274
  163SAPE    C218197   1.748   3.231   2.400
  163SAPE    HS18198   1.718   3.124   2.406
  163SAPE   O2118199   1.633   3.320   2.375
  163SAPE   C2118200   1.511   3.278   2.434
  163SAPE   O2218201   1.505   3.173   2.489
  163SAPE   C2218202   1.404   3.385   2.407
  163SAPE   H2R18203   1.435   3.442   2.317
  163SAPE   H2S18204   1.306   3.338   2.384
  163SAPE    C318205   1.816   3.265   2.529
  163SAPE    HX18206   1.855   3.368   2.516
  163SAPE    HY18207   1.902   3.195   2.542
  163SAPE   O3118208   1.734   3.267   2.641
  163SAPE   C3118209   1.734   3.142   2.709
  163SAPE   O3218210   1.818   3.058   2.690
  163SAPE   C3218211   1.625   3.134   2.809
  163SAPE   H2X18212   1.561   3.051   2.773
  163SAPE   H2Y18213   1.565   3.228   2.802
  163SAPE   C2318214   1.379   3.473   2.533
  163SAPE   H3R18215   1.347   3.412   2.620
  163SAPE   H3S18216   1.294   3.539   2.504
  163SAPE   C2418217   1.515   3.553   2.564
  163SAPE   H4R18218   1.566   3.600   2.477
  163SAPE   H4S18219   1.587   3.489   2.617
  163SAPE   C2518220   1.474   3.658   2.670
  163SAPE   H5R18221   1.431   3.747   2.622
  163SAPE   C2618222   1.459   3.641   2.803
  163SAPE   H6R18223   1.436   3.732   2.861
  163SAPE   C2718224   1.494   3.517   2.882
  163SAPE   H7R18225   1.573   3.549   2.953
  163SAPE   H7S18226   1.546   3.446   2.813
  163SAPE   C2818227   1.380   3.455   2.957
  163SAPE   H8R18228   1.304   3.404   2.895
  163SAPE   C2918229   1.339   3.483   3.078
  163SAPE   H9R18230   1.260   3.418   3.120
  163SAPE  C21018231   1.401   3.575   3.185
  163SAPE  H10R18232   1.510   3.585   3.166
  163SAPE  H10S18233   1.395   3.515   3.279
  163SAPE  C21118234   1.336   3.709   3.200
  163SAPE  H11R18235   1.260   3.738   3.126
  163SAPE  C21218236   1.348   3.787   3.305
  163SAPE  H12R18237   1.286   3.877   3.311
  163SAPE  C21318238   1.437   3.755   3.429
  163SAPE  H13R18239   1.515   3.682   3.397
  163SAPE  H13S18240   1.379   3.710   3.512
  163SAPE  C21418241   1.507   3.870   3.491
  163SAPE  H14R18242   1.582   3.910   3.420
  163SAPE  C21518243   1.478   3.939   3.608
  163SAPE  H15R18244   1.541   4.027   3.631
  163SAPE  C21618245   1.370   3.905   3.712
  163SAPE  H16R18246   1.297   3.842   3.656
  163SAPE  H16S18247   1.314   3.991   3.755
  163SAPE  C21718248   1.417   3.816   3.836
  163SAPE  H17R18249   1.465   3.722   3.803
  163SAPE  H17S18250   1.325   3.791   3.894
  163SAPE  C21818251   1.503   3.884   3.941
  163SAPE  H18R18252   1.443   3.971   3.974
  163SAPE  H18S18253   1.588   3.935   3.891
  163SAPE  C21918254   1.533   3.804   4.071
  163SAPE  H19R18255   1.591   3.711   4.053
  163SAPE  H19S18256   1.431   3.775   4.102
  163SAPE  C22018257   1.601   3.890   4.176
  163SAPE  H20R18258   1.601   3.829   4.269
  163SAPE  H20S18259   1.564   3.991   4.203
  163SAPE  H20T18260   1.708   3.910   4.157
  163SAPE   C3318261   1.670   3.107   2.955
  163SAPE   H3X18262   1.745   3.186   2.977
  163SAPE   H3Y18263   1.723   3.010   2.955
  163SAPE   C3418264   1.548   3.106   3.049
  163SAPE   H4X18265   1.507   3.004   3.064
  163SAPE   H4Y18266   1.467   3.164   2.999
  163SAPE   C3518267   1.576   3.180   3.185
  163SAPE   H5X18268   1.583   3.286   3.154
  163SAPE   H5Y18269   1.675   3.146   3.222
  163SAPE   C3618270   1.458   3.173   3.289
  163SAPE   H6X18271   1.424   3.070   3.313
  163SAPE   H6Y18272   1.372   3.229   3.248
  163SAPE   C3718273   1.480   3.229   3.431
  163SAPE   H7X18274   1.466   3.339   3.422
  163SAPE   H7Y18275   1.580   3.213   3.478
  163SAPE   C3818276   1.394   3.150   3.528
  163SAPE   H8X18277   1.426   3.044   3.519
  163SAPE   H8Y18278   1.288   3.163   3.500
  163SAPE   C3918279   1.412   3.186   3.682
  163SAPE   H9X18280   1.369   3.286   3.699
  163SAPE   H9Y18281   1.520   3.184   3.710
  163SAPE  C31018282   1.342   3.090   3.780
  163SAPE  H10X18283   1.391   2.991   3.792
  163SAPE  H10Y18284   1.241   3.077   3.737
  163SAPE  C31118285   1.319   3.142   3.915
  163SAPE  H11X18286   1.278   3.244   3.902
  163SAPE  H11Y18287   1.417   3.154   3.968
  163SAPE  C31218288   1.240   3.047   4.002
  163SAPE  H12X18289   1.269   2.943   3.978
  163SAPE  H12Y18290   1.135   3.061   3.968
  163SAPE  C31318291   1.254   3.062   4.161
  163SAPE  H13X18292   1.171   3.000   4.201
  163SAPE  H13Y18293   1.235   3.163   4.202
  163SAPE  C31418294   1.383   3.005   4.231
  163SAPE  H14X18295   1.466   3.076   4.210
  163SAPE  H14Y18296   1.409   2.906   4.188
  163SAPE  C31518297   1.374   2.978   4.382
  163SAPE  H15X18298   1.341   3.076   4.424
  163SAPE  H15Y18299   1.476   2.944   4.409
  163SAPE  C31618300   1.289   2.857   4.431
  163SAPE  H16X18301   1.321   2.776   4.361
  163SAPE  H16Y18302   1.181   2.880   4.416
  163SAPE  C31718303   1.290   2.838   4.580
  163SAPE  H17X18304   1.254   2.930   4.631
  163SAPE  H17Y18305   1.394   2.818   4.613
  163SAPE  C31818306   1.179   2.734   4.619
  163SAPE  H18X18307   1.192   2.636   4.569
  163SAPE  H18Y18308   1.088   2.772   4.570
  163SAPE  H18Z18309   1.162   2.743   4.729
  164SAPE     N18310   6.332   3.698   2.076
  164SAPE   HN118311   6.330   3.779   2.011
  164SAPE   HN218312   6.350   3.611   2.021
  164SAPE   HN318313   6.238   3.700   2.119
  164SAPE   C1218314   6.418   3.727   2.187
  164SAPE  H12A18315   6.412   3.648   2.265
  164SAPE  H12B18316   6.390   3.828   2.223
  164SAPE   C1118317   6.565   3.736   2.149
  164SAPE  H11A18318   6.611   3.635   2.139
  164SAPE  H11B18319   6.614   3.779   2.240
  164SAPE     P18320   6.691   3.946   2.035
  164SAPE   O1318321   0.009   3.917   2.134
  164SAPE   O1418322   6.735   3.974   1.898
  164SAPE   O1218323   6.585   3.825   2.035
  164SAPE   O1118324   6.612   4.068   2.097
  164SAPE    C118325   6.578   4.177   2.015
  164SAPE    HA18326   6.582   4.155   1.906
  164SAPE    HB18327   6.476   4.214   2.040
  164SAPE    C218328   6.678   4.297   2.043
  164SAPE    HS18329   6.770   4.257   1.995
  164SAPE   O2118330   6.695   4.308   2.185
  164SAPE   C2118331   6.783   4.401   2.232
  164SAPE   O2218332   0.077   4.460   2.172
  164SAPE   C2218333   6.750   4.432   2.377
  164SAPE   H2R18334   0.040   4.496   2.416
  164SAPE   H2S18335   6.661   4.498   2.373
  164SAPE    C318336   6.637   4.431   1.965
  164SAPE    HX18337   6.608   4.402   1.862
  164SAPE    HY18338   6.729   4.492   1.956
  164SAPE   O3118339   6.514   4.491   2.019
  164SAPE   C3118340   6.534   4.597   2.092
  164SAPE   O3218341   6.643   4.648   2.120
  164SAPE   C3218342   6.401   4.656   2.138
  164SAPE   H2X18343   6.323   4.587   2.098
  164SAPE   H2Y18344   6.387   4.757   2.094
  164SAPE   C2318345   6.720   4.308   2.462
  164SAPE   H3R18346   0.015   4.240   2.461
  164SAPE   H3S18347   6.639   4.250   2.414
  164SAPE   C2418348   6.686   4.349   2.607
  164SAPE   H4R18349   6.618   4.437   2.610
  164SAPE   H4S18350   6.777   4.378   2.664
  164SAPE   C2518351   6.631   4.235   2.685
  164SAPE   H5R18352   6.575   4.157   2.632
  164SAPE   C2618353   6.613   4.242   2.820
  164SAPE   H6R18354   6.574   4.158   2.878
  164SAPE   C2718355   6.658   4.358   2.902
  164SAPE   H7R18356   6.708   4.439   2.845
  164SAPE   H7S18357   6.739   4.320   2.968
  164SAPE   C2818358   6.558   4.415   2.999
  164SAPE   H8R18359   6.502   4.498   2.954
  164SAPE   C2918360   6.538   4.380   3.126
  164SAPE   H9R18361   6.468   4.434   3.191
  164SAPE  C21018362   6.609   4.267   3.208
  164SAPE  H10R18363   6.662   4.332   3.281
  164SAPE  H10S18364   6.703   4.223   3.169
  164SAPE  C21118365   6.530   4.158   3.281
  164SAPE  H11R18366   6.433   4.130   3.238
  164SAPE  C21218367   6.560   4.093   3.395
  164SAPE  H12R18368   6.482   4.024   3.428
  164SAPE  C21318369   6.692   4.106   3.473
  164SAPE  H13R18370   6.670   4.158   3.569
  164SAPE  H13S18371   6.748   4.191   3.430
  164SAPE  C21418372   6.757   3.975   3.498
  164SAPE  H14R18373   6.709   3.906   3.569
  164SAPE  C21518374   0.083   3.938   3.446
  164SAPE  H15R18375   0.134   3.843   3.470
  164SAPE  C21618376   0.170   4.010   3.341
  164SAPE  H16R18377   0.276   3.980   3.347
  164SAPE  H16S18378   0.166   4.121   3.346
  164SAPE  C21718379   0.117   3.962   3.205
  164SAPE  H17R18380   0.010   3.991   3.207
  164SAPE  H17S18381   0.133   3.852   3.193
  164SAPE  C21818382   0.175   4.039   3.081
  164SAPE  H18R18383   0.284   4.020   3.071
  164SAPE  H18S18384   0.154   4.146   3.103
  164SAPE  C21918385   0.107   4.001   2.943
  164SAPE  H19R18386   6.792   4.026   2.952
  164SAPE  H19S18387   0.122   3.891   2.936
  164SAPE  C22018388   0.168   4.066   2.821
  164SAPE  H20R18389   0.107   4.037   2.732
  164SAPE  H20S18390   0.271   4.036   2.791
  164SAPE  H20T18391   0.165   4.177   2.827
  164SAPE   C3318392   6.387   4.659   2.293
  164SAPE   H3X18393   6.309   4.736   2.310
  164SAPE   H3Y18394   6.478   4.699   2.342
  164SAPE   C3418395   6.341   4.524   2.349
  164SAPE   H4X18396   6.406   4.439   2.317
  164SAPE   H4Y18397   6.244   4.504   2.299
  164SAPE   C3518398   6.322   4.520   2.502
  164SAPE   H5X18399   6.258   4.604   2.537
  164SAPE   H5Y18400   6.422   4.535   2.548
  164SAPE   C3618401   6.279   4.377   2.559
  164SAPE   H6X18402   6.358   4.308   2.519
  164SAPE   H6Y18403   6.177   4.350   2.523
  164SAPE   C3718404   6.273   4.382   2.713
  164SAPE   H7X18405   6.369   4.423   2.751
  164SAPE   H7Y18406   6.265   4.282   2.761
  164SAPE   C3818407   6.151   4.463   2.759
  164SAPE   H8X18408   6.067   4.464   2.686
  164SAPE   H8Y18409   6.182   4.569   2.758
  164SAPE   C3918410   6.088   4.420   2.889
  164SAPE   H9X18411   6.052   4.318   2.864
  164SAPE   H9Y18412   6.000   4.483   2.913
  164SAPE  C31018413   6.185   4.407   3.012
  164SAPE  H10X18414   6.207   4.510   3.049
  164SAPE  H10Y18415   6.283   4.363   2.983
  164SAPE  C31118416   6.118   4.336   3.127
  164SAPE  H11X18417   6.105   4.233   3.089
  164SAPE  H11Y18418   6.023   4.386   3.157
  164SAPE  C31218419   6.208   4.349   3.251
  164SAPE  H12X18420   6.224   4.458   3.266
  164SAPE  H12Y18421   6.299   4.295   3.218
  164SAPE  C31318422   6.138   4.283   3.381
  164SAPE  H13X18423   6.106   4.176   3.374
  164SAPE  H13Y18424   6.042   4.334   3.404
  164SAPE  C31418425   6.231   4.301   3.502
  164SAPE  H14X18426   6.330   4.261   3.468
  164SAPE  H14Y18427   6.200   4.238   3.588
  164SAPE  C31518428   6.242   4.448   3.547
  164SAPE  H15X18429   6.136   4.473   3.570
  164SAPE  H15Y18430   6.283   4.507   3.462
  164SAPE  C31618431   6.300   4.472   3.686
  164SAPE  H16X18432   6.248   4.407   3.759
  164SAPE  H16Y18433   6.285   4.579   3.713
  164SAPE  C31718434   6.446   4.436   3.679
  164SAPE  H17X18435   6.457   4.326   3.685
  164SAPE  H17Y18436   6.497   4.479   3.769
  164SAPE  C31818437   6.536   4.493   3.566
  164SAPE  H18X18438   6.504   4.596   3.541
  164SAPE  H18Y18439   6.533   4.426   3.477
  164SAPE  H18Z18440   6.639   4.502   3.608
  165SAPE     N18441   5.925   0.212   2.217
  165SAPE   HN118442   5.825   0.233   2.198
  165SAPE   HN218443   5.977   0.262   2.142
  165SAPE   HN318444   5.928   0.108   2.210
  165SAPE   C1218445   5.983   0.257   2.346
  165SAPE  H12A18446   5.983   0.368   2.337
  165SAPE  H12B18447   6.085   0.214   2.350
  165SAPE   C1118448   5.910   0.213   2.471
  165SAPE  H11A18449   5.965   0.228   2.567
  165SAPE  H11B18450   5.916   0.102   2.469
  165SAPE     P18451   5.650   0.163   2.443
  165SAPE   O1318452   5.535   0.252   2.430
  165SAPE   O1418453   5.680   0.078   2.323
  165SAPE   O1218454   5.771   0.254   2.473
  165SAPE   O1118455   5.640   0.070   2.569
  165SAPE    C118456   5.539   0.095   2.667
  165SAPE    HA18457   5.444   0.120   2.614
  165SAPE    HB18458   5.517   6.793   2.720
  165SAPE    C218459   5.570   0.205   2.769
  165SAPE    HS18460   5.525   0.300   2.735
  165SAPE   O2118461   5.715   0.225   2.780
  165SAPE   C2118462   5.746   0.339   2.845
  165SAPE   O2218463   5.668   0.419   2.890
  165SAPE   C2218464   5.896   0.329   2.886
  165SAPE   H2R18465   5.950   0.345   2.790
  165SAPE   H2S18466   5.914   0.418   2.950
  165SAPE    C318467   5.496   0.178   2.904
  165SAPE    HX18468   5.393   0.147   2.877
  165SAPE    HY18469   5.484   0.270   2.965
  165SAPE   O3118470   5.572   0.086   2.992
  165SAPE   C3118471   5.512   6.767   3.016
  165SAPE   O3218472   5.399   6.734   2.977
  165SAPE   C3218473   5.614   6.676   3.083
  165SAPE   H2X18474   5.710   6.732   3.093
  165SAPE   H2Y18475   5.624   6.583   3.022
  165SAPE   C2318476   5.947   0.206   2.969
  165SAPE   H3R18477   6.033   0.155   2.920
  165SAPE   H3S18478   5.872   0.125   2.959
  165SAPE   C2418479   5.986   0.238   3.117
  165SAPE   H4R18480   6.074   0.304   3.119
  165SAPE   H4S18481   6.024   0.152   3.177
  165SAPE   C2518482   5.873   0.294   3.202
  165SAPE   H5R18483   5.789   0.329   3.141
  165SAPE   C2618484   5.866   0.327   3.334
  165SAPE   H6R18485   5.775   0.360   3.385
  165SAPE   C2718486   5.967   0.288   3.441
  165SAPE   H7R18487   6.018   0.192   3.419
  165SAPE   H7S18488   5.912   0.273   3.536
  165SAPE   C2818489   6.069   0.405   3.448
  165SAPE   H8R18490   6.092   0.454   3.352
  165SAPE   C2918491   6.131   0.437   3.563
  165SAPE   H9R18492   6.188   0.531   3.553
  165SAPE  C21018493   6.115   0.377   3.703
  165SAPE  H10R18494   6.009   0.382   3.735
  165SAPE  H10S18495   6.173   0.437   3.776
  165SAPE  C21118496   6.156   0.234   3.732
  165SAPE  H11R18497   6.148   0.170   3.643
  165SAPE  C21218498   6.176   0.182   3.854
  165SAPE  H12R18499   6.221   0.082   3.868
  165SAPE  C21318500   6.184   0.263   3.982
  165SAPE  H13R18501   6.170   0.372   3.967
  165SAPE  H13S18502   6.287   0.248   4.020
  165SAPE  C21418503   6.075   0.222   4.081
  165SAPE  H14R18504   5.972   0.253   4.057
  165SAPE  C21518505   6.099   0.135   4.186
  165SAPE  H15R18506   6.012   0.098   4.242
  165SAPE  C21618507   6.228   0.091   4.243
  165SAPE  H16R18508   6.301   0.175   4.239
  165SAPE  H16S18509   6.271   0.009   4.182
  165SAPE  C21718510   6.216   0.027   4.384
  165SAPE  H17R18511   6.323   6.791   4.397
  165SAPE  H17S18512   6.150   6.731   4.388
  165SAPE  C21818513   6.176   0.134   4.489
  165SAPE  H18R18514   6.068   0.161   4.481
  165SAPE  H18S18515   6.249   0.218   4.484
  165SAPE  C21918516   6.192   0.085   4.630
  165SAPE  H19R18517   6.177   6.768   4.631
  165SAPE  H19S18518   6.119   0.134   4.698
  165SAPE  C22018519   6.332   0.118   4.689
  165SAPE  H20R18520   6.411   0.086   4.618
  165SAPE  H20S18521   6.357   0.071   4.787
  165SAPE  H20T18522   6.340   0.228   4.703
  165SAPE   C3318523   5.556   6.639   3.221
  165SAPE   H3X18524   5.607   6.570   3.291
  165SAPE   H3Y18525   5.454   6.595   3.211
  165SAPE   C3418526   5.535   6.772   3.299
  165SAPE   H4X18527   5.434   0.019   3.279
  165SAPE   H4Y18528   5.621   0.042   3.268
  165SAPE   C3518529   5.543   6.754   3.451
  165SAPE   H5X18530   5.639   6.709   3.483
  165SAPE   H5Y18531   5.461   6.687   3.486
  165SAPE   C3618532   5.521   0.102   3.519
  165SAPE   H6X18533   5.421   0.148   3.503
  165SAPE   H6Y18534   5.594   0.170   3.471
  165SAPE   C3718535   5.544   0.086   3.666
  165SAPE   H7X18536   5.654   0.070   3.675
  165SAPE   H7Y18537   5.498   6.781   3.694
  165SAPE   C3818538   5.496   0.198   3.761
  165SAPE   H8X18539   5.394   0.162   3.789
  165SAPE   H8Y18540   5.507   0.296   3.709
  165SAPE   C3918541   5.588   0.209   3.886
  165SAPE   H9X18542   5.691   0.240   3.858
  165SAPE   H9Y18543   5.611   0.109   3.928
  165SAPE  C31018544   5.541   0.306   3.993
  165SAPE  H10X18545   5.552   0.409   3.955
  165SAPE  H10Y18546   5.613   0.306   4.078
  165SAPE  C31118547   5.401   0.278   4.046
  165SAPE  H11X18548   5.332   0.235   3.970
  165SAPE  H11Y18549   5.353   0.372   4.080
  165SAPE  C31218550   5.412   0.180   4.165
  165SAPE  H12X18551   5.463   0.233   4.249
  165SAPE  H12Y18552   5.459   0.083   4.135
  165SAPE  C31318553   5.268   0.147   4.210
  165SAPE  H13X18554   5.216   0.088   4.132
  165SAPE  H13Y18555   5.221   0.247   4.224
  165SAPE  C31418556   5.243   0.066   4.339
  165SAPE  H14X18557   5.276   6.754   4.321
  165SAPE  H14Y18558   5.135   0.043   4.351
  165SAPE  C31518559   5.296   0.134   4.473
  165SAPE  H15X18560   5.404   0.145   4.448
  165SAPE  H15Y18561   5.298   0.053   4.550
  165SAPE  C31618562   5.228   0.260   4.521
  165SAPE  H16X18563   5.131   0.226   4.563
  165SAPE  H16Y18564   5.205   0.332   4.440
  165SAPE  C31718565   5.310   0.333   4.629
  165SAPE  H17X18566   5.254   0.418   4.675
  165SAPE  H17Y18567   5.404   0.364   4.579
  165SAPE  C31818568   5.360   0.230   4.739
  165SAPE  H18X18569   5.434   0.156   4.701
  165SAPE  H18Y18570   5.263   0.190   4.777
  165SAPE  H18Z18571   5.413   0.288   4.818
  166SAPE     N18572   0.602   5.188   2.173
  166SAPE   HN118573   0.676   5.206   2.103
  166SAPE   HN218574   0.645   5.127   2.246
  166SAPE   HN318575   0.533   5.124   2.130
  166SAPE   C1218576   0.529   5.310   2.212
  166SAPE  H12A18577   0.553   5.384   2.132
  166SAPE  H12B18578   0.582   5.337   2.306
  166SAPE   C1118579   0.384   5.293   2.228
  166SAPE  H11A18580   0.338   5.388   2.263
  166SAPE  H11B18581   0.358   5.214   2.302
  166SAPE     P18582   0.277   5.364   1.990
  166SAPE   O1318583   0.403   5.397   1.922
  166SAPE   O1418584   0.170   5.304   1.904
  166SAPE   O1218585   0.323   5.255   2.103
  166SAPE   O1118586   0.221   5.487   2.073
  166SAPE    C118587   0.085   5.519   2.098
  166SAPE    HA18588   0.064   5.625   2.072
  166SAPE    HB18589   0.019   5.461   2.030
  166SAPE    C218590   0.039   5.501   2.252
  166SAPE    HS18591   6.747   5.573   2.254
  166SAPE   O2118592   0.136   5.518   2.350
  166SAPE   C2118593   0.185   5.639   2.361
  166SAPE   O2218594   0.139   5.737   2.304
  166SAPE   C2218595   0.296   5.653   2.464
  166SAPE   H2R18596   0.386   5.604   2.420
  166SAPE   H2S18597   0.297   5.762   2.483
  166SAPE    C318598   6.773   5.360   2.282
  166SAPE    HX18599   0.066   5.294   2.304
  166SAPE    HY18600   6.722   5.305   2.200
  166SAPE   O3118601   6.671   5.380   2.382
  166SAPE   C3118602   6.697   5.331   2.506
  166SAPE   O3218603   6.792   5.249   2.528
  166SAPE   C3218604   6.593   5.377   2.605
  166SAPE   H2X18605   6.515   5.299   2.617
  166SAPE   H2Y18606   6.554   5.477   2.579
  166SAPE   C2318607   0.264   5.574   2.593
  166SAPE   H3R18608   0.271   5.464   2.575
  166SAPE   H3S18609   0.163   5.609   2.623
  166SAPE   C2418610   0.351   5.618   2.706
  166SAPE   H4R18611   0.307   5.599   2.806
  166SAPE   H4S18612   0.369   5.727   2.697
  166SAPE   C2518613   0.484   5.542   2.701
  166SAPE   H5R18614   0.523   5.540   2.599
  166SAPE   C2618615   0.548   5.475   2.796
  166SAPE   H6R18616   0.643   5.427   2.767
  166SAPE   C2718617   0.507   5.451   2.938
  166SAPE   H7R18618   0.581   5.376   2.973
  166SAPE   H7S18619   0.404   5.414   2.959
  166SAPE   C2818620   0.552   5.571   3.018
  166SAPE   H8R18621   0.655   5.601   2.993
  166SAPE   C2918622   0.485   5.611   3.126
  166SAPE   H9R18623   0.523   5.705   3.170
  166SAPE  C21018624   0.353   5.555   3.180
  166SAPE  H10R18625   0.368   5.446   3.189
  166SAPE  H10S18626   0.278   5.569   3.100
  166SAPE  C21118627   0.311   5.627   3.307
  166SAPE  H11R18628   0.361   5.581   3.394
  166SAPE  C21218629   0.210   5.722   3.313
  166SAPE  H12R18630   0.187   5.753   3.416
  166SAPE  C21318631   0.133   5.780   3.195
  166SAPE  H13R18632   0.060   5.701   3.167
  166SAPE  H13S18633   0.207   5.783   3.112
  166SAPE  C21418634   0.084   5.917   3.213
  166SAPE  H14R18635   0.134   5.971   3.295
  166SAPE  C21518636   6.777   5.978   3.143
  166SAPE  H15R18637   6.754   6.078   3.182
  166SAPE  C21618638   6.707   5.912   3.024
  166SAPE  H16R18639   6.596   5.912   3.029
  166SAPE  H16S18640   6.739   5.805   3.025
  166SAPE  C21718641   6.741   5.974   2.889
  166SAPE  H17R18642   0.051   5.947   2.856
  166SAPE  H17S18643   6.731   6.083   2.907
  166SAPE  C21818644   6.643   5.942   2.774
  166SAPE  H18R18645   6.652   6.027   2.703
  166SAPE  H18S18646   6.540   5.944   2.815
  166SAPE  C21918647   6.670   5.810   2.697
  166SAPE  H19R18648   6.668   5.723   2.766
  166SAPE  H19S18649   6.778   5.810   2.674
  166SAPE  C22018650   6.570   5.786   2.584
  166SAPE  H20R18651   6.549   5.887   2.543
  166SAPE  H20S18652   6.481   5.746   2.637
  166SAPE  H20T18653   6.608   5.711   2.511
  166SAPE   C3318654   6.673   5.403   2.739
  166SAPE   H3X18655   6.757   5.475   2.733
  166SAPE   H3Y18656   6.715   5.305   2.769
  166SAPE   C3418657   6.575   5.453   2.853
  166SAPE   H4X18658   6.499   5.372   2.857
  166SAPE   H4Y18659   6.527   5.547   2.820
  166SAPE   C3518660   6.636   5.461   2.989
  166SAPE   H5X18661   6.700   5.552   2.996
  166SAPE   H5Y18662   6.694   5.366   2.994
  166SAPE   C3618663   6.550   5.481   3.111
  166SAPE   H6X18664   6.468   5.408   3.119
  166SAPE   H6Y18665   6.495   5.576   3.092
  166SAPE   C3718666   6.631   5.496   3.240
  166SAPE   H7X18667   6.703   5.580   3.231
  166SAPE   H7Y18668   6.692   5.408   3.270
  166SAPE   C3818669   6.544   5.528   3.358
  166SAPE   H8X18670   6.481   5.437   3.367
  166SAPE   H8Y18671   6.476   5.615   3.348
  166SAPE   C3918672   6.619   5.547   3.490
  166SAPE   H9X18673   6.723   5.578   3.470
  166SAPE   H9Y18674   6.645   5.448   3.533
  166SAPE  C31018675   6.551   5.651   3.578
  166SAPE  H10X18676   6.440   5.641   3.571
  166SAPE  H10Y18677   6.581   5.748   3.533
  166SAPE  C31118678   6.602   5.634   3.718
  166SAPE  H11X18679   6.711   5.644   3.701
  166SAPE  H11Y18680   6.574   5.532   3.752
  166SAPE  C31218681   6.550   5.736   3.812
  166SAPE  H12X18682   6.450   5.702   3.846
  166SAPE  H12Y18683   6.547   5.834   3.761
  166SAPE  C31318684   6.645   5.744   3.929
  166SAPE  H13X18685   6.741   5.787   3.892
  166SAPE  H13Y18686   6.661   5.641   3.968
  166SAPE  C31418687   6.587   5.838   4.037
  166SAPE  H14X18688   6.546   5.933   3.996
  166SAPE  H14Y18689   6.667   5.871   4.106
  166SAPE  C31518690   6.483   5.764   4.123
  166SAPE  H15X18691   6.527   5.686   4.189
  166SAPE  H15Y18692   6.399   5.732   4.059
  166SAPE  C31618693   6.430   5.865   4.229
  166SAPE  H16X18694   6.380   5.952   4.182
  166SAPE  H16Y18695   6.516   5.909   4.286
  166SAPE  C31718696   6.334   5.798   4.332
  166SAPE  H17X18697   6.310   5.865   4.417
  166SAPE  H17Y18698   6.380   5.708   4.379
  166SAPE  C31818699   6.200   5.744   4.273
  166SAPE  H18X18700   6.147   5.812   4.203
  166SAPE  H18Y18701   6.124   5.701   4.341
  166SAPE  H18Z18702   6.213   5.660   4.202
  167SAPE     N18703   6.112   3.167   2.124
  167SAPE   HN118704   6.041   3.111   2.174
  167SAPE   HN218705   6.067   3.238   2.062
  167SAPE   HN318706   6.150   3.104   2.051
  167SAPE   C1218707   6.220   3.220   2.210
  167SAPE  H12A18708   6.281   3.132   2.240
  167SAPE  H12B18709   6.160   3.272   2.288
  167SAPE   C1118710   6.304   3.326   2.141
  167SAPE  H11A18711   6.384   3.368   2.205
  167SAPE  H11B18712   6.234   3.407   2.113
  167SAPE     P18713   6.482   3.351   1.945
  167SAPE   O1318714   6.534   3.266   1.834
  167SAPE   O1418715   6.432   3.482   1.908
  167SAPE   O1218716   6.367   3.276   2.026
  167SAPE   O1118717   6.597   3.361   2.061
  167SAPE    C118718   6.656   3.239   2.106
  167SAPE    HA18719   6.589   3.152   2.091
  167SAPE    HB18720   6.750   3.226   2.047
  167SAPE    C218721   6.687   3.256   2.260
  167SAPE    HS18722   6.589   3.256   2.311
  167SAPE   O2118723   6.749   3.383   2.283
  167SAPE   C2118724   6.735   3.439   2.408
  167SAPE   O2218725   6.666   3.392   2.498
  167SAPE   C2218726   0.034   3.563   2.418
  167SAPE   H2R18727   0.136   3.527   2.392
  167SAPE   H2S18728   6.784   3.633   2.343
  167SAPE    C318729   6.773   3.141   2.305
  167SAPE    HX18730   0.073   3.130   2.245
  167SAPE    HY18731   6.715   3.053   2.272
  167SAPE   O3118732   0.022   3.129   2.446
  167SAPE   C3118733   6.735   3.083   2.539
  167SAPE   O3218734   6.651   2.999   2.522
  167SAPE   C3218735   6.757   3.143   2.677
  167SAPE   H2X18736   6.778   3.250   2.657
  167SAPE   H2Y18737   0.054   3.088   2.711
  167SAPE   C2318738   0.021   3.636   2.554
  167SAPE   H3R18739   0.097   3.716   2.559
  167SAPE   H3S18740   0.043   3.575   2.645
  167SAPE   C2418741   6.674   3.702   2.577
  167SAPE   H4R18742   6.595   3.628   2.552
  167SAPE   H4S18743   6.657   3.789   2.510
  167SAPE   C2518744   6.663   3.749   2.717
  167SAPE   H5R18745   6.695   3.853   2.731
  167SAPE   C2618746   6.607   3.682   2.819
  167SAPE   H6R18747   6.626   3.719   2.920
  167SAPE   C2718748   6.552   3.544   2.832
  167SAPE   H7R18749   6.640   3.480   2.854
  167SAPE   H7S18750   6.511   3.505   2.737
  167SAPE   C2818751   6.437   3.527   2.931
  167SAPE   H8R18752   6.338   3.541   2.887
  167SAPE   C2918753   6.447   3.493   3.061
  167SAPE   H9R18754   6.359   3.476   3.125
  167SAPE  C21018755   6.585   3.479   3.132
  167SAPE  H10R18756   6.658   3.469   3.050
  167SAPE  H10S18757   6.587   3.379   3.181
  167SAPE  C21118758   6.629   3.596   3.220
  167SAPE  H11R18759   6.701   3.665   3.173
  167SAPE  C21218760   6.584   3.619   3.341
  167SAPE  H12R18761   6.618   3.713   3.387
  167SAPE  C21318762   6.502   3.536   3.436
  167SAPE  H13R18763   6.523   3.429   3.414
  167SAPE  H13S18764   6.394   3.544   3.411
  167SAPE  C21418765   6.530   3.560   3.587
  167SAPE  H14R18766   6.448   3.610   3.641
  167SAPE  C21518767   6.632   3.510   3.658
  167SAPE  H15R18768   6.628   3.510   3.768
  167SAPE  C21618769   6.751   3.433   3.603
  167SAPE  H16R18770   0.051   3.483   3.636
  167SAPE  H16S18771   6.755   3.430   3.492
  167SAPE  C21718772   6.760   3.278   3.646
  167SAPE  H17R18773   6.761   3.283   3.757
  167SAPE  H17S18774   0.065   3.238   3.614
  167SAPE  C21818775   6.640   3.195   3.604
  167SAPE  H18R18776   6.541   3.236   3.634
  167SAPE  H18S18777   6.650   3.096   3.653
  167SAPE  C21918778   6.643   3.167   3.459
  167SAPE  H19R18779   6.727   3.096   3.442
  167SAPE  H19S18780   6.660   3.261   3.402
  167SAPE  C22018781   6.511   3.119   3.388
  167SAPE  H20R18782   6.453   3.065   3.465
  167SAPE  H20S18783   6.540   3.054   3.303
  167SAPE  H20T18784   6.460   3.213   3.356
  167SAPE   C3318785   6.650   3.116   2.784
  167SAPE   H3X18786   6.633   3.007   2.777
  167SAPE   H3Y18787   6.554   3.161   2.751
  167SAPE   C3418788   6.670   3.173   2.928
  167SAPE   H4X18789   6.576   3.226   2.951
  167SAPE   H4Y18790   6.759   3.240   2.932
  167SAPE   C3518791   6.683   3.064   3.033
  167SAPE   H5X18792   6.640   2.971   2.991
  167SAPE   H5Y18793   6.615   3.091   3.117
  167SAPE   C3618794   0.036   3.040   3.075
  167SAPE   H6X18795   0.074   3.120   3.141
  167SAPE   H6Y18796   0.113   3.031   2.995
  167SAPE   C3718797   0.049   2.912   3.162
  167SAPE   H7X18798   0.058   2.828   3.090
  167SAPE   H7Y18799   6.747   2.907   3.221
  167SAPE   C3818800   0.158   2.901   3.260
  167SAPE   H8X18801   0.172   3.001   3.307
  167SAPE   H8Y18802   0.249   2.879   3.199
  167SAPE   C3918803   0.124   2.796   3.378
  167SAPE   H9X18804   0.090   2.698   3.337
  167SAPE   H9Y18805   0.046   2.845   3.441
  167SAPE  C31018806   0.236   2.769   3.477
  167SAPE  H10X18807   0.294   2.862   3.493
  167SAPE  H10Y18808   0.298   2.697   3.419
  167SAPE  C31118809   0.180   2.697   3.605
  167SAPE  H11X18810   0.231   2.599   3.598
  167SAPE  H11Y18811   0.070   2.688   3.599
  167SAPE  C31218812   0.220   2.775   3.730
  167SAPE  H12X18813   0.330   2.788   3.730
  167SAPE  H12Y18814   0.196   2.710   3.817
  167SAPE  C31318815   0.144   2.906   3.747
  167SAPE  H13X18816   0.037   2.883   3.765
  167SAPE  H13Y18817   0.149   2.953   3.646
  167SAPE  C31418818   0.209   2.992   3.850
  167SAPE  H14X18819   0.151   3.085   3.866
  167SAPE  H14Y18820   0.305   3.035   3.813
  167SAPE  C31518821   0.213   2.923   3.986
  167SAPE  H15X18822   0.294   2.848   4.000
  167SAPE  H15Y18823   0.109   2.884   3.998
  167SAPE  C31618824   0.237   3.026   4.108
  167SAPE  H16X18825   0.161   3.107   4.113
  167SAPE  H16Y18826   0.332   3.081   4.094
  167SAPE  C31718827   0.235   2.960   4.244
  167SAPE  H17X18828   0.317   2.885   4.258
  167SAPE  H17Y18829   0.137   2.909   4.255
  167SAPE  C31818830   0.266   3.057   4.359
  167SAPE  H18X18831   0.184   3.133   4.360
  167SAPE  H18Y18832   0.372   3.089   4.349
  167SAPE  H18Z18833   0.246   2.992   4.448
  168SAPE     N18834   2.438   5.845   2.392
  168SAPE   HN118835   2.340   5.871   2.368
  168SAPE   HN218836   2.488   5.936   2.382
  168SAPE   HN318837   2.469   5.785   2.313
  168SAPE   C1218838   2.433   5.784   2.529
  168SAPE  H12A18839   2.413   5.870   2.597
  168SAPE  H12B18840   2.536   5.746   2.543
  168SAPE   C1118841   2.324   5.670   2.530
  168SAPE  H11A18842   2.219   5.705   2.526
  168SAPE  H11B18843   2.328   5.630   2.634
  168SAPE     P18844   2.379   5.435   2.419
  168SAPE   O1318845   2.266   5.347   2.380
  168SAPE   O1418846   2.502   5.413   2.335
  168SAPE   O1218847   2.342   5.577   2.422
  168SAPE   O1118848   2.412   5.397   2.575
  168SAPE    C118849   2.548   5.418   2.619
  168SAPE    HA18850   2.605   5.333   2.577
  168SAPE    HB18851   2.584   5.515   2.578
  168SAPE    C218852   2.540   5.433   2.775
  168SAPE    HS18853   2.503   5.536   2.795
  168SAPE   O2118854   2.678   5.413   2.823
  168SAPE   C2118855   2.760   5.507   2.790
  168SAPE   O2218856   2.721   5.615   2.752
  168SAPE   C2218857   2.904   5.466   2.827
  168SAPE   H2R18858   2.907   5.385   2.904
  168SAPE   H2S18859   2.940   5.413   2.736
  168SAPE    C318860   2.446   5.333   2.847
  168SAPE    HX18861   2.444   5.230   2.805
  168SAPE    HY18862   2.343   5.371   2.829
  168SAPE   O3118863   2.465   5.325   2.992
  168SAPE   C3118864   2.403   5.410   3.067
  168SAPE   O3218865   2.319   5.498   3.037
  168SAPE   C3218866   2.427   5.368   3.214
  168SAPE   H2X18867   2.508   5.431   3.257
  168SAPE   H2Y18868   2.460   5.264   3.232
  168SAPE   C2318869   2.985   5.593   2.854
  168SAPE   H3R18870   2.975   5.667   2.772
  168SAPE   H3S18871   3.089   5.561   2.874
  168SAPE   C2418872   2.926   5.668   2.978
  168SAPE   H4R18873   2.826   5.714   2.969
  168SAPE   H4S18874   2.996   5.753   2.995
  168SAPE   C2518875   2.944   5.573   3.091
  168SAPE   H5R18876   2.847   5.528   3.119
  168SAPE   C2618877   3.054   5.550   3.159
  168SAPE   H6R18878   3.056   5.462   3.225
  168SAPE   C2718879   3.192   5.603   3.130
  168SAPE   H7R18880   3.199   5.712   3.110
  168SAPE   H7S18881   3.212   5.555   3.032
  168SAPE   C2818882   3.293   5.557   3.230
  168SAPE   H8R18883   3.314   5.450   3.242
  168SAPE   C2918884   3.351   5.638   3.316
  168SAPE   H9R18885   3.411   5.587   3.392
  168SAPE  C21018886   3.335   5.793   3.332
  168SAPE  H10R18887   3.346   5.828   3.437
  168SAPE  H10S18888   3.231   5.818   3.301
  168SAPE  C21118889   3.427   5.876   3.246
  168SAPE  H11R18890   3.451   5.828   3.150
  168SAPE  C21218891   3.487   5.991   3.276
  168SAPE  H12R18892   3.541   6.036   3.192
  168SAPE  C21318893   3.479   6.066   3.408
  168SAPE  H13R18894   3.578   6.113   3.428
  168SAPE  H13S18895   3.469   6.000   3.497
  168SAPE  C21418896   3.369   6.172   3.419
  168SAPE  H14R18897   3.273   6.149   3.468
  168SAPE  C21518898   3.371   6.300   3.374
  168SAPE  H15R18899   3.289   6.372   3.386
  168SAPE  C21618900   3.479   6.351   3.283
  168SAPE  H16R18901   3.579   6.307   3.301
  168SAPE  H16S18902   3.497   6.458   3.309
  168SAPE  C21718903   3.449   6.332   3.124
  168SAPE  H17R18904   3.355   6.387   3.108
  168SAPE  H17S18905   3.439   6.223   3.105
  168SAPE  C21818906   3.567   6.362   3.029
  168SAPE  H18R18907   3.663   6.315   3.059
  168SAPE  H18S18908   3.595   6.469   3.025
  168SAPE  C21918909   3.528   6.317   2.881
  168SAPE  H19R18910   3.513   6.207   2.884
  168SAPE  H19S18911   3.602   6.349   2.804
  168SAPE  C22018912   3.382   6.347   2.832
  168SAPE  H20R18913   3.355   6.323   2.727
  168SAPE  H20S18914   3.345   6.448   2.857
  168SAPE  H20T18915   3.314   6.280   2.888
  168SAPE   C3318916   2.300   5.407   3.301
  168SAPE   H3X18917   2.214   5.353   3.255
  168SAPE   H3Y18918   2.287   5.517   3.304
  168SAPE   C3418919   2.322   5.347   3.442
  168SAPE   H4X18920   2.408   5.381   3.503
  168SAPE   H4Y18921   2.346   5.240   3.423
  168SAPE   C3518922   2.203   5.357   3.540
  168SAPE   H5X18923   2.119   5.301   3.492
  168SAPE   H5Y18924   2.175   5.463   3.557
  168SAPE   C3618925   2.231   5.289   3.672
  168SAPE   H6X18926   2.332   5.314   3.711
  168SAPE   H6Y18927   2.209   5.181   3.662
  168SAPE   C3718928   2.130   5.340   3.782
  168SAPE   H7X18929   2.022   5.337   3.752
  168SAPE   H7Y18930   2.169   5.440   3.809
  168SAPE   C3818931   2.141   5.260   3.911
  168SAPE   H8X18932   2.249   5.239   3.923
  168SAPE   H8Y18933   2.096   5.159   3.896
  168SAPE   C3918934   2.101   5.339   4.035
  168SAPE   H9X18935   1.995   5.373   4.034
  168SAPE   H9Y18936   2.161   5.432   4.045
  168SAPE  C31018937   2.123   5.251   4.157
  168SAPE  H10X18938   2.231   5.223   4.148
  168SAPE  H10Y18939   2.059   5.160   4.152
  168SAPE  C31118940   2.092   5.330   4.292
  168SAPE  H11X18941   1.983   5.314   4.305
  168SAPE  H11Y18942   2.121   5.436   4.277
  168SAPE  C31218943   2.154   5.267   4.416
  168SAPE  H12X18944   2.230   5.194   4.380
  168SAPE  H12Y18945   2.086   5.212   4.484
  168SAPE  C31318946   2.220   5.383   4.495
  168SAPE  H13X18947   2.221   5.346   4.600
  168SAPE  H13Y18948   2.159   5.476   4.493
  168SAPE  C31418949   2.367   5.406   4.446
  168SAPE  H14X18950   2.366   5.423   4.336
  168SAPE  H14Y18951   2.429   5.315   4.456
  168SAPE  C31518952   2.429   5.523   4.515
  168SAPE  H15X18953   2.444   5.490   4.620
  168SAPE  H15Y18954   2.367   5.616   4.518
  168SAPE  C31618955   2.550   5.584   4.441
  168SAPE  H16X18956   2.523   5.644   4.351
  168SAPE  H16Y18957   2.615   5.502   4.403
  168SAPE  C31718958   2.639   5.677   4.530
  168SAPE  H17X18959   2.661   5.632   4.629
  168SAPE  H17Y18960   2.575   5.763   4.561
  168SAPE  C31818961   2.765   5.734   4.466
  168SAPE  H18X18962   2.832   5.765   4.549
  168SAPE  H18Y18963   2.751   5.817   4.394
  168SAPE  H18Z18964   2.797   5.650   4.401
  169SAPE     N18965   6.013   2.922   1.793
  169SAPE   HN118966   5.961   3.012   1.802
  169SAPE   HN218967   5.956   2.865   1.728
  169SAPE   HN318968   5.999   2.874   1.884
  169SAPE   C1218969   6.151   2.944   1.744
  169SAPE  H12A18970   6.151   2.992   1.643
  169SAPE  H12B18971   6.194   2.844   1.722
  169SAPE   C1118972   6.228   3.035   1.838
  169SAPE  H11A18973   6.173   3.131   1.828
  169SAPE  H11B18974   6.333   3.038   1.804
  169SAPE     P18975   6.300   2.854   2.020
  169SAPE   O1318976   6.215   2.735   2.022
  169SAPE   O1418977   6.429   2.852   1.942
  169SAPE   O1218978   6.218   2.972   1.971
  169SAPE   O1118979   6.339   2.894   2.164
  169SAPE    C118980   6.470   2.856   2.216
  169SAPE    HA18981   6.554   2.851   2.144
  169SAPE    HB18982   6.494   2.942   2.281
  169SAPE    C218983   6.465   2.724   2.293
  169SAPE    HS18984   6.411   2.653   2.227
  169SAPE   O2118985   6.387   2.720   2.416
  169SAPE   C2118986   6.320   2.611   2.433
  169SAPE   O2218987   6.312   2.509   2.366
  169SAPE   C2218988   6.263   2.613   2.576
  169SAPE   H2R18989   6.154   2.598   2.560
  169SAPE   H2S18990   6.305   2.531   2.639
  169SAPE    C318991   6.606   2.671   2.326
  169SAPE    HX18992   6.649   2.753   2.388
  169SAPE    HY18993   6.659   2.671   2.228
  169SAPE   O3118994   6.601   2.549   2.397
  169SAPE   C3118995   6.594   2.436   2.337
  169SAPE   O3218996   6.575   2.423   2.216
  169SAPE   C3218997   6.591   2.322   2.439
  169SAPE   H2X18998   6.629   2.229   2.390
  169SAPE   H2Y18999   6.485   2.308   2.468
  169SAPE   C2319000   6.283   2.741   2.661
  169SAPE   H3R19001   6.217   2.727   2.749
  169SAPE   H3S19002   6.255   2.835   2.610
  169SAPE   C2419003   6.424   2.756   2.724
  169SAPE   H4R19004   6.485   2.795   2.639
  169SAPE   H4S19005   6.465   2.657   2.752
  169SAPE   C2519006   6.424   2.844   2.848
  169SAPE   H5R19007   6.454   2.948   2.829
  169SAPE   C2619008   6.406   2.798   2.974
  169SAPE   H6R19009   6.414   2.867   3.059
  169SAPE   C2719010   6.357   2.653   3.003
  169SAPE   H7R19011   6.321   2.598   2.914
  169SAPE   H7S19012   6.286   2.639   3.087
  169SAPE   C2819013   6.480   2.579   3.053
  169SAPE   H8R19014   6.537   2.555   2.962
  169SAPE   C2919015   6.530   2.559   3.178
  169SAPE   H9R19016   6.628   2.509   3.181
  169SAPE  C21019017   6.488   2.605   3.314
  169SAPE  H10R19018   6.479   2.521   3.387
  169SAPE  H10S19019   6.381   2.632   3.304
  169SAPE  C21119020   6.561   2.720   3.363
  169SAPE  H11R19021   6.642   2.756   3.298
  169SAPE  C21219022   6.535   2.791   3.473
  169SAPE  H12R19023   6.613   2.862   3.502
  169SAPE  C21319024   6.419   2.761   3.569
  169SAPE  H13R19025   6.348   2.690   3.522
  169SAPE  H13S19026   6.359   2.851   3.595
  169SAPE  C21419027   6.483   2.686   3.683
  169SAPE  H14R19028   6.497   2.579   3.663
  169SAPE  C21519029   6.504   2.740   3.807
  169SAPE  H15R19030   6.519   2.666   3.887
  169SAPE  C21619031   6.473   2.877   3.850
  169SAPE  H16R19032   6.426   2.934   3.767
  169SAPE  H16S19033   6.571   2.922   3.874
  169SAPE  C21719034   6.397   2.884   3.983
  169SAPE  H17R19035   6.453   2.832   4.063
  169SAPE  H17S19036   6.309   2.819   3.963
  169SAPE  C21819037   6.339   3.018   4.040
  169SAPE  H18R19038   6.321   3.091   3.958
  169SAPE  H18S19039   6.429   3.051   4.096
  169SAPE  C21919040   6.228   2.999   4.145
  169SAPE  H19R19041   6.245   2.913   4.213
  169SAPE  H19S19042   6.142   2.972   4.081
  169SAPE  C22019043   6.186   3.120   4.231
  169SAPE  H20R19044   6.278   3.168   4.269
  169SAPE  H20S19045   6.122   3.096   4.319
  169SAPE  H20T19046   6.133   3.197   4.170
  169SAPE   C3319047   6.669   2.350   2.576
  169SAPE   H3X19048   6.632   2.443   2.624
  169SAPE   H3Y19049   6.778   2.355   2.553
  169SAPE   C3419050   6.665   2.238   2.687
  169SAPE   H4X19051   6.769   2.200   2.684
  169SAPE   H4Y19052   6.599   2.152   2.663
  169SAPE   C3519053   6.640   2.279   2.828
  169SAPE   H5X19054   6.553   2.348   2.834
  169SAPE   H5Y19055   6.735   2.329   2.858
  169SAPE   C3619056   6.620   2.168   2.933
  169SAPE   H6X19057   6.517   2.129   2.925
  169SAPE   H6Y19058   6.623   2.210   3.036
  169SAPE   C3719059   6.707   2.044   2.927
  169SAPE   H7X19060   0.009   2.094   2.896
  169SAPE   H7Y19061   6.671   1.974   2.849
  169SAPE   C3819062   6.715   1.963   3.053
  169SAPE   H8X19063   6.675   1.863   3.026
  169SAPE   H8Y19064   6.646   2.009   3.127
  169SAPE   C3919065   0.064   1.958   3.105
  169SAPE   H9X19066   0.115   2.054   3.126
  169SAPE   H9Y19067   0.131   1.911   3.031
  169SAPE  C31019068   0.055   1.886   3.242
  169SAPE  H10X19069   0.040   1.776   3.233
  169SAPE  H10Y19070   6.759   1.915   3.304
  169SAPE  C31119071   0.169   1.928   3.342
  169SAPE  H11X19072   0.150   2.037   3.346
  169SAPE  H11Y19073   0.270   1.925   3.298
  169SAPE  C31219074   0.155   1.851   3.474
  169SAPE  H12X19075   0.197   1.749   3.469
  169SAPE  H12Y19076   0.048   1.847   3.503
  169SAPE  C31319077   0.233   1.912   3.589
  169SAPE  H13X19078   0.198   2.015   3.608
  169SAPE  H13Y19079   0.340   1.922   3.560
  169SAPE  C31419080   0.232   1.835   3.725
  169SAPE  H14X19081   0.281   1.739   3.697
  169SAPE  H14Y19082   0.128   1.807   3.753
  169SAPE  C31519083   0.316   1.896   3.836
  169SAPE  H15X19084   0.415   1.930   3.802
  169SAPE  H15Y19085   0.323   1.816   3.913
  169SAPE  C31619086   0.238   2.020   3.901
  169SAPE  H16X19087   0.135   1.987   3.929
  169SAPE  H16Y19088   0.222   2.096   3.821
  169SAPE  C31719089   0.333   2.083   4.012
  169SAPE  H17X19090   0.299   2.183   4.047
  169SAPE  H17Y19091   0.438   2.096   3.977
  169SAPE  C31819092   0.346   1.994   4.138
  169SAPE  H18X19093   0.246   1.958   4.170
  169SAPE  H18Y19094   0.404   2.052   4.213
  169SAPE  H18Z19095   0.403   1.900   4.122
  170SAPE     N19096   0.463   3.990   1.722
  170SAPE   HN119097   0.554   4.008   1.769
  170SAPE   HN219098   0.457   4.063   1.649
  170SAPE   HN319099   0.384   4.000   1.789
  170SAPE   C1219100   0.450   3.855   1.653
  170SAPE  H12A19101   0.541   3.836   1.593
  170SAPE  H12B19102   0.364   3.861   1.583
  170SAPE   C1119103   0.429   3.735   1.750
  170SAPE  H11A19104   0.399   3.655   1.679
  170SAPE  H11B19105   0.352   3.751   1.829
  170SAPE     P19106   0.574   3.557   1.884
  170SAPE   O1319107   0.460   3.470   1.848
  170SAPE   O1419108   0.711   3.519   1.835
  170SAPE   O1219109   0.550   3.700   1.824
  170SAPE   O1119110   0.587   3.579   2.044
  170SAPE    C119111   0.497   3.683   2.094
  170SAPE    HA19112   0.545   3.781   2.073
  170SAPE    HB19113   0.396   3.682   2.048
  170SAPE    C219114   0.467   3.653   2.247
  170SAPE    HS19115   0.565   3.675   2.296
  170SAPE   O2119116   0.424   3.520   2.258
  170SAPE   C2119117   0.494   3.435   2.331
  170SAPE   O2219118   0.592   3.461   2.397
  170SAPE   C2219119   0.435   3.300   2.305
  170SAPE   H2R19120   0.326   3.303   2.284
  170SAPE   H2S19121   0.499   3.259   2.223
  170SAPE    C319122   0.372   3.759   2.304
  170SAPE    HX19123   0.275   3.764   2.251
  170SAPE    HY19124   0.399   3.866   2.294
  170SAPE   O3119125   0.342   3.740   2.441
  170SAPE   C3119126   0.431   3.788   2.532
  170SAPE   O3219127   0.534   3.843   2.504
  170SAPE   C3219128   0.371   3.761   2.672
  170SAPE   H2X19129   0.351   3.653   2.682
  170SAPE   H2Y19130   0.276   3.819   2.683
  170SAPE   C2319131   0.449   3.217   2.437
  170SAPE   H3R19132   0.552   3.195   2.474
  170SAPE   H3S19133   0.410   3.117   2.410
  170SAPE   C2419134   0.350   3.256   2.548
  170SAPE   H4R19135   0.251   3.261   2.497
  170SAPE   H4S19136   0.378   3.357   2.583
  170SAPE   C2519137   0.350   3.152   2.658
  170SAPE   H5R19138   0.325   3.052   2.620
  170SAPE   C2619139   0.342   3.175   2.794
  170SAPE   H6R19140   0.353   3.095   2.869
  170SAPE   C2719141   0.345   3.308   2.873
  170SAPE   H7R19142   0.424   3.373   2.830
  170SAPE   H7S19143   0.380   3.293   2.978
  170SAPE   C2819144   0.212   3.386   2.874
  170SAPE   H8R19145   0.161   3.395   2.777
  170SAPE   C2919146   0.161   3.448   2.987
  170SAPE   H9R19147   0.069   3.504   2.965
  170SAPE  C21019148   0.223   3.468   3.122
  170SAPE  H10R19149   0.195   3.567   3.162
  170SAPE  H10S19150   0.334   3.466   3.117
  170SAPE  C21119151   0.151   3.366   3.220
  170SAPE  H11R19152   0.042   3.348   3.210
  170SAPE  C21219153   0.209   3.307   3.325
  170SAPE  H12R19154   0.158   3.239   3.395
  170SAPE  C21319155   0.351   3.318   3.368
  170SAPE  H13R19156   0.368   3.420   3.410
  170SAPE  H13S19157   0.416   3.307   3.279
  170SAPE  C21419158   0.405   3.218   3.470
  170SAPE  H14R19159   0.456   3.130   3.427
  170SAPE  C21519160   0.396   3.241   3.605
  170SAPE  H15R19161   0.450   3.170   3.669
  170SAPE  C21619162   0.334   3.363   3.668
  170SAPE  H16R19163   0.232   3.332   3.699
  170SAPE  H16S19164   0.309   3.442   3.594
  170SAPE  C21719165   0.415   3.427   3.777
  170SAPE  H17R19166   0.380   3.529   3.804
  170SAPE  H17S19167   0.520   3.452   3.752
  170SAPE  C21819168   0.428   3.338   3.902
  170SAPE  H18R19169   0.487   3.252   3.865
  170SAPE  H18S19170   0.325   3.318   3.940
  170SAPE  C21919171   0.505   3.412   4.020
  170SAPE  H19R19172   0.449   3.497   4.063
  170SAPE  H19S19173   0.595   3.448   3.966
  170SAPE  C22019174   0.546   3.318   4.137
  170SAPE  H20R19175   0.609   3.372   4.210
  170SAPE  H20S19176   0.601   3.232   4.092
  170SAPE  H20T19177   0.456   3.281   4.190
  170SAPE   C3319178   0.466   3.796   2.783
  170SAPE   H3X19179   0.490   3.905   2.779
  170SAPE   H3Y19180   0.563   3.743   2.768
  170SAPE   C3419181   0.409   3.779   2.922
  170SAPE   H4X19182   0.325   3.706   2.920
  170SAPE   H4Y19183   0.360   3.876   2.944
  170SAPE   C3519184   0.501   3.742   3.039
  170SAPE   H5X19185   0.603   3.787   3.033
  170SAPE   H5Y19186   0.519   3.633   3.045
  170SAPE   C3619187   0.444   3.788   3.177
  170SAPE   H6X19188   0.344   3.741   3.180
  170SAPE   H6Y19189   0.440   3.899   3.186
  170SAPE   C3719190   0.532   3.752   3.301
  170SAPE   H7X19191   0.625   3.811   3.290
  170SAPE   H7Y19192   0.556   3.644   3.303
  170SAPE   C3819193   0.477   3.792   3.434
  170SAPE   H8X19194   0.379   3.744   3.458
  170SAPE   H8Y19195   0.469   3.903   3.433
  170SAPE   C3919196   0.560   3.767   3.560
  170SAPE   H9X19197   0.660   3.810   3.538
  170SAPE   H9Y19198   0.582   3.659   3.572
  170SAPE  C31019199   0.500   3.802   3.696
  170SAPE  H10X19200   0.412   3.736   3.709
  170SAPE  H10Y19201   0.471   3.908   3.707
  170SAPE  C31119202   0.598   3.769   3.813
  170SAPE  H11X19203   0.701   3.803   3.787
  170SAPE  H11Y19204   0.607   3.659   3.821
  170SAPE  C31219205   0.553   3.824   3.944
  170SAPE  H12X19206   0.456   3.775   3.967
  170SAPE  H12Y19207   0.535   3.933   3.942
  170SAPE  C31319208   0.648   3.795   4.059
  170SAPE  H13X19209   0.740   3.855   4.042
  170SAPE  H13Y19210   0.689   3.693   4.039
  170SAPE  C31419211   0.597   3.817   4.202
  170SAPE  H14X19212   0.494   3.775   4.205
  170SAPE  H14Y19213   0.602   3.928   4.206
  170SAPE  C31519214   0.695   3.769   4.312
  170SAPE  H15X19215   0.799   3.805   4.294
  170SAPE  H15Y19216   0.702   3.658   4.321
  170SAPE  C31619217   0.659   3.816   4.455
  170SAPE  H16X19218   0.709   3.746   4.526
  170SAPE  H16Y19219   0.548   3.819   4.457
  170SAPE  C31719220   0.697   3.961   4.484
  170SAPE  H17X19221   0.696   4.020   4.390
  170SAPE  H17Y19222   0.801   3.959   4.523
  170SAPE  C31819223   0.608   4.042   4.580
  170SAPE  H18X19224   0.628   4.007   4.684
  170SAPE  H18Y19225   0.500   4.024   4.560
  170SAPE  H18Z19226   0.627   4.151   4.570
  171SAPE     N19227   0.529   3.000   1.860
  171SAPE   HN119228   0.548   3.074   1.789
  171SAPE   HN219229   0.558   2.905   1.832
  171SAPE   HN319230   0.426   2.992   1.873
  171SAPE   C1219231   0.600   3.040   1.988
  171SAPE  H12A19232   0.578   3.148   1.999
  171SAPE  H12B19233   0.708   3.016   1.978
  171SAPE   C1119234   0.548   2.974   2.109
  171SAPE  H11A19235   0.454   3.021   2.146
  171SAPE  H11B19236   0.624   2.983   2.190
  171SAPE     P19237   0.381   2.784   2.066
  171SAPE   O1319238   0.305   2.868   1.976
  171SAPE   O1419239   0.390   2.642   2.029
  171SAPE   O1219240   0.527   2.831   2.078
  171SAPE   O1119241   0.316   2.797   2.206
  171SAPE    C119242   0.388   2.786   2.329
  171SAPE    HA19243   0.463   2.705   2.314
  171SAPE    HB19244   0.427   2.886   2.357
  171SAPE    C219245   0.308   2.729   2.456
  171SAPE    HS19246   0.373   2.740   2.545
  171SAPE   O2119247   0.278   2.589   2.426
  171SAPE   C2119248   0.309   2.506   2.528
  171SAPE   O2219249   0.355   2.536   2.634
  171SAPE   C2219250   0.287   2.362   2.485
  171SAPE   H2R19251   0.197   2.345   2.423
  171SAPE   H2S19252   0.380   2.333   2.432
  171SAPE    C319253   0.178   2.810   2.480
  171SAPE    HX19254   0.133   2.811   2.378
  171SAPE    HY19255   0.202   2.915   2.505
  171SAPE   O3119256   0.094   2.749   2.580
  171SAPE   C3119257   0.113   2.778   2.704
  171SAPE   O3219258   0.201   2.856   2.740
  171SAPE   C3219259   0.016   2.707   2.798
  171SAPE   H2X19260   6.719   2.669   2.744
  171SAPE   H2Y19261   6.777   2.787   2.869
  171SAPE   C2319262   0.295   2.262   2.607
  171SAPE   H3R19263   0.203   2.280   2.666
  171SAPE   H3S19264   0.394   2.285   2.651
  171SAPE   C2419265   0.291   2.114   2.568
  171SAPE   H4R19266   0.296   2.049   2.658
  171SAPE   H4S19267   0.390   2.086   2.527
  171SAPE   C2519268   0.169   2.071   2.483
  171SAPE   H5R19269   0.173   2.109   2.380
  171SAPE   C2619270   0.081   1.977   2.511
  171SAPE   H6R19271   0.006   1.961   2.432
  171SAPE   C2719272   0.073   1.901   2.644
  171SAPE   H7R19273   6.756   1.886   2.655
  171SAPE   H7S19274   0.104   1.966   2.729
  171SAPE   C2819275   0.122   1.763   2.642
  171SAPE   H8R19276   0.192   1.744   2.560
  171SAPE   C2919277   0.104   1.665   2.729
  171SAPE   H9R19278   0.163   1.573   2.724
  171SAPE  C21019279   0.019   1.663   2.856
  171SAPE  H10R19280   0.003   1.767   2.893
  171SAPE  H10S19281   0.075   1.615   2.939
  171SAPE  C21119282   6.673   1.595   2.856
  171SAPE  H11R19283   6.620   1.595   2.759
  171SAPE  C21219284   6.597   1.564   2.959
  171SAPE  H12R19285   6.494   1.532   2.937
  171SAPE  C21319286   6.634   1.568   3.105
  171SAPE  H13R19287   6.573   1.641   3.163
  171SAPE  H13S19288   6.733   1.617   3.115
  171SAPE  C21419289   6.651   1.439   3.180
  171SAPE  H14R19290   6.682   1.354   3.117
  171SAPE  C21519291   6.636   1.423   3.314
  171SAPE  H15R19292   6.669   1.326   3.353
  171SAPE  C21619293   6.618   1.532   3.408
  171SAPE  H16R19294   6.508   1.537   3.420
  171SAPE  H16S19295   6.647   1.632   3.369
  171SAPE  C21719296   6.684   1.509   3.549
  171SAPE  H17R19297   0.002   1.502   3.546
  171SAPE  H17S19298   6.634   1.421   3.595
  171SAPE  C21819299   6.650   1.629   3.639
  171SAPE  H18R19300   6.541   1.651   3.634
  171SAPE  H18S19301   6.710   1.704   3.584
  171SAPE  C21919302   6.704   1.610   3.778
  171SAPE  H19R19303   0.018   1.591   3.755
  171SAPE  H19S19304   6.645   1.527   3.823
  171SAPE  C22019305   6.679   1.733   3.864
  171SAPE  H20R19306   6.576   1.748   3.902
  171SAPE  H20S19307   6.690   1.822   3.797
  171SAPE  H20T19308   6.754   1.739   3.946
  171SAPE   C3319309   0.084   2.586   2.867
  171SAPE   H3X19310   0.122   2.519   2.787
  171SAPE   H3Y19311   0.006   2.532   2.925
  171SAPE   C3419312   0.200   2.611   2.966
  171SAPE   H4X19313   0.167   2.668   3.056
  171SAPE   H4Y19314   0.271   2.684   2.923
  171SAPE   C3519315   0.278   2.486   3.015
  171SAPE   H5X19316   0.357   2.526   3.082
  171SAPE   H5Y19317   0.307   2.437   2.920
  171SAPE   C3619318   0.193   2.390   3.100
  171SAPE   H6X19319   0.248   2.294   3.093
  171SAPE   H6Y19320   0.093   2.374   3.055
  171SAPE   C3719321   0.170   2.449   3.235
  171SAPE   H7X19322   0.104   2.538   3.226
  171SAPE   H7Y19323   0.261   2.485   3.288
  171SAPE   C3819324   0.096   2.341   3.316
  171SAPE   H8X19325   0.163   2.253   3.315
  171SAPE   H8Y19326   6.793   2.309   3.271
  171SAPE   C3919327   0.063   2.391   3.457
  171SAPE   H9X19328   6.786   2.477   3.451
  171SAPE   H9Y19329   0.152   2.431   3.510
  171SAPE  C31019330   6.765   2.285   3.526
  171SAPE  H10X19331   0.038   2.195   3.521
  171SAPE  H10Y19332   6.678   2.265   3.460
  171SAPE  C31119333   6.717   2.319   3.663
  171SAPE  H11X19334   6.675   2.422   3.656
  171SAPE  H11Y19335   0.014   2.332   3.728
  171SAPE  C31219336   6.635   2.212   3.730
  171SAPE  H12X19337   6.684   2.113   3.727
  171SAPE  H12Y19338   6.553   2.195   3.657
  171SAPE  C31319339   6.561   2.244   3.856
  171SAPE  H13X19340   6.542   2.147   3.907
  171SAPE  H13Y19341   6.455   2.275   3.840
  171SAPE  C31419342   6.640   2.330   3.961
  171SAPE  H14X19343   6.572   2.345   4.047
  171SAPE  H14Y19344   6.665   2.432   3.924
  171SAPE  C31519345   6.772   2.265   3.998
  171SAPE  H15X19346   0.034   2.226   3.910
  171SAPE  H15Y19347   6.751   2.180   4.067
  171SAPE  C31619348   0.070   2.364   4.076
  171SAPE  H16X19349   0.142   2.294   4.124
  171SAPE  H16Y19350   0.006   2.426   4.141
  171SAPE  C31719351   0.148   2.456   3.982
  171SAPE  H17X19352   0.071   2.507   3.919
  171SAPE  H17Y19353   0.212   2.393   3.918
  171SAPE  C31819354   0.231   2.560   4.058
  171SAPE  H18X19355   0.291   2.617   3.984
  171SAPE  H18Y19356   0.286   2.520   4.146
  171SAPE  H18Z19357   0.166   2.639   4.101
  172SAPE     N19358   0.900   4.489   2.049
  172SAPE   HN119359   0.889   4.408   1.984
  172SAPE   HN219360   0.948   4.572   2.010
  172SAPE   HN319361   0.965   4.452   2.122
  172SAPE   C1219362   0.756   4.518   2.099
  172SAPE  H12A19363   0.700   4.424   2.116
  172SAPE  H12B19364   0.697   4.574   2.023
  172SAPE   C1119365   0.762   4.606   2.228
  172SAPE  H11A19366   0.799   4.556   2.320
  172SAPE  H11B19367   0.661   4.641   2.260
  172SAPE     P19368   0.797   4.844   2.126
  172SAPE   O1319369   0.907   4.904   2.047
  172SAPE   O1419370   0.678   4.801   2.050
  172SAPE   O1219371   0.852   4.715   2.213
  172SAPE   O1119372   0.746   4.945   2.244
  172SAPE    C119373   0.850   4.995   2.333
  172SAPE    HA19374   0.952   4.958   2.313
  172SAPE    HB19375   0.846   5.106   2.332
  172SAPE    C219376   0.819   4.953   2.478
  172SAPE    HS19377   0.851   4.847   2.485
  172SAPE   O2119378   0.678   4.953   2.512
  172SAPE   C2119379   0.622   5.074   2.516
  172SAPE   O2219380   0.675   5.180   2.479
  172SAPE   C2219381   0.475   5.068   2.578
  172SAPE   H2R19382   0.401   5.063   2.495
  172SAPE   H2S19383   0.481   4.974   2.637
  172SAPE    C319384   0.904   5.022   2.583
  172SAPE    HX19385   0.899   5.132   2.568
  172SAPE    HY19386   1.012   5.000   2.571
  172SAPE   O3119387   0.869   4.967   2.716
  172SAPE   C3119388   0.802   5.055   2.789
  172SAPE   O3219389   0.766   5.164   2.763
  172SAPE   C3219390   0.743   4.985   2.909
  172SAPE   H2X19391   0.790   4.884   2.914
  172SAPE   H2Y19392   0.637   4.973   2.876
  172SAPE   C2319393   0.450   5.186   2.676
  172SAPE   H3R19394   0.464   5.283   2.623
  172SAPE   H3S19395   0.528   5.179   2.754
  172SAPE   C2419396   0.307   5.199   2.739
  172SAPE   H4R19397   0.235   5.236   2.663
  172SAPE   H4S19398   0.318   5.280   2.814
  172SAPE   C2519399   0.261   5.065   2.798
  172SAPE   H5R19400   0.269   4.977   2.733
  172SAPE   C2619401   0.207   5.048   2.921
  172SAPE   H6R19402   0.171   4.950   2.954
  172SAPE   C2719403   0.195   5.161   3.025
  172SAPE   H7R19404   0.172   5.259   2.980
  172SAPE   H7S19405   0.293   5.183   3.074
  172SAPE   C2819406   0.092   5.117   3.134
  172SAPE   H8R19407   6.780   5.135   3.106
  172SAPE   C2919408   0.114   5.048   3.245
  172SAPE   H9R19409   0.035   5.030   3.319
  172SAPE  C21019410   0.256   5.044   3.289
  172SAPE  H10R19411   0.305   5.143   3.286
  172SAPE  H10S19412   0.312   4.980   3.217
  172SAPE  C21119413   0.294   4.987   3.423
  172SAPE  H11R19414   0.335   4.886   3.409
  172SAPE  C21219415   0.272   5.030   3.542
  172SAPE  H12R19416   0.309   4.972   3.628
  172SAPE  C21319417   0.220   5.166   3.579
  172SAPE  H13R19418   0.159   5.164   3.672
  172SAPE  H13S19419   0.155   5.211   3.501
  172SAPE  C21419420   0.323   5.265   3.598
  172SAPE  H14R19421   0.423   5.237   3.564
  172SAPE  C21519422   0.318   5.380   3.666
  172SAPE  H15R19423   0.404   5.448   3.653
  172SAPE  C21619424   0.190   5.440   3.727
  172SAPE  H16R19425   0.152   5.362   3.797
  172SAPE  H16S19426   0.107   5.466   3.658
  172SAPE  C21719427   0.198   5.560   3.823
  172SAPE  H17R19428   0.093   5.595   3.828
  172SAPE  H17S19429   0.257   5.639   3.771
  172SAPE  C21819430   0.254   5.516   3.958
  172SAPE  H18R19431   0.358   5.479   3.947
  172SAPE  H18S19432   0.194   5.430   3.992
  172SAPE  C21919433   0.235   5.619   4.068
  172SAPE  H19R19434   0.260   5.574   4.167
  172SAPE  H19S19435   0.128   5.646   4.080
  172SAPE  C22019436   0.316   5.745   4.056
  172SAPE  H20R19437   0.308   5.817   4.140
  172SAPE  H20S19438   0.302   5.794   3.957
  172SAPE  H20T19439   0.424   5.723   4.070
  172SAPE   C3319440   0.761   5.082   3.034
  172SAPE   H3X19441   0.693   5.170   3.025
  172SAPE   H3Y19442   0.867   5.116   3.032
  172SAPE   C3419443   0.741   5.011   3.172
  172SAPE   H4X19444   0.830   4.956   3.209
  172SAPE   H4Y19445   0.650   4.947   3.169
  172SAPE   C3519446   0.714   5.103   3.301
  172SAPE   H5X19447   0.632   5.172   3.273
  172SAPE   H5Y19448   0.810   5.158   3.314
  172SAPE   C3619449   0.684   5.034   3.434
  172SAPE   H6X19450   0.755   4.950   3.444
  172SAPE   H6Y19451   0.583   4.987   3.439
  172SAPE   C3719452   0.689   5.149   3.542
  172SAPE   H7X19453   0.629   5.237   3.511
  172SAPE   H7Y19454   0.795   5.180   3.546
  172SAPE   C3819455   0.634   5.098   3.675
  172SAPE   H8X19456   0.678   5.000   3.703
  172SAPE   H8Y19457   0.524   5.093   3.657
  172SAPE   C3919458   0.661   5.179   3.802
  172SAPE   H9X19459   0.668   5.282   3.762
  172SAPE   H9Y19460   0.762   5.152   3.838
  172SAPE  C31019461   0.555   5.174   3.910
  172SAPE  H10X19462   0.543   5.065   3.926
  172SAPE  H10Y19463   0.454   5.216   3.889
  172SAPE  C31119464   0.588   5.231   4.054
  172SAPE  H11X19465   0.497   5.204   4.111
  172SAPE  H11Y19466   0.605   5.341   4.048
  172SAPE  C31219467   0.704   5.170   4.127
  172SAPE  H12X19468   0.799   5.199   4.078
  172SAPE  H12Y19469   0.704   5.059   4.114
  172SAPE  C31319470   0.701   5.202   4.278
  172SAPE  H13X19471   0.742   5.115   4.335
  172SAPE  H13Y19472   0.598   5.221   4.314
  172SAPE  C31419473   0.786   5.320   4.312
  172SAPE  H14X19474   0.774   5.411   4.249
  172SAPE  H14Y19475   0.891   5.293   4.288
  172SAPE  C31519476   0.771   5.371   4.455
  172SAPE  H15X19477   0.793   5.297   4.535
  172SAPE  H15Y19478   0.667   5.406   4.471
  172SAPE  C31619479   0.874   5.480   4.487
  172SAPE  H16X19480   0.878   5.539   4.393
  172SAPE  H16Y19481   0.977   5.437   4.496
  172SAPE  C31719482   0.839   5.574   4.599
  172SAPE  H17X19483   0.859   5.518   4.693
  172SAPE  H17Y19484   0.731   5.601   4.595
  172SAPE  C31819485   0.929   5.696   4.592
  172SAPE  H18X19486   0.907   5.755   4.500
  172SAPE  H18Y19487   1.036   5.669   4.580
  172SAPE  H18Z19488   0.915   5.756   4.684
  173SLPC     N19489   6.081   0.380   7.149
  173SLPC   C1319490   6.115   0.236   7.118
  173SLPC  H13A19491   6.025   0.177   7.129
  173SLPC  H13B19492   6.149   0.223   7.017
  173SLPC  H13C19493   6.192   0.197   7.183
  173SLPC   C1419494   6.205   0.462   7.107
  173SLPC  H14A19495   6.221   0.474   7.001
  173SLPC  H14B19496   6.174   0.557   7.148
  173SLPC  H14C19497   6.292   0.449   7.170
  173SLPC   C1519498   6.058   0.393   7.295
  173SLPC  H15A19499   6.036   0.492   7.333
  173SLPC  H15B19500   5.963   0.350   7.321
  173SLPC  H15C19501   6.136   0.341   7.349
  173SLPC   C1219502   5.961   0.421   7.064
  173SLPC  H12A19503   5.934   0.523   7.086
  173SLPC  H12B19504   5.868   0.373   7.091
  173SLPC   C1119505   5.969   0.392   6.916
  173SLPC  H11A19506   6.061   0.436   6.871
  173SLPC  H11B19507   5.875   0.436   6.875
  173SLPC     P19508   6.030   0.178   6.775
  173SLPC   O1319509   6.176   0.200   6.777
  173SLPC   O1419510   5.983   0.036   6.778
  173SLPC   O1219511   5.967   0.253   6.898
  173SLPC   O1119512   5.970   0.254   6.660
  173SLPC    C119513   5.854   0.197   6.586
  173SLPC    HA19514   5.814   0.098   6.620
  173SLPC    HB19515   5.781   0.279   6.604
  173SLPC    C219516   5.891   0.178   6.433
  173SLPC    HS19517   5.820   0.103   6.394
  173SLPC   O2119518   6.036   0.146   6.413
  173SLPC   C2119519   6.074   0.018   6.436
  173SLPC   O2219520   5.993   6.720   6.439
  173SLPC   C2219521   6.226   0.008   6.450
  173SLPC   H2R19522   6.280   0.100   6.418
  173SLPC   H2S19523   6.253   6.775   6.555
  173SLPC    C319524   5.854   0.307   6.355
  173SLPC    HX19525   5.925   0.377   6.404
  173SLPC    HY19526   5.751   0.334   6.385
  173SLPC   O3119527   5.859   0.299   6.215
  173SLPC   C3119528   5.953   0.363   6.157
  173SLPC   O3219529   6.029   0.446   6.212
  173SLPC   C3219530   5.953   0.322   6.010
  173SLPC   H2X19531   6.033   0.391   5.974
  173SLPC   H2Y19532   5.853   0.337   5.965
  173SLPC   C2319533   6.287   6.688   6.360
  173SLPC   H3R19534   6.248   6.594   6.405
  173SLPC   H3S19535   6.396   6.698   6.375
  173SLPC   C2419536   6.258   6.693   6.209
  173SLPC   H4R19537   6.286   0.004   6.183
  173SLPC   H4S19538   6.154   6.659   6.194
  173SLPC   C2519539   6.344   6.614   6.106
  173SLPC   H5R19540   6.449   6.648   6.118
  173SLPC   H5S19541   6.317   6.620   5.998
  173SLPC   C2619542   6.343   6.460   6.130
  173SLPC   H6R19543   6.396   6.454   6.228
  173SLPC   H6S19544   6.406   6.412   6.052
  173SLPC   C2719545   6.206   6.388   6.150
  173SLPC   H7R19546   6.139   6.438   6.223
  173SLPC   H7S19547   6.226   6.292   6.204
  173SLPC   C2819548   6.138   6.358   6.019
  173SLPC   H8R19549   6.215   6.313   5.953
  173SLPC   H8S19550   6.117   6.456   5.970
  173SLPC   C2919551   6.029   6.250   6.026
  173SLPC   H9R19552   6.061   6.156   6.074
  173SLPC  C21019553   5.903   6.250   5.978
  173SLPC  H10R19554   5.849   6.156   5.994
  173SLPC  C21119555   5.829   6.369   5.920
  173SLPC  H11R19556   5.761   6.334   5.840
  173SLPC  H11S19557   5.903   6.437   5.872
  173SLPC  C21219558   5.748   6.448   6.020
  173SLPC  H12R19559   5.788   6.436   6.122
  173SLPC  C21319560   5.636   6.521   6.013
  173SLPC  H13R19561   5.585   6.545   6.108
  173SLPC  C21419562   5.559   6.550   5.883
  173SLPC  H14R19563   5.623   6.541   5.793
  173SLPC  H14S19564   5.540   6.659   5.883
  173SLPC  C21519565   5.429   6.477   5.861
  173SLPC  H15R19566   5.373   6.488   5.957
  173SLPC  H15S19567   5.443   6.368   5.843
  173SLPC  C21619568   5.343   6.553   5.755
  173SLPC  H16R19569   5.409   6.561   5.666
  173SLPC  H16S19570   5.319   6.656   5.789
  173SLPC  C21719571   5.216   6.481   5.713
  173SLPC  H17R19572   5.168   6.462   5.811
  173SLPC  H17S19573   5.251   6.385   5.669
  173SLPC  C21819574   5.127   6.548   5.610
  173SLPC  H18R19575   5.053   6.474   5.571
  173SLPC  H18S19576   5.197   6.583   5.531
  173SLPC  H18T19577   5.077   6.643   5.641
  173SLPC   C3319578   5.993   0.174   5.986
  173SLPC   H3X19579   5.926   0.112   6.049
  173SLPC   H3Y19580   6.097   0.163   6.026
  173SLPC   C3419581   5.980   0.111   5.843
  173SLPC   H4X19582   6.012   0.005   5.839
  173SLPC   H4Y19583   6.052   0.166   5.778
  173SLPC   C3519584   5.838   0.127   5.781
  173SLPC   H5X19585   5.804   0.232   5.772
  173SLPC   H5Y19586   5.763   0.066   5.836
  173SLPC   C3619587   5.824   0.065   5.642
  173SLPC   H6X19588   5.895   6.773   5.640
  173SLPC   H6Y19589   5.862   0.142   5.571
  173SLPC   C3719590   5.673   0.031   5.599
  173SLPC   H7X19591   5.609   0.121   5.607
  173SLPC   H7Y19592   5.647   6.735   5.660
  173SLPC   C3819593   5.672   6.786   5.450
  173SLPC   H8X19594   5.572   6.750   5.419
  173SLPC   H8Y19595   5.740   6.699   5.440
  173SLPC   C3919596   5.699   0.097   5.342
  173SLPC   H9X19597   5.799   0.145   5.354
  173SLPC   H9Y19598   5.626   0.180   5.350
  173SLPC  C31019599   5.689   0.040   5.207
  173SLPC  H10X19600   5.581   0.012   5.207
  173SLPC  H10Y19601   5.756   6.746   5.192
  173SLPC  C31119602   5.726   0.148   5.105
  173SLPC  H11X19603   5.821   0.191   5.143
  173SLPC  H11Y19604   5.645   0.224   5.111
  173SLPC  C31219605   5.733   0.084   4.961
  173SLPC  H12X19606   5.819   0.014   4.953
  173SLPC  H12Y19607   5.750   0.164   4.885
  173SLPC  C31319608   5.601   0.011   4.918
  173SLPC  H13X19609   5.522   0.089   4.917
  173SLPC  H13Y19610   5.589   6.723   4.992
  173SLPC  C31419611   5.599   6.709   4.799
  173SLPC  H14X19612   5.619   6.772   4.709
  173SLPC  H14Y19613   5.502   6.660   4.778
  173SLPC  C31519614   5.713   6.602   4.807
  173SLPC  H15X19615   5.716   6.546   4.902
  173SLPC  H15Y19616   5.819   6.632   4.792
  173SLPC  C31619617   5.691   6.483   4.711
  173SLPC  H16X19618   5.690   6.520   4.607
  173SLPC  H16Y19619   5.596   6.447   4.756
  173SLPC  C31719620   5.785   6.363   4.734
  173SLPC  H17X19621   5.797   6.348   4.844
  173SLPC  H17Y19622   5.885   6.390   4.696
  173SLPC  C31819623   5.740   6.238   4.659
  173SLPC  H18X19624   5.810   6.153   4.673
  173SLPC  H18Y19625   5.741   6.247   4.548
  173SLPC  H18Z19626   5.643   6.197   4.695
  174SLPC     N19627   2.552   1.591   6.762
  174SLPC   C1319628   2.512   1.456   6.829
  174SLPC  H13A19629   2.440   1.408   6.764
  174SLPC  H13B19630   2.605   1.402   6.829
  174SLPC  H13C19631   2.466   1.469   6.926
  174SLPC   C1419632   2.430   1.661   6.717
  174SLPC  H14A19633   2.366   1.623   6.639
  174SLPC  H14B19634   2.362   1.677   6.799
  174SLPC  H14C19635   2.467   1.761   6.701
  174SLPC   C1519636   2.620   1.555   6.642
  174SLPC  H15A19637   2.546   1.518   6.572
  174SLPC  H15B19638   2.658   1.638   6.585
  174SLPC  H15C19639   2.697   1.483   6.667
  174SLPC   C1219640   2.633   1.678   6.859
  174SLPC  H12A19641   2.714   1.616   6.894
  174SLPC  H12B19642   2.575   1.699   6.948
  174SLPC   C1119643   2.695   1.808   6.801
  174SLPC  H11A19644   2.752   1.843   6.890
  174SLPC  H11B19645   2.606   1.870   6.779
  174SLPC     P19646   2.929   1.759   6.703
  174SLPC   O1319647   2.936   1.688   6.834
  174SLPC   O1419648   2.980   1.692   6.580
  174SLPC   O1219649   2.777   1.792   6.681
  174SLPC   O1119650   3.010   1.895   6.729
  174SLPC    C119651   2.976   2.028   6.690
  174SLPC    HA19652   2.872   2.025   6.653
  174SLPC    HB19653   2.985   2.100   6.774
  174SLPC    C219654   3.077   2.092   6.588
  174SLPC    HS19655   3.050   2.199   6.575
  174SLPC   O2119656   3.063   2.029   6.454
  174SLPC   C2119657   2.946   2.040   6.394
  174SLPC   O2219658   2.850   2.108   6.432
  174SLPC   C2219659   2.938   1.974   6.254
  174SLPC   H2R19660   2.999   1.881   6.262
  174SLPC   H2S19661   2.834   1.935   6.259
  174SLPC    C319662   3.215   2.084   6.652
  174SLPC    HX19663   3.252   1.980   6.663
  174SLPC    HY19664   3.221   2.124   6.755
  174SLPC   O3119665   3.307   2.165   6.577
  174SLPC   C3119666   3.281   2.295   6.581
  174SLPC   O3219667   3.208   2.349   6.665
  174SLPC   C3219668   3.345   2.360   6.459
  174SLPC   H2X19669   3.452   2.377   6.481
  174SLPC   H2Y19670   3.302   2.462   6.464
  174SLPC   C2319671   2.964   2.079   6.142
  174SLPC   H3R19672   3.069   2.113   6.155
  174SLPC   H3S19673   2.898   2.169   6.144
  174SLPC   C2419674   2.955   2.015   6.002
  174SLPC   H4R19675   2.881   2.065   5.936
  174SLPC   H4S19676   2.911   1.914   6.020
  174SLPC   C2519677   3.084   1.995   5.932
  174SLPC   H5R19678   3.137   1.919   5.992
  174SLPC   H5S19679   3.141   2.091   5.928
  174SLPC   C2619680   3.071   1.941   5.782
  174SLPC   H6R19681   3.174   1.918   5.746
  174SLPC   H6S19682   3.024   2.015   5.713
  174SLPC   C2719683   2.985   1.819   5.764
  174SLPC   H7R19684   2.877   1.835   5.786
  174SLPC   H7S19685   3.014   1.754   5.850
  174SLPC   C2819686   3.000   1.749   5.625
  174SLPC   H8R19687   2.959   1.647   5.608
  174SLPC   H8S19688   3.109   1.729   5.628
  174SLPC   C2919689   2.964   1.841   5.508
  174SLPC   H9R19690   2.860   1.872   5.496
  174SLPC  C21019691   3.053   1.905   5.427
  174SLPC  H10R19692   3.013   1.962   5.342
  174SLPC  C21119693   3.201   1.891   5.432
  174SLPC  H11R19694   3.244   1.894   5.535
  174SLPC  H11S19695   3.247   1.987   5.400
  174SLPC  C21219696   3.250   1.774   5.356
  174SLPC  H12R19697   3.296   1.686   5.404
  174SLPC  C21319698   3.253   1.768   5.220
  174SLPC  H13R19699   3.296   1.675   5.178
  174SLPC  C21419700   3.198   1.861   5.114
  174SLPC  H14R19701   3.089   1.880   5.124
  174SLPC  H14S19702   3.217   1.820   5.012
  174SLPC  C21519703   3.254   2.000   5.099
  174SLPC  H15R19704   3.359   2.000   5.063
  174SLPC  H15S19705   3.243   2.050   5.197
  174SLPC  C21619706   3.172   2.076   4.991
  174SLPC  H16R19707   3.203   2.182   4.987
  174SLPC  H16S19708   3.064   2.065   5.015
  174SLPC  C21719709   3.196   2.024   4.846
  174SLPC  H17R19710   3.164   1.917   4.847
  174SLPC  H17S19711   3.305   2.024   4.821
  174SLPC  C21819712   3.125   2.101   4.734
  174SLPC  H18R19713   3.159   2.041   4.647
  174SLPC  H18S19714   3.164   2.204   4.725
  174SLPC  H18T19715   3.014   2.098   4.741
  174SLPC   C3319716   3.329   2.281   6.324
  174SLPC   H3X19717   3.224   2.259   6.295
  174SLPC   H3Y19718   3.381   2.185   6.347
  174SLPC   C3419719   3.413   2.340   6.207
  174SLPC   H4X19720   3.516   2.348   6.248
  174SLPC   H4Y19721   3.379   2.445   6.193
  174SLPC   C3519722   3.397   2.272   6.079
  174SLPC   H5X19723   3.292   2.247   6.051
  174SLPC   H5Y19724   3.438   2.169   6.083
  174SLPC   C3619725   3.450   2.346   5.955
  174SLPC   H6X19726   3.551   2.387   5.977
  174SLPC   H6Y19727   3.389   2.438   5.944
  174SLPC   C3719728   3.466   2.262   5.830
  174SLPC   H7X19729   3.364   2.223   5.808
  174SLPC   H7Y19730   3.526   2.169   5.844
  174SLPC   C3819731   3.531   2.328   5.704
  174SLPC   H8X19732   3.635   2.353   5.733
  174SLPC   H8Y19733   3.481   2.426   5.689
  174SLPC   C3919734   3.514   2.252   5.568
  174SLPC   H9X19735   3.408   2.237   5.537
  174SLPC   H9Y19736   3.545   2.147   5.582
  174SLPC  C31019737   3.572   2.328   5.446
  174SLPC  H10X19738   3.683   2.333   5.454
  174SLPC  H10Y19739   3.530   2.430   5.450
  174SLPC  C31119740   3.546   2.278   5.306
  174SLPC  H11X19741   3.436   2.290   5.297
  174SLPC  H11Y19742   3.564   2.169   5.288
  174SLPC  C31219743   3.630   2.346   5.205
  174SLPC  H12X19744   3.736   2.340   5.239
  174SLPC  H12Y19745   3.591   2.450   5.200
  174SLPC  C31319746   3.618   2.274   5.067
  174SLPC  H13X19747   3.512   2.242   5.060
  174SLPC  H13Y19748   3.680   2.182   5.068
  174SLPC  C31419749   3.665   2.363   4.955
  174SLPC  H14X19750   3.776   2.359   4.953
  174SLPC  H14Y19751   3.628   2.467   4.970
  174SLPC  C31519752   3.634   2.312   4.811
  174SLPC  H15X19753   3.676   2.209   4.810
  174SLPC  H15Y19754   3.676   2.377   4.732
  174SLPC  C31619755   3.485   2.296   4.778
  174SLPC  H16X19756   3.443   2.242   4.866
  174SLPC  H16Y19757   3.471   2.238   4.685
  174SLPC  C31719758   3.410   2.431   4.764
  174SLPC  H17X19759   3.439   2.496   4.850
  174SLPC  H17Y19760   3.302   2.405   4.768
  174SLPC  C31819761   3.443   2.498   4.635
  174SLPC  H18X19762   3.375   2.583   4.614
  174SLPC  H18Y19763   3.446   2.433   4.545
  174SLPC  H18Z19764   3.540   2.548   4.659
  175SLPC     N19765   6.195   2.649   6.813
  175SLPC   C1319766   6.081   2.728   6.849
  175SLPC  H13A19767   5.997   2.710   6.783
  175SLPC  H13B19768   6.053   2.707   6.951
  175SLPC  H13C19769   6.099   2.835   6.852
  175SLPC   C1419770   6.165   2.510   6.856
  175SLPC  H14A19771   6.245   2.441   6.833
  175SLPC  H14B19772   6.150   2.507   6.963
  175SLPC  H14C19773   6.073   2.482   6.807
  175SLPC   C1519774   6.314   2.697   6.903
  175SLPC  H15A19775   6.406   2.679   6.850
  175SLPC  H15B19776   6.310   2.803   6.922
  175SLPC  H15C19777   6.312   2.648   6.999
  175SLPC   C1219778   6.231   2.659   6.671
  175SLPC  H12A19779   6.153   2.628   6.603
  175SLPC  H12B19780   6.311   2.591   6.648
  175SLPC   C1119781   6.270   2.797   6.614
  175SLPC  H11A19782   6.309   2.784   6.511
  175SLPC  H11B19783   6.356   2.830   6.676
  175SLPC     P19784   6.176   3.028   6.669
  175SLPC   O1319785   6.074   3.042   6.773
  175SLPC   O1419786   6.312   3.061   6.718
  175SLPC   O1219787   6.164   2.887   6.606
  175SLPC   O1119788   6.141   3.118   6.545
  175SLPC    C119789   6.202   3.087   6.415
  175SLPC    HA19790   6.226   3.186   6.371
  175SLPC    HB19791   6.295   3.027   6.419
  175SLPC    C219792   6.100   3.021   6.313
  175SLPC    HS19793   6.082   2.918   6.349
  175SLPC   O2119794   6.172   3.025   6.186
  175SLPC   C2119795   6.139   2.942   6.093
  175SLPC   O2219796   6.066   2.847   6.104
  175SLPC   C2219797   6.194   2.988   5.959
  175SLPC   H2R19798   6.184   3.097   5.942
  175SLPC   H2S19799   6.301   2.959   5.962
  175SLPC    C319800   5.972   3.106   6.308
  175SLPC    HX19801   5.998   3.212   6.290
  175SLPC    HY19802   5.937   3.093   6.413
  175SLPC   O3119803   5.880   3.058   6.204
  175SLPC   C3119804   5.792   2.956   6.240
  175SLPC   O3219805   5.802   2.887   6.339
  175SLPC   C3219806   5.689   2.936   6.136
  175SLPC   H2X19807   5.587   2.972   6.160
  175SLPC   H2Y19808   5.664   2.828   6.124
  175SLPC   C2319809   6.139   2.916   5.842
  175SLPC   H3R19810   6.038   2.958   5.824
  175SLPC   H3S19811   6.140   2.807   5.863
  175SLPC   C2419812   6.219   2.940   5.716
  175SLPC   H4R19813   6.294   2.860   5.699
  175SLPC   H4S19814   6.269   3.039   5.720
  175SLPC   C2519815   6.130   2.947   5.596
  175SLPC   H5R19816   6.049   3.022   5.609
  175SLPC   H5S19817   6.086   2.847   5.575
  175SLPC   C2619818   6.204   2.991   5.465
  175SLPC   H6R19819   6.283   2.917   5.439
  175SLPC   H6S19820   6.261   3.087   5.464
  175SLPC   C2719821   6.106   2.992   5.340
  175SLPC   H7R19822   6.037   3.072   5.373
  175SLPC   H7S19823   6.042   2.902   5.334
  175SLPC   C2819824   6.184   3.026   5.213
  175SLPC   H8R19825   6.275   2.962   5.205
  175SLPC   H8S19826   6.231   3.127   5.217
  175SLPC   C2919827   6.104   3.009   5.086
  175SLPC   H9R19828   5.999   3.030   5.113
  175SLPC  C21019829   6.150   2.985   4.961
  175SLPC  H10R19830   6.071   2.971   4.885
  175SLPC  C21119831   6.293   2.991   4.914
  175SLPC  H11R19832   6.348   2.895   4.909
  175SLPC  H11S19833   6.365   3.045   4.980
  175SLPC  C21219834   6.297   3.061   4.782
  175SLPC  H12R19835   6.329   3.166   4.777
  175SLPC  C21319836   6.264   3.009   4.664
  175SLPC  H13R19837   6.276   3.071   4.574
  175SLPC  C21419838   6.193   2.871   4.633
  175SLPC  H14R19839   6.133   2.864   4.540
  175SLPC  H14S19840   6.131   2.846   4.722
  175SLPC  C21519841   6.306   2.766   4.617
  175SLPC  H15R19842   6.264   2.663   4.625
  175SLPC  H15S19843   6.384   2.775   4.696
  175SLPC  C21619844   6.368   2.760   4.475
  175SLPC  H16R19845   6.297   2.766   4.391
  175SLPC  H16S19846   6.417   2.661   4.483
  175SLPC  C21719847   6.484   2.868   4.464
  175SLPC  H17R19848   6.547   2.863   4.555
  175SLPC  H17S19849   6.419   2.958   4.462
  175SLPC  C21819850   6.566   2.848   4.339
  175SLPC  H18R19851   6.508   2.905   4.264
  175SLPC  H18S19852   6.574   2.741   4.312
  175SLPC  H18T19853   6.663   2.901   4.351
  175SLPC   C3319854   5.728   3.000   5.998
  175SLPC   H3X19855   5.835   2.981   5.972
  175SLPC   H3Y19856   5.724   3.110   6.008
  175SLPC   C3419857   5.632   2.958   5.889
  175SLPC   H4X19858   5.527   2.991   5.903
  175SLPC   H4Y19859   5.628   2.848   5.880
  175SLPC   C3519860   5.682   3.017   5.754
  175SLPC   H5X19861   5.781   2.976   5.727
  175SLPC   H5Y19862   5.700   3.126   5.768
  175SLPC   C3619863   5.593   2.975   5.636
  175SLPC   H6X19864   5.487   3.005   5.652
  175SLPC   H6Y19865   5.593   2.863   5.635
  175SLPC   C3719866   5.642   3.033   5.505
  175SLPC   H7X19867   5.739   2.983   5.484
  175SLPC   H7Y19868   5.661   3.142   5.499
  175SLPC   C3819869   5.548   2.997   5.391
  175SLPC   H8X19870   5.446   3.027   5.425
  175SLPC   H8Y19871   5.544   2.887   5.373
  175SLPC   C3919872   5.568   3.053   5.245
  175SLPC   H9X19873   5.515   2.995   5.167
  175SLPC   H9Y19874   5.678   3.051   5.226
  175SLPC  C31019875   5.518   3.188   5.211
  175SLPC  H10X19876   5.571   3.269   5.265
  175SLPC  H10Y19877   5.410   3.195   5.238
  175SLPC  C31119878   5.542   3.215   5.065
  175SLPC  H11X19879   5.639   3.181   5.023
  175SLPC  H11Y19880   5.556   3.325   5.061
  175SLPC  C31219881   5.432   3.165   4.983
  175SLPC  H12X19882   5.334   3.216   4.997
  175SLPC  H12Y19883   5.402   3.059   4.993
  175SLPC  C31319884   5.470   3.185   4.834
  175SLPC  H13X19885   5.568   3.135   4.818
  175SLPC  H13Y19886   5.483   3.289   4.796
  175SLPC  C31419887   5.364   3.129   4.746
  175SLPC  H14X19888   5.266   3.175   4.770
  175SLPC  H14Y19889   5.362   3.023   4.780
  175SLPC  C31519890   5.400   3.139   4.597
  175SLPC  H15X19891   5.494   3.091   4.563
  175SLPC  H15Y19892   5.422   3.248   4.585
  175SLPC  C31619893   5.283   3.084   4.517
  175SLPC  H16X19894   5.187   3.136   4.542
  175SLPC  H16Y19895   5.269   2.979   4.549
  175SLPC  C31719896   5.295   3.087   4.362
  175SLPC  H17X19897   5.399   3.057   4.336
  175SLPC  H17Y19898   5.290   3.184   4.309
  175SLPC  C31819899   5.180   2.996   4.301
  175SLPC  H18X19900   5.178   2.994   4.190
  175SLPC  H18Y19901   5.077   3.029   4.326
  175SLPC  H18Z19902   5.203   2.893   4.337
  176SLPC     N19903   5.570   1.624   7.027
  176SLPC   C1319904   5.531   1.611   6.881
  176SLPC  H13A19905   5.529   1.507   6.854
  176SLPC  H13B19906   5.426   1.634   6.875
  176SLPC  H13C19907   5.582   1.684   6.820
  176SLPC   C1419908   5.554   1.771   7.054
  176SLPC  H14A19909   5.580   1.813   7.150
  176SLPC  H14B19910   5.608   1.833   6.983
  176SLPC  H14C19911   5.450   1.795   7.039
  176SLPC   C1519912   5.716   1.593   7.062
  176SLPC  H15A19913   5.780   1.669   7.019
  176SLPC  H15B19914   5.733   1.609   7.167
  176SLPC  H15C19915   5.747   1.495   7.029
  176SLPC   C1219916   5.477   1.545   7.116
  176SLPC  H12A19917   5.384   1.599   7.107
  176SLPC  H12B19918   5.501   1.548   7.221
  176SLPC   C1119919   5.473   1.391   7.082
  176SLPC  H11A19920   5.445   1.366   6.977
  176SLPC  H11B19921   5.397   1.348   7.151
  176SLPC     P19922   5.622   1.177   7.082
  176SLPC   O1319923   5.760   1.133   7.124
  176SLPC   O1419924   5.507   1.109   7.140
  176SLPC   O1219925   5.599   1.336   7.106
  176SLPC   O1119926   5.609   1.170   6.930
  176SLPC    C119927   5.680   1.257   6.836
  176SLPC    HA19928   5.643   1.361   6.833
  176SLPC    HB19929   5.789   1.252   6.856
  176SLPC    C219930   5.648   1.202   6.691
  176SLPC    HS19931   5.684   1.275   6.616
  176SLPC   O2119932   5.510   1.175   6.677
  176SLPC   C2119933   5.436   1.282   6.667
  176SLPC   O2219934   5.478   1.402   6.681
  176SLPC   C2219935   5.284   1.254   6.645
  176SLPC   H2R19936   5.252   1.153   6.677
  176SLPC   H2S19937   5.224   1.319   6.713
  176SLPC    C319938   5.726   1.066   6.671
  176SLPC    HX19939   5.678   1.012   6.756
  176SLPC    HY19940   5.835   1.084   6.681
  176SLPC   O3119941   5.685   1.016   6.544
  176SLPC   C3119942   5.731   0.896   6.525
  176SLPC   O3219943   5.823   0.842   6.588
  176SLPC   C3219944   5.656   0.833   6.414
  176SLPC   H2X19945   5.613   0.916   6.354
  176SLPC   H2Y19946   5.562   0.782   6.445
  176SLPC   C2319947   5.234   1.286   6.501
  176SLPC   H3R19948   5.247   1.395   6.483
  176SLPC   H3S19949   5.125   1.268   6.515
  176SLPC   C2419950   5.297   1.196   6.394
  176SLPC   H4R19951   5.292   1.092   6.431
  176SLPC   H4S19952   5.404   1.225   6.393
  176SLPC   C2519953   5.248   1.208   6.252
  176SLPC   H5R19954   5.249   1.313   6.217
  176SLPC   H5S19955   5.142   1.178   6.237
  176SLPC   C2619956   5.333   1.111   6.169
  176SLPC   H6R19957   5.309   1.005   6.194
  176SLPC   H6S19958   5.442   1.122   6.188
  176SLPC   C2719959   5.305   1.129   6.018
  176SLPC   H7R19960   5.303   1.239   6.004
  176SLPC   H7S19961   5.201   1.099   5.992
  176SLPC   C2819962   5.399   1.065   5.919
  176SLPC   H8R19963   5.350   1.091   5.823
  176SLPC   H8S19964   5.401   0.955   5.932
  176SLPC   C2919965   5.534   1.130   5.921
  176SLPC   H9R19966   5.571   1.166   6.018
  176SLPC  C21019967   5.620   1.154   5.814
  176SLPC  H10R19968   5.701   1.227   5.822
  176SLPC  C21119969   5.602   1.103   5.673
  176SLPC  H11R19970   5.496   1.093   5.642
  176SLPC  H11S19971   5.627   0.995   5.677
  176SLPC  C21219972   5.701   1.168   5.579
  176SLPC  H12R19973   5.778   1.232   5.624
  176SLPC  C21319974   5.697   1.151   5.442
  176SLPC  H13R19975   5.762   1.209   5.375
  176SLPC  C21419976   5.589   1.063   5.376
  176SLPC  H14R19977   5.484   1.097   5.390
  176SLPC  H14S19978   5.584   0.965   5.427
  176SLPC  C21519979   5.594   1.027   5.227
  176SLPC  H15R19980   5.509   0.956   5.220
  176SLPC  H15S19981   5.687   0.972   5.201
  176SLPC  C21619982   5.582   1.150   5.133
  176SLPC  H16R19983   5.667   1.221   5.130
  176SLPC  H16S19984   5.501   1.215   5.173
  176SLPC  C21719985   5.553   1.097   4.992
  176SLPC  H17R19986   5.472   1.021   4.992
  176SLPC  H17S19987   5.651   1.057   4.957
  176SLPC  C21819988   5.515   1.210   4.895
  176SLPC  H18R19989   5.512   1.175   4.789
  176SLPC  H18S19990   5.593   1.289   4.898
  176SLPC  H18T19991   5.409   1.235   4.915
  176SLPC   C3319992   5.742   0.743   6.318
  176SLPC   H3X19993   5.704   0.638   6.317
  176SLPC   H3Y19994   5.844   0.726   6.359
  176SLPC   C3419995   5.751   0.795   6.174
  176SLPC   H4X19996   5.839   0.744   6.131
  176SLPC   H4Y19997   5.763   0.906   6.174
  176SLPC   C3519998   5.631   0.754   6.083
  176SLPC   H5X19999   5.548   0.815   6.124
  176SLPC   H5Y20000   5.601   0.648   6.095
  176SLPC   C3620001   5.645   0.778   5.926
  176SLPC   H6X20002   5.706   0.871   5.915
  176SLPC   H6Y20003   5.541   0.799   5.895
  176SLPC   C3720004   5.703   0.656   5.852
  176SLPC   H7X20005   5.636   0.569   5.873
  176SLPC   H7Y20006   5.804   0.636   5.894
  176SLPC   C3820007   5.718   0.664   5.703
  176SLPC   H8X20008   5.767   0.763   5.688
  176SLPC   H8Y20009   5.620   0.664   5.649
  176SLPC   C3920010   5.806   0.560   5.633
  176SLPC   H9X20011   5.856   0.498   5.710
  176SLPC   H9Y20012   5.886   0.610   5.574
  176SLPC  C31020013   5.734   0.456   5.544
  176SLPC  H10X20014   5.656   0.403   5.603
  176SLPC  H10Y20015   5.807   0.375   5.522
  176SLPC  C31120016   5.679   0.517   5.415
  176SLPC  H11X20017   5.607   0.598   5.438
  176SLPC  H11Y20018   5.607   0.439   5.383
  176SLPC  C31220019   5.768   0.551   5.296
  176SLPC  H12X20020   5.811   0.458   5.254
  176SLPC  H12Y20021   5.837   0.629   5.336
  176SLPC  C31320022   5.705   0.632   5.179
  176SLPC  H13X20023   5.786   0.683   5.123
  176SLPC  H13Y20024   5.634   0.703   5.227
  176SLPC  C31420025   5.615   0.547   5.086
  176SLPC  H14X20026   5.524   0.520   5.144
  176SLPC  H14Y20027   5.671   0.457   5.053
  176SLPC  C31520028   5.586   0.616   4.954
  176SLPC  H15X20029   5.560   0.722   4.974
  176SLPC  H15Y20030   5.508   0.562   4.897
  176SLPC  C31620031   5.695   0.622   4.851
  176SLPC  H16X20032   5.746   0.525   4.837
  176SLPC  H16Y20033   5.782   0.687   4.876
  176SLPC  C31720034   5.651   0.685   4.714
  176SLPC  H17X20035   5.571   0.625   4.665
  176SLPC  H17Y20036   5.741   0.679   4.650
  176SLPC  C31820037   5.604   0.831   4.732
  176SLPC  H18X20038   5.507   0.835   4.786
  176SLPC  H18Y20039   5.587   0.869   4.629
  176SLPC  H18Z20040   5.672   0.897   4.790
  177SLPC     N20041   5.153   2.411   6.896
  177SLPC   C1320042   5.209   2.334   7.008
  177SLPC  H13A20043   5.300   2.289   6.972
  177SLPC  H13B20044   5.239   2.378   7.102
  177SLPC  H13C20045   5.139   2.253   7.026
  177SLPC   C1420046   5.255   2.507   6.828
  177SLPC  H14A20047   5.206   2.562   6.749
  177SLPC  H14B20048   5.291   2.583   6.895
  177SLPC  H14C20049   5.337   2.457   6.778
  177SLPC   C1520050   5.036   2.478   6.939
  177SLPC  H15A20051   4.985   2.540   6.866
  177SLPC  H15B20052   4.952   2.422   6.976
  177SLPC  H15C20053   5.059   2.546   7.020
  177SLPC   C1220054   5.121   2.313   6.780
  177SLPC  H12A20055   5.217   2.278   6.745
  177SLPC  H12B20056   5.082   2.380   6.705
  177SLPC   C1120057   5.039   2.185   6.804
  177SLPC  H11A20058   5.000   2.132   6.714
  177SLPC  H11B20059   4.948   2.215   6.861
  177SLPC     P20060   5.217   1.997   6.799
  177SLPC   O1320061   5.316   2.086   6.734
  177SLPC   O1420062   5.279   1.911   6.900
  177SLPC   O1220063   5.116   2.093   6.876
  177SLPC   O1120064   5.134   1.917   6.698
  177SLPC    C120065   5.207   1.826   6.609
  177SLPC    HA20066   5.312   1.860   6.603
  177SLPC    HB20067   5.214   1.728   6.660
  177SLPC    C220068   5.153   1.826   6.465
  177SLPC    HS20069   5.045   1.854   6.462
  177SLPC   O2120070   5.159   1.691   6.412
  177SLPC   C2120071   5.079   1.670   6.309
  177SLPC   O2220072   5.013   1.757   6.259
  177SLPC   C2220073   5.072   1.525   6.278
  177SLPC   H2R20074   5.174   1.481   6.284
  177SLPC   H2S20075   5.017   1.475   6.360
  177SLPC    C320076   5.221   1.936   6.373
  177SLPC    HX20077   5.187   2.031   6.419
  177SLPC    HY20078   5.178   1.925   6.272
  177SLPC   O3120079   5.367   1.926   6.367
  177SLPC   C3120080   5.427   2.043   6.367
  177SLPC   O3220081   5.371   2.149   6.368
  177SLPC   C3220082   5.577   2.019   6.366
  177SLPC   H2X20083   5.594   1.916   6.329
  177SLPC   H2Y20084   5.607   2.022   6.473
  177SLPC   C2320085   5.030   1.502   6.139
  177SLPC   H3R20086   4.945   1.568   6.112
  177SLPC   H3S20087   5.011   1.393   6.125
  177SLPC   C2420088   5.151   1.534   6.039
  177SLPC   H4R20089   5.245   1.486   6.073
  177SLPC   H4S20090   5.178   1.642   6.032
  177SLPC   C2520091   5.126   1.473   5.903
  177SLPC   H5R20092   5.034   1.521   5.863
  177SLPC   H5S20093   5.106   1.363   5.905
  177SLPC   C2620094   5.241   1.496   5.803
  177SLPC   H6R20095   5.338   1.512   5.855
  177SLPC   H6S20096   5.224   1.594   5.753
  177SLPC   C2720097   5.265   1.383   5.705
  177SLPC   H7R20098   5.176   1.373   5.640
  177SLPC   H7S20099   5.278   1.284   5.755
  177SLPC   C2820100   5.386   1.400   5.604
  177SLPC   H8R20101   5.406   1.308   5.545
  177SLPC   H8S20102   5.481   1.407   5.661
  177SLPC   C2920103   5.393   1.524   5.525
  177SLPC   H9R20104   5.387   1.610   5.594
  177SLPC  C21020105   5.389   1.547   5.396
  177SLPC  H10R20106   5.392   1.653   5.368
  177SLPC  C21120107   5.404   1.446   5.283
  177SLPC  H11R20108   5.489   1.378   5.307
  177SLPC  H11S20109   5.426   1.503   5.190
  177SLPC  C21220110   5.280   1.362   5.250
  177SLPC  H12R20111   5.273   1.266   5.302
  177SLPC  C21320112   5.177   1.395   5.166
  177SLPC  H13R20113   5.105   1.313   5.151
  177SLPC  C21420114   5.141   1.522   5.097
  177SLPC  H14R20115   5.224   1.596   5.103
  177SLPC  H14S20116   5.051   1.562   5.148
  177SLPC  C21520117   5.100   1.510   4.950
  177SLPC  H15R20118   5.087   1.606   4.897
  177SLPC  H15S20119   5.007   1.452   4.931
  177SLPC  C21620120   5.194   1.431   4.860
  177SLPC  H16R20121   5.188   1.324   4.887
  177SLPC  H16S20122   5.299   1.460   4.880
  177SLPC  C21720123   5.154   1.448   4.706
  177SLPC  H17R20124   5.100   1.544   4.696
  177SLPC  H17S20125   5.080   1.375   4.668
  177SLPC  C21820126   5.269   1.449   4.606
  177SLPC  H18R20127   5.324   1.352   4.605
  177SLPC  H18S20128   5.339   1.533   4.624
  177SLPC  H18T20129   5.242   1.469   4.500
  177SLPC   C3320130   5.652   2.132   6.285
  177SLPC   H3X20131   5.633   2.229   6.336
  177SLPC   H3Y20132   5.613   2.135   6.181
  177SLPC   C3420133   5.809   2.112   6.273
  177SLPC   H4X20134   5.826   2.016   6.220
  177SLPC   H4Y20135   5.848   2.109   6.377
  177SLPC   C3520136   5.878   2.230   6.198
  177SLPC   H5X20137   5.876   2.323   6.259
  177SLPC   H5Y20138   5.821   2.246   6.104
  177SLPC   C3620139   6.020   2.184   6.157
  177SLPC   H6X20140   6.013   2.078   6.122
  177SLPC   H6Y20141   6.070   2.183   6.256
  177SLPC   C3720142   6.082   2.271   6.044
  177SLPC   H7X20143   6.186   2.243   6.017
  177SLPC   H7Y20144   6.091   2.377   6.076
  177SLPC   C3820145   6.006   2.288   5.905
  177SLPC   H8X20146   6.059   2.354   5.834
  177SLPC   H8Y20147   5.904   2.330   5.917
  177SLPC   C3920148   5.999   2.155   5.820
  177SLPC   H9X20149   5.946   2.084   5.887
  177SLPC   H9Y20150   6.103   2.122   5.802
  177SLPC  C31020151   5.917   2.158   5.688
  177SLPC  H10X20152   5.814   2.199   5.694
  177SLPC  H10Y20153   5.915   2.053   5.652
  177SLPC  C31120154   5.995   2.221   5.571
  177SLPC  H11X20155   6.099   2.183   5.578
  177SLPC  H11Y20156   5.991   2.332   5.579
  177SLPC  C31220157   5.933   2.181   5.437
  177SLPC  H12X20158   5.825   2.200   5.422
  177SLPC  H12Y20159   5.941   2.071   5.420
  177SLPC  C31320160   6.005   2.247   5.323
  177SLPC  H13X20161   6.114   2.226   5.325
  177SLPC  H13Y20162   5.987   2.357   5.323
  177SLPC  C31420163   5.945   2.194   5.187
  177SLPC  H14X20164   5.960   2.085   5.172
  177SLPC  H14Y20165   6.014   2.239   5.112
  177SLPC  C31520166   5.794   2.224   5.168
  177SLPC  H15X20167   5.762   2.328   5.191
  177SLPC  H15Y20168   5.742   2.164   5.245
  177SLPC  C31620169   5.745   2.181   5.028
  177SLPC  H16X20170   5.744   2.073   5.004
  177SLPC  H16Y20171   5.817   2.224   4.955
  177SLPC  C31720172   5.608   2.247   4.988
  177SLPC  H17X20173   5.619   2.355   5.011
  177SLPC  H17Y20174   5.530   2.223   5.063
  177SLPC  C31820175   5.549   2.229   4.848
  177SLPC  H18X20176   5.465   2.296   4.821
  177SLPC  H18Y20177   5.514   2.124   4.841
  177SLPC  H18Z20178   5.633   2.234   4.776
  178SLPC     N20179   2.034   6.578   6.792
  178SLPC   C1320180   2.171   6.615   6.842
  178SLPC  H13A20181   2.250   6.547   6.811
  178SLPC  H13B20182   2.202   6.702   6.787
  178SLPC  H13C20183   2.174   6.637   6.948
  178SLPC   C1420184   2.027   6.557   6.641
  178SLPC  H14A20185   2.039   6.650   6.588
  178SLPC  H14B20186   2.104   6.491   6.605
  178SLPC  H14C20187   1.930   6.522   6.607
  178SLPC   C1520188   1.939   6.681   6.838
  178SLPC  H15A20189   1.986   6.779   6.840
  178SLPC  H15B20190   1.850   6.686   6.778
  178SLPC  H15C20191   1.911   6.658   6.939
  178SLPC   C1220192   1.994   6.446   6.860
  178SLPC  H12A20193   1.896   6.425   6.821
  178SLPC  H12B20194   1.993   6.458   6.967
  178SLPC   C1120195   2.077   6.322   6.831
  178SLPC  H11A20196   2.092   6.303   6.723
  178SLPC  H11B20197   2.010   6.246   6.875
  178SLPC     P20198   2.278   6.191   6.904
  178SLPC   O1320199   2.424   6.206   6.909
  178SLPC   O1420200   2.218   6.110   7.007
  178SLPC   O1220201   2.201   6.331   6.902
  178SLPC   O1120202   2.243   6.129   6.758
  178SLPC    C120203   2.331   6.040   6.697
  178SLPC    HA20204   2.417   6.004   6.758
  178SLPC    HB20205   2.267   5.953   6.672
  178SLPC    C220206   2.396   6.105   6.583
  178SLPC    HS20207   2.457   6.193   6.613
  178SLPC   O2120208   2.302   6.138   6.479
  178SLPC   C2120209   2.322   6.241   6.408
  178SLPC   O2220210   2.395   6.336   6.436
  178SLPC   C2220211   2.241   6.229   6.279
  178SLPC   H2R20212   2.257   6.123   6.247
  178SLPC   H2S20213   2.132   6.231   6.301
  178SLPC    C320214   2.515   6.008   6.525
  178SLPC    HX20215   2.462   5.913   6.502
  178SLPC    HY20216   2.572   5.989   6.619
  178SLPC   O3120217   2.585   6.065   6.413
  178SLPC   C3120218   2.685   5.994   6.374
  178SLPC   O3220219   2.713   5.880   6.413
  178SLPC   C3220220   2.765   6.066   6.260
  178SLPC   H2X20221   2.763   6.006   6.167
  178SLPC   H2Y20222   2.871   6.079   6.291
  178SLPC   C2320223   2.271   6.320   6.160
  178SLPC   H3R20224   2.242   6.266   6.067
  178SLPC   H3S20225   2.378   6.347   6.146
  178SLPC   C2420226   2.178   6.442   6.156
  178SLPC   H4R20227   2.208   6.511   6.238
  178SLPC   H4S20228   2.073   6.423   6.188
  178SLPC   C2520229   2.180   6.519   6.027
  178SLPC   H5R20230   2.109   6.602   6.050
  178SLPC   H5S20231   2.126   6.451   5.957
  178SLPC   C2620232   2.318   6.551   5.977
  178SLPC   H6R20233   2.363   6.452   5.956
  178SLPC   H6S20234   2.386   6.607   6.045
  178SLPC   C2720235   2.297   6.639   5.852
  178SLPC   H7R20236   2.205   6.604   5.801
  178SLPC   H7S20237   2.385   6.625   5.786
  178SLPC   C2820238   2.277   6.778   5.887
  178SLPC   H8R20239   2.196   6.788   5.963
  178SLPC   H8S20240   2.251   0.046   5.798
  178SLPC   C2920241   2.395   0.052   5.954
  178SLPC   H9R20242   2.401   0.046   6.064
  178SLPC  C21020243   2.493   0.108   5.879
  178SLPC  H10R20244   2.571   0.149   5.945
  178SLPC  C21120245   2.512   0.124   5.730
  178SLPC  H11R20246   2.445   0.055   5.674
  178SLPC  H11S20247   2.612   0.088   5.695
  178SLPC  C21220248   2.472   0.260   5.689
  178SLPC  H12R20249   2.425   0.328   5.761
  178SLPC  C21320250   2.496   0.306   5.566
  178SLPC  H13R20251   2.463   0.405   5.532
  178SLPC  C21420252   2.564   0.225   5.461
  178SLPC  H14R20253   2.498   0.220   5.372
  178SLPC  H14S20254   2.583   0.119   5.488
  178SLPC  C21520255   2.699   0.296   5.429
  178SLPC  H15R20256   2.692   0.406   5.419
  178SLPC  H15S20257   2.738   0.248   5.337
  178SLPC  C21620258   2.804   0.286   5.547
  178SLPC  H16R20259   2.796   0.186   5.595
  178SLPC  H16S20260   2.789   0.368   5.622
  178SLPC  C21720261   2.944   0.307   5.493
  178SLPC  H17R20262   2.971   0.257   5.397
  178SLPC  H17S20263   3.017   0.271   5.569
  178SLPC  C21820264   2.967   0.451   5.454
  178SLPC  H18R20265   2.942   0.517   5.540
  178SLPC  H18S20266   2.908   0.474   5.362
  178SLPC  H18T20267   3.077   0.455   5.438
  178SLPC   C3320268   2.709   6.206   6.231
  178SLPC   H3X20269   2.713   6.262   6.327
  178SLPC   H3Y20270   2.607   6.222   6.191
  178SLPC   C3420271   2.806   6.282   6.136
  178SLPC   H4X20272   2.808   6.224   6.041
  178SLPC   H4Y20273   2.907   6.292   6.181
  178SLPC   C3520274   2.747   6.418   6.088
  178SLPC   H5X20275   2.764   6.484   6.176
  178SLPC   H5Y20276   2.642   6.407   6.054
  178SLPC   C3620277   2.828   6.480   5.970
  178SLPC   H6X20278   2.810   6.420   5.878
  178SLPC   H6Y20279   2.934   6.479   6.002
  178SLPC   C3720280   2.775   6.624   5.937
  178SLPC   H7X20281   2.808   6.685   6.024
  178SLPC   H7Y20282   2.665   6.636   5.948
  178SLPC   C3820283   2.827   6.686   5.807
  178SLPC   H8X20284   2.937   6.670   5.806
  178SLPC   H8Y20285   2.806   0.002   5.797
  178SLPC   C3920286   2.758   6.618   5.683
  178SLPC   H9X20287   2.647   6.628   5.687
  178SLPC   H9Y20288   2.786   6.512   5.671
  178SLPC  C31020289   2.810   6.678   5.553
  178SLPC  H10X20290   2.913   6.636   5.545
  178SLPC  H10Y20291   2.820   6.788   5.565
  178SLPC  C31120292   2.736   6.643   5.429
  178SLPC  H11X20293   2.629   6.667   5.448
  178SLPC  H11Y20294   2.736   6.534   5.411
  178SLPC  C31220295   2.789   6.715   5.298
  178SLPC  H12X20296   2.750   0.027   5.298
  178SLPC  H12Y20297   2.745   6.663   5.211
  178SLPC  C31320298   2.945   6.716   5.293
  178SLPC  H13X20299   2.976   6.610   5.308
  178SLPC  H13Y20300   2.974   6.768   5.387
  178SLPC  C31420301   2.986   0.002   5.166
  178SLPC  H14X20302   2.952   0.107   5.173
  178SLPC  H14Y20303   2.932   6.741   5.086
  178SLPC  C31520304   3.138   6.788   5.150
  178SLPC  H15X20305   3.180   6.704   5.208
  178SLPC  H15Y20306   3.184   0.091   5.183
  178SLPC  C31620307   3.178   6.750   5.008
  178SLPC  H16X20308   3.152   6.646   4.981
  178SLPC  H16Y20309   3.281   6.774   4.975
  178SLPC  C31720310   3.114   0.056   4.901
  178SLPC  H17X20311   3.117   0.161   4.938
  178SLPC  H17Y20312   3.011   0.019   4.881
  178SLPC  C31820313   3.198   0.065   4.769
  178SLPC  H18X20314   3.141   0.121   4.692
  178SLPC  H18Y20315   3.211   6.754   4.731
  178SLPC  H18Z20316   3.298   0.109   4.790
  179SLPC     N20317   4.000   1.613   2.607
  179SLPC   C1320318   4.080   1.618   2.740
  179SLPC  H13A20319   4.159   1.690   2.725
  179SLPC  H13B20320   4.020   1.654   2.822
  179SLPC  H13C20321   4.129   1.524   2.758
  179SLPC   C1420322   4.100   1.596   2.497
  179SLPC  H14A20323   4.168   1.677   2.472
  179SLPC  H14B20324   4.151   1.504   2.519
  179SLPC  H14C20325   4.041   1.586   2.406
  179SLPC   C1520326   3.943   1.742   2.580
  179SLPC  H15A20327   3.905   1.788   2.670
  179SLPC  H15B20328   4.029   1.801   2.551
  179SLPC  H15C20329   3.852   1.740   2.522
  179SLPC   C1220330   3.896   1.503   2.622
  179SLPC  H12A20331   3.847   1.511   2.718
  179SLPC  H12B20332   3.943   1.406   2.632
  179SLPC   C1120333   3.790   1.493   2.516
  179SLPC  H11A20334   3.739   1.592   2.522
  179SLPC  H11B20335   3.718   1.414   2.547
  179SLPC     P20336   3.879   1.317   2.334
  179SLPC   O1320337   3.756   1.246   2.293
  179SLPC   O1420338   3.983   1.330   2.232
  179SLPC   O1220339   3.832   1.462   2.384
  179SLPC   O1120340   3.940   1.239   2.460
  179SLPC    C120341   3.910   1.116   2.497
  179SLPC    HA20342   3.799   1.110   2.494
  179SLPC    HB20343   3.951   1.052   2.416
  179SLPC    C220344   3.979   1.066   2.629
  179SLPC    HS20345   3.976   0.955   2.629
  179SLPC   O2120346   3.903   1.129   2.738
  179SLPC   C2120347   3.788   1.063   2.765
  179SLPC   O2220348   3.760   0.959   2.710
  179SLPC   C2220349   3.709   1.141   2.871
  179SLPC   H2R20350   3.766   1.117   2.963
  179SLPC   H2S20351   3.723   1.249   2.853
  179SLPC    C320352   4.131   1.109   2.639
  179SLPC    HX20353   4.138   1.219   2.651
  179SLPC    HY20354   4.185   1.077   2.547
  179SLPC   O3120355   4.184   1.042   2.756
  179SLPC   C3120356   4.310   1.066   2.771
  179SLPC   O3220357   4.378   1.128   2.687
  179SLPC   C3220358   4.368   0.985   2.890
  179SLPC   H2X20359   4.328   0.883   2.873
  179SLPC   H2Y20360   4.324   1.023   2.985
  179SLPC   C2320361   3.566   1.094   2.876
  179SLPC   H3R20362   3.563   0.985   2.898
  179SLPC   H3S20363   3.517   1.111   2.778
  179SLPC   C2420364   3.482   1.159   2.979
  179SLPC   H4R20365   3.372   1.152   2.963
  179SLPC   H4S20366   3.500   1.268   2.979
  179SLPC   C2520367   3.522   1.128   3.127
  179SLPC   H5R20368   3.615   1.185   3.146
  179SLPC   H5S20369   3.546   1.020   3.134
  179SLPC   C2620370   3.418   1.161   3.238
  179SLPC   H6R20371   3.313   1.145   3.207
  179SLPC   H6S20372   3.426   1.265   3.278
  179SLPC   C2720373   3.434   1.074   3.364
  179SLPC   H7R20374   3.465   1.133   3.453
  179SLPC   H7S20375   3.525   1.013   3.347
  179SLPC   C2820376   3.310   0.987   3.409
  179SLPC   H8R20377   3.298   0.915   3.326
  179SLPC   H8S20378   3.222   1.056   3.412
  179SLPC   C2920379   3.345   0.920   3.539
  179SLPC   H9R20380   3.395   0.823   3.526
  179SLPC  C21020381   3.288   0.945   3.659
  179SLPC  H10R20382   3.327   0.885   3.742
  179SLPC  C21120383   3.187   1.055   3.698
  179SLPC  H11R20384   3.152   1.108   3.607
  179SLPC  H11S20385   3.232   1.131   3.766
  179SLPC  C21220386   3.065   1.007   3.771
  179SLPC  H12R20387   3.006   0.950   3.697
  179SLPC  C21320388   3.035   0.995   3.901
  179SLPC  H13R20389   2.938   0.955   3.932
  179SLPC  C21420390   3.107   1.051   4.016
  179SLPC  H14R20391   3.058   1.145   4.049
  179SLPC  H14S20392   3.211   1.082   3.992
  179SLPC  C21520393   3.101   0.962   4.148
  179SLPC  H15R20394   3.123   0.856   4.121
  179SLPC  H15S20395   3.005   0.970   4.203
  179SLPC  C21620396   3.201   1.004   4.253
  179SLPC  H16R20397   3.160   1.093   4.303
  179SLPC  H16S20398   3.299   1.040   4.215
  179SLPC  C21720399   3.228   0.903   4.368
  179SLPC  H17R20400   3.290   0.820   4.327
  179SLPC  H17S20401   3.136   0.858   4.411
  179SLPC  C21820402   3.314   0.971   4.471
  179SLPC  H18R20403   3.419   0.982   4.436
  179SLPC  H18S20404   3.311   0.907   4.561
  179SLPC  H18T20405   3.270   1.070   4.497
  179SLPC   C3320406   4.524   1.004   2.900
  179SLPC   H3X20407   4.525   1.115   2.887
  179SLPC   H3Y20408   4.557   0.942   2.815
  179SLPC   C3420409   4.594   0.970   3.034
  179SLPC   H4X20410   4.703   0.988   3.021
  179SLPC   H4Y20411   4.575   0.862   3.057
  179SLPC   C3520412   4.550   1.056   3.156
  179SLPC   H5X20413   4.577   1.163   3.140
  179SLPC   H5Y20414   4.439   1.055   3.155
  179SLPC   C3620415   4.611   1.003   3.284
  179SLPC   H6X20416   4.722   0.999   3.278
  179SLPC   H6Y20417   4.567   0.906   3.314
  179SLPC   C3720418   4.576   1.091   3.410
  179SLPC   H7X20419   4.608   1.195   3.391
  179SLPC   H7Y20420   4.633   1.064   3.501
  179SLPC   C3820421   4.430   1.082   3.436
  179SLPC   H8X20422   4.405   0.975   3.446
  179SLPC   H8Y20423   4.381   1.137   3.353
  179SLPC   C3920424   4.386   1.146   3.566
  179SLPC   H9X20425   4.366   1.255   3.550
  179SLPC   H9Y20426   4.466   1.129   3.641
  179SLPC  C31020427   4.263   1.076   3.630
  179SLPC  H10X20428   4.299   0.974   3.656
  179SLPC  H10Y20429   4.170   1.078   3.570
  179SLPC  C31120430   4.222   1.133   3.771
  179SLPC  H11X20431   4.202   1.242   3.764
  179SLPC  H11Y20432   4.307   1.131   3.843
  179SLPC  C31220433   4.097   1.062   3.829
  179SLPC  H12X20434   4.126   0.957   3.849
  179SLPC  H12Y20435   4.004   1.066   3.769
  179SLPC  C31320436   4.071   1.103   3.978
  179SLPC  H13X20437   4.051   1.212   3.972
  179SLPC  H13Y20438   4.160   1.085   4.042
  179SLPC  C31420439   3.953   1.029   4.032
  179SLPC  H14X20440   3.971   0.920   4.028
  179SLPC  H14Y20441   3.870   1.057   3.964
  179SLPC  C31520442   3.908   1.085   4.171
  179SLPC  H15X20443   3.910   1.196   4.172
  179SLPC  H15Y20444   3.985   1.051   4.243
  179SLPC  C31620445   3.761   1.051   4.201
  179SLPC  H16X20446   3.750   0.941   4.186
  179SLPC  H16Y20447   3.697   1.087   4.118
  179SLPC  C31720448   3.713   1.083   4.344
  179SLPC  H17X20449   3.605   1.059   4.347
  179SLPC  H17Y20450   3.720   1.190   4.372
  179SLPC  C31820451   3.778   1.000   4.448
  179SLPC  H18X20452   3.887   1.021   4.458
  179SLPC  H18Y20453   3.754   0.893   4.434
  179SLPC  H18Z20454   3.732   1.019   4.547
  180SLPC     N20455   2.393   1.078   2.301
  180SLPC   C1320456   2.541   1.088   2.296
  180SLPC  H13A20457   2.581   1.042   2.385
  180SLPC  H13B20458   2.581   1.042   2.207
  180SLPC  H13C20459   2.576   1.190   2.296
  180SLPC   C1420460   2.352   0.933   2.300
  180SLPC  H14A20461   2.245   0.925   2.316
  180SLPC  H14B20462   2.387   0.886   2.209
  180SLPC  H14C20463   2.387   0.871   2.381
  180SLPC   C1520464   2.346   1.130   2.171
  180SLPC  H15A20465   2.242   1.108   2.154
  180SLPC  H15B20466   2.373   1.234   2.156
  180SLPC  H15C20467   2.388   1.071   2.091
  180SLPC   C1220468   2.327   1.149   2.416
  180SLPC  H12A20469   2.347   1.110   2.515
  180SLPC  H12B20470   2.220   1.134   2.407
  180SLPC   C1120471   2.350   1.305   2.402
  180SLPC  H11A20472   2.454   1.320   2.367
  180SLPC  H11B20473   2.331   1.357   2.498
  180SLPC     P20474   2.292   1.487   2.207
  180SLPC   O1320475   2.327   1.424   2.080
  180SLPC   O1420476   2.175   1.578   2.218
  180SLPC   O1220477   2.262   1.366   2.299
  180SLPC   O1120478   2.423   1.556   2.263
  180SLPC    C120479   2.412   1.658   2.359
  180SLPC    HA20480   2.404   1.758   2.311
  180SLPC    HB20481   2.336   1.648   2.439
  180SLPC    C220482   2.546   1.681   2.435
  180SLPC    HS20483   2.612   1.734   2.363
  180SLPC   O2120484   2.592   1.551   2.483
  180SLPC   C2120485   2.720   1.529   2.468
  180SLPC   O2220486   2.797   1.608   2.418
  180SLPC   C2220487   2.751   1.392   2.521
  180SLPC   H2R20488   2.686   1.312   2.480
  180SLPC   H2S20489   2.856   1.372   2.493
  180SLPC    C320490   2.517   1.778   2.561
  180SLPC    HX20491   2.460   1.866   2.525
  180SLPC    HY20492   2.623   1.808   2.576
  180SLPC   O3120493   2.443   1.720   2.665
  180SLPC   C3120494   2.497   1.688   2.780
  180SLPC   O3220495   2.614   1.717   2.808
  180SLPC   C3220496   2.402   1.613   2.881
  180SLPC   H2X20497   2.392   1.508   2.848
  180SLPC   H2Y20498   2.305   1.667   2.878
  180SLPC   C2320499   2.751   1.393   2.676
  180SLPC   H3R20500   2.647   1.418   2.706
  180SLPC   H3S20501   2.816   1.471   2.720
  180SLPC   C2420502   2.785   1.256   2.747
  180SLPC   H4R20503   2.795   1.279   2.855
  180SLPC   H4S20504   2.881   1.221   2.704
  180SLPC   C2520505   2.677   1.147   2.733
  180SLPC   H5R20506   2.712   1.050   2.775
  180SLPC   H5S20507   2.666   1.123   2.625
  180SLPC   C2620508   2.542   1.185   2.803
  180SLPC   H6R20509   2.477   1.102   2.768
  180SLPC   H6S20510   2.505   1.285   2.772
  180SLPC   C2720511   2.558   1.172   2.960
  180SLPC   H7R20512   2.626   1.253   2.993
  180SLPC   H7S20513   2.611   1.074   2.964
  180SLPC   C2820514   2.430   1.166   3.048
  180SLPC   H8R20515   2.383   1.068   3.025
  180SLPC   H8S20516   2.362   1.241   3.003
  180SLPC   C2920517   2.426   1.203   3.195
  180SLPC   H9R20518   2.455   1.302   3.231
  180SLPC  C21020519   2.370   1.130   3.289
  180SLPC  H10R20520   2.381   1.161   3.394
  180SLPC  C21120521   2.313   0.990   3.274
  180SLPC  H11R20522   2.364   0.923   3.347
  180SLPC  H11S20523   2.335   0.933   3.182
  180SLPC  C21220524   2.163   0.972   3.293
  180SLPC  H12R20525   2.112   0.925   3.207
  180SLPC  C21320526   2.092   1.012   3.399
  180SLPC  H13R20527   1.985   0.989   3.413
  180SLPC  C21420528   2.132   1.088   3.525
  180SLPC  H14R20529   2.050   1.154   3.559
  180SLPC  H14S20530   2.211   1.157   3.489
  180SLPC  C21520531   2.213   1.016   3.635
  180SLPC  H15R20532   2.250   1.083   3.716
  180SLPC  H15S20533   2.297   0.962   3.587
  180SLPC  C21620534   2.122   0.915   3.700
  180SLPC  H16R20535   2.051   0.866   3.630
  180SLPC  H16S20536   2.051   0.976   3.760
  180SLPC  C21720537   2.179   0.817   3.807
  180SLPC  H17R20538   2.242   0.879   3.874
  180SLPC  H17S20539   2.252   0.753   3.752
  180SLPC  C21820540   2.077   0.734   3.879
  180SLPC  H18R20541   2.028   0.789   3.963
  180SLPC  H18S20542   2.143   0.655   3.920
  180SLPC  H18T20543   2.005   0.691   3.806
  180SLPC   C3320544   2.451   1.618   3.033
  180SLPC   H3X20545   2.470   1.725   3.054
  180SLPC   H3Y20546   2.541   1.554   3.044
  180SLPC   C3420547   2.348   1.577   3.137
  180SLPC   H4X20548   2.310   1.476   3.114
  180SLPC   H4Y20549   2.267   1.653   3.137
  180SLPC   C3520550   2.398   1.573   3.279
  180SLPC   H5X20551   2.426   1.675   3.312
  180SLPC   H5Y20552   2.490   1.512   3.284
  180SLPC   C3620553   2.287   1.536   3.384
  180SLPC   H6X20554   2.226   1.457   3.337
  180SLPC   H6Y20555   2.228   1.626   3.412
  180SLPC   C3720556   2.352   1.487   3.519
  180SLPC   H7X20557   2.396   1.582   3.557
  180SLPC   H7Y20558   2.424   1.407   3.494
  180SLPC   C3820559   2.246   1.427   3.613
  180SLPC   H8X20560   2.188   1.357   3.548
  180SLPC   H8Y20561   2.171   1.501   3.649
  180SLPC   C3920562   2.318   1.370   3.735
  180SLPC   H9X20563   2.395   1.443   3.769
  180SLPC   H9Y20564   2.367   1.276   3.702
  180SLPC  C31020565   2.218   1.342   3.845
  180SLPC  H10X20566   2.163   1.250   3.816
  180SLPC  H10Y20567   2.152   1.430   3.859
  180SLPC  C31120568   2.291   1.312   3.973
  180SLPC  H11X20569   2.347   1.400   4.009
  180SLPC  H11Y20570   2.365   1.233   3.945
  180SLPC  C31220571   2.206   1.284   4.097
  180SLPC  H12X20572   2.116   1.349   4.104
  180SLPC  H12Y20573   2.266   1.301   4.189
  180SLPC  C31320574   2.149   1.136   4.104
  180SLPC  H13X20575   2.106   1.110   4.004
  180SLPC  H13Y20576   2.064   1.134   4.177
  180SLPC  C31420577   2.251   1.031   4.138
  180SLPC  H14X20578   2.348   1.052   4.089
  180SLPC  H14Y20579   2.213   0.931   4.106
  180SLPC  C31520580   2.288   1.022   4.287
  180SLPC  H15X20581   2.194   0.990   4.336
  180SLPC  H15Y20582   2.309   1.126   4.322
  180SLPC  C31620583   2.401   0.925   4.320
  180SLPC  H16X20584   2.381   0.823   4.279
  180SLPC  H16Y20585   2.400   0.929   4.431
  180SLPC  C31720586   2.541   0.962   4.265
  180SLPC  H17X20587   2.531   1.017   4.169
  180SLPC  H17Y20588   2.587   0.863   4.243
  180SLPC  C31820589   2.636   1.031   4.367
  180SLPC  H18X20590   2.617   1.140   4.371
  180SLPC  H18Y20591   2.740   1.021   4.329
  180SLPC  H18Z20592   2.619   0.979   4.464
  181SLPC     N20593   1.788   6.486   1.879
  181SLPC   C1320594   1.692   6.373   1.845
  181SLPC  H13A20595   1.730   6.292   1.785
  181SLPC  H13B20596   1.644   6.330   1.932
  181SLPC  H13C20597   1.617   6.424   1.785
  181SLPC   C1420598   1.734   6.576   1.983
  181SLPC  H14A20599   1.811   6.634   2.030
  181SLPC  H14B20600   1.655   6.641   1.949
  181SLPC  H14C20601   1.698   6.523   2.069
  181SLPC   C1520602   1.796   6.564   1.745
  181SLPC  H15A20603   1.883   6.628   1.735
  181SLPC  H15B20604   1.801   6.491   1.665
  181SLPC  H15C20605   1.710   6.627   1.727
  181SLPC   C1220606   1.928   6.430   1.923
  181SLPC  H12A20607   1.972   6.369   1.846
  181SLPC  H12B20608   1.908   6.353   1.997
  181SLPC   C1120609   2.034   6.530   1.987
  181SLPC  H11A20610   2.041   6.609   1.908
  181SLPC  H11B20611   2.137   6.488   1.994
  181SLPC     P20612   2.046   6.508   2.245
  181SLPC   O1320613   1.994   6.369   2.227
  181SLPC   O1420614   2.191   6.520   2.280
  181SLPC   O1220615   2.013   6.589   2.115
  181SLPC   O1120616   1.955   6.574   2.356
  181SLPC    C120617   2.003   6.675   2.454
  181SLPC    HA20618   2.114   6.677   2.452
  181SLPC    HB20619   1.954   6.773   2.435
  181SLPC    C220620   1.972   6.626   2.593
  181SLPC    HS20621   2.047   6.550   2.620
  181SLPC   O2120622   1.836   6.586   2.599
  181SLPC   C2120623   1.817   6.463   2.569
  181SLPC   O2220624   1.903   6.376   2.553
  181SLPC   C2220625   1.668   6.435   2.570
  181SLPC   H2R20626   1.623   6.490   2.655
  181SLPC   H2S20627   1.619   6.480   2.482
  181SLPC    C320628   1.989   6.738   2.702
  181SLPC    HX20629   1.904   0.014   2.685
  181SLPC    HY20630   2.083   6.790   2.673
  181SLPC   O3120631   1.999   6.694   2.841
  181SLPC   C3120632   1.953   0.002   2.920
  181SLPC   O3220633   1.902   0.106   2.888
  181SLPC   C3220634   1.987   6.759   3.065
  181SLPC   H2X20635   2.018   6.652   3.066
  181SLPC   H2Y20636   1.889   6.762   3.117
  181SLPC   C2320637   1.626   6.287   2.591
  181SLPC   H3R20638   1.678   6.240   2.678
  181SLPC   H3S20639   1.661   6.215   2.514
  181SLPC   C2420640   1.473   6.268   2.589
  181SLPC   H4R20641   1.437   6.165   2.610
  181SLPC   H4S20642   1.440   6.289   2.485
  181SLPC   C2520643   1.388   6.357   2.678
  181SLPC   H5R20644   1.281   6.344   2.654
  181SLPC   H5S20645   1.416   6.462   2.655
  181SLPC   C2620646   1.417   6.325   2.822
  181SLPC   H6R20647   1.524   6.331   2.851
  181SLPC   H6S20648   1.372   6.231   2.861
  181SLPC   C2720649   1.357   6.430   2.923
  181SLPC   H7R20650   1.250   6.444   2.894
  181SLPC   H7S20651   1.407   6.527   2.902
  181SLPC   C2820652   1.362   6.383   3.072
  181SLPC   H8R20653   1.463   6.337   3.084
  181SLPC   H8S20654   1.296   6.294   3.085
  181SLPC   C2920655   1.308   6.494   3.153
  181SLPC   H9R20656   1.254   6.577   3.104
  181SLPC  C21020657   1.313   6.502   3.289
  181SLPC  H10R20658   1.274   6.589   3.345
  181SLPC  C21120659   1.378   6.410   3.394
  181SLPC  H11R20660   1.434   6.472   3.468
  181SLPC  H11S20661   1.449   6.345   3.340
  181SLPC  C21220662   1.280   6.322   3.466
  181SLPC  H12R20663   1.227   6.251   3.401
  181SLPC  C21320664   1.228   6.332   3.595
  181SLPC  H13R20665   1.150   6.257   3.617
  181SLPC  C21420666   1.273   6.429   3.703
  181SLPC  H14R20667   1.190   6.458   3.771
  181SLPC  H14S20668   1.298   6.523   3.649
  181SLPC  C21520669   1.395   6.388   3.782
  181SLPC  H15R20670   1.478   6.361   3.714
  181SLPC  H15S20671   1.379   6.292   3.836
  181SLPC  C21620672   1.441   6.506   3.873
  181SLPC  H16R20673   1.356   6.537   3.938
  181SLPC  H16S20674   1.483   6.585   3.808
  181SLPC  C21720675   1.545   6.454   3.965
  181SLPC  H17R20676   1.584   6.533   4.032
  181SLPC  H17S20677   1.624   6.399   3.909
  181SLPC  C21820678   1.484   6.349   4.065
  181SLPC  H18R20679   1.397   6.400   4.112
  181SLPC  H18S20680   1.559   6.338   4.145
  181SLPC  H18T20681   1.458   6.252   4.016
  181SLPC   C3320682   2.089   0.073   3.117
  181SLPC   H3X20683   2.041   0.173   3.117
  181SLPC   H3Y20684   2.184   0.083   3.060
  181SLPC   C3420685   2.121   0.038   3.268
  181SLPC   H4X20686   2.129   6.720   3.278
  181SLPC   H4Y20687   2.038   0.076   3.331
  181SLPC   C3520688   2.254   0.086   3.326
  181SLPC   H5X20689   2.265   0.196   3.342
  181SLPC   H5Y20690   2.334   0.058   3.254
  181SLPC   C3620691   2.284   0.023   3.460
  181SLPC   H6X20692   2.282   6.706   3.444
  181SLPC   H6Y20693   2.213   0.045   3.544
  181SLPC   C3720694   2.424   0.076   3.513
  181SLPC   H7X20695   2.422   0.187   3.505
  181SLPC   H7Y20696   2.506   0.047   3.444
  181SLPC   C3820697   2.460   0.024   3.651
  181SLPC   H8X20698   2.381   0.059   3.721
  181SLPC   H8Y20699   2.543   0.090   3.683
  181SLPC   C3920700   2.505   6.678   3.671
  181SLPC   H9X20701   2.592   6.664   3.603
  181SLPC   H9Y20702   2.431   6.598   3.647
  181SLPC  C31020703   2.555   6.650   3.814
  181SLPC  H10X20704   2.638   6.713   3.853
  181SLPC  H10Y20705   2.599   6.548   3.816
  181SLPC  C31120706   2.433   6.676   3.915
  181SLPC  H11X20707   2.345   6.628   3.866
  181SLPC  H11Y20708   2.417   6.785   3.925
  181SLPC  C31220709   2.454   6.623   4.062
  181SLPC  H12X20710   2.542   6.670   4.111
  181SLPC  H12Y20711   2.483   6.517   4.046
  181SLPC  C31320712   2.323   6.606   4.146
  181SLPC  H13X20713   2.237   6.561   4.091
  181SLPC  H13Y20714   2.297   6.713   4.161
  181SLPC  C31420715   2.371   6.549   4.279
  181SLPC  H14X20716   2.454   6.614   4.315
  181SLPC  H14Y20717   2.419   6.454   4.249
  181SLPC  C31520718   2.263   6.537   4.386
  181SLPC  H15X20719   2.177   6.478   4.349
  181SLPC  H15Y20720   2.231   6.637   4.424
  181SLPC  C31620721   2.315   6.464   4.503
  181SLPC  H16X20722   2.345   6.546   4.571
  181SLPC  H16Y20723   2.402   6.401   4.474
  181SLPC  C31720724   2.206   6.373   4.569
  181SLPC  H17X20725   2.250   6.314   4.653
  181SLPC  H17Y20726   2.165   6.302   4.494
  181SLPC  C31820727   2.088   6.444   4.635
  181SLPC  H18X20728   2.031   6.499   4.557
  181SLPC  H18Y20729   2.128   6.517   4.709
  181SLPC  H18Z20730   2.027   6.368   4.688
  182SLPC     N20731   2.771   6.497   2.124
  182SLPC   C1320732   2.804   6.353   2.091
  182SLPC  H13A20733   2.812   6.289   2.178
  182SLPC  H13B20734   2.725   6.304   2.035
  182SLPC  H13C20735   2.898   6.346   2.037
  182SLPC   C1420736   2.744   6.569   1.999
  182SLPC  H14A20737   2.648   6.540   1.961
  182SLPC  H14B20738   2.743   6.676   2.014
  182SLPC  H14C20739   2.829   6.552   1.934
  182SLPC   C1520740   2.886   6.552   2.201
  182SLPC  H15A20741   2.977   6.563   2.144
  182SLPC  H15B20742   2.868   6.649   2.246
  182SLPC  H15C20743   2.909   6.488   2.285
  182SLPC   C1220744   2.642   6.495   2.215
  182SLPC  H12A20745   2.565   6.456   2.150
  182SLPC  H12B20746   2.615   6.598   2.234
  182SLPC   C1120747   2.644   6.424   2.352
  182SLPC  H11A20748   2.555   6.468   2.402
  182SLPC  H11B20749   2.729   6.452   2.417
  182SLPC     P20750   2.673   6.196   2.459
  182SLPC   O1320751   2.611   6.062   2.439
  182SLPC   O1420752   2.823   6.207   2.476
  182SLPC   O1220753   2.624   6.283   2.335
  182SLPC   O1120754   2.607   6.261   2.589
  182SLPC    C120755   2.469   6.274   2.619
  182SLPC    HA20756   2.453   6.380   2.648
  182SLPC    HB20757   2.410   6.256   2.527
  182SLPC    C220758   2.436   6.166   2.719
  182SLPC    HS20759   2.437   6.068   2.668
  182SLPC   O2120760   2.314   6.209   2.787
  182SLPC   C2120761   2.208   6.135   2.753
  182SLPC   O2220762   2.210   6.041   2.673
  182SLPC   C2220763   2.093   6.174   2.838
  182SLPC   H2R20764   1.996   6.137   2.797
  182SLPC   H2S20765   2.110   6.126   2.937
  182SLPC    C320766   2.543   6.159   2.829
  182SLPC    HX20767   2.537   6.259   2.879
  182SLPC    HY20768   2.643   6.141   2.785
  182SLPC   O3120769   2.516   6.073   2.945
  182SLPC   C3120770   2.522   5.949   2.916
  182SLPC   O3220771   2.544   5.901   2.807
  182SLPC   C3220772   2.507   5.882   3.053
  182SLPC   H2X20773   2.601   5.878   3.112
  182SLPC   H2Y20774   2.479   5.776   3.033
  182SLPC   C2320775   2.069   6.324   2.857
  182SLPC   H3R20776   2.067   6.373   2.758
  182SLPC   H3S20777   2.158   6.365   2.908
  182SLPC   C2420778   1.936   6.370   2.925
  182SLPC   H4R20779   1.848   6.330   2.871
  182SLPC   H4S20780   1.950   6.479   2.915
  182SLPC   C2520781   1.923   6.316   3.071
  182SLPC   H5R20782   2.026   6.311   3.112
  182SLPC   H5S20783   1.885   6.214   3.051
  182SLPC   C2620784   1.838   6.392   3.175
  182SLPC   H6R20785   1.735   6.365   3.144
  182SLPC   H6S20786   1.849   6.503   3.167
  182SLPC   C2720787   1.856   6.355   3.322
  182SLPC   H7R20788   1.868   6.245   3.316
  182SLPC   H7S20789   1.773   6.383   3.390
  182SLPC   C2820790   1.989   6.421   3.369
  182SLPC   H8R20791   1.983   6.531   3.375
  182SLPC   H8S20792   2.069   6.395   3.296
  182SLPC   C2920793   2.040   6.371   3.500
  182SLPC   H9R20794   2.060   6.263   3.501
  182SLPC  C21020795   2.060   6.437   3.613
  182SLPC  H10R20796   2.098   6.379   3.700
  182SLPC  C21120797   2.032   6.579   3.647
  182SLPC  H11R20798   2.046   6.644   3.559
  182SLPC  H11S20799   2.112   6.610   3.718
  182SLPC  C21220800   1.895   6.601   3.700
  182SLPC  H12R20801   1.813   6.582   3.629
  182SLPC  C21320802   1.873   6.639   3.826
  182SLPC  H13R20803   1.771   6.655   3.863
  182SLPC  C21420804   1.971   6.682   3.934
  182SLPC  H14R20805   2.041   6.764   3.906
  182SLPC  H14S20806   2.027   6.595   3.976
  182SLPC  C21520807   1.896   6.732   4.060
  182SLPC  H15R20808   1.843   6.643   4.100
  182SLPC  H15S20809   1.819   0.013   4.029
  182SLPC  C21620810   1.982   6.786   4.176
  182SLPC  H16R20811   2.046   0.075   4.137
  182SLPC  H16S20812   2.055   6.703   4.192
  182SLPC  C21720813   1.909   0.037   4.299
  182SLPC  H17R20814   1.837   0.117   4.271
  182SLPC  H17S20815   1.985   0.076   4.370
  182SLPC  C21820816   1.831   6.712   4.363
  182SLPC  H18R20817   1.896   6.627   4.392
  182SLPC  H18S20818   1.749   6.669   4.302
  182SLPC  H18T20819   1.769   6.753   4.446
  182SLPC   C3320820   2.402   5.949   3.144
  182SLPC   H3X20821   2.314   5.963   3.077
  182SLPC   H3Y20822   2.442   6.046   3.179
  182SLPC   C3420823   2.358   5.871   3.272
  182SLPC   H4X20824   2.335   5.767   3.239
  182SLPC   H4Y20825   2.266   5.922   3.308
  182SLPC   C3520826   2.453   5.877   3.383
  182SLPC   H5X20827   2.452   5.977   3.430
  182SLPC   H5Y20828   2.559   5.868   3.350
  182SLPC   C3620829   2.414   5.779   3.493
  182SLPC   H6X20830   2.392   5.676   3.456
  182SLPC   H6Y20831   2.322   5.814   3.544
  182SLPC   C3720832   2.517   5.756   3.614
  182SLPC   H7X20833   2.527   5.853   3.668
  182SLPC   H7Y20834   2.617   5.740   3.569
  182SLPC   C3820835   2.467   5.653   3.714
  182SLPC   H8X20836   2.412   5.569   3.666
  182SLPC   H8Y20837   2.381   5.701   3.765
  182SLPC   C3920838   2.579   5.609   3.808
  182SLPC   H9X20839   2.612   5.688   3.879
  182SLPC   H9Y20840   2.666   5.574   3.747
  182SLPC  C31020841   2.529   5.501   3.894
  182SLPC  H10X20842   2.469   5.428   3.835
  182SLPC  H10Y20843   2.455   5.530   3.972
  182SLPC  C31120844   2.636   5.420   3.972
  182SLPC  H11X20845   2.705   5.364   3.905
  182SLPC  H11Y20846   2.586   5.338   4.028
  182SLPC  C31220847   2.725   5.508   4.070
  182SLPC  H12X20848   2.684   5.463   4.163
  182SLPC  H12Y20849   2.703   5.617   4.073
  182SLPC  C31320850   2.872   5.498   4.058
  182SLPC  H13X20851   2.915   5.541   3.965
  182SLPC  H13Y20852   2.900   5.391   4.064
  182SLPC  C31420853   2.961   5.567   4.173
  182SLPC  H14X20854   2.946   5.515   4.270
  182SLPC  H14Y20855   2.927   5.672   4.181
  182SLPC  C31520856   3.112   5.572   4.136
  182SLPC  H15X20857   3.119   5.629   4.041
  182SLPC  H15Y20858   3.148   5.467   4.124
  182SLPC  C31620859   3.206   5.654   4.225
  182SLPC  H16X20860   3.291   5.687   4.162
  182SLPC  H16Y20861   3.246   5.584   4.301
  182SLPC  C31720862   3.140   5.769   4.293
  182SLPC  H17X20863   3.053   5.731   4.349
  182SLPC  H17Y20864   3.101   5.836   4.214
  182SLPC  C31820865   3.235   5.859   4.374
  182SLPC  H18X20866   3.270   5.797   4.459
  182SLPC  H18Y20867   3.196   5.959   4.403
  182SLPC  H18Z20868   3.314   5.890   4.302
  183SLPC     N20869   5.453   2.285   1.848
  183SLPC   C1320870   5.580   2.368   1.847
  183SLPC  H13A20871   5.660   2.296   1.836
  183SLPC  H13B20872   5.594   2.426   1.757
  183SLPC  H13C20873   5.600   2.423   1.938
  183SLPC   C1420874   5.414   2.254   1.706
  183SLPC  H14A20875   5.499   2.202   1.665
  183SLPC  H14B20876   5.327   2.191   1.692
  183SLPC  H14C20877   5.394   2.343   1.649
  183SLPC   C1520878   5.347   2.366   1.920
  183SLPC  H15A20879   5.338   2.453   1.857
  183SLPC  H15B20880   5.253   2.312   1.923
  183SLPC  H15C20881   5.378   2.382   2.022
  183SLPC   C1220882   5.480   2.148   1.926
  183SLPC  H12A20883   5.539   2.077   1.870
  183SLPC  H12B20884   5.383   2.101   1.933
  183SLPC   C1120885   5.545   2.174   2.070
  183SLPC  H11A20886   5.647   2.217   2.061
  183SLPC  H11B20887   5.566   2.073   2.111
  183SLPC     P20888   5.502   2.353   2.263
  183SLPC   O1320889   5.571   2.462   2.187
  183SLPC   O1420890   5.386   2.398   2.340
  183SLPC   O1220891   5.459   2.243   2.161
  183SLPC   O1120892   5.607   2.277   2.350
  183SLPC    C120893   5.577   2.153   2.412
  183SLPC    HA20894   5.497   2.162   2.489
  183SLPC    HB20895   5.548   2.076   2.338
  183SLPC    C220896   5.708   2.095   2.483
  183SLPC    HS20897   5.703   2.006   2.549
  183SLPC   O2120898   5.774   2.207   2.543
  183SLPC   C2120899   5.718   2.273   2.640
  183SLPC   O2220900   5.629   2.228   2.713
  183SLPC   C2220901   5.814   2.389   2.664
  183SLPC   H2R20902   5.916   2.348   2.677
  183SLPC   H2S20903   5.804   2.457   2.577
  183SLPC    C320904   5.795   2.043   2.366
  183SLPC    HX20905   5.797   2.116   2.282
  183SLPC    HY20906   5.741   1.954   2.327
  183SLPC   O3120907   5.926   1.989   2.399
  183SLPC   C3120908   6.024   2.084   2.390
  183SLPC   O3220909   6.014   2.199   2.355
  183SLPC   C3220910   6.152   2.019   2.432
  183SLPC   H2X20911   6.185   1.960   2.344
  183SLPC   H2Y20912   6.127   1.948   2.514
  183SLPC   C2320913   5.786   2.466   2.801
  183SLPC   H3R20914   5.748   2.392   2.874
  183SLPC   H3S20915   5.698   2.532   2.788
  183SLPC   C2420916   5.903   2.554   2.855
  183SLPC   H4R20917   5.940   2.614   2.769
  183SLPC   H4S20918   5.989   2.493   2.890
  183SLPC   C2520919   5.844   2.649   2.959
  183SLPC   H5R20920   5.735   2.666   2.966
  183SLPC   H5S20921   5.890   2.750   2.954
  183SLPC   C2620922   5.903   2.614   3.097
  183SLPC   H6R20923   6.013   2.606   3.085
  183SLPC   H6S20924   5.857   2.518   3.129
  183SLPC   C2720925   5.860   2.724   3.200
  183SLPC   H7R20926   5.755   2.693   3.219
  183SLPC   H7S20927   5.856   2.825   3.153
  183SLPC   C2820928   5.932   2.725   3.329
  183SLPC   H8R20929   5.944   2.619   3.362
  183SLPC   H8S20930   5.860   2.766   3.403
  183SLPC   C2920931   6.056   2.806   3.331
  183SLPC   H9R20932   6.114   2.797   3.238
  183SLPC  C21020933   6.111   2.871   3.437
  183SLPC  H10R20934   6.208   2.915   3.409
  183SLPC  C21120935   6.050   2.902   3.574
  183SLPC  H11R20936   6.129   2.956   3.631
  183SLPC  H11S20937   6.017   2.807   3.622
  183SLPC  C21220938   5.921   2.994   3.561
  183SLPC  H12R20939   5.870   2.999   3.464
  183SLPC  C21320940   5.880   3.070   3.666
  183SLPC  H13R20941   5.786   3.123   3.642
  183SLPC  C21420942   5.934   3.080   3.803
  183SLPC  H14R20943   5.950   3.189   3.813
  183SLPC  H14S20944   6.033   3.031   3.821
  183SLPC  C21520945   5.839   3.028   3.914
  183SLPC  H15R20946   5.737   3.057   3.880
  183SLPC  H15S20947   5.864   3.083   4.007
  183SLPC  C21620948   5.860   2.874   3.941
  183SLPC  H16R20949   5.958   2.862   3.990
  183SLPC  H16S20950   5.875   2.822   3.843
  183SLPC  C21720951   5.749   2.822   4.039
  183SLPC  H17R20952   5.787   2.721   4.064
  183SLPC  H17S20953   5.650   2.814   3.988
  183SLPC  C21820954   5.734   2.898   4.171
  183SLPC  H18R20955   5.668   2.847   4.245
  183SLPC  H18S20956   5.690   2.994   4.139
  183SLPC  H18T20957   5.827   2.936   4.218
  183SLPC   C3320958   6.259   2.123   2.463
  183SLPC   H3X20959   6.277   2.181   2.370
  183SLPC   H3Y20960   6.355   2.079   2.497
  183SLPC   C3420961   6.224   2.227   2.575
  183SLPC   H4X20962   6.135   2.290   2.553
  183SLPC   H4Y20963   6.310   2.295   2.591
  183SLPC   C3520964   6.206   2.167   2.714
  183SLPC   H5X20965   6.282   2.089   2.739
  183SLPC   H5Y20966   6.107   2.118   2.716
  183SLPC   C3620967   6.226   2.276   2.818
  183SLPC   H6X20968   6.170   2.366   2.781
  183SLPC   H6Y20969   6.331   2.310   2.818
  183SLPC   C3720970   6.149   2.253   2.946
  183SLPC   H7X20971   6.158   2.142   2.949
  183SLPC   H7Y20972   6.042   2.279   2.945
  183SLPC   C3820973   6.212   2.320   3.070
  183SLPC   H8X20974   6.182   2.426   3.055
  183SLPC   H8Y20975   6.322   2.305   3.064
  183SLPC   C3920976   6.165   2.279   3.205
  183SLPC   H9X20977   6.205   2.177   3.226
  183SLPC   H9Y20978   6.054   2.283   3.197
  183SLPC  C31020979   6.214   2.374   3.312
  183SLPC  H10X20980   6.148   2.464   3.304
  183SLPC  H10Y20981   6.319   2.400   3.286
  183SLPC  C31120982   6.206   2.299   3.447
  183SLPC  H11X20983   6.294   2.231   3.455
  183SLPC  H11Y20984   6.112   2.240   3.445
  183SLPC  C31220985   6.200   2.379   3.576
  183SLPC  H12X20986   6.282   2.453   3.583
  183SLPC  H12Y20987   6.223   2.303   3.654
  183SLPC  C31320988   6.075   2.455   3.606
  183SLPC  H13X20989   5.985   2.399   3.573
  183SLPC  H13Y20990   6.067   2.543   3.539
  183SLPC  C31420991   6.057   2.502   3.751
  183SLPC  H14X20992   5.980   2.583   3.745
  183SLPC  H14Y20993   6.154   2.549   3.775
  183SLPC  C31520994   6.019   2.383   3.840
  183SLPC  H15X20995   6.104   2.311   3.847
  183SLPC  H15Y20996   5.931   2.321   3.809
  183SLPC  C31620997   5.991   2.426   3.978
  183SLPC  H16X20998   5.986   2.334   4.041
  183SLPC  H16Y20999   5.889   2.471   3.984
  183SLPC  C31721000   6.092   2.513   4.040
  183SLPC  H17X21001   6.090   2.609   3.985
  183SLPC  H17Y21002   6.196   2.482   4.017
  183SLPC  C31821003   6.066   2.536   4.191
  183SLPC  H18X21004   6.033   2.443   4.242
  183SLPC  H18Y21005   5.995   2.621   4.197
  183SLPC  H18Z21006   6.166   2.566   4.229
  184SLPC     N21007   6.569   1.755   1.699
  184SLPC   C1321008   6.630   1.620   1.697
  184SLPC  H13A21009   6.606   1.580   1.794
  184SLPC  H13B21010   6.584   1.548   1.631
  184SLPC  H13C21011   6.733   1.625   1.666
  184SLPC   C1421012   6.417   1.749   1.727
  184SLPC  H14A21013   6.396   1.709   1.825
  184SLPC  H14B21014   6.380   1.848   1.709
  184SLPC  H14C21015   6.374   1.676   1.661
  184SLPC   C1521016   6.598   1.822   1.572
  184SLPC  H15A21017   6.704   1.829   1.554
  184SLPC  H15B21018   6.566   1.753   1.496
  184SLPC  H15C21019   6.551   1.919   1.564
  184SLPC   C1221020   6.635   1.831   1.815
  184SLPC  H12A21021   6.615   1.936   1.801
  184SLPC  H12B21022   6.738   1.814   1.787
  184SLPC   C1121023   6.592   1.794   1.962
  184SLPC  H11A21024   6.501   1.852   1.989
  184SLPC  H11B21025   6.665   1.823   2.041
  184SLPC     P21026   6.462   1.576   2.045
  184SLPC   O1321027   6.340   1.648   2.011
  184SLPC   O1421028   6.466   1.433   2.008
  184SLPC   O1221029   6.571   1.651   1.977
  184SLPC   O1121030   6.485   1.596   2.198
  184SLPC    C121031   6.614   1.612   2.263
  184SLPC    HA21032   6.660   1.511   2.262
  184SLPC    HB21033   6.670   1.696   2.216
  184SLPC    C221034   6.600   1.652   2.414
  184SLPC    HS21035   6.700   1.675   2.457
  184SLPC   O2121036   6.539   1.547   2.489
  184SLPC   C2121037   6.619   1.445   2.503
  184SLPC   O2221038   6.740   1.449   2.477
  184SLPC   C2221039   6.547   1.347   2.587
  184SLPC   H2R21040   6.542   1.388   2.690
  184SLPC   H2S21041   6.441   1.330   2.559
  184SLPC    C321042   6.515   1.780   2.423
  184SLPC    HX21043   6.425   1.767   2.360
  184SLPC    HY21044   6.569   1.867   2.381
  184SLPC   O3121045   6.480   1.805   2.564
  184SLPC   C3121046   6.362   1.766   2.601
  184SLPC   O3221047   6.283   1.713   2.521
  184SLPC   C3221048   6.345   1.786   2.750
  184SLPC   H2X21049   6.372   1.891   2.773
  184SLPC   H2Y21050   6.415   1.714   2.798
  184SLPC   C2321051   6.634   1.221   2.606
  184SLPC   H3R21052   6.681   1.188   2.511
  184SLPC   H3S21053   6.570   1.137   2.644
  184SLPC   C2421054   6.751   1.241   2.701
  184SLPC   H4R21055   6.723   1.316   2.777
  184SLPC   H4S21056   0.045   1.294   2.657
  184SLPC   C2521057   0.006   1.105   2.758
  184SLPC   H5R21058   0.082   1.074   2.683
  184SLPC   H5S21059   6.720   1.028   2.751
  184SLPC   C2621060   0.073   1.109   2.889
  184SLPC   H6R21061   0.104   1.003   2.903
  184SLPC   H6S21062   6.791   1.140   2.964
  184SLPC   C2721063   0.202   1.191   2.903
  184SLPC   H7R21064   0.188   1.299   2.878
  184SLPC   H7S21065   0.269   1.147   2.826
  184SLPC   C2821066   0.277   1.174   3.047
  184SLPC   H8R21067   0.376   1.221   3.030
  184SLPC   H8S21068   0.282   1.070   3.084
  184SLPC   C2921069   0.190   1.264   3.136
  184SLPC   H9R21070   0.174   1.364   3.093
  184SLPC  C21021071   0.170   1.248   3.271
  184SLPC  H10R21072   0.117   1.333   3.314
  184SLPC  C21121073   0.189   1.132   3.354
  184SLPC  H11R21074   0.204   1.048   3.283
  184SLPC  H11S21075   0.099   1.115   3.417
  184SLPC  C21221076   0.310   1.158   3.439
  184SLPC  H12R21077   0.403   1.155   3.381
  184SLPC  C21321078   0.316   1.197   3.565
  184SLPC  H13R21079   0.418   1.223   3.597
  184SLPC  C21421080   0.192   1.217   3.649
  184SLPC  H14R21081   0.105   1.161   3.607
  184SLPC  H14S21082   0.172   1.325   3.657
  184SLPC  C21521083   0.192   1.180   3.799
  184SLPC  H15R21084   0.290   1.220   3.833
  184SLPC  H15S21085   0.204   1.070   3.810
  184SLPC  C21621086   0.069   1.220   3.876
  184SLPC  H16R21087   0.064   1.331   3.867
  184SLPC  H16S21088   0.087   1.205   3.985
  184SLPC  C21721089   6.725   1.149   3.831
  184SLPC  H17R21090   6.751   1.048   3.793
  184SLPC  H17S21091   6.680   1.194   3.739
  184SLPC  C21821092   6.624   1.135   3.947
  184SLPC  H18R21093   6.676   1.086   4.031
  184SLPC  H18S21094   6.531   1.075   3.933
  184SLPC  H18T21095   6.601   1.237   3.986
  184SLPC   C3321096   6.202   1.752   2.794
  184SLPC   H3X21097   6.186   1.643   2.787
  184SLPC   H3Y21098   6.130   1.803   2.725
  184SLPC   C3421099   6.164   1.797   2.924
  184SLPC   H4X21100   6.055   1.786   2.943
  184SLPC   H4Y21101   6.192   1.904   2.930
  184SLPC   C3521102   6.248   1.740   3.039
  184SLPC   H5X21103   6.355   1.736   3.009
  184SLPC   H5Y21104   6.217   1.636   3.062
  184SLPC   C3621105   6.241   1.836   3.156
  184SLPC   H6X21106   6.152   1.820   3.220
  184SLPC   H6Y21107   6.222   1.943   3.132
  184SLPC   C3721108   6.371   1.814   3.243
  184SLPC   H7X21109   6.459   1.835   3.179
  184SLPC   H7Y21110   6.383   1.706   3.266
  184SLPC   C3821111   6.367   1.899   3.372
  184SLPC   H8X21112   6.346   2.006   3.347
  184SLPC   H8Y21113   6.468   1.893   3.417
  184SLPC   C3921114   6.260   1.864   3.480
  184SLPC   H9X21115   6.281   1.762   3.520
  184SLPC   H9Y21116   6.164   1.851   3.427
  184SLPC  C31021117   6.241   1.960   3.592
  184SLPC  H10X21118   6.176   2.040   3.550
  184SLPC  H10Y21119   6.338   1.994   3.633
  184SLPC  C31121120   6.162   1.882   3.698
  184SLPC  H11X21121   6.212   1.787   3.727
  184SLPC  H11Y21122   6.063   1.862   3.651
  184SLPC  C31221123   6.139   1.976   3.823
  184SLPC  H12X21124   6.063   1.919   3.880
  184SLPC  H12Y21125   6.083   2.065   3.789
  184SLPC  C31321126   6.266   2.008   3.887
  184SLPC  H13X21127   6.327   2.091   3.846
  184SLPC  H13Y21128   6.335   1.922   3.893
  184SLPC  C31421129   6.237   2.054   4.026
  184SLPC  H14X21130   6.204   1.970   4.091
  184SLPC  H14Y21131   6.165   2.139   4.023
  184SLPC  C31521132   6.361   2.099   4.113
  184SLPC  H15X21133   6.414   2.191   4.081
  184SLPC  H15Y21134   6.437   2.018   4.106
  184SLPC  C31621135   6.338   2.122   4.265
  184SLPC  H16X21136   6.297   2.028   4.306
  184SLPC  H16Y21137   6.263   2.202   4.284
  184SLPC  C31721138   6.473   2.165   4.333
  184SLPC  H17X21139   6.554   2.145   4.260
  184SLPC  H17Y21140   6.492   2.108   4.426
  184SLPC  C31821141   6.464   2.309   4.377
  184SLPC  H18X21142   6.423   2.362   4.289
  184SLPC  H18Y21143   6.552   2.357   4.423
  184SLPC  H18Z21144   6.383   2.313   4.453
  185POPC     N21145   1.867   5.668   6.907
  185POPC   C1221146   1.799   5.773   6.817
  185POPC  H12A21147   1.869   5.852   6.794
  185POPC  H12B21148   1.722   5.828   6.869
  185POPC   C1321149   1.949   5.562   6.844
  185POPC  H13A21150   1.899   5.504   6.768
  185POPC  H13B21151   2.026   5.611   6.787
  185POPC  H13C21152   1.998   5.502   6.919
  185POPC   C1421153   1.968   5.739   6.996
  185POPC  H14A21154   2.043   5.774   6.926
  185POPC  H14B21155   1.932   5.826   7.048
  185POPC  H14C21156   2.022   5.674   7.063
  185POPC   C1521157   1.767   5.592   6.990
  185POPC  H15A21158   1.822   5.538   7.066
  185POPC  H15B21159   1.732   5.509   6.931
  185POPC  H15C21160   1.685   5.651   7.028
  185POPC   C1121161   1.728   5.721   6.685
  185POPC  H11A21162   1.799   5.658   6.627
  185POPC  H11B21163   1.707   5.806   6.617
  185POPC     P21164   1.475   5.679   6.753
  185POPC   O1321165   1.483   5.772   6.868
  185POPC   O1421166   1.395   5.557   6.776
  185POPC   O1221167   1.620   5.639   6.703
  185POPC   O1121168   1.415   5.745   6.620
  185POPC    C121169   1.414   5.890   6.613
  185POPC    HA21170   1.516   5.935   6.620
  185POPC    HB21171   1.359   5.933   6.699
  185POPC    C221172   1.356   5.936   6.484
  185POPC    HS21173   1.251   5.899   6.474
  185POPC   O2121174   1.444   5.883   6.378
  185POPC   C2121175   1.384   5.816   6.277
  185POPC   O2221176   1.263   5.810   6.264
  185POPC   C2221177   1.494   5.738   6.202
  185POPC   H2R21178   1.591   5.752   6.253
  185POPC   H2S21179   1.496   5.787   6.103
  185POPC    C321180   1.358   6.090   6.474
  185POPC    HX21181   1.456   6.142   6.472
  185POPC    HY21182   1.310   6.112   6.572
  185POPC   O3121183   1.268   6.131   6.377
  185POPC   C3121184   1.320   6.164   6.260
  185POPC   O3221185   1.438   6.181   6.233
  185POPC   C3221186   1.213   6.157   6.157
  185POPC   H2X21187   1.143   6.243   6.164
  185POPC   H2Y21188   1.139   6.078   6.182
  185POPC   C2321189   1.474   5.584   6.206
  185POPC   H3R21190   1.370   5.548   6.220
  185POPC   H3S21191   1.524   5.548   6.299
  185POPC   C2421192   1.553   5.527   6.086
  185POPC   H4R21193   1.531   5.418   6.078
  185POPC   H4S21194   1.660   5.525   6.115
  185POPC   C2521195   1.548   5.604   5.949
  185POPC   H5R21196   1.621   5.688   5.941
  185POPC   H5S21197   1.446   5.648   5.948
  185POPC   C2621198   1.577   5.509   5.829
  185POPC   H6R21199   1.519   5.416   5.846
  185POPC   H6S21200   1.687   5.495   5.821
  185POPC   C2721201   1.542   5.564   5.689
  185POPC   H7R21202   1.597   5.659   5.673
  185POPC   H7S21203   1.436   5.596   5.690
  185POPC   C2821204   1.557   5.464   5.572
  185POPC   H8R21205   1.495   5.508   5.492
  185POPC   H8S21206   1.512   5.365   5.593
  185POPC   C2921207   1.700   5.439   5.532
  185POPC   H9121208   1.755   5.357   5.579
  185POPC  C21021209   1.771   5.502   5.433
  185POPC  H10121210   1.876   5.478   5.413
  185POPC  C21121211   1.724   5.609   5.336
  185POPC  H11R21212   1.645   5.666   5.389
  185POPC  H11S21213   1.688   5.574   5.237
  185POPC  C21221214   1.836   5.707   5.294
  185POPC  H12R21215   1.890   5.757   5.376
  185POPC  H12S21216   1.785   5.792   5.243
  185POPC  C21321217   1.940   5.645   5.191
  185POPC  H13R21218   1.882   5.572   5.132
  185POPC  H13S21219   2.032   5.604   5.237
  185POPC  C21421220   1.995   5.741   5.088
  185POPC  H14R21221   2.053   5.822   5.138
  185POPC  H14S21222   1.906   5.789   5.042
  185POPC  C21521223   2.079   5.672   4.977
  185POPC  H15R21224   2.008   5.597   4.934
  185POPC  H15S21225   2.164   5.615   5.019
  185POPC  C21621226   2.132   5.767   4.860
  185POPC  H16R21227   2.042   5.795   4.801
  185POPC  H16S21228   2.186   5.703   4.787
  185POPC  C21721229   2.215   5.889   4.902
  185POPC  H17R21230   2.319   5.853   4.920
  185POPC  H17S21231   2.178   5.934   4.997
  185POPC  C21821232   2.228   6.004   4.801
  185POPC  H18R21233   2.280   5.961   4.712
  185POPC  H18S21234   2.293   6.084   4.844
  185POPC  H18T21235   2.130   6.047   4.773
  185POPC   C3321236   1.261   6.138   6.010
  185POPC   H3X21237   1.296   6.236   5.971
  185POPC   H3Y21238   1.168   6.115   5.953
  185POPC   C3421239   1.362   6.026   5.977
  185POPC   H4X21240   1.327   5.929   6.018
  185POPC   H4Y21241   1.456   6.046   6.031
  185POPC   C3521242   1.376   6.017   5.826
  185POPC   H5X21243   1.445   5.931   5.822
  185POPC   H5Y21244   1.428   6.104   5.781
  185POPC   C3621245   1.245   5.990   5.749
  185POPC   H6X21246   1.195   6.089   5.746
  185POPC   H6Y21247   1.180   5.911   5.793
  185POPC   C3721248   1.273   5.934   5.607
  185POPC   H7X21249   1.175   5.921   5.556
  185POPC   H7Y21250   1.326   5.837   5.611
  185POPC   C3821251   1.350   6.037   5.524
  185POPC   H8X21252   1.456   6.032   5.558
  185POPC   H8Y21253   1.312   6.138   5.553
  185POPC   C3921254   1.339   6.013   5.370
  185POPC   H9X21255   1.382   6.104   5.324
  185POPC   H9Y21256   1.229   6.022   5.355
  185POPC  C31021257   1.408   5.888   5.316
  185POPC  H10X21258   1.399   5.805   5.389
  185POPC  H10Y21259   1.518   5.907   5.309
  185POPC  C31121260   1.364   5.847   5.173
  185POPC  H11X21261   1.261   5.807   5.170
  185POPC  H11Y21262   1.435   5.772   5.133
  185POPC  C31221263   1.361   5.962   5.069
  185POPC  H12X21264   1.312   6.053   5.110
  185POPC  H12Y21265   1.299   5.933   4.981
  185POPC  C31321266   1.501   6.009   5.014
  185POPC  H13X21267   1.552   6.061   5.098
  185POPC  H13Y21268   1.481   6.091   4.941
  185POPC  C31421269   1.594   5.899   4.971
  185POPC  H14X21270   1.635   5.828   5.045
  185POPC  H14Y21271   1.683   5.953   4.931
  185POPC  C31521272   1.542   5.822   4.844
  185POPC  H15X21273   1.529   5.903   4.769
  185POPC  H15Y21274   1.442   5.775   4.855
  185POPC  C31621275   1.631   5.709   4.796
  185POPC  H16X21276   1.728   5.755   4.766
  185POPC  H16Y21277   1.594   5.652   4.708
  185POPC  H16Z21278   1.644   5.633   4.876
  186POPC     N21279   3.593   4.817   7.196
  186POPC   C1221280   3.608   4.816   7.046
  186POPC  H12A21281   3.515   4.857   7.009
  186POPC  H12B21282   3.616   4.716   7.006
  186POPC   C1321283   3.585   4.958   7.244
  186POPC  H13A21284   3.573   4.968   7.350
  186POPC  H13B21285   3.664   5.007   7.189
  186POPC  H13C21286   3.493   5.001   7.207
  186POPC   C1421287   3.468   4.750   7.242
  186POPC  H14A21288   3.470   4.766   7.349
  186POPC  H14B21289   3.375   4.791   7.205
  186POPC  H14C21290   3.474   4.644   7.221
  186POPC   C1521291   3.709   4.745   7.255
  186POPC  H15A21292   3.796   4.803   7.229
  186POPC  H15B21293   3.723   4.643   7.223
  186POPC  H15C21294   3.699   4.747   7.363
  186POPC   C1121295   3.732   4.901   6.998
  186POPC  H11A21296   3.740   4.873   6.891
  186POPC  H11B21297   3.828   4.874   7.046
  186POPC     P21298   3.609   5.113   6.923
  186POPC   O1321299   3.665   5.242   6.880
  186POPC   O1421300   3.482   5.123   7.004
  186POPC   O1221301   3.718   5.041   7.012
  186POPC   O1121302   3.578   5.019   6.798
  186POPC    C121303   3.648   5.019   6.674
  186POPC    HA21304   3.641   4.922   6.621
  186POPC    HB21305   3.757   5.030   6.689
  186POPC    C221306   3.613   5.132   6.574
  186POPC    HS21307   3.619   5.232   6.622
  186POPC   O2121308   3.479   5.106   6.527
  186POPC   C2121309   3.418   5.217   6.491
  186POPC   O2221310   3.454   5.334   6.514
  186POPC   C2221311   3.285   5.185   6.419
  186POPC   H2R21312   3.210   5.203   6.499
  186POPC   H2S21313   3.286   5.079   6.385
  186POPC    C321314   3.704   5.131   6.446
  186POPC    HX21315   3.695   5.032   6.396
  186POPC    HY21316   3.811   5.140   6.476
  186POPC   O3121317   3.656   5.234   6.354
  186POPC   C3121318   3.705   5.362   6.376
  186POPC   O3221319   3.797   5.383   6.460
  186POPC   C3221320   3.635   5.463   6.280
  186POPC   H2X21321   3.529   5.467   6.315
  186POPC   H2Y21322   3.633   5.426   6.175
  186POPC   C2321323   3.254   5.274   6.293
  186POPC   H3R21324   3.255   5.378   6.332
  186POPC   H3S21325   3.153   5.243   6.258
  186POPC   C2421326   3.348   5.244   6.174
  186POPC   H4R21327   3.316   5.140   6.151
  186POPC   H4S21328   3.449   5.235   6.220
  186POPC   C2521329   3.335   5.348   6.063
  186POPC   H5R21330   3.366   5.443   6.113
  186POPC   H5S21331   3.230   5.355   6.029
  186POPC   C2621332   3.423   5.318   5.940
  186POPC   H6R21333   3.393   5.212   5.923
  186POPC   H6S21334   3.532   5.319   5.962
  186POPC   C2721335   3.377   5.380   5.810
  186POPC   H7R21336   3.409   5.486   5.809
  186POPC   H7S21337   3.266   5.388   5.815
  186POPC   C2821338   3.418   5.326   5.676
  186POPC   H8R21339   3.350   5.366   5.598
  186POPC   H8S21340   3.407   5.217   5.697
  186POPC   C2921341   3.562   5.363   5.638
  186POPC   H9121342   3.635   5.360   5.720
  186POPC  C21021343   3.601   5.399   5.518
  186POPC  H10121344   3.706   5.431   5.515
  186POPC  C21121345   3.527   5.424   5.392
  186POPC  H11R21346   3.446   5.496   5.417
  186POPC  H11S21347   3.481   5.328   5.361
  186POPC  C21221348   3.607   5.483   5.272
  186POPC  H12R21349   3.700   5.424   5.259
  186POPC  H12S21350   3.645   5.585   5.295
  186POPC  C21321351   3.528   5.499   5.142
  186POPC  H13R21352   3.521   5.600   5.096
  186POPC  H13S21353   3.424   5.466   5.159
  186POPC  C21421354   3.588   5.415   5.029
  186POPC  H14R21355   3.594   5.307   5.056
  186POPC  H14S21356   3.690   5.449   5.001
  186POPC  C21521357   3.501   5.414   4.901
  186POPC  H15R21358   3.521   5.510   4.850
  186POPC  H15S21359   3.392   5.400   4.918
  186POPC  C21621360   3.551   5.319   4.798
  186POPC  H16R21361   3.530   5.217   4.835
  186POPC  H16S21362   3.659   5.331   4.775
  186POPC  C21721363   3.481   5.337   4.670
  186POPC  H17R21364   3.509   5.435   4.627
  186POPC  H17S21365   3.374   5.343   4.698
  186POPC  C21821366   3.506   5.219   4.573
  186POPC  H18R21367   3.453   5.244   4.479
  186POPC  H18S21368   3.463   5.123   4.608
  186POPC  H18T21369   3.615   5.206   4.559
  186POPC   C3321370   3.704   5.606   6.293
  186POPC   H3X21371   3.814   5.595   6.283
  186POPC   H3Y21372   3.681   5.639   6.397
  186POPC   C3421373   3.666   5.708   6.182
  186POPC   H4X21374   3.711   5.678   6.085
  186POPC   H4Y21375   3.717   5.804   6.205
  186POPC   C3521376   3.517   5.716   6.157
  186POPC   H5X21377   3.465   5.719   6.255
  186POPC   H5Y21378   3.483   5.624   6.106
  186POPC   C3621379   3.478   5.841   6.077
  186POPC   H6X21380   3.493   5.926   6.147
  186POPC   H6Y21381   3.372   5.842   6.045
  186POPC   C3721382   3.565   5.857   5.953
  186POPC   H7X21383   3.672   5.846   5.980
  186POPC   H7Y21384   3.555   5.961   5.915
  186POPC   C3821385   3.536   5.761   5.842
  186POPC   H8X21386   3.432   5.790   5.815
  186POPC   H8Y21387   3.542   5.656   5.879
  186POPC   C3921388   3.619   5.775   5.713
  186POPC   H9X21389   3.606   5.678   5.660
  186POPC   H9Y21390   3.724   5.791   5.745
  186POPC  C31021391   3.568   5.892   5.631
  186POPC  H10X21392   3.571   5.990   5.683
  186POPC  H10Y21393   3.465   5.866   5.601
  186POPC  C31121394   3.641   5.891   5.492
  186POPC  H11X21395   3.648   5.787   5.456
  186POPC  H11Y21396   3.747   5.914   5.519
  186POPC  C31221397   3.588   5.995   5.392
  186POPC  H12X21398   3.599   6.092   5.445
  186POPC  H12Y21399   3.479   5.992   5.372
  186POPC  C31321400   3.669   5.995   5.264
  186POPC  H13X21401   3.775   6.003   5.294
  186POPC  H13Y21402   3.653   6.082   5.196
  186POPC  C31421403   3.657   5.873   5.176
  186POPC  H14X21404   3.576   5.888   5.101
  186POPC  H14Y21405   3.631   5.787   5.241
  186POPC  C31521406   3.795   5.834   5.102
  186POPC  H15X21407   3.878   5.836   5.176
  186POPC  H15Y21408   3.824   5.920   5.037
  186POPC  C31621409   3.783   5.704   5.033
  186POPC  H16X21410   3.772   5.633   5.117
  186POPC  H16Y21411   3.872   5.675   4.972
  186POPC  H16Z21412   3.690   5.708   4.972
  187POPC     N21413   6.333   5.217   2.125
  187POPC   C1221414   6.222   5.314   2.125
  187POPC  H12A21415   6.261   5.410   2.155
  187POPC  H12B21416   6.163   5.296   2.213
  187POPC   C1321417   6.271   5.085   2.124
  187POPC  H13A21418   6.232   5.043   2.033
  187POPC  H13B21419   6.348   5.018   2.159
  187POPC  H13C21420   6.195   5.083   2.201
  187POPC   C1421421   6.422   5.235   2.006
  187POPC  H14A21422   6.367   5.238   1.913
  187POPC  H14B21423   6.477   5.327   2.012
  187POPC  H14C21424   6.497   5.158   1.997
  187POPC   C1521425   6.413   5.229   2.251
  187POPC  H15A21426   6.467   5.323   2.248
  187POPC  H15B21427   6.481   5.145   2.257
  187POPC  H15C21428   6.353   5.225   2.340
  187POPC   C1121429   6.122   5.334   2.004
  187POPC  H11A21430   6.176   5.380   1.919
  187POPC  H11B21431   6.047   5.408   2.037
  187POPC     P21432   5.933   5.165   2.033
  187POPC   O1321433   5.918   5.023   1.998
  187POPC   O1421434   5.818   5.252   2.005
  187POPC   O1221435   6.062   5.214   1.958
  187POPC   O1121436   5.969   5.167   2.184
  187POPC    C121437   5.895   5.232   2.281
  187POPC    HA21438   5.785   5.218   2.272
  187POPC    HB21439   5.903   5.343   2.278
  187POPC    C221440   5.943   5.176   2.415
  187POPC    HS21441   6.053   5.180   2.423
  187POPC   O2121442   5.900   5.034   2.420
  187POPC   C2121443   5.992   4.941   2.419
  187POPC   O2221444   6.111   4.952   2.429
  187POPC   C2221445   5.918   4.805   2.427
  187POPC   H2R21446   5.997   4.727   2.427
  187POPC   H2S21447   5.867   4.794   2.329
  187POPC    C321448   5.867   5.244   2.534
  187POPC    HX21449   5.758   5.233   2.520
  187POPC    HY21450   5.891   5.351   2.519
  187POPC   O3121451   5.928   5.188   2.657
  187POPC   C3121452   5.902   5.266   2.760
  187POPC   O3221453   5.843   5.371   2.760
  187POPC   C3221454   5.971   5.210   2.889
  187POPC   H2X21455   6.068   5.169   2.853
  187POPC   H2Y21456   5.908   5.128   2.931
  187POPC   C2321457   5.830   4.802   2.547
  187POPC   H3R21458   5.765   4.713   2.558
  187POPC   H3S21459   5.754   4.883   2.553
  187POPC   C2421460   5.912   4.803   2.672
  187POPC   H4R21461   5.932   4.906   2.709
  187POPC   H4S21462   6.012   4.756   2.663
  187POPC   C2521463   5.840   4.734   2.797
  187POPC   H5R21464   5.826   4.624   2.784
  187POPC   H5S21465   5.734   4.766   2.786
  187POPC   C2621466   5.906   4.774   2.929
  187POPC   H6R21467   5.921   4.884   2.933
  187POPC   H6S21468   6.001   4.717   2.938
  187POPC   C2721469   5.818   4.751   3.053
  187POPC   H7R21470   5.816   4.640   3.066
  187POPC   H7S21471   5.716   4.787   3.026
  187POPC   C2821472   5.868   4.805   3.188
  187POPC   H8R21473   5.785   4.809   3.262
  187POPC   H8S21474   5.908   4.906   3.167
  187POPC   C2921475   5.984   4.722   3.232
  187POPC   H9121476   6.039   4.680   3.146
  187POPC  C21021477   6.027   4.700   3.361
  187POPC  H10121478   6.119   4.645   3.386
  187POPC  C21121479   5.965   4.777   3.478
  187POPC  H11R21480   5.856   4.798   3.470
  187POPC  H11S21481   6.016   4.875   3.489
  187POPC  C21221482   5.980   4.720   3.621
  187POPC  H12R21483   6.083   4.679   3.633
  187POPC  H12S21484   5.915   4.630   3.628
  187POPC  C21321485   5.947   4.820   3.736
  187POPC  H13R21486   5.844   4.860   3.719
  187POPC  H13S21487   6.024   4.898   3.718
  187POPC  C21421488   5.961   4.774   3.882
  187POPC  H14R21489   6.065   4.742   3.904
  187POPC  H14S21490   5.902   4.683   3.902
  187POPC  C21521491   5.911   4.880   3.985
  187POPC  H15R21492   5.817   4.930   3.953
  187POPC  H15S21493   5.983   4.964   3.993
  187POPC  C21621494   5.882   4.816   4.126
  187POPC  H16R21495   5.982   4.785   4.163
  187POPC  H16S21496   5.839   4.716   4.105
  187POPC  C21721497   5.790   4.895   4.222
  187POPC  H17R21498   5.706   4.934   4.161
  187POPC  H17S21499   5.847   4.985   4.254
  187POPC  C21821500   5.730   4.825   4.339
  187POPC  H18R21501   5.685   4.726   4.316
  187POPC  H18S21502   5.651   4.890   4.381
  187POPC  H18T21503   5.807   4.814   4.419
  187POPC   C3321504   5.999   5.312   2.998
  187POPC   H3X21505   5.903   5.366   3.012
  187POPC   H3Y21506   6.075   5.386   2.965
  187POPC   C3421507   6.053   5.243   3.122
  187POPC   H4X21508   6.146   5.187   3.101
  187POPC   H4Y21509   5.969   5.174   3.146
  187POPC   C3521510   6.093   5.344   3.232
  187POPC   H5X21511   6.184   5.397   3.197
  187POPC   H5Y21512   6.103   5.293   3.330
  187POPC   C3621513   5.985   5.455   3.256
  187POPC   H6X21514   5.883   5.415   3.273
  187POPC   H6Y21515   5.997   5.530   3.175
  187POPC   C3721516   6.012   5.543   3.380
  187POPC   H7X21517   5.935   5.623   3.374
  187POPC   H7Y21518   6.112   5.590   3.368
  187POPC   C3821519   6.024   5.478   3.520
  187POPC   H8X21520   6.087   5.387   3.518
  187POPC   H8Y21521   5.915   5.461   3.536
  187POPC   C3921522   6.062   5.572   3.627
  187POPC   H9X21523   6.001   5.665   3.636
  187POPC   H9Y21524   6.165   5.606   3.604
  187POPC  C31021525   6.071   5.524   3.775
  187POPC  H10X21526   5.965   5.495   3.791
  187POPC  H10Y21527   6.103   5.601   3.848
  187POPC  C31121528   6.169   5.410   3.802
  187POPC  H11X21529   6.274   5.440   3.780
  187POPC  H11Y21530   6.131   5.318   3.753
  187POPC  C31221531   6.163   5.370   3.952
  187POPC  H12X21532   6.159   5.467   4.006
  187POPC  H12Y21533   6.258   5.317   3.976
  187POPC  C31321534   6.039   5.284   3.985
  187POPC  H13X21535   6.041   5.195   3.920
  187POPC  H13Y21536   5.940   5.331   3.964
  187POPC  C31421537   6.028   5.246   4.132
  187POPC  H14X21538   6.105   5.168   4.151
  187POPC  H14Y21539   5.928   5.200   4.151
  187POPC  C31521540   6.048   5.358   4.234
  187POPC  H15X21541   6.136   5.419   4.207
  187POPC  H15Y21542   6.062   5.304   4.330
  187POPC  C31621543   5.933   5.462   4.240
  187POPC  H16X21544   5.968   5.547   4.303
  187POPC  H16Y21545   5.839   5.426   4.287
  187POPC  H16Z21546   5.906   5.504   4.141
  188POPC     N21547   4.466   4.949   1.616
  188POPC   C1221548   4.534   4.996   1.737
  188POPC  H12A21549   4.473   5.060   1.799
  188POPC  H12B21550   4.610   5.067   1.707
  188POPC   C1321551   4.334   4.894   1.636
  188POPC  H13A21552   4.300   4.827   1.558
  188POPC  H13B21553   4.327   4.836   1.727
  188POPC  H13C21554   4.268   4.979   1.642
  188POPC   C1421555   4.459   5.061   1.511
  188POPC  H14A21556   4.420   5.031   1.414
  188POPC  H14B21557   4.397   5.139   1.553
  188POPC  H14C21558   4.562   5.090   1.500
  188POPC   C1521559   4.558   4.854   1.547
  188POPC  H15A21560   4.518   4.855   1.447
  188POPC  H15B21561   4.540   4.756   1.587
  188POPC  H15C21562   4.660   4.889   1.545
  188POPC   C1121563   4.600   4.892   1.830
  188POPC  H11A21564   4.536   4.803   1.851
  188POPC  H11B21565   4.619   4.939   1.929
  188POPC     P21566   4.854   4.949   1.785
  188POPC   O1321567   4.813   5.079   1.722
  188POPC   O1421568   4.970   4.890   1.712
  188POPC   O1221569   4.731   4.846   1.785
  188POPC   O1121570   4.888   4.969   1.933
  188POPC    C121571   4.891   4.844   2.015
  188POPC    HA21572   4.975   4.775   1.988
  188POPC    HB21573   4.800   4.780   2.012
  188POPC    C221574   4.914   4.870   2.164
  188POPC    HS21575   4.830   4.935   2.197
  188POPC   O2121576   5.043   4.930   2.185
  188POPC   C2121577   5.050   5.004   2.282
  188POPC   O2221578   4.964   5.050   2.353
  188POPC   C2221579   5.194   5.036   2.300
  188POPC   H2R21580   5.217   5.092   2.393
  188POPC   H2S21581   5.225   5.102   2.217
  188POPC    C321582   4.898   4.740   2.253
  188POPC    HX21583   4.979   4.669   2.227
  188POPC    HY21584   4.807   4.689   2.216
  188POPC   O3121585   4.879   4.768   2.393
  188POPC   C3121586   4.756   4.799   2.430
  188POPC   O3221587   4.657   4.812   2.353
  188POPC   C3221588   4.749   4.813   2.580
  188POPC   H2X21589   4.730   4.713   2.623
  188POPC   H2Y21590   4.673   4.891   2.604
  188POPC   C2321591   5.278   4.913   2.302
  188POPC   H3R21592   5.384   4.947   2.297
  188POPC   H3S21593   5.263   4.843   2.217
  188POPC   C2421594   5.271   4.831   2.432
  188POPC   H4R21595   5.178   4.772   2.426
  188POPC   H4S21596   5.259   4.899   2.519
  188POPC   C2521597   5.397   4.754   2.456
  188POPC   H5R21598   5.490   4.813   2.439
  188POPC   H5S21599   5.413   4.677   2.377
  188POPC   C2621600   5.388   4.683   2.590
  188POPC   H6R21601   5.435   4.582   2.589
  188POPC   H6S21602   5.282   4.656   2.606
  188POPC   C2721603   5.449   4.758   2.704
  188POPC   H7R21604   5.394   4.848   2.739
  188POPC   H7S21605   5.551   4.784   2.667
  188POPC   C2821606   5.469   4.669   2.839
  188POPC   H8R21607   5.535   4.727   2.906
  188POPC   H8S21608   5.525   4.578   2.809
  188POPC   C2921609   5.327   4.654   2.897
  188POPC   H9121610   5.251   4.610   2.831
  188POPC  C21021611   5.288   4.687   3.015
  188POPC  H10121612   5.182   4.667   3.036
  188POPC  C21121613   5.379   4.721   3.129
  188POPC  H11R21614   5.357   4.818   3.178
  188POPC  H11S21615   5.482   4.737   3.089
  188POPC  C21221616   5.375   4.612   3.238
  188POPC  H12R21617   5.409   4.517   3.194
  188POPC  H12S21618   5.271   4.599   3.276
  188POPC  C21321619   5.473   4.640   3.352
  188POPC  H13R21620   5.478   4.749   3.372
  188POPC  H13S21621   5.574   4.609   3.320
  188POPC  C21421622   5.443   4.573   3.482
  188POPC  H14R21623   5.449   4.463   3.467
  188POPC  H14S21624   5.342   4.606   3.515
  188POPC  C21521625   5.533   4.641   3.586
  188POPC  H15R21626   5.504   4.747   3.606
  188POPC  H15S21627   5.634   4.638   3.540
  188POPC  C21621628   5.534   4.560   3.714
  188POPC  H16R21629   5.586   4.465   3.688
  188POPC  H16S21630   5.428   4.542   3.740
  188POPC  C21721631   5.593   4.637   3.836
  188POPC  H17R21632   5.544   4.736   3.846
  188POPC  H17S21633   5.700   4.666   3.831
  188POPC  C21821634   5.568   4.557   3.966
  188POPC  H18R21635   5.610   4.456   3.948
  188POPC  H18S21636   5.461   4.532   3.984
  188POPC  H18T21637   5.611   4.608   4.055
  188POPC   C3321638   4.885   4.861   2.631
  188POPC   H3X21639   4.910   4.965   2.604
  188POPC   H3Y21640   4.971   4.800   2.598
  188POPC   C3421641   4.888   4.873   2.791
  188POPC   H4X21642   4.832   4.787   2.833
  188POPC   H4Y21643   4.843   4.966   2.831
  188POPC   C3521644   5.022   4.859   2.859
  188POPC   H5X21645   5.071   4.765   2.825
  188POPC   H5Y21646   5.014   4.857   2.970
  188POPC   C3621647   5.129   4.963   2.827
  188POPC   H6X21648   5.133   4.969   2.716
  188POPC   H6Y21649   5.225   4.928   2.870
  188POPC   C3721650   5.095   5.103   2.879
  188POPC   H7X21651   5.013   5.140   2.813
  188POPC   H7Y21652   5.176   5.171   2.845
  188POPC   C3821653   5.046   5.116   3.018
  188POPC   H8X21654   4.977   5.036   3.052
  188POPC   H8Y21655   5.001   5.217   3.027
  188POPC   C3921656   5.164   5.116   3.120
  188POPC   H9X21657   5.231   5.203   3.105
  188POPC   H9Y21658   5.226   5.024   3.108
  188POPC  C31021659   5.108   5.137   3.259
  188POPC  H10X21660   5.055   5.042   3.283
  188POPC  H10Y21661   5.045   5.227   3.248
  188POPC  C31121662   5.213   5.162   3.374
  188POPC  H11X21663   5.291   5.234   3.343
  188POPC  H11Y21664   5.257   5.062   3.395
  188POPC  C31221665   5.136   5.212   3.504
  188POPC  H12X21666   5.056   5.139   3.531
  188POPC  H12Y21667   5.093   5.312   3.482
  188POPC  C31321668   5.228   5.213   3.625
  188POPC  H13X21669   5.306   5.291   3.621
  188POPC  H13Y21670   5.284   5.117   3.626
  188POPC  C31421671   5.159   5.234   3.762
  188POPC  H14X21672   5.071   5.166   3.769
  188POPC  H14Y21673   5.148   5.339   3.795
  188POPC  C31521674   5.248   5.185   3.877
  188POPC  H15X21675   5.351   5.219   3.858
  188POPC  H15Y21676   5.261   5.074   3.880
  188POPC  C31621677   5.189   5.233   4.007
  188POPC  H16X21678   5.223   5.162   4.086
  188POPC  H16Y21679   5.078   5.223   3.996
  188POPC  H16Z21680   5.221   5.335   4.036
  189SAPI   C1221681   1.486   5.102   6.822
  189SAPI    H221682   1.551   5.062   6.741
  189SAPI    O221683   1.488   5.006   6.934
  189SAPI   HO221684   1.434   4.929   6.915
  189SAPI   C1321685   1.524   5.245   6.858
  189SAPI    H321686   1.501   5.305   6.767
  189SAPI    O321687   1.665   5.258   6.891
  189SAPI   HO321688   1.719   5.204   6.833
  189SAPI   C1421689   1.428   5.287   6.968
  189SAPI    H421690   1.445   5.226   7.059
  189SAPI    O421691   1.454   5.423   7.016
  189SAPI   HO421692   1.444   5.476   6.936
  189SAPI   C1521693   1.280   5.272   6.926
  189SAPI    H521694   1.263   5.354   6.853
  189SAPI    O521695   1.196   5.297   7.039
  189SAPI   HO521696   1.161   5.386   7.033
  189SAPI   C1621697   1.240   5.147   6.842
  189SAPI    H621698   1.217   5.064   6.913
  189SAPI    O621699   1.121   5.175   6.772
  189SAPI   HO621700   1.101   5.139   6.686
  189SAPI   C1121701   1.353   5.108   6.755
  189SAPI    H121702   1.355   5.183   6.672
  189SAPI     P21703   1.246   4.968   6.553
  189SAPI   O1321704   1.124   5.042   6.548
  189SAPI   O1421705   1.233   4.825   6.518
  189SAPI   O1221706   1.325   4.984   6.695
  189SAPI   O1121707   1.349   5.025   6.453
  189SAPI    C121708   1.489   4.981   6.457
  189SAPI    HA21709   1.539   5.030   6.543
  189SAPI    HB21710   1.502   4.872   6.476
  189SAPI    C221711   1.577   5.007   6.331
  189SAPI    HS21712   1.563   5.115   6.308
  189SAPI   O2121713   1.518   4.924   6.227
  189SAPI   C2121714   1.411   4.976   6.159
  189SAPI   O2221715   1.353   5.077   6.186
  189SAPI   C2221716   1.379   4.869   6.049
  189SAPI   H2R21717   1.471   4.845   5.991
  189SAPI   H2S21718   1.344   4.782   6.107
  189SAPI    C321719   1.724   4.984   6.351
  189SAPI    HX21720   1.731   4.875   6.370
  189SAPI    HY21721   1.766   5.024   6.445
  189SAPI   O3121722   1.806   4.997   6.233
  189SAPI   C3121723   1.857   5.122   6.218
  189SAPI   O3221724   1.826   5.219   6.278
  189SAPI   C3221725   1.967   5.099   6.107
  189SAPI   H2X21726   1.930   5.024   6.035
  189SAPI   H2Y21727   2.060   5.065   6.158
  189SAPI   C2321728   1.269   4.918   5.947
  189SAPI   H3R21729   1.182   4.960   6.001
  189SAPI   H3S21730   1.236   4.831   5.885
  189SAPI   C2421731   1.307   5.033   5.842
  189SAPI   H4R21732   1.349   5.116   5.902
  189SAPI   H4S21733   1.216   5.074   5.794
  189SAPI   C2521734   1.392   4.988   5.733
  189SAPI   H5R21735   1.355   4.919   5.656
  189SAPI   C2621736   1.525   5.021   5.715
  189SAPI   H6R21737   1.582   4.985   5.628
  189SAPI   C2721738   1.596   5.117   5.803
  189SAPI   H7R21739   1.548   5.137   5.901
  189SAPI   H7S21740   1.600   5.210   5.743
  189SAPI   C2821741   1.735   5.053   5.833
  189SAPI   H8R21742   1.753   5.024   5.937
  189SAPI   C2921743   1.840   5.043   5.747
  189SAPI   H9R21744   1.934   5.010   5.792
  189SAPI  C21021745   1.856   5.097   5.606
  189SAPI  H10R21746   1.912   5.192   5.616
  189SAPI  H10S21747   1.756   5.128   5.568
  189SAPI  C21121748   1.926   5.001   5.517
  189SAPI  H11R21749   1.875   4.904   5.512
  189SAPI  C21221750   2.034   5.020   5.442
  189SAPI  H12R21751   2.072   4.941   5.376
  189SAPI  C21321752   2.099   5.153   5.433
  189SAPI  H13R21753   2.148   5.181   5.529
  189SAPI  H13S21754   2.017   5.223   5.407
  189SAPI  C21421755   2.214   5.159   5.325
  189SAPI  H14R21756   2.296   5.088   5.342
  189SAPI  C21521757   2.213   5.229   5.212
  189SAPI  H15R21758   2.292   5.209   5.138
  189SAPI  C21621759   2.107   5.321   5.158
  189SAPI  H16R21760   2.137   5.426   5.179
  189SAPI  H16S21761   2.010   5.312   5.210
  189SAPI  C21721762   2.076   5.299   5.009
  189SAPI  H17R21763   2.162   5.329   4.946
  189SAPI  H17S21764   1.987   5.356   4.973
  189SAPI  C21821765   2.049   5.153   4.973
  189SAPI  H18R21766   1.963   5.112   5.031
  189SAPI  H18S21767   2.130   5.085   5.009
  189SAPI  C21921768   2.026   5.131   4.827
  189SAPI  H19R21769   2.101   5.188   4.768
  189SAPI  H19S21770   1.925   5.167   4.801
  189SAPI  C22021771   2.030   4.985   4.786
  189SAPI  H20R21772   1.969   4.913   4.844
  189SAPI  H20S21773   2.135   4.950   4.800
  189SAPI  H20T21774   2.002   4.964   4.680
  189SAPI   C3321775   1.998   5.234   6.036
  189SAPI   H3X21776   2.030   5.305   6.116
  189SAPI   H3Y21777   1.916   5.286   5.983
  189SAPI   C3421778   2.110   5.228   5.936
  189SAPI   H4X21779   2.072   5.187   5.840
  189SAPI   H4Y21780   2.194   5.170   5.980
  189SAPI   C3521781   2.171   5.368   5.917
  189SAPI   H5X21782   2.261   5.357   5.854
  189SAPI   H5Y21783   2.202   5.402   6.018
  189SAPI   C3621784   2.083   5.481   5.852
  189SAPI   H6X21785   2.140   5.575   5.868
  189SAPI   H6Y21786   1.993   5.489   5.916
  189SAPI   C3721787   2.054   5.432   5.705
  189SAPI   H7X21788   1.969   5.500   5.680
  189SAPI   H7Y21789   2.013   5.329   5.702
  189SAPI   C3821790   2.159   5.464   5.610
  189SAPI   H8X21791   2.149   5.411   5.513
  189SAPI   H8Y21792   2.258   5.425   5.644
  189SAPI   C3921793   2.185   5.615   5.581
  189SAPI   H9X21794   2.217   5.669   5.673
  189SAPI   H9Y21795   2.090   5.653   5.539
  189SAPI  C31021796   2.306   5.631   5.483
  189SAPI  H10X21797   2.325   5.549   5.411
  189SAPI  H10Y21798   2.397   5.617   5.545
  189SAPI  C31121799   2.308   5.772   5.430
  189SAPI  H11X21800   2.301   5.829   5.526
  189SAPI  H11Y21801   2.210   5.794   5.381
  189SAPI  C31221802   2.426   5.816   5.348
  189SAPI  H12X21803   2.418   5.777   5.244
  189SAPI  H12Y21804   2.512   5.767   5.397
  189SAPI  C31321805   2.443   5.966   5.350
  189SAPI  H13X21806   2.445   6.002   5.455
  189SAPI  H13Y21807   2.354   6.019   5.311
  189SAPI  C31421808   2.584   6.009   5.287
  189SAPI  H14X21809   2.651   5.921   5.286
  189SAPI  H14Y21810   2.625   6.082   5.360
  189SAPI  C31521811   2.571   6.080   5.155
  189SAPI  H15X21812   2.511   6.172   5.173
  189SAPI  H15Y21813   2.525   6.014   5.079
  189SAPI  C31621814   2.714   6.103   5.100
  189SAPI  H16X21815   2.698   6.125   4.993
  189SAPI  H16Y21816   2.765   6.005   5.106
  189SAPI  C31721817   2.794   6.215   5.157
  189SAPI  H17X21818   2.789   6.216   5.268
  189SAPI  H17Y21819   2.750   6.314   5.132
  189SAPI  C31821820   2.944   6.198   5.116
  189SAPI  H18X21821   2.996   6.104   5.144
  189SAPI  H18Y21822   2.978   6.278   5.185
  189SAPI  H18Z21823   2.966   6.225   5.011
  190SAPI   C1221824   0.788   2.954   6.810
  190SAPI    H221825   0.762   3.041   6.746
  190SAPI    O221826   0.871   2.871   6.736
  190SAPI   HO221827   0.819   2.823   6.671
  190SAPI   C1321828   0.841   2.996   6.942
  190SAPI    H321829   0.760   3.053   6.992
  190SAPI    O321830   0.949   3.076   6.927
  190SAPI   HO321831   0.985   3.108   7.011
  190SAPI   C1421832   0.875   2.873   7.030
  190SAPI    H421833   0.958   2.818   6.981
  190SAPI    O421834   0.925   2.906   7.162
  190SAPI   HO421835   1.012   2.947   7.161
  190SAPI   C1521836   0.754   2.774   7.047
  190SAPI    H521837   0.690   2.808   7.131
  190SAPI    O521838   0.794   2.648   7.091
  190SAPI   HO521839   0.874   2.614   7.049
  190SAPI   C1621840   0.661   2.759   6.918
  190SAPI    H621841   0.711   2.684   6.853
  190SAPI    O621842   0.532   2.705   6.946
  190SAPI   HO621843   0.528   2.612   6.922
  190SAPI   C1121844   0.657   2.876   6.828
  190SAPI    H121845   0.588   2.943   6.884
  190SAPI     P21846   0.518   2.939   6.610
  190SAPI   O1321847   0.557   3.080   6.642
  190SAPI   O1421848   0.371   2.910   6.612
  190SAPI   O1221849   0.610   2.838   6.697
  190SAPI   O1121850   0.575   2.907   6.472
  190SAPI    C121851   0.512   2.821   6.376
  190SAPI    HA21852   0.409   2.789   6.404
  190SAPI    HB21853   0.504   2.873   6.279
  190SAPI    C221854   0.595   2.696   6.335
  190SAPI    HS21855   0.601   2.630   6.424
  190SAPI   O2121856   0.722   2.738   6.285
  190SAPI   C2121857   0.819   2.743   6.378
  190SAPI   O2221858   0.803   2.696   6.490
  190SAPI   C2221859   0.948   2.800   6.326
  190SAPI   H2R21860   0.925   2.892   6.268
  190SAPI   H2S21861   1.018   2.818   6.411
  190SAPI    C321862   0.516   2.629   6.217
  190SAPI    HX21863   0.532   2.706   6.138
  190SAPI    HY21864   0.408   2.631   6.242
  190SAPI   O3121865   0.580   2.503   6.182
  190SAPI   C3121866   0.494   2.402   6.196
  190SAPI   O3221867   0.379   2.403   6.231
  190SAPI   C3221868   0.570   2.276   6.187
  190SAPI   H2X21869   0.570   2.221   6.283
  190SAPI   H2Y21870   0.677   2.298   6.167
  190SAPI   C2321871   1.008   2.692   6.235
  190SAPI   H3R21872   0.924   2.633   6.194
  190SAPI   H3S21873   1.080   2.621   6.281
  190SAPI   C2421874   1.081   2.755   6.112
  190SAPI   H4R21875   1.166   2.816   6.148
  190SAPI   H4S21876   1.011   2.829   6.070
  190SAPI   C2521877   1.127   2.651   6.015
  190SAPI   H5R21878   1.221   2.599   6.038
  190SAPI   C2621879   1.051   2.614   5.917
  190SAPI   H6R21880   1.100   2.551   5.841
  190SAPI   C2721881   0.917   2.659   5.877
  190SAPI   H7R21882   0.919   2.687   5.770
  190SAPI   H7S21883   0.897   2.758   5.924
  190SAPI   C2821884   0.797   2.575   5.902
  190SAPI   H8R21885   0.780   2.553   6.009
  190SAPI   C2921886   0.706   2.521   5.815
  190SAPI   H9R21887   0.612   2.480   5.853
  190SAPI  C21021888   0.699   2.512   5.665
  190SAPI  H10R21889   0.721   2.614   5.627
  190SAPI  H10S21890   0.592   2.502   5.637
  190SAPI  C21121891   0.779   2.394   5.603
  190SAPI  H11R21892   0.827   2.324   5.673
  190SAPI  C21221893   0.814   2.378   5.474
  190SAPI  H12R21894   0.874   2.290   5.445
  190SAPI  C21321895   0.764   2.466   5.361
  190SAPI  H13R21896   0.720   2.556   5.407
  190SAPI  H13S21897   0.677   2.410   5.321
  190SAPI  C21421898   0.869   2.486   5.253
  190SAPI  H14R21899   0.971   2.512   5.285
  190SAPI  C21521900   0.852   2.464   5.117
  190SAPI  H15R21901   0.940   2.488   5.055
  190SAPI  C21621902   0.720   2.422   5.044
  190SAPI  H16R21903   0.639   2.484   5.089
  190SAPI  H16S21904   0.693   2.319   5.077
  190SAPI  C21721905   0.716   2.448   4.892
  190SAPI  H17R21906   0.741   2.556   4.883
  190SAPI  H17S21907   0.614   2.424   4.855
  190SAPI  C21821908   0.817   2.364   4.812
  190SAPI  H18R21909   0.801   2.261   4.850
  190SAPI  H18S21910   0.917   2.394   4.850
  190SAPI  C21921911   0.811   2.390   4.665
  190SAPI  H19R21912   0.834   2.496   4.638
  190SAPI  H19S21913   0.706   2.375   4.630
  190SAPI  C22021914   0.898   2.303   4.577
  190SAPI  H20R21915   0.997   2.296   4.627
  190SAPI  H20S21916   0.912   2.348   4.476
  190SAPI  H20T21917   0.852   2.202   4.567
  190SAPI   C3321918   0.522   2.172   6.084
  190SAPI   H3X21919   0.411   2.170   6.079
  190SAPI   H3Y21920   0.557   2.068   6.098
  190SAPI   C3421921   0.564   2.201   5.938
  190SAPI   H4X21922   0.675   2.200   5.946
  190SAPI   H4Y21923   0.538   2.308   5.920
  190SAPI   C3521924   0.500   2.105   5.831
  190SAPI   H5X21925   0.389   2.116   5.828
  190SAPI   H5Y21926   0.533   2.002   5.853
  190SAPI   C3621927   0.554   2.160   5.694
  190SAPI   H6X21928   0.658   2.132   5.669
  190SAPI   H6Y21929   0.558   2.271   5.684
  190SAPI   C3721930   0.473   2.104   5.576
  190SAPI   H7X21931   0.376   2.158   5.566
  190SAPI   H7Y21932   0.453   1.995   5.585
  190SAPI   C3821933   0.532   2.111   5.431
  190SAPI   H8X21934   0.629   2.057   5.420
  190SAPI   H8Y21935   0.543   2.221   5.419
  190SAPI   C3921936   0.423   2.059   5.327
  190SAPI   H9X21937   0.325   2.107   5.348
  190SAPI   H9Y21938   0.417   1.949   5.338
  190SAPI  C31021939   0.452   2.096   5.184
  190SAPI  H10X21940   0.558   2.072   5.160
  190SAPI  H10Y21941   0.445   2.204   5.161
  190SAPI  C31121942   0.378   2.022   5.073
  190SAPI  H11X21943   0.271   2.050   5.083
  190SAPI  H11Y21944   0.381   1.911   5.083
  190SAPI  C31221945   0.425   2.050   4.928
  190SAPI  H12X21946   0.512   1.986   4.902
  190SAPI  H12Y21947   0.458   2.156   4.923
  190SAPI  C31321948   0.314   2.020   4.832
  190SAPI  H13X21949   0.241   2.102   4.848
  190SAPI  H13Y21950   0.270   1.920   4.852
  190SAPI  C31421951   0.362   2.019   4.687
  190SAPI  H14X21952   0.438   1.940   4.672
  190SAPI  H14Y21953   0.408   2.114   4.655
  190SAPI  C31521954   0.248   1.987   4.584
  190SAPI  H15X21955   0.194   1.893   4.607
  190SAPI  H15Y21956   0.292   1.974   4.483
  190SAPI  C31621957   0.145   2.103   4.575
  190SAPI  H16X21958   0.206   2.194   4.587
  190SAPI  H16Y21959   0.085   2.075   4.664
  190SAPI  C31721960   0.057   2.106   4.445
  190SAPI  H17X21961   0.100   2.171   4.366
  190SAPI  H17Y21962   6.769   2.173   4.481
  190SAPI  C31821963   0.001   1.979   4.388
  190SAPI  H18X21964   0.078   1.901   4.372
  190SAPI  H18Y21965   6.752   2.010   4.290
  190SAPI  H18Z21966   6.710   1.944   4.453
  191SAPI   C1221967   4.770   4.277   2.225
  191SAPI    H221968   4.814   4.196   2.287
  191SAPI    O221969   4.809   4.399   2.286
  191SAPI   HO221970   4.745   4.421   2.354
  191SAPI   C1321971   4.820   4.263   2.083
  191SAPI    H321972   4.783   4.170   2.035
  191SAPI    O321973   4.963   4.253   2.082
  191SAPI   HO321974   5.003   4.334   2.116
  191SAPI   C1421975   4.777   4.396   2.007
  191SAPI    H421976   4.817   4.488   2.056
  191SAPI    O421977   4.830   4.391   1.869
  191SAPI   HO421978   4.909   4.445   1.865
  191SAPI   C1521979   4.625   4.410   2.018
  191SAPI    H521980   4.600   4.344   1.932
  191SAPI    O521981   4.586   4.537   1.989
  191SAPI   HO521982   4.491   4.550   1.992
  191SAPI   C1621983   4.550   4.354   2.146
  191SAPI    H621984   4.548   4.439   2.218
  191SAPI    O621985   4.412   4.323   2.120
  191SAPI   HO621986   4.369   4.408   2.118
  191SAPI   C1121987   4.618   4.246   2.225
  191SAPI    H121988   4.592   4.150   2.176
  191SAPI     P21989   4.551   4.102   2.441
  191SAPI   O1321990   4.623   3.995   2.363
  191SAPI   O1421991   4.404   4.092   2.449
  191SAPI   O1221992   4.578   4.248   2.358
  191SAPI   O1121993   4.621   4.135   2.581
  191SAPI    C121994   4.754   4.089   2.620
  191SAPI    HA21995   4.831   4.123   2.548
  191SAPI    HB21996   4.776   4.138   2.717
  191SAPI    C221997   4.765   3.933   2.630
  191SAPI    HS21998   4.779   3.901   2.525
  191SAPI   O2121999   4.648   3.875   2.694
  191SAPI   C2122000   4.625   3.753   2.646
  191SAPI   O2222001   4.699   3.690   2.570
  191SAPI   C2222002   4.484   3.706   2.686
  191SAPI   H2R22003   4.479   3.710   2.797
  191SAPI   H2S22004   4.409   3.783   2.658
  191SAPI    C322005   4.896   3.898   2.712
  191SAPI    HX22006   4.983   3.949   2.666
  191SAPI    HY22007   4.911   3.790   2.694
  191SAPI   O3122008   4.895   3.937   2.852
  191SAPI   C3122009   4.836   3.854   2.936
  191SAPI   O3222010   4.787   3.745   2.909
  191SAPI   C3222011   4.847   3.916   3.069
  191SAPI   H2X22012   4.745   3.955   3.089
  191SAPI   H2Y22013   4.911   4.007   3.063
  191SAPI   C2322014   4.432   3.571   2.637
  191SAPI   H3R22015   4.452   3.559   2.528
  191SAPI   H3S22016   4.322   3.567   2.653
  191SAPI   C2422017   4.497   3.442   2.701
  191SAPI   H4R22018   4.607   3.455   2.709
  191SAPI   H4S22019   4.479   3.363   2.625
  191SAPI   C2522020   4.425   3.398   2.830
  191SAPI   H5R22021   4.329   3.344   2.817
  191SAPI   C2622022   4.461   3.425   2.955
  191SAPI   H6R22023   4.403   3.386   3.040
  191SAPI   C2722024   4.590   3.488   3.003
  191SAPI   H7R22025   4.653   3.508   2.914
  191SAPI   H7S22026   4.648   3.407   3.051
  191SAPI   C2822027   4.574   3.604   3.098
  191SAPI   H8R22028   4.574   3.703   3.050
  191SAPI   C2922029   4.551   3.593   3.233
  191SAPI   H9R22030   4.548   3.687   3.289
  191SAPI  C21022031   4.539   3.458   3.302
  191SAPI  H10R22032   4.616   3.448   3.382
  191SAPI  H10S22033   4.555   3.371   3.236
  191SAPI  C21122034   4.404   3.436   3.368
  191SAPI  H11R22035   4.316   3.444   3.302
  191SAPI  C21222036   4.377   3.394   3.490
  191SAPI  H12R22037   4.272   3.394   3.520
  191SAPI  C21322038   4.474   3.367   3.607
  191SAPI  H13R22039   4.457   3.437   3.691
  191SAPI  H13S22040   4.576   3.388   3.567
  191SAPI  C21422041   4.464   3.227   3.645
  191SAPI  H14R22042   4.511   3.164   3.569
  191SAPI  C21522043   4.392   3.179   3.753
  191SAPI  H15R22044   4.393   3.070   3.769
  191SAPI  C21622045   4.323   3.257   3.862
  191SAPI  H16R22046   4.215   3.245   3.840
  191SAPI  H16S22047   4.360   3.362   3.852
  191SAPI  C21722048   4.350   3.214   4.005
  191SAPI  H17R22049   4.459   3.217   4.027
  191SAPI  H17S22050   4.330   3.106   4.021
  191SAPI  C21822051   4.271   3.287   4.108
  191SAPI  H18R22052   4.265   3.218   4.195
  191SAPI  H18S22053   4.166   3.308   4.077
  191SAPI  C21922054   4.332   3.421   4.139
  191SAPI  H19R22055   4.266   3.492   4.194
  191SAPI  H19S22056   4.363   3.468   4.044
  191SAPI  C22022057   4.461   3.403   4.221
  191SAPI  H20R22058   4.444   3.331   4.304
  191SAPI  H20S22059   4.489   3.501   4.266
  191SAPI  H20T22060   4.553   3.381   4.163
  191SAPI   C3322061   4.876   3.823   3.195
  191SAPI   H3X22062   4.977   3.778   3.194
  191SAPI   H3Y22063   4.800   3.743   3.200
  191SAPI   C3422064   4.866   3.904   3.324
  191SAPI   H4X22065   4.767   3.953   3.333
  191SAPI   H4Y22066   4.942   3.984   3.325
  191SAPI   C3522067   4.886   3.824   3.457
  191SAPI   H5X22068   4.906   3.895   3.540
  191SAPI   H5Y22069   4.972   3.754   3.450
  191SAPI   C3622070   4.765   3.746   3.495
  191SAPI   H6X22071   4.730   3.673   3.419
  191SAPI   H6Y22072   4.679   3.812   3.517
  191SAPI   C3722073   4.801   3.657   3.609
  191SAPI   H7X22074   4.908   3.673   3.635
  191SAPI   H7Y22075   4.776   3.552   3.581
  191SAPI   C3822076   4.718   3.680   3.737
  191SAPI   H8X22077   4.615   3.687   3.695
  191SAPI   H8Y22078   4.743   3.777   3.785
  191SAPI   C3922079   4.731   3.564   3.837
  191SAPI   H9X22080   4.836   3.548   3.870
  191SAPI   H9Y22081   4.707   3.470   3.783
  191SAPI  C31022082   4.643   3.560   3.961
  191SAPI  H10X22083   4.645   3.457   4.001
  191SAPI  H10Y22084   4.536   3.580   3.939
  191SAPI  C31122085   4.698   3.657   4.065
  191SAPI  H11X22086   4.608   3.699   4.116
  191SAPI  H11Y22087   4.734   3.745   4.007
  191SAPI  C31222088   4.807   3.599   4.160
  191SAPI  H12X22089   4.875   3.535   4.099
  191SAPI  H12Y22090   4.755   3.542   4.239
  191SAPI  C31322091   4.886   3.704   4.245
  191SAPI  H13X22092   4.942   3.771   4.177
  191SAPI  H13Y22093   4.968   3.651   4.298
  191SAPI  C31422094   4.801   3.778   4.350
  191SAPI  H14X22095   4.720   3.708   4.381
  191SAPI  H14Y22096   4.764   3.869   4.300
  191SAPI  C31522097   4.891   3.831   4.465
  191SAPI  H15X22098   4.979   3.886   4.426
  191SAPI  H15Y22099   4.943   3.756   4.527
  191SAPI  C31622100   4.808   3.918   4.570
  191SAPI  H16X22101   4.722   3.854   4.598
  191SAPI  H16Y22102   4.771   4.002   4.507
  191SAPI  C31722103   4.896   3.964   4.681
  191SAPI  H17X22104   4.852   4.059   4.719
  191SAPI  H17Y22105   4.997   3.989   4.641
  191SAPI  C31822106   4.898   3.866   4.802
  191SAPI  H18X22107   4.939   3.908   4.897
  191SAPI  H18Y22108   4.971   3.786   4.779
  191SAPI  H18Z22109   4.799   3.821   4.824
  192SAPI   C1222110   0.584   6.611   1.735
  192SAPI    H222111   0.597   6.502   1.726
  192SAPI    O222112   0.663   6.665   1.623
  192SAPI   HO222113   0.743   6.613   1.621
  192SAPI   C1322114   0.433   6.634   1.721
  192SAPI    H322115   0.390   6.569   1.799
  192SAPI    O322116   0.380   6.581   1.599
  192SAPI   HO322117   0.403   6.645   1.530
  192SAPI   C1422118   0.395   6.777   1.747
  192SAPI    H422119   0.413   0.040   1.652
  192SAPI    O422120   0.251   6.778   1.762
  192SAPI   HO422121   0.203   0.018   1.686
  192SAPI   C1522122   0.470   0.061   1.854
  192SAPI    H522123   0.416   0.036   1.947
  192SAPI    O522124   0.478   0.201   1.836
  192SAPI   HO522125   0.467   0.245   1.921
  192SAPI   C1622126   0.608   0.005   1.898
  192SAPI    H622127   0.679   0.053   1.828
  192SAPI    O622128   0.640   0.043   2.034
  192SAPI   HO622129   0.692   0.124   2.033
  192SAPI   C1122130   0.631   6.650   1.874
  192SAPI    H122131   0.572   6.596   1.952
  192SAPI     P22132   0.838   6.476   1.938
  192SAPI   O1322133   0.981   6.486   1.899
  192SAPI   O1422134   0.770   6.351   1.909
  192SAPI   O1222135   0.769   6.615   1.892
  192SAPI   O1122136   0.832   6.500   2.097
  192SAPI    C122137   0.880   6.403   2.196
  192SAPI    HA22138   0.971   6.350   2.162
  192SAPI    HB22139   0.905   6.459   2.289
  192SAPI    C222140   0.778   6.288   2.229
  192SAPI    HS22141   0.773   6.211   2.149
  192SAPI   O2122142   0.647   6.348   2.251
  192SAPI   C2122143   0.551   6.258   2.261
  192SAPI   O2222144   0.565   6.135   2.246
  192SAPI   C2222145   0.415   6.324   2.283
  192SAPI   H2R22146   0.408   6.433   2.266
  192SAPI   H2S22147   0.349   6.271   2.212
  192SAPI    C322148   0.823   6.210   2.356
  192SAPI    HX22149   0.915   6.155   2.328
  192SAPI    HY22150   0.752   6.128   2.381
  192SAPI   O3122151   0.849   6.303   2.465
  192SAPI   C3122152   0.756   6.331   2.551
  192SAPI   O3222153   0.644   6.283   2.554
  192SAPI   C3222154   0.804   6.447   2.632
  192SAPI   H2X22155   0.722   6.522   2.639
  192SAPI   H2Y22156   0.876   6.501   2.566
  192SAPI   C2322157   0.370   6.276   2.425
  192SAPI   H3R22158   0.409   6.350   2.499
  192SAPI   H3S22159   0.405   6.174   2.451
  192SAPI   C2422160   0.215   6.278   2.422
  192SAPI   H4R22161   0.175   6.232   2.329
  192SAPI   H4S22162   0.188   6.386   2.424
  192SAPI   C2522163   0.159   6.196   2.537
  192SAPI   H5R22164   0.124   6.094   2.513
  192SAPI   C2622165   0.188   6.226   2.665
  192SAPI   H6R22166   0.142   6.170   2.748
  192SAPI   C2722167   0.226   6.364   2.706
  192SAPI   H7R22168   0.138   6.405   2.760
  192SAPI   H7S22169   0.241   6.431   2.618
  192SAPI   C2822170   0.345   6.367   2.793
  192SAPI   H8R22171   0.441   6.341   2.746
  192SAPI   C2922172   0.339   6.396   2.925
  192SAPI   H9R22173   0.430   6.382   2.984
  192SAPI  C21022174   0.224   6.443   3.011
  192SAPI  H10R22175   0.136   6.486   2.958
  192SAPI  H10S22176   0.249   6.536   3.067
  192SAPI  C21122177   0.194   6.324   3.102
  192SAPI  H11R22178   0.135   6.247   3.049
  192SAPI  C21222179   0.212   6.320   3.232
  192SAPI  H12R22180   0.214   6.218   3.272
  192SAPI  C21322181   0.287   6.427   3.303
  192SAPI  H13R22182   0.364   6.468   3.234
  192SAPI  H13S22183   0.330   6.378   3.392
  192SAPI  C21422184   0.184   6.533   3.350
  192SAPI  H14R22185   0.150   6.609   3.278
  192SAPI  C21522186   0.139   6.546   3.478
  192SAPI  H15R22187   0.057   6.618   3.491
  192SAPI  C21622188   0.186   6.467   3.594
  192SAPI  H16R22189   0.292   6.485   3.619
  192SAPI  H16S22190   0.197   6.363   3.559
  192SAPI  C21722191   0.084   6.476   3.709
  192SAPI  H17R22192   0.079   6.381   3.768
  192SAPI  H17S22193   6.777   6.489   3.664
  192SAPI  C21822194   0.101   6.606   3.791
  192SAPI  H18R22195   0.011   6.630   3.852
  192SAPI  H18S22196   0.109   6.690   3.719
  192SAPI  C21922197   0.231   6.597   3.874
  192SAPI  H19R22198   0.230   6.686   3.941
  192SAPI  H19S22199   0.321   6.613   3.810
  192SAPI  C22022200   0.249   6.470   3.957
  192SAPI  H20R22201   0.277   6.372   3.913
  192SAPI  H20S22202   0.156   6.448   4.014
  192SAPI  H20T22203   0.331   6.476   4.032
  192SAPI   C3322204   0.876   6.417   2.768
  192SAPI   H3X22205   0.968   6.479   2.765
  192SAPI   H3Y22206   0.924   6.317   2.770
  192SAPI   C3422207   0.794   6.441   2.890
  192SAPI   H4X22208   0.707   6.372   2.884
  192SAPI   H4Y22209   0.762   6.545   2.865
  192SAPI   C3522210   0.863   6.445   3.025
  192SAPI   H5X22211   0.933   6.530   3.023
  192SAPI   H5Y22212   0.925   6.354   3.042
  192SAPI   C3622213   0.774   6.456   3.147
  192SAPI   H6X22214   0.692   6.385   3.123
  192SAPI   H6Y22215   0.736   6.560   3.147
  192SAPI   C3722216   0.843   6.421   3.279
  192SAPI   H7X22217   0.925   6.491   3.305
  192SAPI   H7Y22218   0.888   6.320   3.271
  192SAPI   C3822219   0.741   6.407   3.395
  192SAPI   H8X22220   0.796   6.368   3.483
  192SAPI   H8Y22221   0.660   6.333   3.382
  192SAPI   C3922222   0.675   6.545   3.430
  192SAPI   H9X22223   0.617   6.575   3.340
  192SAPI   H9Y22224   0.739   6.631   3.455
  192SAPI  C31022225   0.575   6.537   3.545
  192SAPI  H10X22226   0.502   6.454   3.535
  192SAPI  H10Y22227   0.508   6.626   3.540
  192SAPI  C31122228   0.644   6.529   3.681
  192SAPI  H11X22229   0.749   6.494   3.670
  192SAPI  H11Y22230   0.597   6.465   3.759
  192SAPI  C31222231   0.663   6.676   3.729
  192SAPI  H12X22232   0.575   6.727   3.773
  192SAPI  H12Y22233   0.696   6.736   3.641
  192SAPI  C31322234   0.769   6.698   3.839
  192SAPI  H13X22235   0.781   0.013   3.863
  192SAPI  H13Y22236   0.864   6.672   3.788
  192SAPI  C31422237   0.762   6.630   3.971
  192SAPI  H14X22238   0.861   6.635   4.022
  192SAPI  H14Y22239   0.759   6.520   3.958
  192SAPI  C31522240   0.652   6.661   4.072
  192SAPI  H15X22241   0.679   6.602   4.162
  192SAPI  H15Y22242   0.562   6.615   4.026
  192SAPI  C31622243   0.632   0.014   4.097
  192SAPI  H16X22244   0.702   0.071   4.032
  192SAPI  H16Y22245   0.664   0.035   4.201
  192SAPI  C31722246   0.484   0.064   4.062
  192SAPI  H17X22247   0.453   0.011   3.970
  192SAPI  H17Y22248   0.482   0.173   4.039
  192SAPI  C31822249   0.381   0.042   4.166
  192SAPI  H18X22250   0.276   0.064   4.137
  192SAPI  H18Y22251   0.407   0.102   4.256
  192SAPI  H18Z22252   0.380   6.724   4.175
  193SOD    SOD22253   2.512   5.162   1.948
  194SOD    SOD22254   2.960   2.378   1.447
  195SOD    SOD22255   2.859   4.358   7.113
  196SOD    SOD22256   4.107   1.220   1.825
  197SOD    SOD22257   3.277   0.976   7.205
  198SOD    SOD22258   6.357   0.806   6.942
  199SOD    SOD22259   1.888   2.057   0.653
  200SOD    SOD22260   6.130   6.468   1.218
  201SOD    SOD22261   6.662   6.590   2.373
  202SOD    SOD22262   0.278   3.120   0.897
  203SOD    SOD22263   3.497   6.515   2.286
  204SOD    SOD22264   1.311   1.362   0.807
  205SOD    SOD22265   5.466   6.115   2.173
  206SOD    SOD22266   3.988   5.196   0.811
  207SOD    SOD22267   0.231   1.568   1.603
  208SOD    SOD22268   3.388   0.403   6.498
  209SOD    SOD22269   4.487   1.087   0.876
  210SOD    SOD22270   3.480   2.941   7.017
  211SOD    SOD22271   0.860   5.936   1.835
  212SOD    SOD22272   2.037   2.280   7.953
  213SOD    SOD22273   0.064   4.101   0.076
  214SOD    SOD22274   2.885   0.177   6.979
  215SOD    SOD22275   6.304   2.809   8.853
  216SOD    SOD22276   1.358   4.220   6.177
  217SOD    SOD22277   0.852   2.886   0.851
  218SOD    SOD22278   0.209   0.883   8.253
  219SOD    SOD22279   6.640   3.725   0.820
  220SOD    SOD22280   3.457   4.103   6.519
  221SOD    SOD22281   6.432   2.119   6.784
  222SOD    SOD22282   2.675   3.383   0.469
  223SOD    SOD22283   4.383   5.640   2.366
  224SOD    SOD22284   5.381   5.201   7.509
  225SOD    SOD22285   5.493   6.546   6.410
  226SOD    SOD22286   4.147   3.685   1.820
  227SOD    SOD22287   3.261   5.845   7.069
  228SOD    SOD22288   6.294   6.754   1.868
  229SOD    SOD22289   5.418   1.456   7.923
  230SOD    SOD22290   3.572   5.840   8.797
  231SOD    SOD22291   6.698   3.084   6.515
  232SOD    SOD22292   0.949   5.530   7.847
  233SOD    SOD22293   3.002   1.664   2.328
  234CLA    CLA22294   3.876   1.493   1.397
  235CLA    CLA22295   2.383   5.961   0.251
  236CLA    CLA22296   4.921   1.208   0.627
  237CLA    CLA22297   6.363   2.145   8.600
  238CLA    CLA22298   4.973   5.716   7.345
  239CLA    CLA22299   6.164   2.098   1.023
  240CLA    CLA22300   0.238   5.849   7.514
  241CLA    CLA22301   2.174   2.882   0.260
  242CLA    CLA22302   0.103   0.099   7.413
  243CLA    CLA22303   0.221   2.808   0.507
  244CLA    CLA22304   0.267   1.301   1.273
  245CLA    CLA22305   4.940   3.506   1.016
  246CLA    CLA22306   2.038   0.393   1.631
  247CLA    CLA22307   1.665   0.900   7.214
  248CLA    CLA22308   2.450   4.789   6.782
  249CLA    CLA22309   5.673   3.854   0.167
  250CLA    CLA22310   4.725   4.243   0.339
  251TIP3   OH222311   6.770   5.242   0.369
  251TIP3    H122312   6.727   5.219   0.451
  251TIP3    H222313   6.740   5.331   0.350
  252TIP3   OH222314   0.791   1.171   8.034
  252TIP3    H122315   0.830   1.237   8.091
  252TIP3    H222316   0.786   1.092   8.088
  253TIP3   OH222317   5.495   6.232   6.794
  253TIP3    H122318   5.493   6.171   6.720
  253TIP3    H222319   5.552   6.190   6.858
  254TIP3   OH222320   5.966   6.783   0.396
  254TIP3    H122321   5.915   6.727   0.337
  254TIP3    H222322   5.937   0.079   0.376
  255TIP3   OH222323   6.703   3.580   1.299
  255TIP3    H122324   6.707   3.535   1.383
  255TIP3    H222325   6.617   3.622   1.298
  256TIP3   OH222326   1.673   0.175   8.126
  256TIP3    H122327   1.712   0.262   8.132
  256TIP3    H222328   1.748   0.115   8.126
  257TIP3   OH222329   0.894   5.999   1.135
  257TIP3    H122330   0.803   5.990   1.105
  257TIP3    H222331   0.933   6.061   1.073
  258TIP3   OH222332   0.469   5.457   1.557
  258TIP3    H122333   0.471   5.436   1.463
  258TIP3    H222334   0.411   5.533   1.563
  259TIP3   OH222335   5.247   3.061   6.866
  259TIP3    H122336   5.284   3.065   6.954
  259TIP3    H222337   5.284   2.982   6.828
  260TIP3   OH222338   5.833   5.203   0.093
  260TIP3    H122339   5.805   5.143   0.162
  260TIP3    H222340   5.826   5.152   0.013
  261TIP3   OH222341   1.520   3.103   6.963
  261TIP3    H122342   1.553   3.188   6.991
  261TIP3    H222343   1.490   3.118   6.873
  262TIP3   OH222344   0.582   5.805   6.908
  262TIP3    H122345   0.516   5.790   6.975
  262TIP3    H222346   0.610   5.717   6.883
  263TIP3   OH222347   6.392   2.951   0.829
  263TIP3    H122348   6.442   3.012   0.775
  263TIP3    H222349   6.457   2.909   0.885
  264TIP3   OH222350   3.049   5.084   0.825
  264TIP3    H122351   2.961   5.049   0.816
  264TIP3    H222352   3.071   5.069   0.917
  265TIP3   OH222353   5.711   0.064   1.618
  265TIP3    H122354   5.702   0.071   1.523
  265TIP3    H222355   5.648   0.127   1.653
  266TIP3   OH222356   4.163   0.537   6.777
  266TIP3    H122357   4.102   0.470   6.748
  266TIP3    H222358   4.248   0.510   6.741
  267TIP3   OH222359   3.918   2.500   7.952
  267TIP3    H122360   3.908   2.587   7.991
  267TIP3    H222361   3.926   2.441   8.027
  268TIP3   OH222362   4.822   0.354   0.845
  268TIP3    H122363   4.839   0.371   0.752
  268TIP3    H222364   4.908   0.334   0.882
  269TIP3   OH222365   4.125   2.769   1.022
  269TIP3    H122366   4.167   2.832   1.080
  269TIP3    H222367   4.146   2.684   1.060
  270TIP3   OH222368   3.725   6.422   2.581
  270TIP3    H122369   3.636   6.388   2.575
  270TIP3    H222370   3.729   6.492   2.516
  271TIP3   OH222371   5.453   6.369   6.244
  271TIP3    H122372   5.489   6.322   6.169
  271TIP3    H222373   5.358   6.356   6.237
  272TIP3   OH222374   2.631   5.534   1.984
  272TIP3    H122375   2.714   5.579   1.973
  272TIP3    H222376   2.578   5.561   1.909
  273TIP3   OH222377   6.125   0.715   0.955
  273TIP3    H122378   6.084   0.732   1.040
  273TIP3    H222379   6.166   0.798   0.932
  274TIP3   OH222380   1.229   0.729   0.186
  274TIP3    H122381   1.143   0.761   0.161
  274TIP3    H222382   1.219   0.634   0.192
  275TIP3   OH222383   4.589   3.722   8.533
  275TIP3    H122384   4.565   3.632   8.555
  275TIP3    H222385   4.671   3.713   8.484
  276TIP3   OH222386   3.091   3.251   8.523
  276TIP3    H122387   3.066   3.226   8.434
  276TIP3    H222388   3.136   3.174   8.558
  277TIP3   OH222389   6.356   0.394   0.398
  277TIP3    H122390   6.363   0.487   0.376
  277TIP3    H222391   6.272   0.367   0.362
  278TIP3   OH222392   4.565   5.979   1.003
  278TIP3    H122393   4.576   5.962   0.910
  278TIP3    H222394   4.491   6.040   1.008
  279TIP3   OH222395   3.789   0.485   0.795
  279TIP3    H122396   3.705   0.441   0.814
  279TIP3    H222397   3.788   0.496   0.700
  280TIP3   OH222398   0.674   2.527   8.136
  280TIP3    H122399   0.619   2.453   8.161
  280TIP3    H222400   0.624   2.573   8.068
  281TIP3   OH222401   6.576   2.377   0.946
  281TIP3    H122402   6.611   2.301   0.901
  281TIP3    H222403   6.492   2.348   0.982
  282TIP3   OH222404   5.584   4.538   1.683
  282TIP3    H122405   5.668   4.584   1.679
  282TIP3    H222406   5.518   4.606   1.669
  283TIP3   OH222407   2.608   4.146   0.739
  283TIP3    H122408   2.521   4.182   0.718
  283TIP3    H222409   2.664   4.224   0.746
  284TIP3   OH222410   3.382   0.327   0.844
  284TIP3    H122411   3.444   0.256   0.826
  284TIP3    H222412   3.298   0.282   0.856
  285TIP3   OH222413   4.385   1.382   0.236
  285TIP3    H122414   4.466   1.341   0.205
  285TIP3    H222415   4.408   1.416   0.323
  286TIP3   OH222416   5.822   2.459   8.082
  286TIP3    H122417   5.734   2.422   8.068
  286TIP3    H222418   5.880   2.383   8.084
  287TIP3   OH222419   6.407   6.661   8.604
  287TIP3    H122420   6.371   6.740   8.562
  287TIP3    H222421   6.435   6.606   8.531
  288TIP3   OH222422   0.173   5.185   8.487
  288TIP3    H122423   0.094   5.142   8.518
  288TIP3    H222424   0.242   5.120   8.498
  289TIP3   OH222425   3.529   4.282   0.024
  289TIP3    H122426   3.502   4.359   8.843
  289TIP3    H222427   3.624   4.289   0.031
  290TIP3   OH222428   4.916   0.907   1.352
  290TIP3    H122429   4.833   0.860   1.339
  290TIP3    H222430   4.897   0.996   1.323
  291TIP3   OH222431   6.611   2.211   8.095
  291TIP3    H122432   6.543   2.186   8.158
  291TIP3    H222433   6.596   2.154   8.019
  292TIP3   OH222434   5.794   1.812   8.787
  292TIP3    H122435   5.859   1.882   8.794
  292TIP3    H222436   5.774   1.807   8.693
  293TIP3   OH222437   3.601   2.855   2.050
  293TIP3    H122438   3.617   2.774   2.099
  293TIP3    H222439   3.542   2.829   1.979
  294TIP3   OH222440   4.219   4.780   1.329
  294TIP3    H122441   4.295   4.727   1.305
  294TIP3    H222442   4.147   4.741   1.279
  295TIP3   OH222443   6.024   2.203   1.738
  295TIP3    H122444   6.034   2.281   1.683
  295TIP3    H222445   6.065   2.227   1.821
  296TIP3   OH222446   0.656   5.145   6.509
  296TIP3    H122447   0.708   5.169   6.433
  296TIP3    H222448   0.677   5.211   6.575
  297TIP3   OH222449   3.587   4.673   0.456
  297TIP3    H122450   3.557   4.618   0.529
  297TIP3    H222451   3.641   4.615   0.403
  298TIP3   OH222452   5.224   2.921   0.423
  298TIP3    H122453   5.268   3.005   0.436
  298TIP3    H222454   5.281   2.873   0.363
  299TIP3   OH222455   2.637   4.933   7.148
  299TIP3    H122456   2.566   4.920   7.211
  299TIP3    H222457   2.639   4.852   7.097
  300TIP3   OH222458   4.658   1.068   8.717
  300TIP3    H122459   4.587   1.005   8.726
  300TIP3    H222460   4.737   1.015   8.707
  301TIP3   OH222461   3.389   2.875   1.273
  301TIP3    H122462   3.295   2.861   1.275
  301TIP3    H222463   3.400   2.965   1.244
  302TIP3   OH222464   2.282   0.837   6.828
  302TIP3    H122465   2.302   0.852   6.736
  302TIP3    H222466   2.367   0.835   6.871
  303TIP3   OH222467   5.337   2.661   7.837
  303TIP3    H122468   5.416   2.709   7.811
  303TIP3    H222469   5.311   2.701   7.919
  304TIP3   OH222470   5.372   4.190   8.122
  304TIP3    H122471   5.294   4.185   8.177
  304TIP3    H222472   5.404   4.279   8.134
  305TIP3   OH222473   2.750   2.312   1.103
  305TIP3    H122474   2.776   2.359   1.182
  305TIP3    H222475   2.769   2.374   1.032
  306TIP3   OH222476   5.879   4.075   0.089
  306TIP3    H122477   5.818   4.009   0.123
  306TIP3    H222478   5.957   4.025   0.066
  307TIP3   OH222479   5.865   3.052   7.561
  307TIP3    H122480   5.779   3.042   7.521
  307TIP3    H222481   5.922   3.081   7.490
  308TIP3   OH222482   4.331   6.674   7.440
  308TIP3    H122483   4.368   6.624   7.368
  308TIP3    H222484   4.383   6.755   7.443
  309TIP3   OH222485   5.850   0.424   1.867
  309TIP3    H122486   5.781   0.393   1.925
  309TIP3    H222487   5.929   0.422   1.922
  310TIP3   OH222488   5.316   0.287   0.497
  310TIP3    H122489   5.268   0.249   0.423
  310TIP3    H222490   5.397   0.320   0.458
  311TIP3   OH222491   0.223   6.068   8.467
  311TIP3    H122492   0.148   6.091   8.411
  311TIP3    H222493   0.198   6.098   8.554
  312TIP3   OH222494   5.545   2.716   8.413
  312TIP3    H122495   5.586   2.734   8.498
  312TIP3    H222496   5.610   2.663   8.367
  313TIP3   OH222497   2.193   1.040   8.206
  313TIP3    H122498   2.186   1.118   8.261
  313TIP3    H222499   2.136   1.058   8.132
  314TIP3   OH222500   2.685   1.578   0.043
  314TIP3    H122501   2.692   1.640   8.838
  314TIP3    H222502   2.773   1.542   0.052
  315TIP3   OH222503   5.279   5.807   7.911
  315TIP3    H122504   5.340   5.758   7.856
  315TIP3    H222505   5.330   5.834   7.987
  316TIP3   OH222506   3.214   3.412   1.512
  316TIP3    H122507   3.171   3.481   1.563
  316TIP3    H222508   3.145   3.347   1.496
  317TIP3   OH222509   4.589   4.117   8.139
  317TIP3    H122510   4.564   4.104   8.047
  317TIP3    H222511   4.525   4.179   8.173
  318TIP3   OH222512   3.149   5.659   8.205
  318TIP3    H122513   3.214   5.599   8.241
  318TIP3    H222514   3.201   5.733   8.173
  319TIP3   OH222515   3.010   5.320   7.511
  319TIP3    H122516   3.087   5.363   7.548
  319TIP3    H222517   3.040   5.282   7.428
  320TIP3   OH222518   3.467   4.509   1.384
  320TIP3    H122519   3.455   4.600   1.359
  320TIP3    H222520   3.416   4.459   1.321
  321TIP3   OH222521   1.160   3.523   0.342
  321TIP3    H122522   1.074   3.553   0.313
  321TIP3    H222523   1.181   3.579   0.417
  322TIP3   OH222524   6.383   1.914   6.700
  322TIP3    H122525   6.435   1.856   6.643
  322TIP3    H222526   6.332   1.855   6.754
  323TIP3   OH222527   1.259   4.656   7.200
  323TIP3    H122528   1.281   4.612   7.117
  323TIP3    H222529   1.196   4.723   7.175
  324TIP3   OH222530   1.467   2.945   7.975
  324TIP3    H122531   1.412   2.876   7.938
  324TIP3    H222532   1.540   2.898   8.015
  325TIP3   OH222533   3.625   3.485   6.582
  325TIP3    H122534   3.691   3.476   6.651
  325TIP3    H222535   3.624   3.579   6.562
  326TIP3   OH222536   4.174   5.940   7.262
  326TIP3    H122537   4.175   6.013   7.323
  326TIP3    H222538   4.215   5.974   7.183
  327TIP3   OH222539   4.218   1.362   7.717
  327TIP3    H122540   4.122   1.354   7.722
  327TIP3    H222541   4.237   1.444   7.763
  328TIP3   OH222542   4.341   0.409   7.133
  328TIP3    H122543   4.353   0.371   7.220
  328TIP3    H222544   4.392   0.352   7.075
  329TIP3   OH222545   3.367   2.964   0.323
  329TIP3    H122546   3.311   3.038   0.347
  329TIP3    H222547   3.350   2.952   0.229
  330TIP3   OH222548   4.253   4.711   8.063
  330TIP3    H122549   4.235   4.802   8.086
  330TIP3    H222550   4.184   4.688   8.000
  331TIP3   OH222551   5.173   5.516   1.038
  331TIP3    H122552   5.150   5.433   0.996
  331TIP3    H222553   5.229   5.561   0.974
  332TIP3   OH222554   3.572   3.505   2.308
  332TIP3    H122555   3.575   3.522   2.402
  332TIP3    H222556   3.621   3.578   2.269
  333TIP3   OH222557   5.315   1.761   1.698
  333TIP3    H122558   5.231   1.717   1.692
  333TIP3    H222559   5.301   1.831   1.762
  334TIP3   OH222560   6.016   4.432   0.471
  334TIP3    H122561   6.099   4.478   0.465
  334TIP3    H222562   5.974   4.468   0.549
  335TIP3   OH222563   1.458   5.802   1.678
  335TIP3    H122564   1.514   5.806   1.755
  335TIP3    H222565   1.417   5.889   1.674
  336TIP3   OH222566   4.751   3.598   6.915
  336TIP3    H122567   4.664   3.562   6.934
  336TIP3    H222568   4.769   3.570   6.825
  337TIP3   OH222569   4.379   2.253   8.601
  337TIP3    H122570   4.309   2.311   8.632
  337TIP3    H222571   4.456   2.279   8.651
  338TIP3   OH222572   0.268   6.682   6.703
  338TIP3    H122573   0.278   6.593   6.735
  338TIP3    H222574   0.350   6.726   6.727
  339TIP3   OH222575   2.521   3.846   1.099
  339TIP3    H122576   2.572   3.903   1.041
  339TIP3    H222577   2.581   3.774   1.120
  340TIP3   OH222578   3.323   4.803   6.444
  340TIP3    H122579   3.269   4.753   6.383
  340TIP3    H222580   3.411   4.799   6.406
  341TIP3   OH222581   0.080   2.672   1.758
  341TIP3    H122582   0.071   2.767   1.751
  341TIP3    H222583   6.783   2.639   1.749
  342TIP3   OH222584   2.506   5.502   1.137
  342TIP3    H122585   2.591   5.542   1.122
  342TIP3    H222586   2.480   5.468   1.051
  343TIP3   OH222587   3.430   4.884   8.687
  343TIP3    H122588   3.465   4.950   8.627
  343TIP3    H222589   3.443   4.801   8.640
  344TIP3   OH222590   1.867   4.322   2.373
  344TIP3    H122591   1.917   4.346   2.451
  344TIP3    H222592   1.912   4.244   2.339
  345TIP3   OH222593   1.271   5.021   8.204
  345TIP3    H122594   1.310   4.947   8.251
  345TIP3    H222595   1.338   5.089   8.207
  346TIP3   OH222596   1.868   6.222   6.590
  346TIP3    H122597   1.780   6.201   6.622
  346TIP3    H222598   1.922   6.148   6.618
  347TIP3   OH222599   0.860   6.296   8.501
  347TIP3    H122600   0.798   6.238   8.458
  347TIP3    H222601   0.851   6.380   8.455
  348TIP3   OH222602   6.391   6.574   8.099
  348TIP3    H122603   6.342   6.503   8.140
  348TIP3    H222604   6.441   6.613   8.171
  349TIP3   OH222605   3.306   4.108   0.219
  349TIP3    H122606   3.285   4.196   0.249
  349TIP3    H222607   3.317   4.118   0.124
  350TIP3   OH222608   2.998   2.118   1.957
  350TIP3    H122609   2.945   2.065   2.016
  350TIP3    H222610   2.934   2.156   1.896
  351TIP3   OH222611   5.262   4.961   7.953
  351TIP3    H122612   5.293   4.872   7.937
  351TIP3    H222613   5.166   4.954   7.950
  352TIP3   OH222614   0.413   2.256   7.812
  352TIP3    H122615   0.362   2.209   7.746
  352TIP3    H222616   0.502   2.260   7.777
  353TIP3   OH222617   6.023   5.919   7.828
  353TIP3    H122618   5.939   5.959   7.806
  353TIP3    H222619   6.000   5.837   7.871
  354TIP3   OH222620   1.450   3.768   8.396
  354TIP3    H122621   1.427   3.696   8.454
  354TIP3    H222622   1.546   3.774   8.402
  355TIP3   OH222623   5.693   6.656   0.287
  355TIP3    H122624   5.708   6.665   0.192
  355TIP3    H222625   5.640   6.577   0.295
  356TIP3   OH222626   3.513   4.469   7.766
  356TIP3    H122627   3.606   4.489   7.779
  356TIP3    H222628   3.488   4.419   7.844
  357TIP3   OH222629   5.377   6.518   7.573
  357TIP3    H122630   5.430   6.597   7.578
  357TIP3    H222631   5.439   6.448   7.555
  358TIP3   OH222632   0.977   2.055   0.453
  358TIP3    H122633   0.883   2.041   0.456
  358TIP3    H222634   0.994   2.087   0.364
  359TIP3   OH222635   3.380   2.698   8.037
  359TIP3    H122636   3.317   2.656   8.097
  359TIP3    H222637   3.445   2.630   8.020
  360TIP3   OH222638   6.721   0.532   0.335
  360TIP3    H122639   6.740   0.502   0.246
  360TIP3    H222640   6.671   0.613   0.322
  361TIP3   OH222641   6.494   5.067   0.494
  361TIP3    H122642   6.405   5.069   0.529
  361TIP3    H222643   6.549   5.042   0.569
  362TIP3   OH222644   5.160   2.262   2.301
  362TIP3    H122645   5.239   2.315   2.312
  362TIP3    H222646   5.146   2.222   2.387
  363TIP3   OH222647   0.380   0.118   7.261
  363TIP3    H122648   0.449   0.062   7.298
  363TIP3    H222649   0.301   0.094   7.309
  364TIP3   OH222650   6.539   0.193   0.312
  364TIP3    H122651   6.498   0.279   0.318
  364TIP3    H222652   6.588   0.185   0.394
  365TIP3   OH222653   6.248   2.777   7.206
  365TIP3    H122654   6.210   2.822   7.282
  365TIP3    H222655   6.176   2.727   7.169
  366TIP3   OH222656   2.167   3.212   0.874
  366TIP3    H122657   2.133   3.156   0.943
  366TIP3    H222658   2.133   3.299   0.895
  367TIP3   OH222659   6.518   6.630   8.344
  367TIP3    H122660   6.488   6.720   8.358
  367TIP3    H222661   6.613   6.638   8.330
  368TIP3   OH222662   1.434   5.246   7.566
  368TIP3    H122663   1.353   5.213   7.604
  368TIP3    H222664   1.435   5.213   7.477
  369TIP3   OH222665   1.483   6.080   0.813
  369TIP3    H122666   1.515   6.016   0.876
  369TIP3    H222667   1.520   6.051   0.729
  370TIP3   OH222668   4.917   6.111   6.814
  370TIP3    H122669   4.993   6.064   6.778
  370TIP3    H222670   4.860   6.125   6.739
  371TIP3   OH222671   0.080   3.184   1.292
  371TIP3    H122672   0.008   3.151   1.345
  371TIP3    H222673   0.159   3.159   1.341
  372TIP3   OH222674   3.864   4.001   6.449
  372TIP3    H122675   3.849   3.919   6.402
  372TIP3    H222676   3.953   3.994   6.483
  373TIP3   OH222677   0.086   4.768   0.941
  373TIP3    H122678   0.140   4.846   0.954
  373TIP3    H222679   0.073   4.733   1.029
  374TIP3   OH222680   6.629   2.290   0.085
  374TIP3    H122681   6.674   2.207   0.077
  374TIP3    H222682   6.697   2.352   0.111
  375TIP3   OH222683   0.155   3.022   6.492
  375TIP3    H122684   0.242   2.984   6.509
  375TIP3    H222685   0.167   3.116   6.509
  376TIP3   OH222686   1.871   2.498   0.933
  376TIP3    H122687   1.906   2.421   0.977
  376TIP3    H222688   1.834   2.465   0.851
  377TIP3   OH222689   6.102   5.670   8.014
  377TIP3    H122690   6.071   5.706   8.098
  377TIP3    H222691   6.029   5.616   7.983
  378TIP3   OH222692   0.887   2.555   7.936
  378TIP3    H122693   0.828   2.572   8.008
  378TIP3    H222694   0.834   2.509   7.871
  379TIP3   OH222695   4.569   1.112   2.505
  379TIP3    H122696   4.491   1.123   2.560
  379TIP3    H222697   4.611   1.033   2.539
  380TIP3   OH222698   2.108   3.415   7.973
  380TIP3    H122699   2.072   3.500   7.947
  380TIP3    H222700   2.116   3.366   7.892
  381TIP3   OH222701   1.328   0.301   1.268
  381TIP3    H122702   1.313   0.373   1.206
  381TIP3    H222703   1.266   0.233   1.241
  382TIP3   OH222704   3.704   3.299   8.794
  382TIP3    H122705   3.702   3.315   8.700
  382TIP3    H222706   3.796   3.310   8.818
  383TIP3   OH222707   2.574   1.718   7.378
  383TIP3    H122708   2.484   1.738   7.401
  383TIP3    H222709   2.571   1.627   7.347
  384TIP3   OH222710   4.234   3.719   1.112
  384TIP3    H122711   4.283   3.674   1.044
  384TIP3    H222712   4.286   3.706   1.191
  385TIP3   OH222713   2.661   1.399   1.647
  385TIP3    H122714   2.722   1.329   1.669
  385TIP3    H222715   2.654   1.451   1.727
  386TIP3   OH222716   4.199   4.126   1.359
  386TIP3    H122717   4.266   4.058   1.362
  386TIP3    H222718   4.117   4.081   1.379
  387TIP3   OH222719   3.414   3.748   7.572
  387TIP3    H122720   3.365   3.736   7.653
  387TIP3    H222721   3.428   3.842   7.566
  388TIP3   OH222722   1.954   6.564   8.198
  388TIP3    H122723   2.007   6.485   8.188
  388TIP3    H222724   1.868   6.540   8.164
  389TIP3   OH222725   1.280   6.487   8.635
  389TIP3    H122726   1.266   6.563   8.691
  389TIP3    H222727   1.372   6.463   8.650
  390TIP3   OH222728   1.266   5.351   0.541
  390TIP3    H122729   1.347   5.345   0.591
  390TIP3    H222730   1.202   5.387   0.602
  391TIP3   OH222731   6.183   1.128   8.431
  391TIP3    H122732   6.262   1.170   8.464
  391TIP3    H222733   6.111   1.172   8.477
  392TIP3   OH222734   2.911   3.053   8.056
  392TIP3    H122735   2.924   3.028   7.965
  392TIP3    H222736   2.848   3.124   8.053
  393TIP3   OH222737   2.424   3.542   8.311
  393TIP3    H122738   2.410   3.593   8.231
  393TIP3    H222739   2.378   3.590   8.379
  394TIP3   OH222740   5.840   2.030   1.544
  394TIP3    H122741   5.780   2.001   1.614
  394TIP3    H222742   5.839   2.125   1.549
  395TIP3   OH222743   0.823   4.461   1.484
  395TIP3    H122744   0.789   4.372   1.494
  395TIP3    H222745   0.914   4.455   1.512
  396TIP3   OH222746   6.529   1.763   0.185
  396TIP3    H122747   6.478   1.702   0.237
  396TIP3    H222748   6.520   1.732   0.095
  397TIP3   OH222749   2.538   5.296   1.296
  397TIP3    H122750   2.503   5.357   1.232
  397TIP3    H222751   2.594   5.237   1.245
  398TIP3   OH222752   5.493   4.160   6.346
  398TIP3    H122753   5.570   4.146   6.400
  398TIP3    H222754   5.428   4.196   6.406
  399TIP3   OH222755   2.906   0.691   0.947
  399TIP3    H122756   2.883   0.716   0.857
  399TIP3    H222757   2.846   0.619   0.968
  400TIP3   OH222758   2.318   3.414   2.346
  400TIP3    H122759   2.228   3.442   2.359
  400TIP3    H222760   2.361   3.432   2.430
  401TIP3   OH222761   2.022   2.445   1.555
  401TIP3    H122762   2.062   2.385   1.618
  401TIP3    H222763   2.059   2.531   1.577
  402TIP3   OH222764   4.861   2.168   1.598
  402TIP3    H122765   4.873   2.114   1.676
  402TIP3    H222766   4.873   2.258   1.629
  403TIP3   OH222767   1.496   0.283   1.699
  403TIP3    H122768   1.496   0.379   1.703
  403TIP3    H222769   1.471   0.256   1.788
  404TIP3   OH222770   6.049   0.698   1.842
  404TIP3    H122771   6.126   0.656   1.804
  404TIP3    H222772   5.975   0.662   1.794
  405TIP3   OH222773   5.540   2.709   0.589
  405TIP3    H122774   5.585   2.776   0.640
  405TIP3    H222775   5.447   2.731   0.598
  406TIP3   OH222776   5.763   2.638   6.881
  406TIP3    H122777   5.689   2.686   6.845
  406TIP3    H222778   5.793   2.692   6.955
  407TIP3   OH222779   5.899   1.431   7.946
  407TIP3    H122780   5.973   1.422   8.006
  407TIP3    H222781   5.889   1.525   7.934
  408TIP3   OH222782   0.839   2.492   0.850
  408TIP3    H122783   0.791   2.441   0.785
  408TIP3    H222784   0.925   2.450   0.854
  409TIP3   OH222785   0.033   5.781   8.866
  409TIP3    H122786   0.096   5.742   8.805
  409TIP3    H222787   6.742   5.746   8.839
  410TIP3   OH222788   3.439   4.774   1.269
  410TIP3    H122789   3.356   4.806   1.303
  410TIP3    H222790   3.487   4.853   1.243
  411TIP3   OH222791   2.648   0.052   0.113
  411TIP3    H122792   2.735   0.018   0.095
  411TIP3    H222793   2.648   0.069   0.207
  412TIP3   OH222794   2.856   5.621   0.400
  412TIP3    H122795   2.816   5.668   0.474
  412TIP3    H222796   2.795   5.635   0.328
  413TIP3   OH222797   4.035   1.987   8.067
  413TIP3    H122798   4.100   1.959   8.002
  413TIP3    H222799   4.087   2.020   8.140
  414TIP3   OH222800   6.464   6.499   1.411
  414TIP3    H122801   6.503   6.574   1.366
  414TIP3    H222802   6.538   6.458   1.457
  415TIP3   OH222803   6.470   1.126   0.443
  415TIP3    H122804   6.417   1.048   0.458
  415TIP3    H222805   6.419   1.179   0.381
  416TIP3   OH222806   3.203   2.486   8.533
  416TIP3    H122807   3.151   2.560   8.502
  416TIP3    H222808   3.259   2.523   8.601
  417TIP3   OH222809   2.770   0.899   1.351
  417TIP3    H122810   2.814   0.980   1.379
  417TIP3    H222811   2.816   0.873   1.271
  418TIP3   OH222812   6.312   4.055   7.805
  418TIP3    H122813   6.257   4.013   7.871
  418TIP3    H222814   6.366   3.984   7.771
  419TIP3   OH222815   5.118   3.341   1.424
  419TIP3    H122816   5.136   3.399   1.497
  419TIP3    H222817   5.039   3.378   1.383
  420TIP3   OH222818   5.889   1.165   7.812
  420TIP3    H122819   5.838   1.190   7.889
  420TIP3    H222820   5.964   1.117   7.848
  421TIP3   OH222821   5.727   1.387   1.867
  421TIP3    H122822   5.685   1.302   1.881
  421TIP3    H222823   5.798   1.368   1.805
  422TIP3   OH222824   4.364   2.362   7.463
  422TIP3    H122825   4.443   2.313   7.484
  422TIP3    H222826   4.325   2.314   7.390
  423TIP3   OH222827   5.771   5.652   0.097
  423TIP3    H122828   5.828   5.708   0.044
  423TIP3    H222829   5.831   5.596   0.145
  424TIP3   OH222830   1.623   6.517   6.972
  424TIP3    H122831   1.547   6.458   6.972
  424TIP3    H222832   1.619   6.562   6.888
  425TIP3   OH222833   1.775   0.355   8.402
  425TIP3    H122834   1.790   0.344   8.308
  425TIP3    H222835   1.815   0.439   8.423
  426TIP3   OH222836   5.294   5.971   1.255
  426TIP3    H122837   5.321   6.017   1.176
  426TIP3    H222838   5.225   5.912   1.226
  427TIP3   OH222839   4.462   2.736   2.229
  427TIP3    H122840   4.529   2.781   2.178
  427TIP3    H222841   4.429   2.668   2.171
  428TIP3   OH222842   0.606   0.103   6.498
  428TIP3    H122843   0.578   0.013   6.483
  428TIP3    H222844   0.530   0.156   6.476
  429TIP3   OH222845   3.187   0.929   7.005
  429TIP3    H122846   3.095   0.916   6.981
  429TIP3    H222847   3.236   0.901   6.928
  430TIP3   OH222848   6.439   2.113   7.664
  430TIP3    H122849   6.442   2.052   7.737
  430TIP3    H222850   6.464   2.198   7.702
  431TIP3   OH222851   3.308   3.267   8.772
  431TIP3    H122852   3.370   3.336   8.795
  431TIP3    H222853   3.361   3.188   8.763
  432TIP3   OH222854   1.520   2.448   8.426
  432TIP3    H122855   1.427   2.453   8.447
  432TIP3    H222856   1.538   2.354   8.419
  433TIP3   OH222857   0.372   6.154   1.856
  433TIP3    H122858   0.455   6.190   1.823
  433TIP3    H222859   0.398   6.072   1.898
  434TIP3   OH222860   5.488   6.373   8.666
  434TIP3    H122861   5.543   6.437   8.620
  434TIP3    H222862   5.548   6.331   8.728
  435TIP3   OH222863   4.126   3.208   7.682
  435TIP3    H122864   4.087   3.272   7.741
  435TIP3    H222865   4.121   3.125   7.730
  436TIP3   OH222866   1.487   1.493   0.400
  436TIP3    H122867   1.432   1.567   0.426
  436TIP3    H222868   1.577   1.524   0.416
  437TIP3   OH222869   6.683   0.081   0.115
  437TIP3    H122870   6.645   0.121   0.194
  437TIP3    H222871   6.626   0.007   0.096
  438TIP3   OH222872   5.961   5.960   1.344
  438TIP3    H122873   6.026   5.934   1.278
  438TIP3    H222874   5.964   5.890   1.409
  439TIP3   OH222875   0.434   3.655   6.916
  439TIP3    H122876   0.493   3.664   6.992
  439TIP3    H222877   0.455   3.569   6.880
  440TIP3   OH222878   2.396   3.564   6.978
  440TIP3    H122879   2.365   3.556   6.888
  440TIP3    H222880   2.356   3.490   7.024
  441TIP3   OH222881   1.087   0.814   8.373
  441TIP3    H122882   1.131   0.771   8.446
  441TIP3    H222883   1.096   0.753   8.300
  442TIP3   OH222884   3.178   6.137   7.406
  442TIP3    H122885   3.223   6.076   7.465
  442TIP3    H222886   3.242   6.206   7.390
  443TIP3   OH222887   0.919   3.019   8.848
  443TIP3    H122888   0.915   2.997   8.755
  443TIP3    H222889   1.013   3.020   8.868
  444TIP3   OH222890   6.602   2.982   1.789
  444TIP3    H122891   6.566   2.922   1.854
  444TIP3    H222892   6.546   3.060   1.795
  445TIP3   OH222893   3.410   5.437   0.436
  445TIP3    H122894   3.450   5.433   0.523
  445TIP3    H222895   3.381   5.348   0.418
  446TIP3   OH222896   0.575   1.726   7.620
  446TIP3    H122897   0.566   1.637   7.587
  446TIP3    H222898   0.527   1.779   7.555
  447TIP3   OH222899   0.146   5.631   0.252
  447TIP3    H122900   0.225   5.586   0.222
  447TIP3    H222901   0.082   5.616   0.183
  448TIP3   OH222902   2.536   4.444   7.788
  448TIP3    H122903   2.613   4.501   7.783
  448TIP3    H222904   2.515   4.441   7.881
  449TIP3   OH222905   4.782   1.740   7.028
  449TIP3    H122906   4.704   1.756   6.975
  449TIP3    H222907   4.828   1.824   7.029
  450TIP3   OH222908   2.127   0.430   0.493
  450TIP3    H122909   2.127   0.387   0.408
  450TIP3    H222910   2.034   0.445   0.512
  451TIP3   OH222911   5.167   6.043   7.805
  451TIP3    H122912   5.202   5.964   7.846
  451TIP3    H222913   5.125   6.012   7.725
  452TIP3   OH222914   6.021   0.977   7.524
  452TIP3    H122915   5.984   1.041   7.464
  452TIP3    H222916   6.074   1.029   7.585
  453TIP3   OH222917   3.879   4.791   2.343
  453TIP3    H122918   3.856   4.834   2.426
  453TIP3    H222919   3.902   4.702   2.368
  454TIP3   OH222920   3.859   5.866   8.038
  454TIP3    H122921   3.780   5.845   7.988
  454TIP3    H222922   3.829   5.875   8.128
  455TIP3   OH222923   1.302   3.790   8.155
  455TIP3    H122924   1.356   3.784   8.233
  455TIP3    H222925   1.345   3.733   8.091
  456TIP3   OH222926   0.208   5.897   8.205
  456TIP3    H122927   0.295   5.873   8.239
  456TIP3    H222928   0.227   5.956   8.132
  457TIP3   OH222929   2.176   4.043   8.857
  457TIP3    H122930   2.156   4.118   8.801
  457TIP3    H222931   2.211   4.082   0.069
  458TIP3   OH222932   3.225   2.474   1.078
  458TIP3    H122933   3.309   2.471   1.031
  458TIP3    H222934   3.171   2.533   1.026
  459TIP3   OH222935   2.996   0.367   6.923
  459TIP3    H122936   2.956   0.402   6.844
  459TIP3    H222937   3.027   0.444   6.971
  460TIP3   OH222938   0.872   0.191   6.523
  460TIP3    H122939   0.788   0.146   6.516
  460TIP3    H222940   0.927   0.132   6.575
  461TIP3   OH222941   1.905   6.062   0.499
  461TIP3    H122942   1.941   6.146   0.470
  461TIP3    H222943   1.963   5.997   0.461
  462TIP3   OH222944   0.859   4.736   6.971
  462TIP3    H122945   0.784   4.704   7.021
  462TIP3    H222946   0.835   4.721   6.879
  463TIP3   OH222947   0.778   0.469   0.613
  463TIP3    H122948   0.731   0.539   0.656
  463TIP3    H222949   0.839   0.436   0.679
  464TIP3   OH222950   2.203   6.598   1.045
  464TIP3    H122951   2.209   6.590   1.140
  464TIP3    H222952   2.252   6.523   1.011
  465TIP3   OH222953   1.736   0.698   1.749
  465TIP3    H122954   1.812   0.712   1.806
  465TIP3    H222955   1.690   0.624   1.789
  466TIP3   OH222956   3.402   3.512   1.785
  466TIP3    H122957   3.417   3.553   1.870
  466TIP3    H222958   3.484   3.468   1.765
  467TIP3   OH222959   4.155   3.116   0.043
  467TIP3    H122960   4.216   3.049   0.073
  467TIP3    H222961   4.175   3.193   0.095
  468TIP3   OH222962   3.935   1.315   8.084
  468TIP3    H122963   3.876   1.240   8.097
  468TIP3    H222964   3.909   1.350   7.999
  469TIP3   OH222965   0.376   3.649   7.334
  469TIP3    H122966   0.378   3.553   7.343
  469TIP3    H222967   0.314   3.665   7.263
  470TIP3   OH222968   3.709   4.907   7.804
  470TIP3    H122969   3.664   4.830   7.771
  470TIP3    H222970   3.643   4.976   7.801
  471TIP3   OH222971   6.745   1.591   1.029
  471TIP3    H122972   6.743   1.606   1.123
  471TIP3    H222973   6.657   1.613   0.999
  472TIP3   OH222974   3.602   5.812   2.290
  472TIP3    H122975   3.520   5.810   2.240
  472TIP3    H222976   3.648   5.733   2.264
  473TIP3   OH222977   0.278   6.361   8.423
  473TIP3    H122978   0.258   6.396   8.336
  473TIP3    H222979   0.245   6.271   8.421
  474TIP3   OH222980   0.807   0.016   7.863
  474TIP3    H122981   0.811   6.718   7.893
  474TIP3    H222982   0.888   0.055   7.895
  475TIP3   OH222983   0.886   1.498   0.121
  475TIP3    H122984   0.961   1.447   0.089
  475TIP3    H222985   0.813   1.470   0.066
  476TIP3   OH222986   2.558   3.676   8.543
  476TIP3    H122987   2.547   3.733   8.466
  476TIP3    H222988   2.570   3.588   8.506
  477TIP3   OH222989   4.313   2.064   8.086
  477TIP3    H122990   4.281   2.130   8.147
  477TIP3    H222991   4.352   1.996   8.141
  478TIP3   OH222992   5.411   5.096   6.769
  478TIP3    H122993   5.430   5.062   6.682
  478TIP3    H222994   5.398   5.190   6.757
  479TIP3   OH222995   4.983   5.298   7.524
  479TIP3    H122996   5.035   5.369   7.560
  479TIP3    H222997   5.040   5.258   7.458
  480TIP3   OH222998   4.425   2.668   1.529
  480TIP3    H122999   4.426   2.614   1.609
  480TIP3    H223000   4.337   2.656   1.494
  481TIP3   OH223001   5.970   0.471   0.554
  481TIP3    H123002   5.961   0.536   0.624
  481TIP3    H223003   5.997   0.522   0.477
  482TIP3   OH223004   3.185   4.970   2.067
  482TIP3    H123005   3.192   4.882   2.028
  482TIP3    H223006   3.275   5.002   2.069
  483TIP3   OH223007   4.897   4.727   7.401
  483TIP3    H123008   4.855   4.709   7.317
  483TIP3    H223009   4.976   4.674   7.401
  484TIP3   OH223010   3.029   6.397   7.607
  484TIP3    H123011   2.966   6.352   7.552
  484TIP3    H223012   3.090   6.438   7.546
  485TIP3   OH223013   1.999   3.616   6.407
  485TIP3    H123014   1.968   3.540   6.358
  485TIP3    H223015   2.055   3.663   6.345
  486TIP3   OH223016   0.832   1.328   7.271
  486TIP3    H123017   0.835   1.240   7.308
  486TIP3    H223018   0.849   1.386   7.346
  487TIP3   OH223019   6.570   2.483   0.344
  487TIP3    H123020   6.654   2.518   0.313
  487TIP3    H223021   6.546   2.417   0.280
  488TIP3   OH223022   1.818   3.131   1.433
  488TIP3    H123023   1.757   3.205   1.437
  488TIP3    H223024   1.885   3.159   1.372
  489TIP3   OH223025   5.713   0.372   1.557
  489TIP3    H123026   5.655   0.407   1.624
  489TIP3    H223027   5.667   0.295   1.523
  490TIP3   OH223028   2.603   1.448   8.049
  490TIP3    H123029   2.665   1.438   7.978
  490TIP3    H223030   2.584   1.541   8.052
  491TIP3   OH223031   3.727   0.132   0.395
  491TIP3    H123032   3.769   0.076   0.460
  491TIP3    H223033   3.762   0.102   0.311
  492TIP3   OH223034   6.534   3.314   7.661
  492TIP3    H123035   6.584   3.254   7.716
  492TIP3    H223036   6.460   3.261   7.629
  493TIP3   OH223037   4.833   4.212   1.524
  493TIP3    H123038   4.880   4.294   1.511
  493TIP3    H223039   4.894   4.156   1.572
  494TIP3   OH223040   4.998   2.485   2.271
  494TIP3    H123041   5.013   2.391   2.256
  494TIP3    H223042   5.028   2.499   2.361
  495TIP3   OH223043   5.605   5.321   0.607
  495TIP3    H123044   5.615   5.346   0.515
  495TIP3    H223045   5.620   5.402   0.656
  496TIP3   OH223046   1.283   4.734   0.373
  496TIP3    H123047   1.277   4.742   0.278
  496TIP3    H223048   1.193   4.740   0.403
  497TIP3   OH223049   3.833   1.582   0.653
  497TIP3    H123050   3.783   1.659   0.682
  497TIP3    H223051   3.798   1.510   0.706
  498TIP3   OH223052   5.661   1.132   1.925
  498TIP3    H123053   5.575   1.091   1.920
  498TIP3    H223054   5.685   1.127   2.018
  499TIP3   OH223055   0.974   3.905   7.365
  499TIP3    H123056   0.997   3.970   7.432
  499TIP3    H223057   0.886   3.928   7.338
  500TIP3   OH223058   6.596   2.034   6.927
  500TIP3    H123059   6.597   1.975   7.003
  500TIP3    H223060   6.647   1.988   6.861
  501TIP3   OH223061   0.982   5.312   0.548
  501TIP3    H123062   0.938   5.238   0.507
  501TIP3    H223063   0.986   5.289   0.641
  502TIP3   OH223064   0.960   0.883   6.647
  502TIP3    H123065   0.999   0.966   6.619
  502TIP3    H223066   0.913   0.852   6.570
  503TIP3   OH223067   0.363   0.416   8.467
  503TIP3    H123068   0.443   0.438   8.418
  503TIP3    H223069   0.390   0.346   8.526
  504TIP3   OH223070   4.503   2.363   7.129
  504TIP3    H123071   4.583   2.322   7.160
  504TIP3    H223072   4.531   2.422   7.059
  505TIP3   OH223073   2.592   2.258   7.489
  505TIP3    H123074   2.588   2.295   7.401
  505TIP3    H223075   2.501   2.250   7.515
  506TIP3   OH223076   5.247   3.951   2.117
  506TIP3    H123077   5.285   4.014   2.177
  506TIP3    H223078   5.320   3.894   2.092
  507TIP3   OH223079   2.327   1.734   7.492
  507TIP3    H123080   2.323   1.734   7.588
  507TIP3    H223081   2.262   1.668   7.466
  508TIP3   OH223082   3.842   4.521   8.397
  508TIP3    H123083   3.909   4.543   8.462
  508TIP3    H223084   3.892   4.494   8.319
  509TIP3   OH223085   4.283   1.188   8.162
  509TIP3    H123086   4.263   1.266   8.214
  509TIP3    H223087   4.217   1.124   8.190
  510TIP3   OH223088   3.288   3.731   0.303
  510TIP3    H123089   3.344   3.782   0.361
  510TIP3    H223090   3.227   3.794   0.266
  511TIP3   OH223091   1.184   6.110   7.474
  511TIP3    H123092   1.123   6.069   7.413
  511TIP3    H223093   1.170   6.064   7.557
  512TIP3   OH223094   4.980   5.866   1.371
  512TIP3    H123095   5.010   5.808   1.300
  512TIP3    H223096   5.008   5.822   1.451
  513TIP3   OH223097   0.762   1.655   1.892
  513TIP3    H123098   0.778   1.654   1.798
  513TIP3    H223099   0.695   1.723   1.904
  514TIP3   OH223100   4.736   1.534   1.325
  514TIP3    H123101   4.710   1.447   1.293
  514TIP3    H223102   4.831   1.527   1.336
  515TIP3   OH223103   6.061   1.119   0.032
  515TIP3    H123104   6.069   1.040   0.086
  515TIP3    H223105   6.013   1.090   8.823
  516TIP3   OH223106   5.836   5.270   7.779
  516TIP3    H123107   5.928   5.249   7.762
  516TIP3    H223108   5.819   5.234   7.866
  517TIP3   OH223109   2.764   5.093   0.703
  517TIP3    H123110   2.670   5.085   0.719
  517TIP3    H223111   2.770   5.129   0.614
  518TIP3   OH223112   0.159   4.314   1.647
  518TIP3    H123113   0.155   4.324   1.742
  518TIP3    H223114   0.167   4.404   1.614
  519TIP3   OH223115   6.614   1.867   0.426
  519TIP3    H123116   6.706   1.840   0.432
  519TIP3    H223117   6.584   1.830   0.343
  520TIP3   OH223118   5.069   1.152   7.913
  520TIP3    H123119   5.036   1.073   7.870
  520TIP3    H223120   5.074   1.128   8.006
  521TIP3   OH223121   2.287   0.940   7.870
  521TIP3    H123122   2.232   0.943   7.948
  521TIP3    H223123   2.308   1.031   7.851
  522TIP3   OH223124   5.750   4.763   6.323
  522TIP3    H123125   5.800   4.788   6.401
  522TIP3    H223126   5.784   4.819   6.254
  523TIP3   OH223127   5.599   0.782   0.540
  523TIP3    H123128   5.538   0.854   0.553
  523TIP3    H223129   5.552   0.721   0.483
  524TIP3   OH223130   1.656   5.414   1.221
  524TIP3    H123131   1.632   5.356   1.148
  524TIP3    H223132   1.586   5.401   1.285
  525TIP3   OH223133   6.693   0.726   2.293
  525TIP3    H123134   6.600   0.742   2.275
  525TIP3    H223135   6.711   0.778   2.372
  526TIP3   OH223136   5.123   2.988   8.148
  526TIP3    H123137   5.178   2.925   8.101
  526TIP3    H223138   5.119   3.064   8.090
  527TIP3   OH223139   4.923   1.963   8.188
  527TIP3    H123140   4.938   2.042   8.137
  527TIP3    H223141   4.946   1.891   8.129
  528TIP3   OH223142   3.820   5.042   1.335
  528TIP3    H123143   3.915   5.042   1.324
  528TIP3    H223144   3.805   4.983   1.409
  529TIP3   OH223145   5.907   5.620   2.668
  529TIP3    H123146   5.844   5.691   2.657
  529TIP3    H223147   5.860   5.555   2.722
  530TIP3   OH223148   0.869   1.374   0.372
  530TIP3    H123149   0.880   1.448   0.313
  530TIP3    H223150   0.957   1.355   0.404
  531TIP3   OH223151   1.827   4.494   7.099
  531TIP3    H123152   1.833   4.428   7.030
  531TIP3    H223153   1.765   4.457   7.162
  532TIP3   OH223154   4.386   6.012   0.218
  532TIP3    H123155   4.394   5.923   0.185
  532TIP3    H223156   4.300   6.015   0.260
  533TIP3   OH223157   2.071   3.954   7.004
  533TIP3    H123158   2.132   4.026   6.998
  533TIP3    H223159   2.017   3.974   7.081
  534TIP3   OH223160   2.003   3.735   1.197
  534TIP3    H123161   1.974   3.826   1.187
  534TIP3    H223162   2.099   3.740   1.190
  535TIP3   OH223163   0.372   4.671   0.386
  535TIP3    H123164   0.427   4.702   0.457
  535TIP3    H223165   0.418   4.594   0.352
  536TIP3   OH223166   3.996   2.446   2.117
  536TIP3    H123167   4.022   2.462   2.027
  536TIP3    H223168   3.935   2.517   2.137
  537TIP3   OH223169   4.106   5.490   7.171
  537TIP3    H123170   4.169   5.547   7.215
  537TIP3    H223171   4.020   5.526   7.194
  538TIP3   OH223172   6.578   5.859   2.153
  538TIP3    H123173   6.668   5.864   2.120
  538TIP3    H223174   6.587   5.846   2.247
  539TIP3   OH223175   5.011   3.502   0.290
  539TIP3    H123176   4.965   3.574   0.334
  539TIP3    H223177   5.049   3.451   0.361
  540TIP3   OH223178   5.356   6.724   0.239
  540TIP3    H123179   5.400   6.649   0.279
  540TIP3    H223180   5.263   6.710   0.259
  541TIP3   OH223181   0.530   6.025   1.601
  541TIP3    H123182   0.550   6.111   1.639
  541TIP3    H223183   0.439   6.031   1.574
  542TIP3   OH223184   4.336   4.477   0.403
  542TIP3    H123185   4.364   4.567   0.383
  542TIP3    H223186   4.250   4.487   0.444
  543TIP3   OH223187   5.619   5.537   7.535
  543TIP3    H123188   5.712   5.533   7.512
  543TIP3    H223189   5.613   5.613   7.593
  544TIP3   OH223190   1.287   6.434   8.369
  544TIP3    H123191   1.381   6.453   8.360
  544TIP3    H223192   1.268   6.456   8.460
  545TIP3   OH223193   2.964   2.514   6.938
  545TIP3    H123194   2.992   2.517   6.846
  545TIP3    H223195   3.026   2.570   6.984
  546TIP3   OH223196   3.245   5.191   7.070
  546TIP3    H123197   3.333   5.167   7.041
  546TIP3    H223198   3.245   5.175   7.164
  547TIP3   OH223199   3.139   4.904   8.499
  547TIP3    H123200   3.159   4.992   8.469
  547TIP3    H223201   3.050   4.888   8.467
  548TIP3   OH223202   6.084   0.220   0.276
  548TIP3    H123203   6.031   0.287   0.233
  548TIP3    H223204   6.138   0.184   0.206
  549TIP3   OH223205   2.677   5.035   7.534
  549TIP3    H123206   2.614   5.049   7.464
  549TIP3    H223207   2.717   4.950   7.515
  550TIP3   OH223208   1.508   0.799   6.308
  550TIP3    H123209   1.589   0.769   6.349
  550TIP3    H223210   1.463   0.848   6.376
  551TIP3   OH223211   4.445   5.694   1.987
  551TIP3    H123212   4.486   5.780   1.984
  551TIP3    H223213   4.493   5.647   2.055
  552TIP3   OH223214   6.022   4.222   0.711
  552TIP3    H123215   5.976   4.304   0.702
  552TIP3    H223216   6.091   4.240   0.775
  553TIP3   OH223217   1.890   0.599   8.402
  553TIP3    H123218   1.969   0.606   8.348
  553TIP3    H223219   1.917   0.637   8.486
  554TIP3   OH223220   6.168   5.496   7.490
  554TIP3    H123221   6.252   5.454   7.505
  554TIP3    H223222   6.108   5.424   7.471
  555TIP3   OH223223   5.268   3.753   7.364
  555TIP3    H123224   5.256   3.845   7.341
  555TIP3    H223225   5.258   3.706   7.282
  556TIP3   OH223226   2.057   6.323   8.146
  556TIP3    H123227   2.119   6.347   8.077
  556TIP3    H223228   1.993   6.267   8.102
  557TIP3   OH223229   1.980   2.309   7.737
  557TIP3    H123230   1.959   2.234   7.681
  557TIP3    H223231   2.041   2.362   7.686
  558TIP3   OH223232   2.896   2.404   0.209
  558TIP3    H123233   2.829   2.415   0.142
  558TIP3    H223234   2.848   2.413   0.292
  559TIP3   OH223235   2.736   3.859   8.658
  559TIP3    H123236   2.659   3.820   8.616
  559TIP3    H223237   2.808   3.802   8.634
  560TIP3   OH223238   2.679   6.304   1.462
  560TIP3    H123239   2.589   6.335   1.469
  560TIP3    H223240   2.690   6.280   1.370
  561TIP3   OH223241   6.790   1.249   1.811
  561TIP3    H123242   6.764   1.163   1.845
  561TIP3    H223243   6.712   1.283   1.769
  562TIP3   OH223244   2.994   5.692   6.880
  562TIP3    H123245   2.971   5.639   6.804
  562TIP3    H223246   2.938   5.769   6.873
  563TIP3   OH223247   0.414   5.401   0.512
  563TIP3    H123248   0.394   5.360   0.428
  563TIP3    H223249   0.350   5.363   0.573
  564TIP3   OH223250   1.634   3.780   6.745
  564TIP3    H123251   1.691   3.774   6.668
  564TIP3    H223252   1.631   3.691   6.780
  565TIP3   OH223253   1.347   3.404   1.055
  565TIP3    H123254   1.412   3.443   0.997
  565TIP3    H223255   1.267   3.454   1.039
  566TIP3   OH223256   2.599   3.994   7.338
  566TIP3    H123257   2.618   4.057   7.268
  566TIP3    H223258   2.683   3.979   7.381
  567TIP3   OH223259   5.298   5.020   0.849
  567TIP3    H123260   5.297   4.942   0.794
  567TIP3    H223261   5.276   4.987   0.937
  568TIP3   OH223262   5.005   6.727   8.362
  568TIP3    H123263   5.049   6.667   8.422
  568TIP3    H223264   5.045   0.020   8.380
  569TIP3   OH223265   1.638   1.490   7.450
  569TIP3    H123266   1.692   1.412   7.459
  569TIP3    H223267   1.690   1.560   7.490
  570TIP3   OH223268   4.197   1.990   6.603
  570TIP3    H123269   4.172   2.080   6.579
  570TIP3    H223270   4.152   1.974   6.685
  571TIP3   OH223271   3.089   4.412   6.232
  571TIP3    H123272   3.057   4.392   6.320
  571TIP3    H223273   3.180   4.441   6.246
  572TIP3   OH223274   2.335   1.905   1.788
  572TIP3    H123275   2.341   1.832   1.849
  572TIP3    H223276   2.313   1.865   1.704
  573TIP3   OH223277   0.448   4.412   7.397
  573TIP3    H123278   0.510   4.469   7.443
  573TIP3    H223279   0.431   4.456   7.314
  574TIP3   OH223280   4.002   1.687   8.236
  574TIP3    H123281   4.045   1.604   8.260
  574TIP3    H223282   4.050   1.753   8.286
  575TIP3   OH223283   3.049   6.078   1.477
  575TIP3    H123284   3.075   6.170   1.486
  575TIP3    H223285   3.109   6.042   1.413
  576TIP3   OH223286   3.114   3.995   6.869
  576TIP3    H123287   3.108   3.966   6.960
  576TIP3    H223288   3.063   3.930   6.820
  577TIP3   OH223289   2.300   3.122   8.803
  577TIP3    H123290   2.225   3.140   8.746
  577TIP3    H223291   2.268   3.142   0.022
  578TIP3   OH223292   6.078   1.673   0.968
  578TIP3    H123293   6.029   1.743   0.924
  578TIP3    H223294   6.118   1.716   1.043
  579TIP3   OH223295   3.747   2.446   8.768
  579TIP3    H123296   3.729   2.535   8.737
  579TIP3    H223297   3.842   2.437   8.760
  580TIP3   OH223298   6.269   0.057   2.068
  580TIP3    H123299   6.285   0.145   2.102
  580TIP3    H223300   6.251   0.004   2.146
  581TIP3   OH223301   1.036   4.334   7.136
  581TIP3    H123302   0.946   4.318   7.163
  581TIP3    H223303   1.035   4.326   7.041
  582TIP3   OH223304   4.712   3.524   7.677
  582TIP3    H123305   4.720   3.435   7.641
  582TIP3    H223306   4.776   3.575   7.628
  583TIP3   OH223307   1.258   6.265   0.931
  583TIP3    H123308   1.230   6.344   0.884
  583TIP3    H223309   1.309   6.215   0.867
  584TIP3   OH223310   0.867   1.389   1.263
  584TIP3    H123311   0.921   1.460   1.298
  584TIP3    H223312   0.831   1.426   1.181
  585TIP3   OH223313   1.401   3.765   2.355
  585TIP3    H123314   1.389   3.705   2.429
  585TIP3    H223315   1.495   3.774   2.346
  586TIP3   OH223316   1.481   4.331   1.692
  586TIP3    H123317   1.525   4.396   1.637
  586TIP3    H223318   1.481   4.251   1.639
  587TIP3   OH223319   3.987   5.566   8.709
  587TIP3    H123320   4.051   5.567   8.639
  587TIP3    H223321   3.957   5.657   8.716
  588TIP3   OH223322   0.234   4.143   6.853
  588TIP3    H123323   0.279   4.156   6.770
  588TIP3    H223324   0.270   4.210   6.911
  589TIP3   OH223325   3.207   6.349   8.659
  589TIP3    H123326   3.185   6.370   8.569
  589TIP3    H223327   3.302   6.360   8.664
  590TIP3   OH223328   1.950   3.913   6.762
  590TIP3    H123329   1.946   3.921   6.858
  590TIP3    H223330   1.987   3.826   6.747
  591TIP3   OH223331   4.258   0.034   2.068
  591TIP3    H123332   4.185   0.028   2.006
  591TIP3    H223333   4.305   6.743   2.059
  592TIP3   OH223334   3.536   0.198   0.583
  592TIP3    H123335   3.610   0.188   0.523
  592TIP3    H223336   3.465   0.150   0.541
  593TIP3   OH223337   2.640   5.429   1.538
  593TIP3    H123338   2.644   5.400   1.447
  593TIP3    H223339   2.724   5.472   1.553
  594TIP3   OH223340   3.161   2.135   0.072
  594TIP3    H123341   3.172   2.229   0.056
  594TIP3    H223342   3.219   2.093   0.009
  595TIP3   OH223343   0.466   4.929   2.133
  595TIP3    H123344   0.539   4.874   2.105
  595TIP3    H223345   0.425   4.881   2.204
  596TIP3   OH223346   0.588   5.239   8.320
  596TIP3    H123347   0.666   5.227   8.265
  596TIP3    H223348   0.534   5.302   8.273
  597TIP3   OH223349   0.136   1.902   2.185
  597TIP3    H123350   0.216   1.907   2.134
  597TIP3    H223351   0.138   1.815   2.226
  598TIP3   OH223352   2.942   2.327   8.099
  598TIP3    H123353   2.894   2.335   8.181
  598TIP3    H223354   2.887   2.271   8.045
  599TIP3   OH223355   6.304   5.477   8.226
  599TIP3    H123356   6.293   5.426   8.306
  599TIP3    H223357   6.291   5.568   8.253
  600TIP3   OH223358   1.921   6.213   1.246
  600TIP3    H123359   1.879   6.127   1.254
  600TIP3    H223360   1.879   6.252   1.169
  601TIP3   OH223361   5.747   0.922   7.742
  601TIP3    H123362   5.817   0.985   7.755
  601TIP3    H223363   5.725   0.930   7.649
  602TIP3   OH223364   1.356   5.455   6.504
  602TIP3    H123365   1.442   5.413   6.501
  602TIP3    H223366   1.355   5.503   6.586
  603TIP3   OH223367   5.265   3.876   6.894
  603TIP3    H123368   5.314   3.832   6.825
  603TIP3    H223369   5.178   3.836   6.891
  604TIP3   OH223370   3.801   0.417   7.996
  604TIP3    H123371   3.814   0.328   7.963
  604TIP3    H223372   3.706   0.428   7.999
  605TIP3   OH223373   6.729   6.450   8.529
  605TIP3    H123374   6.640   6.425   8.504
  605TIP3    H223375   6.745   6.531   8.482
  606TIP3   OH223376   4.324   6.283   8.488
  606TIP3    H123377   4.247   6.338   8.500
  606TIP3    H223378   4.290   6.193   8.497
  607TIP3   OH223379   6.299   3.723   7.675
  607TIP3    H123380   6.280   3.681   7.759
  607TIP3    H223381   6.217   3.763   7.649
  608TIP3   OH223382   1.763   6.213   1.490
  608TIP3    H123383   1.793   6.259   1.412
  608TIP3    H223384   1.668   6.203   1.477
  609TIP3   OH223385   1.895   2.037   7.071
  609TIP3    H123386   1.962   2.043   7.002
  609TIP3    H223387   1.858   1.949   7.060
  610TIP3   OH223388   2.480   3.435   8.834
  610TIP3    H123389   2.521   3.520   8.847
  610TIP3    H223390   2.487   3.419   8.740
  611TIP3   OH223391   2.102   5.405   2.137
  611TIP3    H123392   2.138   5.387   2.224
  611TIP3    H223393   2.038   5.474   2.152
  612TIP3   OH223394   4.184   1.844   7.865
  612TIP3    H123395   4.108   1.862   7.810
  612TIP3    H223396   4.188   1.749   7.871
  613TIP3   OH223397   5.986   3.074   0.595
  613TIP3    H123398   5.920   3.004   0.593
  613TIP3    H223399   5.961   3.128   0.670
  614TIP3   OH223400   1.968   0.138   1.457
  614TIP3    H123401   1.971   0.058   1.509
  614TIP3    H223402   1.961   0.208   1.521
  615TIP3   OH223403   1.117   0.136   1.182
  615TIP3    H123404   1.113   0.150   1.087
  615TIP3    H223405   1.034   0.094   1.204
  616TIP3   OH223406   4.492   1.984   6.609
  616TIP3    H123407   4.396   1.989   6.614
  616TIP3    H223408   4.509   1.950   6.521
  617TIP3   OH223409   0.137   4.558   0.540
  617TIP3    H123410   0.169   4.608   0.464
  617TIP3    H223411   0.188   4.592   0.614
  618TIP3   OH223412   4.850   1.098   1.009
  618TIP3    H123413   4.933   1.113   0.966
  618TIP3    H223414   4.805   1.033   0.954
  619TIP3   OH223415   1.257   3.441   1.950
  619TIP3    H123416   1.317   3.512   1.928
  619TIP3    H223417   1.207   3.473   2.025
  620TIP3   OH223418   2.524   5.605   1.746
  620TIP3    H123419   2.527   5.546   1.671
  620TIP3    H223420   2.529   5.693   1.708
  621TIP3   OH223421   5.472   4.801   8.867
  621TIP3    H123422   5.522   4.722   0.022
  621TIP3    H223423   5.439   4.833   0.082
  622TIP3   OH223424   6.522   4.270   7.542
  622TIP3    H123425   6.432   4.300   7.558
  622TIP3    H223426   6.531   4.193   7.599
  623TIP3   OH223427   4.210   4.511   8.283
  623TIP3    H123428   4.117   4.532   8.270
  623TIP3    H223429   4.257   4.588   8.250
  624TIP3   OH223430   1.159   5.189   7.738
  624TIP3    H123431   1.108   5.114   7.709
  624TIP3    H223432   1.219   5.153   7.804
  625TIP3   OH223433   1.902   5.303   1.078
  625TIP3    H123434   1.868   5.380   1.124
  625TIP3    H223435   1.913   5.237   1.146
  626TIP3   OH223436   4.009   1.578   2.134
  626TIP3    H123437   3.935   1.616   2.179
  626TIP3    H223438   4.014   1.488   2.166
  627TIP3   OH223439   1.386   3.166   8.790
  627TIP3    H123440   1.474   3.136   8.811
  627TIP3    H223441   1.382   3.165   8.695
  628TIP3   OH223442   0.374   3.364   7.274
  628TIP3    H123443   0.312   3.323   7.334
  628TIP3    H223444   0.349   3.331   7.187
  629TIP3   OH223445   0.280   0.284   0.000
  629TIP3    H123446   0.201   0.324   8.832
  629TIP3    H223447   0.283   0.197   8.830
  630TIP3   OH223448   5.920   5.424   0.838
  630TIP3    H123449   5.876   5.380   0.911
  630TIP3    H223450   6.001   5.457   0.875
  631TIP3   OH223451   1.363   6.707   6.591
  631TIP3    H123452   1.278   6.734   6.557
  631TIP3    H223453   1.371   6.752   6.675
  632TIP3   OH223454   2.986   2.395   2.046
  632TIP3    H123455   3.030   2.399   2.131
  632TIP3    H223456   2.978   2.302   2.027
  633TIP3   OH223457   6.120   1.652   1.901
  633TIP3    H123458   6.203   1.634   1.946
  633TIP3    H223459   6.066   1.696   1.966
  634TIP3   OH223460   4.395   3.615   1.317
  634TIP3    H123461   4.356   3.554   1.380
  634TIP3    H223462   4.457   3.561   1.268
  635TIP3   OH223463   0.814   1.058   7.762
  635TIP3    H123464   0.830   1.129   7.825
  635TIP3    H223465   0.902   1.032   7.733
  636TIP3   OH223466   1.690   4.581   0.129
  636TIP3    H123467   1.768   4.528   0.147
  636TIP3    H223468   1.718   4.671   0.145
  637TIP3   OH223469   0.925   2.952   8.592
  637TIP3    H123470   0.972   2.868   8.590
  637TIP3    H223471   0.867   2.949   8.516
  638TIP3   OH223472   6.441   0.455   1.278
  638TIP3    H123473   6.474   0.419   1.196
  638TIP3    H223474   6.357   0.495   1.255
  639TIP3   OH223475   0.002   4.627   7.327
  639TIP3    H123476   6.791   4.642   7.421
  639TIP3    H223477   6.739   4.551   7.312
  640TIP3   OH223478   1.713   5.229   8.481
  640TIP3    H123479   1.711   5.324   8.471
  640TIP3    H223480   1.623   5.201   8.466
  641TIP3   OH223481   1.629   4.486   7.295
  641TIP3    H123482   1.577   4.565   7.282
  641TIP3    H223483   1.565   4.420   7.324
  642TIP3   OH223484   2.598   1.639   2.091
  642TIP3    H123485   2.559   1.597   2.167
  642TIP3    H223486   2.598   1.732   2.113
  643TIP3   OH223487   6.531   3.793   0.627
  643TIP3    H123488   6.494   3.705   0.613
  643TIP3    H223489   6.473   3.851   0.579
  644TIP3   OH223490   1.853   2.751   8.276
  644TIP3    H123491   1.896   2.676   8.234
  644TIP3    H223492   1.905   2.826   8.248
  645TIP3   OH223493   0.109   1.031   1.276
  645TIP3    H123494   0.179   1.016   1.212
  645TIP3    H223495   0.129   1.116   1.315
  646TIP3   OH223496   2.335   4.282   0.832
  646TIP3    H123497   2.419   4.320   0.857
  646TIP3    H223498   2.271   4.324   0.889
  647TIP3   OH223499   6.345   5.281   7.428
  647TIP3    H123500   6.283   5.232   7.481
  647TIP3    H223501   6.384   5.216   7.370
  648TIP3   OH223502   3.424   6.680   7.825
  648TIP3    H123503   3.350   6.713   7.876
  648TIP3    H223504   3.413   6.585   7.826
  649TIP3   OH223505   0.908   0.042   0.025
  649TIP3    H123506   0.987   6.781   0.030
  649TIP3    H223507   0.868   0.020   8.810
  650TIP3   OH223508   2.726   5.606   6.512
  650TIP3    H123509   2.706   5.552   6.435
  650TIP3    H223510   2.732   5.695   6.477
  651TIP3   OH223511   2.797   4.604   7.815
  651TIP3    H123512   2.847   4.559   7.884
  651TIP3    H223513   2.751   4.674   7.861
  652TIP3   OH223514   1.373   2.404   1.283
  652TIP3    H123515   1.398   2.314   1.260
  652TIP3    H223516   1.311   2.429   1.214
  653TIP3   OH223517   4.860   0.931   0.790
  653TIP3    H123518   4.888   0.993   0.723
  653TIP3    H223519   4.780   0.893   0.756
  654TIP3   OH223520   3.991   5.259   8.213
  654TIP3    H123521   4.049   5.184   8.201
  654TIP3    H223522   3.939   5.237   8.291
  655TIP3   OH223523   3.665   6.704   0.120
  655TIP3    H123524   3.621   6.641   0.177
  655TIP3    H223525   3.660   6.666   0.033
  656TIP3   OH223526   2.291   0.824   1.734
  656TIP3    H123527   2.246   0.906   1.713
  656TIP3    H223528   2.310   0.785   1.648
  657TIP3   OH223529   5.046   4.739   7.679
  657TIP3    H123530   5.138   4.718   7.694
  657TIP3    H223531   5.048   4.825   7.637
  658TIP3   OH223532   5.742   3.724   7.635
  658TIP3    H123533   5.688   3.757   7.563
  658TIP3    H223534   5.701   3.758   7.714
  659TIP3   OH223535   4.566   0.816   8.763
  659TIP3    H123536   4.511   0.743   8.791
  659TIP3    H223537   4.550   0.823   8.669
  660TIP3   OH223538   4.322   4.971   1.109
  660TIP3    H123539   4.395   5.021   1.146
  660TIP3    H223540   4.284   4.924   1.183
  661TIP3   OH223541   5.186   5.513   1.407
  661TIP3    H123542   5.174   5.425   1.441
  661TIP3    H223543   5.123   5.520   1.335
  662TIP3   OH223544   3.230   1.768   7.972
  662TIP3    H123545   3.215   1.859   7.947
  662TIP3    H223546   3.164   1.719   7.925
  663TIP3   OH223547   1.872   5.845   7.626
  663TIP3    H123548   1.900   5.792   7.701
  663TIP3    H223549   1.938   5.829   7.558
  664TIP3   OH223550   5.993   3.274   2.665
  664TIP3    H123551   6.064   3.214   2.690
  664TIP3    H223552   5.929   3.218   2.621
  665TIP3   OH223553   0.844   4.354   7.435
  665TIP3    H123554   0.801   4.326   7.516
  665TIP3    H223555   0.805   4.298   7.367
  666TIP3   OH223556   3.403   2.443   0.663
  666TIP3    H123557   3.426   2.434   0.755
  666TIP3    H223558   3.340   2.515   0.661
  667TIP3   OH223559   0.368   4.716   1.078
  667TIP3    H123560   0.429   4.650   1.111
  667TIP3    H223561   0.380   4.791   1.137
  668TIP3   OH223562   0.361   3.709   0.007
  668TIP3    H123563   0.439   3.741   0.052
  668TIP3    H223564   0.361   3.756   8.792
  669TIP3   OH223565   0.477   0.529   8.016
  669TIP3    H123566   0.451   0.608   7.969
  669TIP3    H223567   0.425   0.459   7.976
  670TIP3   OH223568   5.735   1.376   8.678
  670TIP3    H123569   5.715   1.356   8.770
  670TIP3    H223570   5.790   1.453   8.682
  671TIP3   OH223571   4.355   0.294   8.063
  671TIP3    H123572   4.372   0.205   8.032
  671TIP3    H223573   4.329   0.343   7.984
  672TIP3   OH223574   4.427   6.473   1.667
  672TIP3    H123575   4.342   6.506   1.696
  672TIP3    H223576   4.456   6.415   1.738
  673TIP3   OH223577   6.085   0.354   8.263
  673TIP3    H123578   6.032   0.428   8.236
  673TIP3    H223579   6.084   0.295   8.187
  674TIP3   OH223580   6.012   6.170   0.501
  674TIP3    H123581   6.014   6.261   0.472
  674TIP3    H223582   5.978   6.174   0.590
  675TIP3   OH223583   0.643   5.799   1.488
  675TIP3    H123584   0.588   5.872   1.516
  675TIP3    H223585   0.596   5.760   1.415
  676TIP3   OH223586   1.190   3.397   7.288
  676TIP3    H123587   1.127   3.451   7.240
  676TIP3    H223588   1.170   3.412   7.380
  677TIP3   OH223589   3.495   5.911   6.811
  677TIP3    H123590   3.470   5.832   6.859
  677TIP3    H223591   3.569   5.883   6.756
  678TIP3   OH223592   4.933   6.134   0.795
  678TIP3    H123593   4.949   6.131   0.701
  678TIP3    H223594   4.957   6.047   0.826
  679TIP3   OH223595   6.010   0.594   2.550
  679TIP3    H123596   5.969   0.619   2.632
  679TIP3    H223597   5.937   0.571   2.492
  680TIP3   OH223598   5.948   6.393   7.950
  680TIP3    H123599   5.974   6.303   7.966
  680TIP3    H223600   6.009   6.424   7.883
  681TIP3   OH223601   1.542   1.650   8.525
  681TIP3    H123602   1.534   1.745   8.516
  681TIP3    H223603   1.563   1.620   8.436
  682TIP3   OH223604   6.518   2.016   1.014
  682TIP3    H123605   6.426   2.039   1.027
  682TIP3    H223606   6.549   2.076   0.946
  683TIP3   OH223607   5.840   5.520   7.324
  683TIP3    H123608   5.813   5.485   7.238
  683TIP3    H223609   5.935   5.526   7.319
  684TIP3   OH223610   4.730   1.362   0.937
  684TIP3    H123611   4.743   1.277   0.980
  684TIP3    H223612   4.642   1.356   0.899
  685TIP3   OH223613   6.121   4.059   8.096
  685TIP3    H123614   6.133   4.149   8.067
  685TIP3    H223615   6.082   4.067   8.184
  686TIP3   OH223616   4.193   2.757   8.175
  686TIP3    H123617   4.281   2.731   8.201
  686TIP3    H223618   4.195   2.852   8.173
  687TIP3   OH223619   0.749   4.901   8.214
  687TIP3    H123620   0.809   4.833   8.183
  687TIP3    H223621   0.716   4.943   8.134
  688TIP3   OH223622   4.360   6.273   2.248
  688TIP3    H123623   4.335   6.366   2.251
  688TIP3    H223624   4.446   6.273   2.205
  689TIP3   OH223625   5.243   4.351   7.495
  689TIP3    H123626   5.277   4.337   7.407
  689TIP3    H223627   5.149   4.334   7.488
  690TIP3   OH223628   2.642   1.688   7.647
  690TIP3    H123629   2.636   1.686   7.551
  690TIP3    H223630   2.560   1.728   7.675
  691TIP3   OH223631   1.856   3.028   8.593
  691TIP3    H123632   1.857   2.935   8.570
  691TIP3    H223633   1.822   3.072   8.515
  692TIP3   OH223634   4.261   5.797   2.221
  692TIP3    H123635   4.171   5.767   2.231
  692TIP3    H223636   4.269   5.818   2.127
  693TIP3   OH223637   5.399   1.427   7.447
  693TIP3    H123638   5.331   1.451   7.510
  693TIP3    H223639   5.478   1.468   7.481
  694TIP3   OH223640   4.117   6.032   0.276
  694TIP3    H123641   4.133   6.111   0.327
  694TIP3    H223642   4.037   5.995   0.314
  695TIP3   OH223643   3.125   2.210   0.481
  695TIP3    H123644   3.082   2.208   0.567
  695TIP3    H223645   3.131   2.303   0.459
  696TIP3   OH223646   5.480   6.464   0.301
  696TIP3    H123647   5.453   6.433   0.388
  696TIP3    H223648   5.473   6.386   0.246
  697TIP3   OH223649   4.787   6.329   0.610
  697TIP3    H123650   4.744   6.413   0.602
  697TIP3    H223651   4.776   6.304   0.702
  698TIP3   OH223652   1.624   4.113   7.294
  698TIP3    H123653   1.684   4.047   7.329
  698TIP3    H223654   1.624   4.099   7.200
  699TIP3   OH223655   0.696   0.769   2.051
  699TIP3    H123656   0.721   0.679   2.027
  699TIP3    H223657   0.672   0.763   2.144
  700TIP3   OH223658   1.393   2.183   7.532
  700TIP3    H123659   1.427   2.100   7.565
  700TIP3    H223660   1.318   2.158   7.478
  701TIP3   OH223661   0.630   0.188   8.832
  701TIP3    H123662   0.630   0.127   0.038
  701TIP3    H223663   0.624   0.274   0.004
  702TIP3   OH223664   6.490   6.406   6.929
  702TIP3    H123665   6.467   6.498   6.919
  702TIP3    H223666   6.540   6.402   7.011
  703TIP3   OH223667   4.440   5.231   8.551
  703TIP3    H123668   4.470   5.174   8.622
  703TIP3    H223669   4.445   5.320   8.587
  704TIP3   OH223670   4.078   3.431   7.868
  704TIP3    H123671   4.080   3.470   7.955
  704TIP3    H223672   4.125   3.492   7.812
  705TIP3   OH223673   5.548   5.804   7.031
  705TIP3    H123674   5.469   5.753   7.052
  705TIP3    H223675   5.577   5.769   6.947
  706TIP3   OH223676   6.786   5.515   1.738
  706TIP3    H123677   0.068   5.469   1.778
  706TIP3    H223678   0.019   5.527   1.646
  707TIP3   OH223679   5.982   1.065   6.956
  707TIP3    H123680   5.910   1.113   6.996
  707TIP3    H223681   6.021   1.126   6.894
  708TIP3   OH223682   5.749   0.920   8.324
  708TIP3    H123683   5.679   0.879   8.273
  708TIP3    H223684   5.767   0.859   8.395
  709TIP3   OH223685   5.778   6.089   1.194
  709TIP3    H123686   5.696   6.095   1.243
  709TIP3    H223687   5.837   6.040   1.252
  710TIP3   OH223688   6.029   6.455   6.552
  710TIP3    H123689   6.118   6.459   6.586
  710TIP3    H223690   6.012   6.543   6.518
  711TIP3   OH223691   0.956   3.929   0.674
  711TIP3    H123692   0.866   3.936   0.706
  711TIP3    H223693   0.999   4.007   0.709
  712TIP3   OH223694   0.340   4.754   1.814
  712TIP3    H123695   0.282   4.702   1.870
  712TIP3    H223696   0.309   4.844   1.826
  713TIP3   OH223697   4.348   5.492   1.864
  713TIP3    H123698   4.274   5.456   1.914
  713TIP3    H223699   4.379   5.565   1.917
  714TIP3   OH223700   2.419   4.472   7.089
  714TIP3    H123701   2.429   4.398   7.029
  714TIP3    H223702   2.328   4.501   7.076
  715TIP3   OH223703   0.463   0.652   8.540
  715TIP3    H123704   0.398   0.583   8.527
  715TIP3    H223705   0.547   0.610   8.521
  716TIP3   OH223706   4.462   0.605   1.034
  716TIP3    H123707   4.424   0.518   1.046
  716TIP3    H223708   4.555   0.594   1.051
  717TIP3   OH223709   5.240   0.220   8.049
  717TIP3    H123710   5.317   0.164   8.035
  717TIP3    H223711   5.232   0.270   7.967
  718TIP3   OH223712   2.838   4.446   0.977
  718TIP3    H123713   2.892   4.397   0.915
  718TIP3    H223714   2.893   4.521   1.002
  719TIP3   OH223715   4.900   0.163   7.753
  719TIP3    H123716   4.840   0.112   7.697
  719TIP3    H223717   4.921   0.103   7.825
  720TIP3   OH223718   5.698   0.828   1.781
  720TIP3    H123719   5.718   0.735   1.781
  720TIP3    H223720   5.643   0.841   1.858
  721TIP3   OH223721   0.463   4.762   7.683
  721TIP3    H123722   0.510   4.814   7.618
  721TIP3    H223723   0.495   4.793   7.767
  722TIP3   OH223724   5.109   6.465   0.108
  722TIP3    H123725   5.075   6.444   0.021
  722TIP3    H223726   5.057   6.540   0.136
  723TIP3   OH223727   5.890   2.700   0.252
  723TIP3    H123728   5.871   2.613   0.287
  723TIP3    H223729   5.974   2.690   0.208
  724TIP3   OH223730   0.520   6.365   1.143
  724TIP3    H123731   0.494   6.341   1.232
  724TIP3    H223732   0.439   6.396   1.102
  725TIP3   OH223733   5.827   4.741   7.912
  725TIP3    H123734   5.922   4.728   7.907
  725TIP3    H223735   5.817   4.825   7.957
  726TIP3   OH223736   4.456   4.973   2.241
  726TIP3    H123737   4.415   4.911   2.181
  726TIP3    H223738   4.529   4.925   2.280
  727TIP3   OH223739   6.692   6.063   7.719
  727TIP3    H123740   6.647   6.012   7.651
  727TIP3    H223741   6.763   6.107   7.672
  728TIP3   OH223742   4.512   0.122   1.455
  728TIP3    H123743   4.528   0.204   1.408
  728TIP3    H223744   4.575   0.060   1.419
  729TIP3   OH223745   2.714   2.720   7.261
  729TIP3    H123746   2.763   2.776   7.201
  729TIP3    H223747   2.764   2.723   7.343
  730TIP3   OH223748   4.309   1.343   7.151
  730TIP3    H123749   4.289   1.366   7.060
  730TIP3    H223750   4.404   1.327   7.151
  731TIP3   OH223751   0.909   5.312   7.775
  731TIP3    H123752   0.993   5.268   7.761
  731TIP3    H223753   0.849   5.270   7.712
  732TIP3   OH223754   3.172   5.187   8.451
  732TIP3    H123755   3.087   5.231   8.442
  732TIP3    H223756   3.237   5.257   8.445
  733TIP3   OH223757   5.418   1.525   1.959
  733TIP3    H123758   5.380   1.488   1.880
  733TIP3    H223759   5.486   1.584   1.928
  734TIP3   OH223760   3.018   1.260   7.519
  734TIP3    H123761   3.015   1.355   7.524
  734TIP3    H223762   2.928   1.234   7.497
  735TIP3   OH223763   0.004   5.171   7.439
  735TIP3    H123764   0.008   5.261   7.471
  735TIP3    H223765   6.716   5.136   7.476
  736TIP3   OH223766   0.476   5.877   0.369
  736TIP3    H123767   0.438   5.965   0.368
  736TIP3    H223768   0.555   5.884   0.315
  737TIP3   OH223769   3.214   6.149   0.630
  737TIP3    H123770   3.248   6.129   0.543
  737TIP3    H223771   3.213   6.064   0.675
  738TIP3   OH223772   0.839   5.069   1.833
  738TIP3    H123773   0.754   5.109   1.852
  738TIP3    H223774   0.861   5.020   1.912
  739TIP3   OH223775   1.668   5.029   2.071
  739TIP3    H123776   1.688   4.937   2.088
  739TIP3    H223777   1.753   5.070   2.055
  740TIP3   OH223778   3.261   3.314   2.164
  740TIP3    H123779   3.347   3.291   2.198
  740TIP3    H223780   3.210   3.338   2.241
  741TIP3   OH223781   4.838   5.185   2.050
  741TIP3    H123782   4.745   5.182   2.026
  741TIP3    H223783   4.876   5.110   2.005
  742TIP3   OH223784   5.746   0.603   7.164
  742TIP3    H123785   5.743   0.698   7.159
  742TIP3    H223786   5.684   0.573   7.097
  743TIP3   OH223787   3.603   6.514   1.783
  743TIP3    H123788   3.690   6.537   1.751
  743TIP3    H223789   3.552   6.594   1.774
  744TIP3   OH223790   0.289   4.396   8.583
  744TIP3    H123791   0.306   4.312   8.542
  744TIP3    H223792   0.273   4.456   8.510
  745TIP3   OH223793   1.067   3.126   8.061
  745TIP3    H123794   1.109   3.179   7.993
  745TIP3    H223795   1.065   3.038   8.025
  746TIP3   OH223796   3.069   5.047   7.306
  746TIP3    H123797   2.989   5.021   7.352
  746TIP3    H223798   3.115   4.964   7.290
  747TIP3   OH223799   0.571   2.608   1.205
  747TIP3    H123800   0.609   2.599   1.292
  747TIP3    H223801   0.501   2.543   1.202
  748TIP3   OH223802   0.666   2.388   8.540
  748TIP3    H123803   0.588   2.438   8.515
  748TIP3    H223804   0.680   2.410   8.632
  749TIP3   OH223805   2.298   0.336   7.100
  749TIP3    H123806   2.242   0.324   7.023
  749TIP3    H223807   2.260   0.277   7.165
  750TIP3   OH223808   2.402   3.486   7.910
  750TIP3    H123809   2.319   3.477   7.863
  750TIP3    H223810   2.469   3.460   7.847
  751TIP3   OH223811   3.063   2.707   0.181
  751TIP3    H123812   3.036   2.639   0.242
  751TIP3    H223813   2.997   2.706   0.112
  752TIP3   OH223814   1.372   6.436   7.251
  752TIP3    H123815   1.466   6.440   7.269
  752TIP3    H223816   1.366   6.401   7.162
  753TIP3   OH223817   3.306   2.015   7.142
  753TIP3    H123818   3.244   1.966   7.087
  753TIP3    H223819   3.365   2.057   7.079
  754TIP3   OH223820   6.704   1.375   6.436
  754TIP3    H123821   6.652   1.327   6.372
  754TIP3    H223822   6.693   1.325   6.518
  755TIP3   OH223823   2.033   4.946   8.086
  755TIP3    H123824   1.977   5.024   8.083
  755TIP3    H223825   2.026   4.908   7.998
  756TIP3   OH223826   5.008   4.395   0.022
  756TIP3    H123827   5.014   4.344   0.103
  756TIP3    H223828   4.918   4.426   0.020
  757TIP3   OH223829   4.975   0.554   6.929
  757TIP3    H123830   4.935   0.639   6.946
  757TIP3    H223831   4.903   0.499   6.896
  758TIP3   OH223832   6.655   2.185   1.883
  758TIP3    H123833   6.574   2.224   1.914
  758TIP3    H223834   6.715   2.259   1.871
  759TIP3   OH223835   1.156   5.962   7.699
  759TIP3    H123836   1.146   6.040   7.754
  759TIP3    H223837   1.142   5.889   7.759
  760TIP3   OH223838   3.580   2.222   1.410
  760TIP3    H123839   3.572   2.301   1.463
  760TIP3    H223840   3.600   2.254   1.321
  761TIP3   OH223841   1.825   1.556   7.710
  761TIP3    H123842   1.916   1.574   7.683
  761TIP3    H223843   1.801   1.633   7.763
  762TIP3   OH223844   1.984   3.588   0.353
  762TIP3    H123845   2.047   3.517   0.368
  762TIP3    H223846   2.016   3.633   0.275
  763TIP3   OH223847   6.282   5.394   0.639
  763TIP3    H123848   6.304   5.385   0.732
  763TIP3    H223849   6.247   5.483   0.632
  764TIP3   OH223850   6.681   3.614   1.784
  764TIP3    H123851   6.692   3.556   1.709
  764TIP3    H223852   6.607   3.577   1.832
  765TIP3   OH223853   4.424   0.339   8.772
  765TIP3    H123854   4.336   0.307   8.792
  765TIP3    H223855   4.428   0.339   8.677
  766TIP3   OH223856   5.243   4.679   8.103
  766TIP3    H123857   5.238   4.604   8.044
  766TIP3    H223858   5.241   4.640   8.191
  767TIP3   OH223859   1.201   3.986   8.626
  767TIP3    H123860   1.158   3.902   8.644
  767TIP3    H223861   1.129   4.047   8.611
  768TIP3   OH223862   6.477   1.614   8.836
  768TIP3    H123863   6.382   1.627   8.836
  768TIP3    H223864   6.503   1.623   8.745
  769TIP3   OH223865   3.732   6.273   1.830
  769TIP3    H123866   3.655   6.327   1.851
  769TIP3    H223867   3.705   6.184   1.852
  770TIP3   OH223868   2.019   5.197   7.770
  770TIP3    H123869   2.028   5.106   7.742
  770TIP3    H223870   1.932   5.224   7.739
  771TIP3   OH223871   2.873   0.631   7.489
  771TIP3    H123872   2.831   0.545   7.495
  771TIP3    H223873   2.966   0.613   7.501
  772TIP3   OH223874   4.487   6.471   8.330
  772TIP3    H123875   4.406   6.428   8.356
  772TIP3    H223876   4.529   6.495   8.413
  773TIP3   OH223877   1.190   2.659   8.814
  773TIP3    H123878   1.201   2.706   0.028
  773TIP3    H223879   1.100   2.627   8.817
  774TIP3   OH223880   5.976   3.857   0.335
  774TIP3    H123881   5.972   3.947   0.366
  774TIP3    H223882   5.898   3.846   0.281
  775TIP3   OH223883   2.736   2.026   0.289
  775TIP3    H123884   2.686   1.978   0.354
  775TIP3    H223885   2.827   2.004   0.307
  776TIP3   OH223886   0.437   4.972   0.289
  776TIP3    H123887   0.475   4.917   0.221
  776TIP3    H223888   0.509   4.991   0.348
  777TIP3   OH223889   2.873   1.571   0.464
  777TIP3    H123890   2.795   1.528   0.429
  777TIP3    H223891   2.945   1.537   0.410
  778TIP3   OH223892   3.665   5.681   0.757
  778TIP3    H123893   3.713   5.676   0.840
  778TIP3    H223894   3.575   5.698   0.783
  779TIP3   OH223895   5.062   3.420   8.091
  779TIP3    H123896   5.007   3.474   8.034
  779TIP3    H223897   5.108   3.362   8.030
  780TIP3   OH223898   0.638   0.497   8.366
  780TIP3    H123899   0.638   0.425   8.304
  780TIP3    H223900   0.729   0.526   8.371
  781TIP3   OH223901   3.243   4.602   8.858
  781TIP3    H123902   3.318   4.553   8.826
  781TIP3    H223903   3.260   4.615   0.083
  782TIP3   OH223904   3.912   1.582   7.168
  782TIP3    H123905   3.971   1.544   7.233
  782TIP3    H223906   3.826   1.582   7.210
  783TIP3   OH223907   1.273   4.661   6.296
  783TIP3    H123908   1.269   4.706   6.381
  783TIP3    H223909   1.192   4.686   6.252
  784TIP3   OH223910   5.989   5.592   2.378
  784TIP3    H123911   5.990   5.688   2.374
  784TIP3    H223912   5.958   5.572   2.466
  785TIP3   OH223913   4.441   6.440   0.677
  785TIP3    H123914   4.484   6.414   0.758
  785TIP3    H223915   4.510   6.479   0.623
  786TIP3   OH223916   5.210   6.078   8.217
  786TIP3    H123917   5.297   6.068   8.178
  786TIP3    H223918   5.208   6.016   8.289
  787TIP3   OH223919   4.078   2.909   0.797
  787TIP3    H123920   4.097   2.876   0.885
  787TIP3    H223921   3.998   2.959   0.806
  788TIP3   OH223922   5.525   1.404   0.070
  788TIP3    H123923   5.534   1.437   0.159
  788TIP3    H223924   5.538   1.480   0.014
  789TIP3   OH223925   3.386   4.551   7.486
  789TIP3    H123926   3.450   4.611   7.524
  789TIP3    H223927   3.302   4.577   7.524
  790TIP3   OH223928   3.407   2.691   6.959
  790TIP3    H123929   3.470   2.644   7.013
  790TIP3    H223930   3.450   2.701   6.875
  791TIP3   OH223931   5.066   2.177   7.531
  791TIP3    H123932   5.011   2.212   7.601
  791TIP3    H223933   5.142   2.139   7.576
  792TIP3   OH223934   0.080   5.806   1.385
  792TIP3    H123935   6.790   5.815   1.433
  792TIP3    H223936   0.115   5.895   1.381
  793TIP3   OH223937   5.011   2.376   1.853
  793TIP3    H123938   5.018   2.409   1.763
  793TIP3    H223939   5.047   2.447   1.907
  794TIP3   OH223940   0.681   3.007   1.022
  794TIP3    H123941   0.715   3.094   1.046
  794TIP3    H223942   0.648   2.970   1.103
  795TIP3   OH223943   2.634   0.297   8.262
  795TIP3    H123944   2.722   0.334   8.269
  795TIP3    H223945   2.592   0.319   8.345
  796TIP3   OH223946   1.718   1.606   8.820
  796TIP3    H123947   1.740   1.562   8.738
  796TIP3    H223948   1.736   1.698   8.804
  797TIP3   OH223949   0.422   6.589   7.751
  797TIP3    H123950   0.463   6.589   7.664
  797TIP3    H223951   0.339   6.635   7.738
  798TIP3   OH223952   3.094   4.210   2.553
  798TIP3    H123953   3.026   4.148   2.576
  798TIP3    H223954   3.174   4.175   2.593
  799TIP3   OH223955   0.282   6.046   0.477
  799TIP3    H123956   0.290   5.952   0.491
  799TIP3    H223957   0.353   6.084   0.529
  800TIP3   OH223958   2.389   2.413   1.979
  800TIP3    H123959   2.420   2.476   2.045
  800TIP3    H223960   2.346   2.344   2.031
  801TIP3   OH223961   2.413   6.706   7.493
  801TIP3    H123962   2.383   6.622   7.457
  801TIP3    H223963   2.455   6.750   7.419
  802TIP3   OH223964   5.355   1.788   7.600
  802TIP3    H123965   5.443   1.767   7.571
  802TIP3    H223966   5.299   1.769   7.525
  803TIP3   OH223967   5.870   6.139   7.511
  803TIP3    H123968   5.845   6.099   7.594
  803TIP3    H223969   5.861   6.068   7.447
  804TIP3   OH223970   4.126   2.493   0.828
  804TIP3    H123971   4.069   2.555   0.784
  804TIP3    H223972   4.074   2.458   0.900
  805TIP3   OH223973   1.224   0.508   1.103
  805TIP3    H123974   1.285   0.565   1.057
  805TIP3    H223975   1.146   0.562   1.116
  806TIP3   OH223976   0.493   6.114   8.708
  806TIP3    H123977   0.491   6.021   8.731
  806TIP3    H223978   0.521   6.114   8.616
  807TIP3   OH223979   1.161   3.068   6.466
  807TIP3    H123980   1.242   3.098   6.426
  807TIP3    H223981   1.092   3.094   6.404
  808TIP3   OH223982   5.205   3.333   6.969
  808TIP3    H123983   5.292   3.365   6.944
  808TIP3    H223984   5.210   3.238   6.956
  809TIP3   OH223985   3.454   1.260   0.785
  809TIP3    H123986   3.456   1.356   0.790
  809TIP3    H223987   3.490   1.231   0.869
  810TIP3   OH223988   1.210   6.638   7.404
  810TIP3    H123989   1.249   6.663   7.488
  810TIP3    H223990   1.275   6.580   7.364
  811TIP3   OH223991   3.632   1.261   7.432
  811TIP3    H123992   3.611   1.291   7.343
  811TIP3    H223993   3.693   1.327   7.465
  812TIP3   OH223994   2.997   4.723   6.933
  812TIP3    H123995   3.021   4.815   6.920
  812TIP3    H223996   3.013   4.682   6.848
  813TIP3   OH223997   0.858   3.885   0.274
  813TIP3    H123998   0.921   3.876   0.345
  813TIP3    H223999   0.876   3.812   0.215
  814TIP3   OH224000   6.727   4.495   0.951
  814TIP3    H124001   6.764   4.455   1.030
  814TIP3    H224002   0.004   4.553   0.919
  815TIP3   OH224003   6.474   1.803   7.127
  815TIP3    H124004   6.388   1.843   7.114
  815TIP3    H224005   6.464   1.750   7.206
  816TIP3   OH224006   5.179   4.957   1.550
  816TIP3    H124007   5.146   4.898   1.483
  816TIP3    H224008   5.117   4.949   1.622
  817TIP3   OH224009   3.467   6.753   1.782
  817TIP3    H124010   3.536   0.020   1.754
  817TIP3    H224011   3.450   6.778   1.873
  818TIP3   OH224012   1.533   4.275   0.925
  818TIP3    H124013   1.579   4.350   0.963
  818TIP3    H224014   1.603   4.214   0.902
  819TIP3   OH224015   3.055   3.111   8.843
  819TIP3    H124016   3.032   3.128   8.752
  819TIP3    H224017   3.072   3.198   0.011
  820TIP3   OH224018   5.029   6.197   8.003
  820TIP3    H124019   5.075   6.179   7.922
  820TIP3    H224020   5.090   6.171   8.072
  821TIP3   OH224021   5.881   5.699   1.838
  821TIP3    H124022   5.976   5.683   1.838
  821TIP3    H224023   5.846   5.631   1.896
  822TIP3   OH224024   5.878   0.855   1.520
  822TIP3    H124025   5.872   0.774   1.570
  822TIP3    H224026   5.901   0.921   1.586
  823TIP3   OH224027   0.571   1.703   8.367
  823TIP3    H124028   0.662   1.686   8.344
  823TIP3    H224029   0.560   1.796   8.352
  824TIP3   OH224030   0.629   2.774   7.529
  824TIP3    H124031   0.686   2.755   7.603
  824TIP3    H224032   0.565   2.703   7.528
  825TIP3   OH224033   5.707   3.431   7.899
  825TIP3    H124034   5.617   3.455   7.877
  825TIP3    H224035   5.734   3.371   7.830
  826TIP3   OH224036   1.115   1.214   1.296
  826TIP3    H124037   1.045   1.154   1.321
  826TIP3    H224038   1.069   1.294   1.269
  827TIP3   OH224039   4.354   3.768   7.897
  827TIP3    H124040   4.449   3.778   7.896
  827TIP3    H224041   4.323   3.826   7.827
  828TIP3   OH224042   3.962   1.044   1.743
  828TIP3    H124043   3.896   1.056   1.675
  828TIP3    H224044   4.020   0.976   1.708
  829TIP3   OH224045   6.613   6.726   0.555
  829TIP3    H124046   6.612   6.630   0.557
  829TIP3    H224047   6.679   6.749   0.490
  830TIP3   OH224048   6.179   2.292   1.983
  830TIP3    H124049   6.155   2.351   2.054
  830TIP3    H224050   6.267   2.320   1.957
  831TIP3   OH224051   4.049   4.019   7.739
  831TIP3    H124052   4.126   3.971   7.707
  831TIP3    H224053   4.085   4.075   7.808
  832TIP3   OH224054   3.541   3.489   7.566
  832TIP3    H124055   3.498   3.575   7.574
  832TIP3    H224056   3.634   3.508   7.579
  833TIP3   OH224057   3.968   5.512   8.390
  833TIP3    H124058   4.031   5.502   8.320
  833TIP3    H224059   4.020   5.542   8.465
  834TIP3   OH224060   2.516   6.164   7.374
  834TIP3    H124061   2.472   6.121   7.447
  834TIP3    H224062   2.601   6.120   7.368
  835TIP3   OH224063   6.486   2.327   1.295
  835TIP3    H124064   6.532   2.403   1.260
  835TIP3    H224065   6.548   2.288   1.357
  836TIP3   OH224066   0.537   5.847   7.254
  836TIP3    H124067   0.537   5.782   7.324
  836TIP3    H224068   0.490   5.805   7.182
  837TIP3   OH224069   4.210   3.433   1.800
  837TIP3    H124070   4.129   3.387   1.777
  837TIP3    H224071   4.257   3.373   1.858
  838TIP3   OH224072   2.490   6.436   8.778
  838TIP3    H124073   2.566   6.494   8.774
  838TIP3    H224074   2.441   6.466   8.855
  839TIP3   OH224075   5.319   3.067   8.503
  839TIP3    H124076   5.371   3.141   8.471
  839TIP3    H224077   5.231   3.103   8.512
  840TIP3   OH224078   5.079   1.582   1.654
  840TIP3    H124079   5.051   1.492   1.668
  840TIP3    H224080   5.046   1.629   1.731
  841TIP3   OH224081   6.364   2.146   0.381
  841TIP3    H124082   6.333   2.196   0.305
  841TIP3    H224083   6.286   2.137   0.436
  842TIP3   OH224084   6.085   1.725   8.562
  842TIP3    H124085   5.998   1.753   8.535
  842TIP3    H224086   6.124   1.689   8.482
  843TIP3   OH224087   6.534   6.065   6.591
  843TIP3    H124088   6.501   6.119   6.664
  843TIP3    H224089   6.521   5.975   6.621
  844TIP3   OH224090   4.926   6.301   1.877
  844TIP3    H124091   4.840   6.343   1.878
  844TIP3    H224092   4.936   6.266   1.788
  845TIP3   OH224093   5.364   6.716   8.284
  845TIP3    H124094   5.322   6.655   8.345
  845TIP3    H224095   5.319   6.701   8.201
  846TIP3   OH224096   6.184   1.707   7.364
  846TIP3    H124097   6.271   1.711   7.324
  846TIP3    H224098   6.158   1.616   7.356
  847TIP3   OH224099   3.397   3.428   6.455
  847TIP3    H124100   3.483   3.437   6.496
  847TIP3    H224101   3.340   3.398   6.527
  848TIP3   OH224102   5.598   5.939   8.274
  848TIP3    H124103   5.554   5.872   8.327
  848TIP3    H224104   5.580   6.021   8.320
  849TIP3   OH224105   6.745   3.694   8.391
  849TIP3    H124106   0.021   3.692   8.325
  849TIP3    H224107   6.791   3.682   8.474
  850TIP3   OH224108   2.743   2.599   7.981
  850TIP3    H124109   2.682   2.527   7.998
  850TIP3    H224110   2.786   2.576   7.899
  851TIP3   OH224111   0.142   4.287   0.173
  851TIP3    H124112   0.224   4.312   0.216
  851TIP3    H224113   0.123   4.360   0.113
  852TIP3   OH224114   5.301   2.795   8.592
  852TIP3    H124115   5.309   2.890   8.600
  852TIP3    H224116   5.334   2.776   8.504
  853TIP3   OH224117   2.184   0.139   0.952
  853TIP3    H124118   2.253   0.199   0.978
  853TIP3    H224119   2.188   0.068   1.016
  854TIP3   OH224120   3.303   5.981   2.410
  854TIP3    H124121   3.314   5.892   2.445
  854TIP3    H224122   3.210   5.988   2.390
  855TIP3   OH224123   0.202   5.399   6.741
  855TIP3    H124124   0.291   5.428   6.718
  855TIP3    H224125   0.214   5.345   6.819
  856TIP3   OH224126   4.202   0.712   1.224
  856TIP3    H124127   4.179   0.630   1.180
  856TIP3    H224128   4.293   0.728   1.199
  857TIP3   OH224129   4.655   4.597   1.741
  857TIP3    H124130   4.676   4.688   1.761
  857TIP3    H224131   4.612   4.564   1.820
  858TIP3   OH224132   3.342   5.830   0.041
  858TIP3    H124133   3.357   5.751   0.093
  858TIP3    H224134   3.266   5.871   0.082
  859TIP3   OH224135   5.517   0.589   0.793
  859TIP3    H124136   5.445   0.546   0.840
  859TIP3    H224137   5.486   0.678   0.779
  860TIP3   OH224138   3.936   0.049   1.161
  860TIP3    H124139   3.970   6.760   1.125
  860TIP3    H224140   3.889   0.091   1.089
  861TIP3   OH224141   3.524   6.045   7.274
  861TIP3    H124142   3.480   6.071   7.354
  861TIP3    H224143   3.495   6.108   7.208
  862TIP3   OH224144   1.222   5.529   1.335
  862TIP3    H124145   1.189   5.442   1.315
  862TIP3    H224146   1.182   5.551   1.419
  863TIP3   OH224147   5.645   2.575   1.638
  863TIP3    H124148   5.715   2.586   1.702
  863TIP3    H224149   5.641   2.658   1.592
  864TIP3   OH224150   5.352   3.625   0.420
  864TIP3    H124151   5.347   3.553   0.357
  864TIP3    H224152   5.280   3.683   0.395
  865TIP3   OH224153   4.146   4.508   0.588
  865TIP3    H124154   4.055   4.485   0.608
  865TIP3    H224155   4.171   4.569   0.658
  866TIP3   OH224156   1.500   2.587   1.478
  866TIP3    H124157   1.454   2.510   1.446
  866TIP3    H224158   1.590   2.576   1.447
  867TIP3   OH224159   6.362   6.567   7.568
  867TIP3    H124160   6.456   6.584   7.572
  867TIP3    H224161   6.355   6.476   7.540
  868TIP3   OH224162   0.712   6.082   1.924
  868TIP3    H124163   0.662   6.078   2.006
  868TIP3    H224164   0.745   6.171   1.920
  869TIP3   OH224165   3.611   5.407   1.351
  869TIP3    H124166   3.539   5.343   1.355
  869TIP3    H224167   3.685   5.357   1.315
  870TIP3   OH224168   2.569   5.917   7.118
  870TIP3    H124169   2.619   5.970   7.055
  870TIP3    H224170   2.614   5.833   7.118
  871TIP3   OH224171   4.545   1.520   1.671
  871TIP3    H124172   4.640   1.526   1.682
  871TIP3    H224173   4.512   1.604   1.703
  872TIP3   OH224174   0.127   1.681   8.329
  872TIP3    H124175   0.158   1.751   8.272
  872TIP3    H224176   0.044   1.653   8.291
  873TIP3   OH224177   2.513   3.881   8.329
  873TIP3    H124178   2.466   3.840   8.256
  873TIP3    H224179   2.528   3.971   8.299
  874TIP3   OH224180   5.688   5.772   2.387
  874TIP3    H124181   5.696   5.739   2.298
  874TIP3    H224182   5.768   5.822   2.402
  875TIP3   OH224183   5.087   2.397   1.325
  875TIP3    H124184   5.090   2.316   1.274
  875TIP3    H224185   5.065   2.465   1.260
  876TIP3   OH224186   4.052   6.196   8.419
  876TIP3    H124187   3.987   6.186   8.350
  876TIP3    H224188   4.035   6.124   8.480
  877TIP3   OH224189   6.161   3.061   0.915
  877TIP3    H124190   6.240   3.018   0.885
  877TIP3    H224191   6.165   3.056   1.011
  878TIP3   OH224192   3.223   1.106   7.560
  878TIP3    H124193   3.282   1.180   7.580
  878TIP3    H224194   3.143   1.147   7.530
  879TIP3   OH224195   0.436   1.242   6.916
  879TIP3    H124196   0.496   1.189   6.968
  879TIP3    H224197   0.362   1.184   6.897
  880TIP3   OH224198   5.752   0.820   6.927
  880TIP3    H124199   5.818   0.757   6.900
  880TIP3    H224200   5.801   0.893   6.964
  881TIP3   OH224201   3.745   5.831   8.626
  881TIP3    H124202   3.831   5.868   8.648
  881TIP3    H224203   3.758   5.791   8.540
  882TIP3   OH224204   4.636   5.346   7.873
  882TIP3    H124205   4.543   5.322   7.875
  882TIP3    H224206   4.663   5.329   7.783
  883TIP3   OH224207   6.248   4.898   1.871
  883TIP3    H124208   6.265   4.970   1.810
  883TIP3    H224209   6.330   4.848   1.870
  884TIP3   OH224210   5.925   1.691   8.085
  884TIP3    H124211   5.899   1.783   8.090
  884TIP3    H224212   5.862   1.645   8.140
  885TIP3   OH224213   1.978   5.415   0.139
  885TIP3    H124214   1.913   5.429   0.209
  885TIP3    H224215   1.950   5.335   0.096
  886TIP3   OH224216   2.037   5.876   7.999
  886TIP3    H124217   1.957   5.905   8.041
  886TIP3    H224218   2.102   5.874   8.070
  887TIP3   OH224219   3.710   2.713   8.787
  887TIP3    H124220   3.797   2.750   8.774
  887TIP3    H224221   3.675   2.761   8.862
  888TIP3   OH224222   1.757   5.561   0.384
  888TIP3    H124223   1.810   5.600   0.454
  888TIP3    H224224   1.729   5.636   0.331
  889TIP3   OH224225   6.590   3.547   8.668
  889TIP3    H124226   6.607   3.453   8.662
  889TIP3    H224227   6.677   3.587   8.674
  890TIP3   OH224228   1.654   4.914   8.708
  890TIP3    H124229   1.591   4.982   8.684
  890TIP3    H224230   1.603   4.849   8.756
  891TIP3   OH224231   2.807   1.091   1.067
  891TIP3    H124232   2.873   1.022   1.077
  891TIP3    H224233   2.733   1.062   1.119
  892TIP3   OH224234   5.914   2.690   2.346
  892TIP3    H124235   6.001   2.731   2.353
  892TIP3    H224236   5.932   2.596   2.343
  893TIP3   OH224237   5.183   3.534   1.603
  893TIP3    H124238   5.277   3.518   1.615
  893TIP3    H224239   5.165   3.613   1.653
  894TIP3   OH224240   1.086   3.460   8.048
  894TIP3    H124241   1.098   3.370   8.018
  894TIP3    H224242   1.161   3.507   8.013
  895TIP3   OH224243   6.136   3.728   7.196
  895TIP3    H124244   6.182   3.761   7.274
  895TIP3    H224245   6.047   3.761   7.205
  896TIP3   OH224246   1.876   1.357   8.155
  896TIP3    H124247   1.821   1.290   8.194
  896TIP3    H224248   1.870   1.342   8.060
  897TIP3   OH224249   5.122   5.339   0.626
  897TIP3    H124250   5.122   5.323   0.720
  897TIP3    H224251   5.193   5.286   0.592
  898TIP3   OH224252   2.173   0.299   7.646
  898TIP3    H124253   2.141   0.223   7.598
  898TIP3    H224254   2.257   0.271   7.682
  899TIP3   OH224255   3.702   2.844   0.446
  899TIP3    H124256   3.737   2.766   0.490
  899TIP3    H224257   3.652   2.808   0.372
  900TIP3   OH224258   4.117   0.407   0.535
  900TIP3    H124259   4.173   0.451   0.598
  900TIP3    H224260   4.028   0.435   0.559
  901TIP3   OH224261   2.728   6.222   1.730
  901TIP3    H124262   2.655   6.261   1.777
  901TIP3    H224263   2.721   6.256   1.641
  902TIP3   OH224264   0.089   4.197   1.410
  902TIP3    H124265   6.786   4.198   1.419
  902TIP3    H224266   0.121   4.231   1.494
  903TIP3   OH224267   3.149   2.573   8.178
  903TIP3    H124268   3.077   2.513   8.162
  903TIP3    H224269   3.192   2.540   8.257
  904TIP3   OH224270   1.701   1.207   1.160
  904TIP3    H124271   1.652   1.232   1.238
  904TIP3    H224272   1.726   1.116   1.175
  905TIP3   OH224273   3.877   6.624   1.412
  905TIP3    H124274   3.958   6.674   1.403
  905TIP3    H224275   3.868   6.579   1.328
  906TIP3   OH224276   4.204   2.501   7.666
  906TIP3    H124277   4.199   2.410   7.694
  906TIP3    H224278   4.275   2.503   7.602
  907TIP3   OH224279   6.658   5.289   1.550
  907TIP3    H124280   6.688   5.248   1.631
  907TIP3    H224281   6.730   5.275   1.488
  908TIP3   OH224282   0.097   4.156   8.166
  908TIP3    H124283   0.032   4.103   8.120
  908TIP3    H224284   0.179   4.109   8.155
  909TIP3   OH224285   0.049   4.029   6.466
  909TIP3    H124286   0.049   3.999   6.557
  909TIP3    H224287   0.142   4.035   6.443
  910TIP3   OH224288   0.829   3.542   2.117
  910TIP3    H124289   0.744   3.570   2.152
  910TIP3    H224290   0.810   3.510   2.029
  911TIP3   OH224291   1.764   3.749   8.456
  911TIP3    H124292   1.792   3.658   8.462
  911TIP3    H224293   1.825   3.797   8.512
  912TIP3   OH224294   3.567   3.006   0.738
  912TIP3    H124295   3.482   2.961   0.736
  912TIP3    H224296   3.588   3.022   0.647
  913TIP3   OH224297   2.578   2.582   1.807
  913TIP3    H124298   2.490   2.581   1.844
  913TIP3    H224299   2.621   2.655   1.852
  914TIP3   OH224300   3.458   1.956   0.151
  914TIP3    H124301   3.397   1.883   0.151
  914TIP3    H224302   3.508   1.946   0.069
  915TIP3   OH224303   3.653   2.285   7.183
  915TIP3    H124304   3.656   2.298   7.089
  915TIP3    H224305   3.607   2.362   7.216
  916TIP3   OH224306   2.679   3.204   8.086
  916TIP3    H124307   2.599   3.205   8.032
  916TIP3    H224308   2.647   3.215   8.175
  917TIP3   OH224309   1.292   2.949   0.793
  917TIP3    H124310   1.312   3.018   0.856
  917TIP3    H224311   1.323   2.869   0.834
  918TIP3   OH224312   4.433   2.924   0.954
  918TIP3    H124313   4.439   3.016   0.928
  918TIP3    H224314   4.417   2.877   0.872
  919TIP3   OH224315   4.074   3.613   7.178
  919TIP3    H124316   3.996   3.665   7.157
  919TIP3    H224317   4.092   3.634   7.270
  920TIP3   OH224318   1.726   5.288   0.440
  920TIP3    H124319   1.773   5.254   0.364
  920TIP3    H224320   1.718   5.382   0.423
  921TIP3   OH224321   0.239   1.836   1.315
  921TIP3    H124322   0.328   1.868   1.329
  921TIP3    H224323   0.246   1.741   1.319
  922TIP3   OH224324   3.270   2.754   7.791
  922TIP3    H124325   3.322   2.816   7.741
  922TIP3    H224326   3.321   2.739   7.871
  923TIP3   OH224327   0.815   0.644   0.389
  923TIP3    H124328   0.891   0.696   0.414
  923TIP3    H224329   0.824   0.563   0.441
  924TIP3   OH224330   6.763   6.360   0.935
  924TIP3    H124331   6.713   6.308   0.998
  924TIP3    H224332   6.715   6.442   0.928
  925TIP3   OH224333   1.274   1.738   6.813
  925TIP3    H124334   1.351   1.700   6.857
  925TIP3    H224335   1.287   1.717   6.720
  926TIP3   OH224336   6.534   4.290   0.997
  926TIP3    H124337   6.527   4.312   1.090
  926TIP3    H224338   6.613   4.334   0.967
  927TIP3   OH224339   5.442   4.852   1.420
  927TIP3    H124340   5.351   4.856   1.450
  927TIP3    H224341   5.494   4.849   1.500
  928TIP3   OH224342   3.912   2.305   8.154
  928TIP3    H124343   3.848   2.233   8.151
  928TIP3    H224344   3.985   2.269   8.203
  929TIP3   OH224345   4.190   6.787   0.824
  929TIP3    H124346   4.239   0.071   0.793
  929TIP3    H224347   4.175   6.735   0.746
  930TIP3   OH224348   3.483   0.374   0.152
  930TIP3    H124349   3.457   0.458   0.189
  930TIP3    H224350   3.443   0.372   0.065
  931TIP3   OH224351   0.343   3.178   1.393
  931TIP3    H124352   0.414   3.216   1.342
  931TIP3    H224353   0.378   3.095   1.425
  932TIP3   OH224354   5.141   1.271   1.967
  932TIP3    H124355   5.196   1.262   1.889
  932TIP3    H224356   5.196   1.315   2.031
  933TIP3   OH224357   4.460   1.037   8.395
  933TIP3    H124358   4.441   1.007   8.306
  933TIP3    H224359   4.554   1.054   8.395
  934TIP3   OH224360   0.460   6.190   1.395
  934TIP3    H124361   0.552   6.216   1.391
  934TIP3    H224362   0.435   6.203   1.486
  935TIP3   OH224363   6.685   6.104   6.289
  935TIP3    H124364   6.638   6.029   6.252
  935TIP3    H224365   6.616   6.167   6.310
  936TIP3   OH224366   4.482   6.305   1.878
  936TIP3    H124367   4.531   6.359   1.939
  936TIP3    H224368   4.547   6.247   1.839
  937TIP3   OH224369   6.397   6.151   8.603
  937TIP3    H124370   6.382   6.065   8.564
  937TIP3    H224371   6.492   6.155   8.618
  938TIP3   OH224372   0.473   0.848   6.298
  938TIP3    H124373   0.468   0.822   6.390
  938TIP3    H224374   0.544   0.794   6.263
  939TIP3   OH224375   0.493   6.458   7.498
  939TIP3    H124376   0.449   6.375   7.518
  939TIP3    H224377   0.508   6.455   7.404
  940TIP3   OH224378   6.157   0.081   8.601
  940TIP3    H124379   6.169   0.016   8.532
  940TIP3    H224380   6.109   0.152   8.559
  941TIP3   OH224381   4.935   5.003   8.386
  941TIP3    H124382   4.902   5.053   8.460
  941TIP3    H224383   5.017   5.047   8.363
  942TIP3   OH224384   5.595   2.411   6.863
  942TIP3    H124385   5.651   2.486   6.883
  942TIP3    H224386   5.546   2.438   6.786
  943TIP3   OH224387   4.553   6.190   8.771
  943TIP3    H124388   4.597   6.214   8.852
  943TIP3    H224389   4.481   6.253   8.763
  944TIP3   OH224390   5.220   5.451   6.389
  944TIP3    H124391   5.178   5.372   6.422
  944TIP3    H224392   5.148   5.503   6.352
  945TIP3   OH224393   2.370   3.994   6.826
  945TIP3    H124394   2.341   3.906   6.800
  945TIP3    H224395   2.367   4.045   6.745
  946TIP3   OH224396   1.798   3.153   8.374
  946TIP3    H124397   1.732   3.110   8.319
  946TIP3    H224398   1.863   3.186   8.312
  947TIP3   OH224399   1.613   5.185   2.299
  947TIP3    H124400   1.565   5.122   2.353
  947TIP3    H224401   1.629   5.138   2.217
  948TIP3   OH224402   5.816   5.774   0.577
  948TIP3    H124403   5.813   5.679   0.576
  948TIP3    H224404   5.802   5.800   0.486
  949TIP3   OH224405   3.186   5.328   8.862
  949TIP3    H124406   3.162   5.239   0.021
  949TIP3    H224407   3.108   5.380   0.008
  950TIP3   OH224408   0.240   2.326   0.332
  950TIP3    H124409   0.188   2.355   0.407
  950TIP3    H224410   0.188   2.257   0.292
  951TIP3   OH224411   0.769   3.231   0.094
  951TIP3    H124412   0.820   3.159   0.057
  951TIP3    H224413   0.817   3.255   0.173
  952TIP3   OH224414   5.425   2.298   1.092
  952TIP3    H124415   5.507   2.310   1.043
  952TIP3    H224416   5.439   2.345   1.174
  953TIP3   OH224417   1.860   6.195   0.776
  953TIP3    H124418   1.773   6.228   0.800
  953TIP3    H224419   1.843   6.124   0.715
  954TIP3   OH224420   1.985   3.875   8.575
  954TIP3    H124421   2.049   3.829   8.630
  954TIP3    H224422   2.035   3.904   8.499
  955TIP3   OH224423   5.618   4.839   1.641
  955TIP3    H124424   5.692   4.857   1.699
  955TIP3    H224425   5.545   4.818   1.699
  956TIP3   OH224426   4.401   0.575   7.436
  956TIP3    H124427   4.439   0.631   7.504
  956TIP3    H224428   4.420   0.486   7.465
  957TIP3   OH224429   0.402   0.899   1.486
  957TIP3    H124430   0.439   0.963   1.425
  957TIP3    H224431   0.326   0.942   1.523
  958TIP3   OH224432   0.431   5.594   7.692
  958TIP3    H124433   0.336   5.610   7.691
  958TIP3    H224434   0.442   5.520   7.753
  959TIP3   OH224435   2.547   4.101   1.239
  959TIP3    H124436   2.542   4.111   1.334
  959TIP3    H224437   2.563   4.007   1.226
  960TIP3   OH224438   4.125   0.585   2.274
  960TIP3    H124439   4.146   0.602   2.366
  960TIP3    H224440   4.069   0.508   2.276
  961TIP3   OH224441   0.311   3.689   7.836
  961TIP3    H124442   0.291   3.713   7.746
  961TIP3    H224443   0.230   3.708   7.884
  962TIP3   OH224444   1.921   4.832   8.799
  962TIP3    H124445   1.849   4.879   8.757
  962TIP3    H224446   1.983   4.901   8.824
  963TIP3   OH224447   1.305   3.951   7.567
  963TIP3    H124448   1.390   3.993   7.555
  963TIP3    H224449   1.242   4.015   7.533
  964TIP3   OH224450   2.779   4.787   7.492
  964TIP3    H124451   2.817   4.751   7.412
  964TIP3    H224452   2.713   4.722   7.518
  965TIP3   OH224453   3.642   6.253   8.758
  965TIP3    H124454   3.588   6.328   8.733
  965TIP3    H224455   3.728   6.272   8.719
  966TIP3   OH224456   3.758   4.087   8.598
  966TIP3    H124457   3.810   4.018   8.557
  966TIP3    H224458   3.728   4.142   8.526
  967TIP3   OH224459   1.817   3.896   0.321
  967TIP3    H124460   1.864   3.841   0.258
  967TIP3    H224461   1.738   3.924   0.274
  968TIP3   OH224462   5.416   4.617   0.233
  968TIP3    H124463   5.501   4.660   0.239
  968TIP3    H224464   5.436   4.524   0.223
  969TIP3   OH224465   5.054   1.347   8.778
  969TIP3    H124466   5.085   1.437   8.784
  969TIP3    H224467   5.126   1.300   8.735
  970TIP3   OH224468   3.160   2.548   2.803
  970TIP3    H124469   3.242   2.512   2.771
  970TIP3    H224470   3.120   2.476   2.853
  971TIP3   OH224471   2.489   3.324   0.593
  971TIP3    H124472   2.403   3.365   0.598
  971TIP3    H224473   2.504   3.289   0.681
  972TIP3   OH224474   2.908   3.382   0.386
  972TIP3    H124475   2.965   3.357   0.313
  972TIP3    H224476   2.962   3.440   0.439
  973TIP3   OH224477   1.769   2.113   8.348
  973TIP3    H124478   1.777   2.019   8.363
  973TIP3    H224479   1.858   2.147   8.362
  974TIP3   OH224480   1.362   5.819   0.658
  974TIP3    H124481   1.303   5.887   0.690
  974TIP3    H224482   1.443   5.832   0.706
  975TIP3   OH224483   5.053   3.720   8.281
  975TIP3    H124484   5.074   3.630   8.308
  975TIP3    H224485   5.125   3.746   8.224
  976TIP3   OH224486   5.990   2.280   7.008
  976TIP3    H124487   5.916   2.278   7.069
  976TIP3    H224488   5.951   2.274   6.921
  977TIP3   OH224489   2.878   3.975   7.480
  977TIP3    H124490   2.969   3.966   7.453
  977TIP3    H224491   2.880   3.971   7.575
  978TIP3   OH224492   1.892   3.806   0.807
  978TIP3    H124493   1.937   3.746   0.748
  978TIP3    H224494   1.877   3.884   0.754
  979TIP3   OH224495   3.102   3.991   1.945
  979TIP3    H124496   3.087   3.940   1.866
  979TIP3    H224497   3.174   3.946   1.990
  980TIP3   OH224498   2.200   3.069   7.520
  980TIP3    H124499   2.263   3.134   7.490
  980TIP3    H224500   2.144   3.053   7.445
  981TIP3   OH224501   2.878   3.089   0.839
  981TIP3    H124502   2.969   3.117   0.837
  981TIP3    H224503   2.837   3.131   0.764
  982TIP3   OH224504   4.970   3.096   1.630
  982TIP3    H124505   5.041   3.040   1.660
  982TIP3    H224506   4.894   3.070   1.683
  983TIP3   OH224507   0.466   5.414   7.315
  983TIP3    H124508   0.436   5.437   7.227
  983TIP3    H224509   0.473   5.498   7.361
  984TIP3   OH224510   3.116   1.970   8.417
  984TIP3    H124511   3.130   1.955   8.324
  984TIP3    H224512   3.203   1.972   8.455
  985TIP3   OH224513   0.751   0.204   7.058
  985TIP3    H124514   0.843   0.215   7.078
  985TIP3    H224515   0.712   0.289   7.076
  986TIP3   OH224516   2.357   3.240   7.375
  986TIP3    H124517   2.450   3.219   7.370
  986TIP3    H224518   2.353   3.334   7.358
  987TIP3   OH224519   6.065   2.511   0.124
  987TIP3    H124520   6.052   2.496   0.030
  987TIP3    H224521   6.047   2.427   0.165
  988TIP3   OH224522   3.835   2.468   1.426
  988TIP3    H124523   3.740   2.473   1.427
  988TIP3    H224524   3.861   2.511   1.345
  989TIP3   OH224525   2.217   6.707   0.549
  989TIP3    H124526   2.237   0.003   0.576
  989TIP3    H224527   2.279   6.652   0.597
  990TIP3   OH224528   4.707   6.468   8.829
  990TIP3    H124529   4.802   6.467   8.817
  990TIP3    H224530   4.686   6.561   8.842
  991TIP3   OH224531   1.242   0.352   6.228
  991TIP3    H124532   1.277   0.441   6.219
  991TIP3    H224533   1.312   0.295   6.196
  992TIP3   OH224534   0.268   0.968   7.938
  992TIP3    H124535   0.194   1.004   7.988
  992TIP3    H224536   0.334   1.037   7.942
  993TIP3   OH224537   0.032   0.144   1.178
  993TIP3    H124538   0.108   0.202   1.173
  993TIP3    H224539   6.749   0.202   1.167
  994TIP3   OH224540   1.744   0.063   1.284
  994TIP3    H124541   1.817   0.122   1.302
  994TIP3    H224542   1.666   0.115   1.300
  995TIP3   OH224543   2.158   1.963   7.484
  995TIP3    H124544   2.203   1.879   7.478
  995TIP3    H224545   2.150   1.993   7.394
  996TIP3   OH224546   3.073   1.133   1.273
  996TIP3    H124547   2.999   1.114   1.331
  996TIP3    H224548   3.109   1.047   1.251
  997TIP3   OH224549   0.100   6.364   1.330
  997TIP3    H124550   0.084   6.314   1.250
  997TIP3    H224551   0.174   6.420   1.309
  998TIP3   OH224552   0.894   1.544   7.453
  998TIP3    H124553   0.926   1.634   7.459
  998TIP3    H224554   0.973   1.491   7.447
  999TIP3   OH224555   4.261   1.141   0.370
  999TIP3    H124556   4.319   1.214   0.392
  999TIP3    H224557   4.174   1.170   0.397
 1000TIP3   OH224558   4.987   4.383   8.560
 1000TIP3    H124559   4.946   4.330   8.628
 1000TIP3    H224560   5.008   4.321   8.490
 1001TIP3   OH224561   2.322   3.858   0.613
 1001TIP3    H124562   2.343   3.886   0.524
 1001TIP3    H224563   2.353   3.929   0.669
 1002TIP3   OH224564   3.641   0.168   1.722
 1002TIP3    H124565   3.732   0.183   1.746
 1002TIP3    H224566   3.633   0.206   1.634
 1003TIP3   OH224567   3.952   2.356   1.795
 1003TIP3    H124568   3.870   2.325   1.755
 1003TIP3    H224569   4.015   2.286   1.778
 1004TIP3   OH224570   6.624   0.625   7.756
 1004TIP3    H124571   6.640   0.535   7.786
 1004TIP3    H224572   6.536   0.623   7.720
 1005TIP3   OH224573   2.576   2.524   8.386
 1005TIP3    H124574   2.545   2.611   8.407
 1005TIP3    H224575   2.496   2.471   8.379
 1006TIP3   OH224576   3.830   1.828   1.443
 1006TIP3    H124577   3.871   1.748   1.407
 1006TIP3    H224578   3.882   1.899   1.406
 1007TIP3   OH224579   6.365   1.023   1.220
 1007TIP3    H124580   6.312   1.058   1.149
 1007TIP3    H224581   6.380   1.098   1.278
 1008TIP3   OH224582   1.501   0.167   0.741
 1008TIP3    H124583   1.484   0.089   0.795
 1008TIP3    H224584   1.451   0.237   0.784
 1009TIP3   OH224585   4.986   4.480   7.781
 1009TIP3    H124586   5.059   4.486   7.843
 1009TIP3    H224587   4.980   4.568   7.743
 1010TIP3   OH224588   5.285   1.144   8.655
 1010TIP3    H124589   5.376   1.168   8.637
 1010TIP3    H224590   5.289   1.097   8.738
 1011TIP3   OH224591   1.472   4.734   7.343
 1011TIP3    H124592   1.395   4.711   7.290
 1011TIP3    H224593   1.520   4.797   7.290
 1012TIP3   OH224594   2.763   3.083   8.595
 1012TIP3    H124595   2.784   2.990   8.591
 1012TIP3    H224596   2.710   3.093   8.675
 1013TIP3   OH224597   2.094   4.697   1.680
 1013TIP3    H124598   2.035   4.713   1.753
 1013TIP3    H224599   2.038   4.658   1.612
 1014TIP3   OH224600   3.227   0.339   6.345
 1014TIP3    H124601   3.181   0.281   6.406
 1014TIP3    H224602   3.162   0.407   6.322
 1015TIP3   OH224603   4.561   5.308   1.739
 1015TIP3    H124604   4.538   5.337   1.827
 1015TIP3    H224605   4.623   5.374   1.708
 1016TIP3   OH224606   4.833   4.639   7.166
 1016TIP3    H124607   4.868   4.575   7.104
 1016TIP3    H224608   4.742   4.613   7.178
 1017TIP3   OH224609   3.073   5.415   2.040
 1017TIP3    H124610   3.066   5.368   2.123
 1017TIP3    H224611   3.089   5.506   2.064
 1018TIP3   OH224612   2.893   5.806   7.509
 1018TIP3    H124613   2.821   5.745   7.528
 1018TIP3    H224614   2.914   5.845   7.594
 1019TIP3   OH224615   1.041   0.784   0.485
 1019TIP3    H124616   1.106   0.831   0.434
 1019TIP3    H224617   1.038   0.830   0.569
 1020TIP3   OH224618   0.781   5.275   8.122
 1020TIP3    H124619   0.804   5.301   8.033
 1020TIP3    H224620   0.864   5.250   8.162
 1021TIP3   OH224621   3.326   4.812   6.962
 1021TIP3    H124622   3.246   4.859   6.985
 1021TIP3    H224623   3.343   4.837   6.871
 1022TIP3   OH224624   5.929   1.959   0.853
 1022TIP3    H124625   5.944   1.995   0.765
 1022TIP3    H224626   5.991   2.007   0.908
 1023TIP3   OH224627   4.115   4.222   6.984
 1023TIP3    H124628   4.102   4.133   6.951
 1023TIP3    H224629   4.172   4.264   6.919
 1024TIP3   OH224630   5.689   4.245   7.855
 1024TIP3    H124631   5.688   4.319   7.794
 1024TIP3    H224632   5.776   4.206   7.845
 1025TIP3   OH224633   5.706   4.147   6.556
 1025TIP3    H124634   5.747   4.190   6.631
 1025TIP3    H224635   5.731   4.055   6.565
 1026TIP3   OH224636   5.716   1.285   8.242
 1026TIP3    H124637   5.774   1.260   8.315
 1026TIP3    H224638   5.640   1.228   8.252
 1027TIP3   OH224639   2.564   0.969   6.731
 1027TIP3    H124640   2.534   0.909   6.800
 1027TIP3    H224641   2.656   0.985   6.752
 1028TIP3   OH224642   0.081   0.946   0.256
 1028TIP3    H124643   0.054   1.038   0.248
 1028TIP3    H224644   0.167   0.951   0.298
 1029TIP3   OH224645   5.615   5.699   8.434
 1029TIP3    H124646   5.537   5.645   8.419
 1029TIP3    H224647   5.656   5.661   8.511
 1030TIP3   OH224648   0.723   1.985   0.431
 1030TIP3    H124649   0.648   1.925   0.432
 1030TIP3    H224650   0.742   1.998   0.338
 1031TIP3   OH224651   1.931   4.590   1.489
 1031TIP3    H124652   1.868   4.565   1.556
 1031TIP3    H224653   1.955   4.508   1.446
 1032TIP3   OH224654   5.745   3.777   0.783
 1032TIP3    H124655   5.665   3.733   0.755
 1032TIP3    H224656   5.763   3.842   0.715
 1033TIP3   OH224657   5.273   6.605   1.254
 1033TIP3    H124658   5.241   6.519   1.227
 1033TIP3    H224659   5.327   6.635   1.182
 1034TIP3   OH224660   0.866   6.244   0.513
 1034TIP3    H124661   0.857   6.303   0.439
 1034TIP3    H224662   0.953   6.207   0.504
 1035TIP3   OH224663   5.778   2.311   0.600
 1035TIP3    H124664   5.835   2.366   0.652
 1035TIP3    H224665   5.698   2.362   0.588
 1036TIP3   OH224666   3.589   2.909   0.087
 1036TIP3    H124667   3.585   2.995   0.129
 1036TIP3    H224668   3.530   2.854   0.138
 1037TIP3   OH224669   1.361   4.266   0.707
 1037TIP3    H124670   1.389   4.190   0.655
 1037TIP3    H224671   1.422   4.268   0.781
 1038TIP3   OH224672   2.534   3.781   7.082
 1038TIP3    H124673   2.477   3.857   7.087
 1038TIP3    H224674   2.480   3.712   7.042
 1039TIP3   OH224675   1.453   6.400   0.352
 1039TIP3    H124676   1.548   6.406   0.356
 1039TIP3    H224677   1.431   6.339   0.423
 1040TIP3   OH224678   2.673   3.605   1.156
 1040TIP3    H124679   2.685   3.609   1.251
 1040TIP3    H224680   2.592   3.556   1.144
 1041TIP3   OH224681   6.170   6.071   6.697
 1041TIP3    H124682   6.253   6.092   6.739
 1041TIP3    H224683   6.154   5.980   6.721
 1042TIP3   OH224684   4.727   5.304   8.790
 1042TIP3    H124685   4.649   5.349   8.759
 1042TIP3    H224686   4.772   5.275   8.711
 1043TIP3   OH224687   0.751   5.554   0.323
 1043TIP3    H124688   0.719   5.465   0.307
 1043TIP3    H224689   0.696   5.586   0.395
 1044TIP3   OH224690   0.373   2.916   1.500
 1044TIP3    H124691   0.295   2.867   1.474
 1044TIP3    H224692   0.339   2.989   1.552
 1045TIP3   OH224693   1.151   2.638   8.225
 1045TIP3    H124694   1.129   2.729   8.241
 1045TIP3    H224695   1.138   2.594   8.309
 1046TIP3   OH224696   6.060   4.672   0.844
 1046TIP3    H124697   6.137   4.713   0.803
 1046TIP3    H224698   6.075   4.683   0.938
 1047TIP3   OH224699   0.165   5.700   7.790
 1047TIP3    H124700   0.098   5.740   7.846
 1047TIP3    H224701   0.194   5.772   7.733
 1048TIP3   OH224702   5.611   3.530   0.497
 1048TIP3    H124703   5.563   3.573   0.426
 1048TIP3    H224704   5.580   3.573   0.577
 1049TIP3   OH224705   0.579   3.136   8.778
 1049TIP3    H124706   0.661   3.170   8.813
 1049TIP3    H224707   0.530   3.105   8.855
 1050TIP3   OH224708   3.681   2.520   2.780
 1050TIP3    H124709   3.752   2.499   2.720
 1050TIP3    H224710   3.704   2.606   2.815
 1051TIP3   OH224711   4.099   5.633   0.524
 1051TIP3    H124712   4.186   5.665   0.548
 1051TIP3    H224713   4.113   5.582   0.445
 1052TIP3   OH224714   3.847   2.439   0.198
 1052TIP3    H124715   3.784   2.444   0.127
 1052TIP3    H224716   3.905   2.514   0.184
 1053TIP3   OH224717   2.140   0.670   7.003
 1053TIP3    H124718   2.099   0.729   7.067
 1053TIP3    H224719   2.183   0.728   6.940
 1054TIP3   OH224720   4.170   6.244   0.485
 1054TIP3    H124721   4.264   6.254   0.473
 1054TIP3    H224722   4.162   6.202   0.571
 1055TIP3   OH224723   4.842   6.393   7.925
 1055TIP3    H124724   4.926   6.350   7.941
 1055TIP3    H224725   4.826   6.382   7.831
 1056TIP3   OH224726   2.846   0.663   0.502
 1056TIP3    H124727   2.849   0.747   0.548
 1056TIP3    H224728   2.860   0.686   0.410
 1057TIP3   OH224729   5.134   5.240   0.908
 1057TIP3    H124730   5.192   5.167   0.887
 1057TIP3    H224731   5.080   5.206   0.980
 1058TIP3   OH224732   3.842   3.116   0.262
 1058TIP3    H124733   3.897   3.191   0.286
 1058TIP3    H224734   3.754   3.140   0.290
 1059TIP3   OH224735   4.518   0.426   0.758
 1059TIP3    H124736   4.505   0.498   0.696
 1059TIP3    H224737   4.605   0.442   0.794
 1060TIP3   OH224738   1.206   5.595   0.724
 1060TIP3    H124739   1.293   5.630   0.702
 1060TIP3    H224740   1.145   5.656   0.682
 1061TIP3   OH224741   6.672   6.106   7.302
 1061TIP3    H124742   6.693   6.152   7.220
 1061TIP3    H224743   6.577   6.096   7.301
 1062TIP3   OH224744   4.151   2.677   1.479
 1062TIP3    H124745   4.154   2.765   1.518
 1062TIP3    H224746   4.075   2.636   1.519
 1063TIP3   OH224747   6.035   2.817   1.287
 1063TIP3    H124748   6.005   2.901   1.253
 1063TIP3    H224749   6.062   2.769   1.208
 1064TIP3   OH224750   1.334   1.586   7.092
 1064TIP3    H124751   1.426   1.570   7.110
 1064TIP3    H224752   1.288   1.553   7.168
 1065TIP3   OH224753   4.390   0.882   1.992
 1065TIP3    H124754   4.424   0.929   2.068
 1065TIP3    H224755   4.363   0.797   2.026
 1066TIP3   OH224756   1.849   2.146   7.990
 1066TIP3    H124757   1.777   2.147   7.927
 1066TIP3    H224758   1.856   2.054   8.017
 1067TIP3   OH224759   4.741   1.372   2.327
 1067TIP3    H124760   4.730   1.434   2.400
 1067TIP3    H224761   4.681   1.404   2.260
 1068TIP3   OH224762   3.035   4.520   8.274
 1068TIP3    H124763   2.946   4.553   8.291
 1068TIP3    H224764   3.083   4.537   8.355
 1069TIP3   OH224765   0.668   0.679   7.873
 1069TIP3    H124766   0.630   0.615   7.933
 1069TIP3    H224767   0.593   0.731   7.844
 1070TIP3   OH224768   0.282   0.609   0.296
 1070TIP3    H124769   0.234   0.648   0.370
 1070TIP3    H224770   0.281   0.515   0.314
 1071TIP3   OH224771   5.441   3.027   7.813
 1071TIP3    H124772   5.510   3.089   7.836
 1071TIP3    H224773   5.486   2.958   7.765
 1072TIP3   OH224774   2.301   1.740   8.695
 1072TIP3    H124775   2.285   1.695   8.612
 1072TIP3    H224776   2.346   1.821   8.671
 1073TIP3   OH224777   0.314   4.548   8.309
 1073TIP3    H124778   0.396   4.506   8.285
 1073TIP3    H224779   0.248   4.506   8.253
 1074TIP3   OH224780   1.604   2.001   7.016
 1074TIP3    H124781   1.663   2.041   7.080
 1074TIP3    H224782   1.661   1.973   6.945
 1075TIP3   OH224783   5.089   5.288   6.892
 1075TIP3    H124784   5.105   5.247   6.977
 1075TIP3    H224785   5.168   5.340   6.876
 1076TIP3   OH224786   6.222   3.534   2.411
 1076TIP3    H124787   6.128   3.518   2.421
 1076TIP3    H224788   6.263   3.456   2.449
 1077TIP3   OH224789   5.336   2.721   1.165
 1077TIP3    H124790   5.417   2.772   1.164
 1077TIP3    H224791   5.328   2.687   1.076
 1078TIP3   OH224792   5.219   5.943   1.921
 1078TIP3    H124793   5.298   5.889   1.919
 1078TIP3    H224794   5.164   5.903   1.987
 1079TIP3   OH224795   0.352   0.722   0.688
 1079TIP3    H124796   0.310   0.804   0.715
 1079TIP3    H224797   0.328   0.711   0.596
 1080TIP3   OH224798   2.451   3.654   0.829
 1080TIP3    H124799   2.449   3.687   0.919
 1080TIP3    H224800   2.380   3.700   0.784
 1081TIP3   OH224801   3.672   1.182   0.176
 1081TIP3    H124802   3.582   1.202   0.202
 1081TIP3    H224803   3.663   1.142   0.089
 1082TIP3   OH224804   2.799   4.481   6.674
 1082TIP3    H124805   2.737   4.553   6.660
 1082TIP3    H224806   2.786   4.457   6.766
 1083TIP3   OH224807   1.761   2.529   6.458
 1083TIP3    H124808   1.718   2.447   6.434
 1083TIP3    H224809   1.722   2.552   6.543
 1084TIP3   OH224810   3.103   5.512   8.501
 1084TIP3    H124811   3.176   5.526   8.561
 1084TIP3    H224812   3.067   5.599   8.485
 1085TIP3   OH224813   3.536   4.680   2.477
 1085TIP3    H124814   3.524   4.769   2.443
 1085TIP3    H224815   3.452   4.637   2.461
 1086TIP3   OH224816   1.323   4.831   1.383
 1086TIP3    H124817   1.299   4.829   1.291
 1086TIP3    H224818   1.401   4.887   1.385
 1087TIP3   OH224819   4.973   1.510   6.712
 1087TIP3    H124820   4.892   1.518   6.762
 1087TIP3    H224821   5.040   1.489   6.778
 1088TIP3   OH224822   5.716   5.928   0.988
 1088TIP3    H124823   5.724   5.993   1.057
 1088TIP3    H224824   5.636   5.879   1.010
 1089TIP3   OH224825   3.665   0.503   1.197
 1089TIP3    H124826   3.583   0.513   1.245
 1089TIP3    H224827   3.727   0.559   1.242
 1090TIP3   OH224828   5.522   0.232   1.718
 1090TIP3    H124829   5.442   0.284   1.706
 1090TIP3    H224830   5.550   0.252   1.807
 1091TIP3   OH224831   4.688   1.900   2.101
 1091TIP3    H124832   4.652   1.812   2.110
 1091TIP3    H224833   4.740   1.913   2.180
 1092TIP3   OH224834   4.224   6.043   0.704
 1092TIP3    H124835   4.312   6.013   0.680
 1092TIP3    H224836   4.167   5.969   0.683
 1093TIP3   OH224837   0.996   2.298   8.757
 1093TIP3    H124838   1.091   2.307   8.757
 1093TIP3    H224839   0.977   2.243   8.681
 1094TIP3   OH224840   3.090   2.649   2.562
 1094TIP3    H124841   2.997   2.641   2.583
 1094TIP3    H224842   3.135   2.641   2.647
 1095TIP3   OH224843   2.143   2.531   1.320
 1095TIP3    H124844   2.238   2.523   1.313
 1095TIP3    H224845   2.120   2.472   1.393
 1096TIP3   OH224846   5.963   0.643   7.942
 1096TIP3    H124847   6.018   0.722   7.943
 1096TIP3    H224848   6.022   0.573   7.912
 1097TIP3   OH224849   1.076   6.282   1.758
 1097TIP3    H124850   1.074   6.203   1.812
 1097TIP3    H224851   1.054   6.353   1.818
 1098TIP3   OH224852   4.715   4.674   8.601
 1098TIP3    H124853   4.776   4.745   8.583
 1098TIP3    H224854   4.742   4.603   8.543
 1099TIP3   OH224855   5.418   4.791   7.365
 1099TIP3    H124856   5.326   4.799   7.341
 1099TIP3    H224857   5.466   4.815   7.285
 1100TIP3   OH224858   6.481   5.934   8.039
 1100TIP3    H124859   6.448   5.893   7.959
 1100TIP3    H224860   6.445   5.880   8.110
 1101TIP3   OH224861   4.353   3.763   8.824
 1101TIP3    H124862   4.319   3.756   0.045
 1101TIP3    H224863   4.388   3.677   8.804
 1102TIP3   OH224864   6.431   0.592   1.663
 1102TIP3    H124865   6.467   0.596   1.751
 1102TIP3    H224866   6.346   0.549   1.673
 1103TIP3   OH224867   3.029   4.391   0.027
 1103TIP3    H124868   3.102   4.432   8.849
 1103TIP3    H224869   2.954   4.402   8.838
 1104TIP3   OH224870   4.672   3.826   1.147
 1104TIP3    H124871   4.662   3.744   1.098
 1104TIP3    H224872   4.727   3.802   1.222
 1105TIP3   OH224873   3.045   0.137   0.310
 1105TIP3    H124874   3.002   0.220   0.328
 1105TIP3    H224875   3.085   0.149   0.224
 1106TIP3   OH224876   0.594   3.796   0.152
 1106TIP3    H124877   0.681   3.791   0.113
 1106TIP3    H224878   0.600   3.743   0.232
 1107TIP3   OH224879   4.200   1.536   1.378
 1107TIP3    H124880   4.108   1.513   1.391
 1107TIP3    H224881   4.217   1.603   1.445
 1108TIP3   OH224882   5.622   3.907   7.823
 1108TIP3    H124883   5.541   3.938   7.783
 1108TIP3    H224884   5.594   3.867   7.905
 1109TIP3   OH224885   6.258   5.776   0.320
 1109TIP3    H124886   6.314   5.699   0.310
 1109TIP3    H224887   6.289   5.817   0.401
 1110TIP3   OH224888   0.353   0.580   1.116
 1110TIP3    H124889   0.301   0.659   1.102
 1110TIP3    H224890   0.406   0.571   1.037
 1111TIP3   OH224891   2.876   3.242   6.965
 1111TIP3    H124892   2.788   3.221   6.932
 1111TIP3    H224893   2.916   3.295   6.896
 1112TIP3   OH224894   2.147   2.579   1.017
 1112TIP3    H124895   2.110   2.651   1.067
 1112TIP3    H224896   2.122   2.500   1.065
 1113TIP3   OH224897   6.409   4.120   7.245
 1113TIP3    H124898   6.336   4.171   7.281
 1113TIP3    H224899   6.418   4.045   7.303
 1114TIP3   OH224900   0.127   2.379   7.300
 1114TIP3    H124901   0.062   2.323   7.343
 1114TIP3    H224902   0.075   2.451   7.263
 1115TIP3   OH224903   3.816   0.840   8.754
 1115TIP3    H124904   3.819   0.773   8.686
 1115TIP3    H224905   3.901   0.884   8.748
 1116TIP3   OH224906   1.461   3.333   0.136
 1116TIP3    H124907   1.412   3.339   0.218
 1116TIP3    H224908   1.430   3.252   0.095
 1117TIP3   OH224909   3.705   0.408   0.308
 1117TIP3    H124910   3.726   0.318   0.332
 1117TIP3    H224911   3.632   0.399   0.246
 1118TIP3   OH224912   4.709   6.713   8.479
 1118TIP3    H124913   4.798   6.681   8.492
 1118TIP3    H224914   4.694   6.705   8.385
 1119TIP3   OH224915   5.140   4.861   7.264
 1119TIP3    H124916   5.125   4.775   7.303
 1119TIP3    H224917   5.115   4.851   7.172
 1120TIP3   OH224918   5.582   5.610   8.741
 1120TIP3    H124919   5.652   5.592   8.803
 1120TIP3    H224920   5.561   5.703   8.755
 1121TIP3   OH224921   2.099   0.601   0.736
 1121TIP3    H124922   2.099   0.526   0.677
 1121TIP3    H224923   2.037   0.577   0.805
 1122TIP3   OH224924   6.187   6.234   6.457
 1122TIP3    H124925   6.198   6.240   6.552
 1122TIP3    H224926   6.171   6.323   6.428
 1123TIP3   OH224927   2.766   2.429   1.348
 1123TIP3    H124928   2.740   2.508   1.299
 1123TIP3    H224929   2.683   2.394   1.381
 1124TIP3   OH224930   5.012   6.378   0.980
 1124TIP3    H124931   5.032   6.402   0.889
 1124TIP3    H224932   4.993   6.285   0.976
 1125TIP3   OH224933   1.226   0.579   7.801
 1125TIP3    H124934   1.166   0.505   7.797
 1125TIP3    H224935   1.304   0.549   7.754
 1126TIP3   OH224936   4.538   5.844   7.561
 1126TIP3    H124937   4.542   5.766   7.616
 1126TIP3    H224938   4.448   5.877   7.572
 1127TIP3   OH224939   6.110   0.631   8.543
 1127TIP3    H124940   6.172   0.561   8.525
 1127TIP3    H224941   6.165   0.707   8.563
 1128TIP3   OH224942   3.223   2.926   0.088
 1128TIP3    H124943   3.164   2.986   0.041
 1128TIP3    H224944   3.165   2.862   0.129
 1129TIP3   OH224945   0.082   0.729   7.688
 1129TIP3    H124946   0.125   0.658   7.642
 1129TIP3    H224947   0.021   0.686   7.748
 1130TIP3   OH224948   5.147   6.350   2.022
 1130TIP3    H124949   5.065   6.336   1.976
 1130TIP3    H224950   5.126   6.415   2.090
 1131TIP3   OH224951   3.969   2.865   0.292
 1131TIP3    H124952   3.922   2.949   0.293
 1131TIP3    H224953   4.021   2.865   0.373
 1132TIP3   OH224954   6.745   3.495   6.848
 1132TIP3    H124955   6.696   3.532   6.922
 1132TIP3    H224956   6.693   3.520   6.771
 1133TIP3   OH224957   1.826   2.962   8.069
 1133TIP3    H124958   1.785   2.879   8.046
 1133TIP3    H224959   1.759   3.008   8.121
 1134TIP3   OH224960   6.737   3.696   1.015
 1134TIP3    H124961   6.708   3.719   1.103
 1134TIP3    H224962   0.040   3.695   1.021
 1135TIP3   OH224963   4.177   4.015   8.831
 1135TIP3    H124964   4.254   3.962   8.854
 1135TIP3    H224965   4.192   4.042   8.741
 1136TIP3   OH224966   3.215   1.065   6.557
 1136TIP3    H124967   3.150   1.131   6.580
 1136TIP3    H224968   3.298   1.112   6.558
 1137TIP3   OH224969   6.128   0.964   1.849
 1137TIP3    H124970   6.040   0.998   1.835
 1137TIP3    H224971   6.124   0.873   1.817
 1138TIP3   OH224972   0.491   4.437   2.266
 1138TIP3    H124973   0.553   4.364   2.269
 1138TIP3    H224974   0.405   4.396   2.273
 1139TIP3   OH224975   4.320   0.123   7.634
 1139TIP3    H124976   4.229   0.144   7.615
 1139TIP3    H224977   4.316   0.061   7.707
 1140TIP3   OH224978   4.899   1.531   7.524
 1140TIP3    H124979   4.859   1.520   7.438
 1140TIP3    H224980   4.863   1.613   7.558
 1141TIP3   OH224981   5.417   0.989   0.560
 1141TIP3    H124982   5.471   1.010   0.637
 1141TIP3    H224983   5.330   1.022   0.583
 1142TIP3   OH224984   4.420   0.854   0.877
 1142TIP3    H124985   4.343   0.814   0.836
 1142TIP3    H224986   4.430   0.807   0.960
 1143TIP3   OH224987   2.981   0.203   7.631
 1143TIP3    H124988   3.020   0.116   7.634
 1143TIP3    H224989   2.979   0.226   7.538
 1144TIP3   OH224990   0.801   1.674   6.823
 1144TIP3    H124991   0.742   1.700   6.752
 1144TIP3    H224992   0.863   1.747   6.831
 1145TIP3   OH224993   5.284   6.625   8.806
 1145TIP3    H124994   5.320   6.669   0.014
 1145TIP3    H224995   5.301   6.532   8.821
 1146TIP3   OH224996   5.239   2.334   6.234
 1146TIP3    H124997   5.159   2.304   6.278
 1146TIP3    H224998   5.308   2.276   6.267
 1147TIP3   OH224999   5.270   5.891   8.822
 1147TIP3    H125000   5.320   5.854   0.026
 1147TIP3    H225001   5.199   5.940   8.864
 1148TIP3   OH225002   4.107   1.986   0.458
 1148TIP3    H125003   4.069   1.899   0.468
 1148TIP3    H225004   4.031   2.045   0.462
 1149TIP3   OH225005   2.269   6.730   8.221
 1149TIP3    H125006   2.346   6.748   8.275
 1149TIP3    H225007   2.195   6.754   8.276
 1150TIP3   OH225008   1.621   3.525   0.017
 1150TIP3    H125009   1.612   3.442   0.063
 1150TIP3    H225010   1.557   3.583   0.059
 1151TIP3   OH225011   1.982   0.713   8.652
 1151TIP3    H125012   2.033   0.792   8.667
 1151TIP3    H225013   2.003   0.656   8.726
 1152TIP3   OH225014   6.741   0.675   7.147
 1152TIP3    H125015   6.775   0.648   7.232
 1152TIP3    H225016   0.024   0.674   7.089
 1153TIP3   OH225017   6.175   3.586   0.541
 1153TIP3    H125018   6.172   3.622   0.630
 1153TIP3    H225019   6.116   3.511   0.543
 1154TIP3   OH225020   1.399   0.583   1.753
 1154TIP3    H125021   1.309   0.553   1.743
 1154TIP3    H225022   1.433   0.588   1.664
 1155TIP3   OH225023   0.491   3.266   0.629
 1155TIP3    H125024   0.438   3.346   0.626
 1155TIP3    H225025   0.481   3.235   0.720
 1156TIP3   OH225026   5.537   2.310   8.787
 1156TIP3    H125027   5.601   2.378   8.767
 1156TIP3    H225028   5.454   2.344   8.752
 1157TIP3   OH225029   6.234   5.824   1.919
 1157TIP3    H125030   6.173   5.856   1.852
 1157TIP3    H225031   6.180   5.772   1.978
 1158TIP3   OH225032   5.658   5.758   1.439
 1158TIP3    H125033   5.733   5.797   1.484
 1158TIP3    H225034   5.695   5.684   1.391
 1159TIP3   OH225035   1.134   3.518   6.813
 1159TIP3    H125036   1.192   3.448   6.783
 1159TIP3    H225037   1.046   3.487   6.790
 1160TIP3   OH225038   4.435   5.199   0.095
 1160TIP3    H125039   4.524   5.167   0.108
 1160TIP3    H225040   4.441   5.293   0.111
 1161TIP3   OH225041   5.770   0.078   8.047
 1161TIP3    H125042   5.835   0.148   8.038
 1161TIP3    H225043   5.813   0.013   8.102
 1162TIP3   OH225044   0.047   5.421   0.881
 1162TIP3    H125045   0.067   5.341   0.928
 1162TIP3    H225046   0.127   5.443   0.834
 1163TIP3   OH225047   0.482   0.693   0.085
 1163TIP3    H125048   0.488   0.605   0.050
 1163TIP3    H225049   0.399   0.694   0.134
 1164TIP3   OH225050   1.566   0.982   7.704
 1164TIP3    H125051   1.488   1.035   7.687
 1164TIP3    H225052   1.538   0.892   7.689
 1165TIP3   OH225053   1.758   5.781   8.692
 1165TIP3    H125054   1.691   5.818   8.749
 1165TIP3    H225055   1.719   5.783   8.605
 1166TIP3   OH225056   6.394   3.425   6.355
 1166TIP3    H125057   6.479   3.428   6.312
 1166TIP3    H225058   6.361   3.515   6.347
 1167TIP3   OH225059   2.541   0.856   7.389
 1167TIP3    H125060   2.477   0.918   7.423
 1167TIP3    H225061   2.544   0.874   7.295
 1168TIP3   OH225062   4.118   3.598   7.650
 1168TIP3    H125063   4.155   3.674   7.605
 1168TIP3    H225064   4.112   3.531   7.581
 1169TIP3   OH225065   3.098   0.498   8.116
 1169TIP3    H125066   3.095   0.414   8.070
 1169TIP3    H225067   3.026   0.494   8.179
 1170TIP3   OH225068   3.380   5.682   6.951
 1170TIP3    H125069   3.433   5.619   6.999
 1170TIP3    H225070   3.323   5.628   6.896
 1171TIP3   OH225071   5.132   5.896   6.502
 1171TIP3    H125072   5.107   5.976   6.457
 1171TIP3    H225073   5.049   5.855   6.528
 1172TIP3   OH225074   2.486   4.441   1.511
 1172TIP3    H125075   2.403   4.484   1.487
 1172TIP3    H225076   2.551   4.512   1.509
 1173TIP3   OH225077   6.216   2.637   1.551
 1173TIP3    H125078   6.259   2.702   1.494
 1173TIP3    H225079   6.269   2.637   1.631
 1174TIP3   OH225080   6.541   2.523   8.395
 1174TIP3    H125081   6.531   2.614   8.367
 1174TIP3    H225082   6.452   2.490   8.403
 1175TIP3   OH225083   2.173   5.112   2.406
 1175TIP3    H125084   2.217   5.193   2.381
 1175TIP3    H225085   2.081   5.136   2.413
 1176TIP3   OH225086   2.850   1.402   8.765
 1176TIP3    H125087   2.927   1.440   8.807
 1176TIP3    H225088   2.857   1.430   8.673
 1177TIP3   OH225089   2.266   1.645   8.457
 1177TIP3    H125090   2.275   1.561   8.414
 1177TIP3    H225091   2.216   1.699   8.395
 1178TIP3   OH225092   3.063   4.454   7.131
 1178TIP3    H125093   3.121   4.505   7.074
 1178TIP3    H225094   3.102   4.462   7.218
 1179TIP3   OH225095   2.597   6.296   7.090
 1179TIP3    H125096   2.573   6.277   7.181
 1179TIP3    H225097   2.529   6.252   7.038
 1180TIP3   OH225098   3.712   3.677   1.647
 1180TIP3    H125099   3.670   3.591   1.655
 1180TIP3    H225100   3.662   3.734   1.706
 1181TIP3   OH225101   3.951   2.834   8.744
 1181TIP3    H125102   3.914   2.902   8.800
 1181TIP3    H225103   4.000   2.881   8.677
 1182TIP3   OH225104   3.586   5.156   0.101
 1182TIP3    H125105   3.545   5.106   0.172
 1182TIP3    H225106   3.676   5.122   0.097
 1183TIP3   OH225107   3.958   4.176   0.683
 1183TIP3    H125108   3.932   4.114   0.616
 1183TIP3    H225109   4.039   4.140   0.719
 1184TIP3   OH225110   4.792   3.005   8.148
 1184TIP3    H125111   4.806   3.097   8.170
 1184TIP3    H225112   4.791   3.003   8.052
 1185TIP3   OH225113   4.668   2.310   6.856
 1185TIP3    H125114   4.711   2.231   6.824
 1185TIP3    H225115   4.713   2.330   6.938
 1186TIP3   OH225116   6.531   0.619   8.367
 1186TIP3    H125117   6.554   0.704   8.406
 1186TIP3    H225118   6.435   0.617   8.370
 1187TIP3   OH225119   5.997   4.861   1.067
 1187TIP3    H125120   5.963   4.886   0.981
 1187TIP3    H225121   5.927   4.809   1.107
 1188TIP3   OH225122   2.750   4.180   1.770
 1188TIP3    H125123   2.735   4.086   1.762
 1188TIP3    H225124   2.785   4.191   1.858
 1189TIP3   OH225125   2.332   0.238   8.219
 1189TIP3    H125126   2.401   0.297   8.189
 1189TIP3    H225127   2.262   0.248   8.155
 1190TIP3   OH225128   4.449   6.188   1.134
 1190TIP3    H125129   4.453   6.280   1.160
 1190TIP3    H225130   4.357   6.164   1.145
 1191TIP3   OH225131   1.601   0.109   7.603
 1191TIP3    H125132   1.593   0.147   7.690
 1191TIP3    H225133   1.520   0.060   7.591
 1192TIP3   OH225134   0.278   6.736   0.125
 1192TIP3    H125135   0.220   6.711   0.053
 1192TIP3    H225136   0.356   6.681   0.113
 1193TIP3   OH225137   2.041   3.827   0.152
 1193TIP3    H125138   2.104   3.874   0.097
 1193TIP3    H225139   1.985   3.781   0.090
 1194TIP3   OH225140   3.108   1.142   8.223
 1194TIP3    H125141   3.166   1.113   8.154
 1194TIP3    H225142   3.128   1.235   8.235
 1195TIP3   OH225143   0.711   5.928   0.236
 1195TIP3    H125144   0.695   6.005   0.181
 1195TIP3    H225145   0.775   5.877   0.186
 1196TIP3   OH225146   1.369   5.739   0.386
 1196TIP3    H125147   1.383   5.716   0.478
 1196TIP3    H225148   1.457   5.745   0.349
 1197TIP3   OH225149   2.825   1.839   1.562
 1197TIP3    H125150   2.834   1.776   1.490
 1197TIP3    H225151   2.784   1.788   1.632
 1198TIP3   OH225152   6.107   2.872   8.028
 1198TIP3    H125153   6.141   2.961   8.033
 1198TIP3    H225154   6.016   2.882   8.000
 1199TIP3   OH225155   6.221   2.108   6.891
 1199TIP3    H125156   6.174   2.181   6.932
 1199TIP3    H225157   6.184   2.030   6.931
 1200TIP3   OH225158   5.822   5.909   6.890
 1200TIP3    H125159   5.774   5.972   6.944
 1200TIP3    H225160   5.756   5.872   6.831
 1201TIP3   OH225161   4.103   0.370   1.628
 1201TIP3    H125162   4.110   0.435   1.557
 1201TIP3    H225163   4.192   0.337   1.639
 1202TIP3   OH225164   6.513   2.850   7.212
 1202TIP3    H125165   6.524   2.904   7.291
 1202TIP3    H225166   6.433   2.800   7.228
 1203TIP3   OH225167   2.691   5.694   6.836
 1203TIP3    H125168   2.770   5.642   6.851
 1203TIP3    H225169   2.709   5.742   6.755
 1204TIP3   OH225170   4.156   2.788   8.472
 1204TIP3    H125171   4.121   2.741   8.397
 1204TIP3    H225172   4.171   2.877   8.439
 1205TIP3   OH225173   0.151   0.612   8.698
 1205TIP3    H125174   0.109   0.526   8.699
 1205TIP3    H225175   0.150   0.641   8.789
 1206TIP3   OH225176   1.252   2.060   8.040
 1206TIP3    H125177   1.187   2.105   7.987
 1206TIP3    H225178   1.320   2.034   7.978
 1207TIP3   OH225179   6.766   6.357   7.099
 1207TIP3    H125180   0.037   6.340   7.168
 1207TIP3    H225181   6.740   6.448   7.112
 1208TIP3   OH225182   3.181   4.369   0.250
 1208TIP3    H125183   3.108   4.366   0.189
 1208TIP3    H225184   3.228   4.450   0.228
 1209TIP3   OH225185   1.267   2.303   1.802
 1209TIP3    H125186   1.265   2.241   1.875
 1209TIP3    H225187   1.359   2.332   1.798
 1210TIP3   OH225188   3.568   5.357   7.315
 1210TIP3    H125189   3.612   5.320   7.238
 1210TIP3    H225190   3.632   5.350   7.385
 1211TIP3   OH225191   4.544   6.486   8.598
 1211TIP3    H125192   4.462   6.441   8.621
 1211TIP3    H225193   4.594   6.487   8.679
 1212TIP3   OH225194   3.404   4.544   1.076
 1212TIP3    H125195   3.419   4.554   0.982
 1212TIP3    H225196   3.375   4.631   1.106
 1213TIP3   OH225197   0.972   6.173   0.943
 1213TIP3    H125198   1.058   6.208   0.965
 1213TIP3    H225199   0.952   6.210   0.857
 1214TIP3   OH225200   4.921   3.401   0.702
 1214TIP3    H125201   4.943   3.430   0.791
 1214TIP3    H225202   4.998   3.424   0.650
 1215TIP3   OH225203   3.224   5.517   6.757
 1215TIP3    H125204   3.148   5.518   6.699
 1215TIP3    H225205   3.204   5.448   6.821
 1216TIP3   OH225206   0.256   0.655   1.413
 1216TIP3    H125207   0.322   0.595   1.378
 1216TIP3    H225208   0.306   0.731   1.444
 1217TIP3   OH225209   5.488   1.846   7.335
 1217TIP3    H125210   5.486   1.918   7.398
 1217TIP3    H225211   5.404   1.852   7.290
 1218TIP3   OH225212   3.989   6.611   1.802
 1218TIP3    H125213   4.034   6.672   1.744
 1218TIP3    H225214   3.958   6.665   1.874
 1219TIP3   OH225215   0.080   6.109   7.488
 1219TIP3    H125216   0.005   6.103   7.429
 1219TIP3    H225217   0.119   6.021   7.485
 1220TIP3   OH225218   6.512   0.603   8.736
 1220TIP3    H125219   6.554   0.518   8.719
 1220TIP3    H225220   6.583   0.660   8.764
 1221TIP3   OH225221   5.846   1.525   0.238
 1221TIP3    H125222   5.901   1.453   0.270
 1221TIP3    H225223   5.865   1.530   0.145
 1222TIP3   OH225224   2.449   3.190   0.905
 1222TIP3    H125225   2.354   3.181   0.902
 1222TIP3    H225226   2.477   3.129   0.973
 1223TIP3   OH225227   4.138   3.582   2.036
 1223TIP3    H125228   4.167   3.604   2.125
 1223TIP3    H225229   4.120   3.488   2.040
 1224TIP3   OH225230   5.345   3.414   0.230
 1224TIP3    H125231   5.381   3.416   0.141
 1224TIP3    H225232   5.333   3.321   0.249
 1225TIP3   OH225233   4.394   6.183   7.167
 1225TIP3    H125234   4.474   6.132   7.172
 1225TIP3    H225235   4.341   6.138   7.101
 1226TIP3   OH225236   5.089   5.434   7.288
 1226TIP3    H125237   5.068   5.517   7.331
 1226TIP3    H225238   5.003   5.399   7.262
 1227TIP3   OH225239   5.058   5.708   1.592
 1227TIP3    H125240   5.122   5.664   1.537
 1227TIP3    H225241   5.089   5.694   1.682
 1228TIP3   OH225242   1.346   2.594   0.724
 1228TIP3    H125243   1.423   2.649   0.720
 1228TIP3    H225244   1.311   2.606   0.812
 1229TIP3   OH225245   4.757   2.939   8.516
 1229TIP3    H125246   4.771   2.861   8.569
 1229TIP3    H225247   4.832   2.943   8.458
 1230TIP3   OH225248   2.045   3.787   7.311
 1230TIP3    H125249   2.113   3.761   7.249
 1230TIP3    H225250   2.058   3.881   7.324
 1231TIP3   OH225251   3.568   3.322   8.530
 1231TIP3    H125252   3.537   3.411   8.515
 1231TIP3    H225253   3.496   3.266   8.502
 1232TIP3   OH225254   1.973   1.914   1.905
 1232TIP3    H125255   1.949   1.822   1.911
 1232TIP3    H225256   2.069   1.913   1.901
 1233TIP3   OH225257   5.972   0.032   1.912
 1233TIP3    H125258   5.877   0.041   1.911
 1233TIP3    H225259   6.005   0.122   1.904
 1234TIP3   OH225260   3.272   2.905   0.985
 1234TIP3    H125261   3.339   2.959   1.027
 1234TIP3    H225262   3.286   2.917   0.891
 1235TIP3   OH225263   3.693   6.596   2.376
 1235TIP3    H125264   3.760   6.635   2.319
 1235TIP3    H225265   3.673   6.665   2.439
 1236TIP3   OH225266   0.469   0.164   1.067
 1236TIP3    H125267   0.374   0.161   1.072
 1236TIP3    H225268   0.488   0.245   1.019
 1237TIP3   OH225269   4.726   1.706   0.873
 1237TIP3    H125270   4.796   1.763   0.907
 1237TIP3    H225271   4.764   1.669   0.793
 1238TIP3   OH225272   5.551   2.094   0.497
 1238TIP3    H125273   5.631   2.098   0.446
 1238TIP3    H225274   5.523   2.185   0.506
 1239TIP3   OH225275   0.926   3.397   6.660
 1239TIP3    H125276   0.953   3.461   6.594
 1239TIP3    H225277   0.840   3.367   6.630
 1240TIP3   OH225278   2.643   4.267   7.021
 1240TIP3    H125279   2.584   4.193   7.037
 1240TIP3    H225280   2.609   4.308   6.941
 1241TIP3   OH225281   4.154   3.349   0.174
 1241TIP3    H125282   4.129   3.371   0.264
 1241TIP3    H225283   4.177   3.433   0.134
 1242TIP3   OH225284   3.230   2.471   7.185
 1242TIP3    H125285   3.274   2.415   7.122
 1242TIP3    H225286   3.179   2.532   7.131
 1243TIP3   OH225287   2.566   0.869   0.613
 1243TIP3    H125288   2.474   0.892   0.597
 1243TIP3    H225289   2.579   0.889   0.706
 1244TIP3   OH225290   0.510   2.259   7.512
 1244TIP3    H125291   0.477   2.178   7.473
 1244TIP3    H225292   0.590   2.233   7.558
 1245TIP3   OH225293   0.275   6.036   7.252
 1245TIP3    H125294   0.241   5.971   7.190
 1245TIP3    H225295   0.289   5.986   7.333
 1246TIP3   OH225296   2.820   3.582   8.686
 1246TIP3    H125297   2.755   3.514   8.670
 1246TIP3    H225298   2.898   3.535   8.716
 1247TIP3   OH225299   3.786   3.498   2.030
 1247TIP3    H125300   3.827   3.529   1.949
 1247TIP3    H225301   3.767   3.577   2.080
 1248TIP3   OH225302   1.649   4.625   0.967
 1248TIP3    H125303   1.698   4.558   0.919
 1248TIP3    H225304   1.711   4.697   0.977
 1249TIP3   OH225305   3.168   3.054   0.572
 1249TIP3    H125306   3.176   3.117   0.501
 1249TIP3    H225307   3.116   2.983   0.537
 1250TIP3   OH225308   1.758   5.103   1.547
 1250TIP3    H125309   1.772   5.194   1.523
 1250TIP3    H225310   1.841   5.060   1.529
 1251TIP3   OH225311   2.540   5.454   0.477
 1251TIP3    H125312   2.497   5.500   0.405
 1251TIP3    H225313   2.606   5.515   0.508
 1252TIP3   OH225314   3.314   6.704   8.711
 1252TIP3    H125315   3.298   6.671   8.799
 1252TIP3    H225316   3.258   6.781   8.704
 1253TIP3   OH225317   5.587   2.879   1.188
 1253TIP3    H125318   5.643   2.819   1.139
 1253TIP3    H225319   5.552   2.939   1.122
 1254TIP3   OH225320   2.216   1.174   0.723
 1254TIP3    H125321   2.306   1.207   0.730
 1254TIP3    H225322   2.195   1.182   0.630
 1255TIP3   OH225323   0.041   4.714   1.221
 1255TIP3    H125324   6.754   4.705   1.273
 1255TIP3    H225325   0.108   4.668   1.272
 1256TIP3   OH225326   4.763   0.455   8.527
 1256TIP3    H125327   4.680   0.482   8.488
 1256TIP3    H225328   4.787   0.376   8.480
 1257TIP3   OH225329   4.118   2.097   2.024
 1257TIP3    H125330   4.050   2.041   2.060
 1257TIP3    H225331   4.130   2.166   2.089
 1258TIP3   OH225332   5.709   0.722   7.909
 1258TIP3    H125333   5.716   0.795   7.848
 1258TIP3    H225334   5.799   0.706   7.938
 1259TIP3   OH225335   1.441   5.358   0.325
 1259TIP3    H125336   1.368   5.377   0.384
 1259TIP3    H225337   1.511   5.327   0.383
 1260TIP3   OH225338   4.766   2.705   1.456
 1260TIP3    H125339   4.721   2.785   1.484
 1260TIP3    H225340   4.832   2.690   1.524
 1261TIP3   OH225341   4.319   4.207   0.997
 1261TIP3    H125342   4.238   4.257   1.004
 1261TIP3    H225343   4.290   4.117   0.984
 1262TIP3   OH225344   2.926   1.541   7.537
 1262TIP3    H125345   2.965   1.553   7.450
 1262TIP3    H225346   2.877   1.622   7.552
 1263TIP3   OH225347   4.723   6.162   1.267
 1263TIP3    H125348   4.695   6.112   1.344
 1263TIP3    H225349   4.644   6.171   1.214
 1264TIP3   OH225350   3.009   2.061   0.272
 1264TIP3    H125351   3.061   2.108   0.206
 1264TIP3    H225352   3.023   2.110   0.353
 1265TIP3   OH225353   4.950   2.238   6.372
 1265TIP3    H125354   4.869   2.209   6.413
 1265TIP3    H225355   4.969   2.172   6.306
 1266TIP3   OH225356   4.136   2.891   0.527
 1266TIP3    H125357   4.224   2.918   0.502
 1266TIP3    H225358   4.125   2.925   0.616
 1267TIP3   OH225359   0.562   5.155   7.348
 1267TIP3    H125360   0.627   5.166   7.278
 1267TIP3    H225361   0.529   5.243   7.364
 1268TIP3   OH225362   1.597   0.781   0.201
 1268TIP3    H125363   1.653   0.758   0.127
 1268TIP3    H225364   1.640   0.856   0.242
 1269TIP3   OH225365   2.758   2.383   0.816
 1269TIP3    H125366   2.706   2.359   0.739
 1269TIP3    H225367   2.728   2.471   0.838
 1270TIP3   OH225368   6.445   1.072   7.386
 1270TIP3    H125369   6.517   1.015   7.358
 1270TIP3    H225370   6.465   1.095   7.476
 1271TIP3   OH225371   3.726   5.916   7.410
 1271TIP3    H125372   3.780   5.861   7.353
 1271TIP3    H225373   3.656   5.948   7.353
 1272TIP3   OH225374   3.971   1.333   8.476
 1272TIP3    H125375   3.878   1.334   8.496
 1272TIP3    H225376   4.006   1.411   8.521
 1273TIP3   OH225377   1.376   2.150   0.652
 1273TIP3    H125378   1.373   2.237   0.610
 1273TIP3    H225379   1.284   2.125   0.660
 1274TIP3   OH225380   6.611   0.870   8.492
 1274TIP3    H125381   6.700   0.872   8.526
 1274TIP3    H225382   6.617   0.914   8.407
 1275TIP3   OH225383   3.594   3.863   1.798
 1275TIP3    H125384   3.597   3.844   1.892
 1275TIP3    H225385   3.586   3.959   1.793
 1276TIP3   OH225386   3.149   0.725   8.512
 1276TIP3    H125387   3.101   0.671   8.574
 1276TIP3    H225388   3.158   0.669   8.434
 1277TIP3   OH225389   1.802   6.209   7.540
 1277TIP3    H125390   1.726   6.155   7.520
 1277TIP3    H225391   1.877   6.156   7.512
 1278TIP3   OH225392   1.009   6.204   1.490
 1278TIP3    H125393   1.030   6.242   1.575
 1278TIP3    H225394   1.092   6.172   1.456
 1279TIP3   OH225395   4.608   0.884   1.816
 1279TIP3    H125396   4.517   0.892   1.843
 1279TIP3    H225397   4.658   0.887   1.897
 1280TIP3   OH225398   2.086   1.267   8.337
 1280TIP3    H125399   2.044   1.281   8.422
 1280TIP3    H225400   2.017   1.284   8.273
 1281TIP3   OH225401   1.801   2.787   8.797
 1281TIP3    H125402   1.871   2.760   8.737
 1281TIP3    H225403   1.736   2.717   8.791
 1282TIP3   OH225404   1.670   4.012   8.467
 1282TIP3    H125405   1.617   3.994   8.545
 1282TIP3    H225406   1.705   3.927   8.442
 1283TIP3   OH225407   6.383   3.339   2.519
 1283TIP3    H125408   6.382   3.243   2.519
 1283TIP3    H225409   6.473   3.362   2.541
 1284TIP3   OH225410   4.068   0.285   7.744
 1284TIP3    H125411   4.042   0.220   7.808
 1284TIP3    H225412   4.113   0.353   7.795
 1285TIP3   OH225413   0.013   6.066   6.509
 1285TIP3    H125414   6.730   6.071   6.567
 1285TIP3    H225415   6.771   6.084   6.422
 1286TIP3   OH225416   4.348   3.973   0.191
 1286TIP3    H125417   4.345   4.063   0.224
 1286TIP3    H225418   4.432   3.966   0.147
 1287TIP3   OH225419   2.437   0.572   0.803
 1287TIP3    H125420   2.374   0.637   0.771
 1287TIP3    H225421   2.507   0.572   0.738
 1288TIP3   OH225422   1.183   4.479   8.251
 1288TIP3    H125423   1.210   4.421   8.180
 1288TIP3    H225424   1.087   4.480   8.247
 1289TIP3   OH225425   1.637   2.558   8.815
 1289TIP3    H125426   1.578   2.552   8.740
 1289TIP3    H225427   1.604   2.493   0.008
 1290TIP3   OH225428   0.662   4.846   6.428
 1290TIP3    H125429   0.657   4.939   6.447
 1290TIP3    H225430   0.751   4.821   6.454
 1291TIP3   OH225431   4.043   1.758   1.856
 1291TIP3    H125432   4.052   1.706   1.936
 1291TIP3    H225433   3.993   1.702   1.796
 1292TIP3   OH225434   2.924   5.198   1.723
 1292TIP3    H125435   2.903   5.290   1.739
 1292TIP3    H225436   2.959   5.166   1.806
 1293TIP3   OH225437   4.659   1.246   1.315
 1293TIP3    H125438   4.585   1.305   1.329
 1293TIP3    H225439   4.646   1.176   1.379
 1294TIP3   OH225440   5.529   3.272   7.428
 1294TIP3    H125441   5.469   3.248   7.499
 1294TIP3    H225442   5.558   3.361   7.450
 1295TIP3   OH225443   1.060   4.366   0.002
 1295TIP3    H125444   1.037   4.278   0.032
 1295TIP3    H225445   1.074   4.416   0.083
 1296TIP3   OH225446   2.239   5.248   8.573
 1296TIP3    H125447   2.286   5.251   8.656
 1296TIP3    H225448   2.177   5.320   8.578
 1297TIP3   OH225449   1.528   0.733   0.968
 1297TIP3    H125450   1.513   0.641   0.949
 1297TIP3    H225451   1.440   0.772   0.970
 1298TIP3   OH225452   0.726   5.064   7.140
 1298TIP3    H125453   0.728   4.989   7.200
 1298TIP3    H225454   0.792   5.043   7.074
 1299TIP3   OH225455   1.249   5.045   0.665
 1299TIP3    H125456   1.319   5.054   0.600
 1299TIP3    H225457   1.173   5.085   0.623
 1300TIP3   OH225458   5.844   0.569   2.201
 1300TIP3    H125459   5.824   0.571   2.295
 1300TIP3    H225460   5.777   0.511   2.165
 1301TIP3   OH225461   0.221   3.456   1.709
 1301TIP3    H125462   0.288   3.456   1.777
 1301TIP3    H225463   0.139   3.448   1.756
 1302TIP3   OH225464   5.355   6.553   7.868
 1302TIP3    H125465   5.396   6.491   7.929
 1302TIP3    H225466   5.372   6.516   7.781
 1303TIP3   OH225467   2.014   6.083   0.023
 1303TIP3    H125468   2.056   6.000   0.047
 1303TIP3    H225469   1.920   6.063   0.023
 1304TIP3   OH225470   1.845   4.954   6.770
 1304TIP3    H125471   1.899   4.903   6.710
 1304TIP3    H225472   1.823   5.033   6.721
 1305TIP3   OH225473   0.243   4.620   2.047
 1305TIP3    H125474   0.286   4.656   2.125
 1305TIP3    H225475   0.162   4.582   2.080
 1306TIP3   OH225476   5.944   3.528   0.750
 1306TIP3    H125477   5.904   3.545   0.665
 1306TIP3    H225478   5.976   3.614   0.779
 1307TIP3   OH225479   3.151   0.494   1.346
 1307TIP3    H125480   3.126   0.581   1.377
 1307TIP3    H225481   3.119   0.435   1.413
 1308TIP3   OH225482   3.275   0.519   1.994
 1308TIP3    H125483   3.233   0.596   2.031
 1308TIP3    H225484   3.248   0.519   1.902
 1309TIP3   OH225485   3.960   1.696   1.134
 1309TIP3    H125486   4.014   1.755   1.186
 1309TIP3    H225487   3.926   1.632   1.196
 1310TIP3   OH225488   2.890   1.676   6.333
 1310TIP3    H125489   2.884   1.583   6.309
 1310TIP3    H225490   2.918   1.676   6.424
 1311TIP3   OH225491   0.935   1.044   1.465
 1311TIP3    H125492   0.986   1.111   1.511
 1311TIP3    H225493   0.874   1.095   1.411
 1312TIP3   OH225494   0.727   2.261   7.271
 1312TIP3    H125495   0.748   2.251   7.178
 1312TIP3    H225496   0.718   2.356   7.283
 1313TIP3   OH225497   6.520   2.588   1.519
 1313TIP3    H125498   6.525   2.494   1.503
 1313TIP3    H225499   6.495   2.596   1.611
 1314TIP3   OH225500   3.311   4.174   0.522
 1314TIP3    H125501   3.225   4.216   0.523
 1314TIP3    H225502   3.362   4.226   0.460
 1315TIP3   OH225503   6.516   2.393   8.713
 1315TIP3    H125504   6.574   2.358   8.780
 1315TIP3    H225505   6.482   2.316   8.667
 1316TIP3   OH225506   2.929   5.756   2.200
 1316TIP3    H125507   2.949   5.742   2.293
 1316TIP3    H225508   3.013   5.746   2.156
 1317TIP3   OH225509   3.257   0.848   0.758
 1317TIP3    H125510   3.325   0.895   0.710
 1317TIP3    H225511   3.299   0.767   0.787
 1318TIP3   OH225512   0.397   4.213   1.551
 1318TIP3    H125513   0.331   4.262   1.598
 1318TIP3    H225514   0.410   4.262   1.469
 1319TIP3   OH225515   1.284   4.746   1.117
 1319TIP3    H125516   1.325   4.791   1.043
 1319TIP3    H225517   1.330   4.662   1.123
 1320TIP3   OH225518   5.918   3.456   8.437
 1320TIP3    H125519   5.854   3.528   8.436
 1320TIP3    H225520   5.876   3.386   8.386
 1321TIP3   OH225521   2.228   4.565   6.743
 1321TIP3    H125522   2.154   4.584   6.800
 1321TIP3    H225523   2.281   4.645   6.745
 1322TIP3   OH225524   1.892   3.546   1.361
 1322TIP3    H125525   1.823   3.498   1.315
 1322TIP3    H225526   1.931   3.601   1.294
 1323TIP3   OH225527   6.275   4.541   0.460
 1323TIP3    H125528   6.238   4.630   0.463
 1323TIP3    H225529   6.323   4.538   0.378
 1324TIP3   OH225530   5.862   6.156   1.523
 1324TIP3    H125531   5.893   6.236   1.479
 1324TIP3    H225532   5.897   6.085   1.470
 1325TIP3   OH225533   5.757   1.368   7.345
 1325TIP3    H125534   5.785   1.459   7.337
 1325TIP3    H225535   5.689   1.357   7.279
 1326TIP3   OH225536   1.006   6.531   1.631
 1326TIP3    H125537   1.000   6.547   1.725
 1326TIP3    H225538   1.094   6.497   1.618
 1327TIP3   OH225539   5.962   0.492   8.782
 1327TIP3    H125540   5.982   0.547   8.707
 1327TIP3    H225541   6.028   0.422   8.778
 1328TIP3   OH225542   6.086   0.924   0.773
 1328TIP3    H125543   6.119   1.009   0.802
 1328TIP3    H225544   5.994   0.941   0.750
 1329TIP3   OH225545   2.949   3.856   6.709
 1329TIP3    H125546   2.928   3.881   6.619
 1329TIP3    H225547   2.868   3.874   6.758
 1330TIP3   OH225548   0.920   3.163   0.332
 1330TIP3    H125549   0.867   3.223   0.384
 1330TIP3    H225550   0.919   3.081   0.382
 1331TIP3   OH225551   0.307   0.452   7.796
 1331TIP3    H125552   0.234   0.472   7.854
 1331TIP3    H225553   0.269   0.395   7.729
 1332TIP3   OH225554   4.725   0.515   7.513
 1332TIP3    H125555   4.798   0.455   7.520
 1332TIP3    H225556   4.653   0.472   7.560
 1333TIP3   OH225557   1.021   1.123   6.528
 1333TIP3    H125558   0.944   1.178   6.522
 1333TIP3    H225559   1.089   1.180   6.564
 1334TIP3   OH225560   0.889   4.401   8.071
 1334TIP3    H125561   0.866   4.312   8.044
 1334TIP3    H225562   0.961   4.426   8.013
 1335TIP3   OH225563   2.131   6.511   1.640
 1335TIP3    H125564   2.173   6.446   1.697
 1335TIP3    H225565   2.108   6.462   1.561
 1336TIP3   OH225566   0.806   6.641   6.574
 1336TIP3    H125567   0.712   6.650   6.557
 1336TIP3    H225568   0.835   6.572   6.516
 1337TIP3   OH225569   1.478   2.940   0.125
 1337TIP3    H125570   1.408   2.923   0.062
 1337TIP3    H225571   1.432   2.967   0.205
 1338TIP3   OH225572   1.250   5.412   1.840
 1338TIP3    H125573   1.194   5.379   1.910
 1338TIP3    H225574   1.323   5.350   1.837
 1339TIP3   OH225575   1.524   5.332   0.664
 1339TIP3    H125576   1.609   5.300   0.635
 1339TIP3    H225577   1.535   5.354   0.756
 1340TIP3   OH225578   5.933   3.594   0.139
 1340TIP3    H125579   5.872   3.630   0.203
 1340TIP3    H225580   6.017   3.594   0.184
 1341TIP3   OH225581   3.691   3.865   1.467
 1341TIP3    H125582   3.723   3.795   1.524
 1341TIP3    H225583   3.662   3.819   1.388
 1342TIP3   OH225584   3.182   0.141   8.636
 1342TIP3    H125585   3.164   0.210   8.700
 1342TIP3    H225586   3.097   0.099   8.621
 1343TIP3   OH225587   2.524   5.574   8.768
 1343TIP3    H125588   2.601   5.590   8.713
 1343TIP3    H225589   2.497   5.660   8.799
 1344TIP3   OH225590   3.677   6.229   8.084
 1344TIP3    H125591   3.606   6.174   8.051
 1344TIP3    H225592   3.719   6.176   8.152
 1345TIP3   OH225593   2.358   5.013   1.820
 1345TIP3    H125594   2.278   4.968   1.847
 1345TIP3    H225595   2.335   5.058   1.739
 1346TIP3   OH225596   3.818   4.425   1.951
 1346TIP3    H125597   3.799   4.353   2.010
 1346TIP3    H225598   3.734   4.469   1.939
 1347TIP3   OH225599   6.562   2.444   7.328
 1347TIP3    H125600   6.615   2.392   7.389
 1347TIP3    H225601   6.498   2.488   7.384
 1348TIP3   OH225602   1.952   5.329   0.816
 1348TIP3    H125603   1.932   5.299   0.905
 1348TIP3    H225604   1.997   5.412   0.828
 1349TIP3   OH225605   4.821   1.604   6.485
 1349TIP3    H125606   4.880   1.555   6.543
 1349TIP3    H225607   4.758   1.539   6.455
 1350TIP3   OH225608   3.861   1.958   8.264
 1350TIP3    H125609   3.904   1.994   8.187
 1350TIP3    H225610   3.925   1.897   8.301
 1351TIP3   OH225611   2.023   2.194   8.574
 1351TIP3    H125612   1.973   2.186   8.655
 1351TIP3    H225613   1.971   2.252   8.519
 1352TIP3   OH225614   3.737   4.607   8.749
 1352TIP3    H125615   3.823   4.565   8.751
 1352TIP3    H225616   3.756   4.699   8.767
 1353TIP3   OH225617   2.178   5.964   2.323
 1353TIP3    H125618   2.151   6.004   2.407
 1353TIP3    H225619   2.146   6.025   2.257
 1354TIP3   OH225620   2.396   6.231   1.502
 1354TIP3    H125621   2.318   6.198   1.456
 1354TIP3    H225622   2.417   6.161   1.565
 1355TIP3   OH225623   5.835   5.517   2.075
 1355TIP3    H125624   5.824   5.422   2.077
 1355TIP3    H225625   5.772   5.550   2.139
 1356TIP3   OH225626   1.541   1.322   1.355
 1356TIP3    H125627   1.473   1.269   1.396
 1356TIP3    H225628   1.560   1.390   1.419
 1357TIP3   OH225629   4.509   3.719   2.296
 1357TIP3    H125630   4.571   3.769   2.350
 1357TIP3    H225631   4.484   3.780   2.226
 1358TIP3   OH225632   1.049   2.192   7.840
 1358TIP3    H125633   1.068   2.105   7.803
 1358TIP3    H225634   1.022   2.244   7.764
 1359TIP3   OH225635   6.463   6.383   8.472
 1359TIP3    H125636   6.416   6.376   8.389
 1359TIP3    H225637   6.414   6.325   8.532
 1360TIP3   OH225638   2.480   4.134   1.494
 1360TIP3    H125639   2.478   4.228   1.512
 1360TIP3    H225640   2.460   4.093   1.578
 1361TIP3   OH225641   3.520   1.715   8.466
 1361TIP3    H125642   3.550   1.792   8.419
 1361TIP3    H225643   3.596   1.685   8.516
 1362TIP3   OH225644   2.386   0.217   0.667
 1362TIP3    H125645   2.326   0.291   0.655
 1362TIP3    H225646   2.392   0.206   0.761
 1363TIP3   OH225647   4.647   2.906   0.628
 1363TIP3    H125648   4.739   2.914   0.604
 1363TIP3    H225649   4.648   2.873   0.718
 1364TIP3   OH225650   4.275   2.037   1.214
 1364TIP3    H125651   4.266   2.084   1.297
 1364TIP3    H225652   4.315   2.100   1.155
 1365TIP3   OH225653   6.216   0.770   2.569
 1365TIP3    H125654   6.168   0.688   2.583
 1365TIP3    H225655   6.149   0.831   2.537
 1366TIP3   OH225656   3.837   6.429   7.966
 1366TIP3    H125657   3.809   6.337   7.961
 1366TIP3    H225658   3.793   6.471   7.892
 1367TIP3   OH225659   3.566   4.559   6.855
 1367TIP3    H125660   3.650   4.587   6.817
 1367TIP3    H225661   3.583   4.471   6.888
 1368TIP3   OH225662   5.973   3.426   2.421
 1368TIP3    H125663   6.000   3.388   2.504
 1368TIP3    H225664   5.923   3.357   2.378
 1369TIP3   OH225665   1.156   4.134   7.857
 1369TIP3    H125666   1.101   4.062   7.825
 1369TIP3    H225667   1.241   4.094   7.872
 1370TIP3   OH225668   0.938   5.505   8.325
 1370TIP3    H125669   0.858   5.549   8.297
 1370TIP3    H225670   1.008   5.548   8.277
 1371TIP3   OH225671   4.526   0.556   1.477
 1371TIP3    H125672   4.531   0.505   1.557
 1371TIP3    H225673   4.510   0.492   1.408
 1372TIP3   OH225674   3.082   2.103   7.681
 1372TIP3    H125675   3.028   2.122   7.605
 1372TIP3    H225676   3.163   2.153   7.667
 1373TIP3   OH225677   1.992   5.586   7.281
 1373TIP3    H125678   1.940   5.516   7.242
 1373TIP3    H225679   2.083   5.566   7.257
 1374TIP3   OH225680   0.086   3.677   1.982
 1374TIP3    H125681   0.068   3.748   2.043
 1374TIP3    H225682   0.007   3.670   1.928
 1375TIP3   OH225683   3.224   5.068   0.147
 1375TIP3    H125684   3.294   5.017   0.106
 1375TIP3    H225685   3.153   5.005   0.159
 1376TIP3   OH225686   2.056   1.091   7.982
 1376TIP3    H125687   1.965   1.102   7.952
 1376TIP3    H225688   2.108   1.096   7.902
 1377TIP3   OH225689   1.585   1.269   7.696
 1377TIP3    H125690   1.626   1.353   7.676
 1377TIP3    H225691   1.633   1.206   7.643
 1378TIP3   OH225692   1.606   6.648   0.538
 1378TIP3    H125693   1.528   6.678   0.586
 1378TIP3    H225694   1.651   6.589   0.599
 1379TIP3   OH225695   3.640   1.361   8.782
 1379TIP3    H125696   3.660   1.270   8.761
 1379TIP3    H225697   3.644   1.366   0.009
 1380TIP3   OH225698   1.096   4.557   1.183
 1380TIP3    H125699   1.152   4.479   1.182
 1380TIP3    H225700   1.149   4.626   1.144
 1381TIP3   OH225701   3.129   0.927   0.182
 1381TIP3    H125702   3.068   0.857   0.204
 1381TIP3    H225703   3.076   1.006   0.183
 1382TIP3   OH225704   2.105   4.893   1.955
 1382TIP3    H125705   2.055   4.814   1.938
 1382TIP3    H225706   2.082   4.917   2.045
 1383TIP3   OH225707   6.660   0.367   7.861
 1383TIP3    H125708   6.639   0.325   7.778
 1383TIP3    H225709   6.612   0.316   7.927
 1384TIP3   OH225710   1.157   1.793   8.837
 1384TIP3    H125711   1.189   1.704   8.823
 1384TIP3    H225712   1.074   1.781   0.014
 1385TIP3   OH225713   0.565   3.478   5.971
 1385TIP3    H125714   0.656   3.488   5.942
 1385TIP3    H225715   0.545   3.561   6.014
 1386TIP3   OH225716   2.760   4.568   8.436
 1386TIP3    H125717   2.689   4.631   8.446
 1386TIP3    H225718   2.726   4.503   8.374
 1387TIP3   OH225719   2.747   0.748   2.234
 1387TIP3    H125720   2.698   0.770   2.313
 1387TIP3    H225721   2.768   0.832   2.194
 1388TIP3   OH225722   5.325   0.330   0.968
 1388TIP3    H125723   5.356   0.282   0.891
 1388TIP3    H225724   5.286   0.410   0.932
 1389TIP3   OH225725   4.826   2.322   7.090
 1389TIP3    H125726   4.874   2.279   7.161
 1389TIP3    H225727   4.807   2.410   7.123
 1390TIP3   OH225728   0.063   2.579   7.811
 1390TIP3    H125729   0.010   2.642   7.762
 1390TIP3    H225730   0.001   2.534   7.869
 1391TIP3   OH225731   0.855   1.705   8.577
 1391TIP3    H125732   0.907   1.785   8.582
 1391TIP3    H225733   0.919   1.635   8.591
 1392TIP3   OH225734   5.464   5.178   7.883
 1392TIP3    H125735   5.379   5.142   7.858
 1392TIP3    H225736   5.491   5.230   7.807
 1393TIP3   OH225737   0.512   2.907   0.646
 1393TIP3    H125738   0.575   2.916   0.574
 1393TIP3    H225739   0.429   2.887   0.602
 1394TIP3   OH225740   6.139   2.436   6.486
 1394TIP3    H125741   6.047   2.461   6.477
 1394TIP3    H225742   6.158   2.388   6.405
 1395TIP3   OH225743   5.398   5.554   8.459
 1395TIP3    H125744   5.306   5.547   8.433
 1395TIP3    H225745   5.396   5.590   8.547
 1396TIP3   OH225746   5.065   5.029   7.630
 1396TIP3    H125747   5.034   5.010   7.718
 1396TIP3    H225748   4.986   5.056   7.582
 1397TIP3   OH225749   4.738   2.731   0.855
 1397TIP3    H125750   4.770   2.687   0.933
 1397TIP3    H225751   4.817   2.766   0.813
 1398TIP3   OH225752   4.903   5.017   0.323
 1398TIP3    H125753   4.919   4.947   0.259
 1398TIP3    H225754   4.922   5.098   0.275
 1399TIP3   OH225755   0.383   1.784   6.804
 1399TIP3    H125756   0.389   1.787   6.900
 1399TIP3    H225757   0.423   1.701   6.780
 1400TIP3   OH225758   6.447   2.363   6.805
 1400TIP3    H125759   6.513   2.410   6.857
 1400TIP3    H225760   6.443   2.412   6.723
 1401TIP3   OH225761   6.314   0.727   8.050
 1401TIP3    H125762   6.291   0.794   7.985
 1401TIP3    H225763   6.289   0.766   8.134
 1402TIP3   OH225764   6.708   1.235   0.350
 1402TIP3    H125765   6.650   1.217   0.424
 1402TIP3    H225766   6.650   1.234   0.274
 1403TIP3   OH225767   1.385   0.874   8.846
 1403TIP3    H125768   1.429   0.852   0.060
 1403TIP3    H225769   1.314   0.932   0.003
 1404TIP3   OH225770   5.652   5.289   6.725
 1404TIP3    H125771   5.609   5.289   6.639
 1404TIP3    H225772   5.689   5.201   6.733
 1405TIP3   OH225773   3.910   3.160   1.389
 1405TIP3    H125774   3.930   3.127   1.477
 1405TIP3    H225775   3.908   3.255   1.400
 1406TIP3   OH225776   1.393   3.419   8.293
 1406TIP3    H125777   1.408   3.330   8.326
 1406TIP3    H225778   1.410   3.475   8.368
 1407TIP3   OH225779   0.843   2.594   0.496
 1407TIP3    H125780   0.871   2.636   0.415
 1407TIP3    H225781   0.755   2.628   0.511
 1408TIP3   OH225782   4.650   6.737   0.404
 1408TIP3    H125783   4.573   6.793   0.393
 1408TIP3    H225784   4.654   6.685   0.324
 1409TIP3   OH225785   4.708   6.421   2.032
 1409TIP3    H125786   4.690   6.383   2.118
 1409TIP3    H225787   4.780   6.482   2.046
 1410TIP3   OH225788   6.115   5.319   7.995
 1410TIP3    H125789   6.144   5.360   8.077
 1410TIP3    H225790   6.023   5.298   8.010
 1411TIP3   OH225791   1.230   2.879   7.463
 1411TIP3    H125792   1.146   2.842   7.436
 1411TIP3    H225793   1.296   2.824   7.419
 1412TIP3   OH225794   0.797   0.648   7.583
 1412TIP3    H125795   0.759   0.647   7.671
 1412TIP3    H225796   0.891   0.655   7.598
 1413TIP3   OH225797   1.344   2.463   8.109
 1413TIP3    H125798   1.272   2.512   8.149
 1413TIP3    H225799   1.355   2.502   8.022
 1414TIP3   OH225800   6.595   3.125   1.407
 1414TIP3    H125801   6.550   3.185   1.466
 1414TIP3    H225802   6.561   3.148   1.320
 1415TIP3   OH225803   4.019   0.290   0.067
 1415TIP3    H125804   4.040   0.356   0.132
 1415TIP3    H225805   3.942   0.245   0.101
 1416TIP3   OH225806   4.387   1.459   7.466
 1416TIP3    H125807   4.326   1.414   7.525
 1416TIP3    H225808   4.433   1.388   7.422
 1417TIP3   OH225809   1.586   5.021   0.160
 1417TIP3    H125810   1.649   4.949   0.156
 1417TIP3    H225811   1.597   5.067   0.078
 1418TIP3   OH225812   5.273   0.939   2.299
 1418TIP3    H125813   5.249   0.867   2.241
 1418TIP3    H225814   5.367   0.950   2.287
 1419TIP3   OH225815   0.277   1.927   7.824
 1419TIP3    H125816   0.209   1.869   7.857
 1419TIP3    H225817   0.251   1.945   7.733
 1420TIP3   OH225818   1.832   5.883   8.267
 1420TIP3    H125819   1.743   5.913   8.286
 1420TIP3    H225820   1.821   5.791   8.241
 1421TIP3   OH225821   3.284   1.738   0.854
 1421TIP3    H125822   3.217   1.682   0.815
 1421TIP3    H225823   3.321   1.685   0.925
 1422TIP3   OH225824   5.865   6.580   8.170
 1422TIP3    H125825   5.813   6.518   8.222
 1422TIP3    H225826   5.918   6.525   8.113
 1423TIP3   OH225827   5.107   0.838   0.476
 1423TIP3    H125828   5.035   0.788   0.515
 1423TIP3    H225829   5.175   0.773   0.459
 1424TIP3   OH225830   5.368   4.761   1.723
 1424TIP3    H125831   5.364   4.734   1.815
 1424TIP3    H225832   5.277   4.759   1.693
 1425TIP3   OH225833   4.571   0.197   2.713
 1425TIP3    H125834   4.617   0.115   2.733
 1425TIP3    H225835   4.612   0.262   2.769
 1426TIP3   OH225836   0.065   2.434   1.942
 1426TIP3    H125837   0.135   2.464   2.000
 1426TIP3    H225838   0.086   2.471   1.857
 1427TIP3   OH225839   2.619   0.454   7.273
 1427TIP3    H125840   2.548   0.518   7.269
 1427TIP3    H225841   2.645   0.452   7.365
 1428TIP3   OH225842   4.947   2.478   8.176
 1428TIP3    H125843   4.934   2.572   8.188
 1428TIP3    H225844   4.875   2.437   8.225
 1429TIP3   OH225845   3.439   0.913   7.833
 1429TIP3    H125846   3.400   0.834   7.872
 1429TIP3    H225847   3.473   0.883   7.749
 1430TIP3   OH225848   4.840   1.889   8.738
 1430TIP3    H125849   4.749   1.890   8.707
 1430TIP3    H225850   4.859   1.797   8.753
 1431TIP3   OH225851   5.274   4.697   6.940
 1431TIP3    H125852   5.300   4.620   6.991
 1431TIP3    H225853   5.264   4.766   7.005
 1432TIP3   OH225854   0.152   2.126   8.773
 1432TIP3    H125855   0.063   2.106   8.802
 1432TIP3    H225856   0.140   2.184   8.698
 1433TIP3   OH225857   3.616   6.652   1.456
 1433TIP3    H125858   3.630   6.746   1.451
 1433TIP3    H225859   3.702   6.614   1.440
 1434TIP3   OH225860   0.149   6.416   7.659
 1434TIP3    H125861   0.201   6.368   7.594
 1434TIP3    H225862   0.066   6.433   7.614
 1435TIP3   OH225863   4.288   3.713   0.759
 1435TIP3    H125864   4.374   3.713   0.718
 1435TIP3    H225865   4.285   3.632   0.810
 1436TIP3   OH225866   1.521   0.586   1.498
 1436TIP3    H125867   1.610   0.563   1.526
 1436TIP3    H225868   1.531   0.614   1.407
 1437TIP3   OH225869   3.000   3.723   1.894
 1437TIP3    H125870   2.921   3.671   1.884
 1437TIP3    H225871   3.067   3.675   1.845
 1438TIP3   OH225872   4.086   6.209   7.134
 1438TIP3    H125873   4.164   6.248   7.174
 1438TIP3    H225874   4.121   6.156   7.062
 1439TIP3   OH225875   3.654   4.160   7.824
 1439TIP3    H125876   3.691   4.150   7.912
 1439TIP3    H225877   3.597   4.236   7.831
 1440TIP3   OH225878   1.362   5.743   7.866
 1440TIP3    H125879   1.433   5.693   7.908
 1440TIP3    H225880   1.395   5.763   7.779
 1441TIP3   OH225881   3.503   0.793   0.100
 1441TIP3    H125882   3.469   0.774   0.012
 1441TIP3    H225883   3.574   0.731   0.112
 1442TIP3   OH225884   0.140   4.384   7.412
 1442TIP3    H125885   0.190   4.455   7.452
 1442TIP3    H225886   0.128   4.412   7.321
 1443TIP3   OH225887   5.577   2.338   8.089
 1443TIP3    H125888   5.583   2.273   8.159
 1443TIP3    H225889   5.489   2.327   8.054
 1444TIP3   OH225890   2.688   4.287   7.484
 1444TIP3    H125891   2.711   4.255   7.571
 1444TIP3    H225892   2.620   4.352   7.500
 1445TIP3   OH225893   6.655   5.095   0.928
 1445TIP3    H125894   6.703   5.017   0.901
 1445TIP3    H225895   6.634   5.080   1.020
 1446TIP3   OH225896   2.769   2.339   8.691
 1446TIP3    H125897   2.769   2.301   8.779
 1446TIP3    H225898   2.773   2.264   8.633
 1447TIP3   OH225899   1.105   4.828   7.040
 1447TIP3    H125900   1.175   4.804   6.979
 1447TIP3    H225901   1.025   4.795   6.998
 1448TIP3   OH225902   2.991   0.986   8.410
 1448TIP3    H125903   3.047   0.926   8.458
 1448TIP3    H225904   3.048   1.024   8.343
 1449TIP3   OH225905   3.506   6.148   8.351
 1449TIP3    H125906   3.510   6.208   8.277
 1449TIP3    H225907   3.439   6.085   8.328
 1450TIP3   OH225908   6.683   1.494   0.107
 1450TIP3    H125909   6.618   1.537   0.051
 1450TIP3    H225910   6.631   1.459   0.180
 1451TIP3   OH225911   4.485   4.250   7.367
 1451TIP3    H125912   4.418   4.313   7.393
 1451TIP3    H225913   4.442   4.165   7.374
 1452TIP3   OH225914   1.339   2.359   7.788
 1452TIP3    H125915   1.404   2.408   7.739
 1452TIP3    H225916   1.326   2.279   7.736
 1453TIP3   OH225917   5.974   4.026   8.635
 1453TIP3    H125918   6.015   4.035   8.721
 1453TIP3    H225919   5.883   4.049   8.649
 1454TIP3   OH225920   5.990   4.299   7.763
 1454TIP3    H125921   5.943   4.363   7.711
 1454TIP3    H225922   5.984   4.218   7.712
 1455TIP3   OH225923   4.543   3.185   0.389
 1455TIP3    H125924   4.563   3.274   0.360
 1455TIP3    H225925   4.603   3.129   0.340
 1456TIP3   OH225926   3.353   3.919   1.127
 1456TIP3    H125927   3.414   3.980   1.085
 1456TIP3    H225928   3.394   3.834   1.119
 1457TIP3   OH225929   6.354   0.708   0.346
 1457TIP3    H125930   6.444   0.738   0.330
 1457TIP3    H225931   6.330   0.749   0.429
 1458TIP3   OH225932   6.114   5.885   6.956
 1458TIP3    H125933   6.023   5.907   6.937
 1458TIP3    H225934   6.148   5.850   6.874
 1459TIP3   OH225935   1.806   5.500   8.448
 1459TIP3    H125936   1.728   5.555   8.457
 1459TIP3    H225937   1.853   5.511   8.530
 1460TIP3   OH225938   4.241   3.226   0.471
 1460TIP3    H125939   4.214   3.226   0.380
 1460TIP3    H225940   4.278   3.139   0.486
 1461TIP3   OH225941   0.198   4.148   8.422
 1461TIP3    H125942   0.265   4.083   8.403
 1461TIP3    H225943   0.141   4.149   8.345
 1462TIP3   OH225944   4.604   2.134   7.270
 1462TIP3    H125945   4.582   2.138   7.363
 1462TIP3    H225946   4.691   2.093   7.268
 1463TIP3   OH225947   0.804   1.326   1.726
 1463TIP3    H125948   0.723   1.364   1.691
 1463TIP3    H225949   0.801   1.235   1.698
 1464TIP3   OH225950   6.368   2.364   0.155
 1464TIP3    H125951   6.313   2.423   0.103
 1464TIP3    H225952   6.431   2.328   0.093
 1465TIP3   OH225953   3.057   3.785   8.584
 1465TIP3    H125954   3.151   3.802   8.587
 1465TIP3    H225955   3.048   3.713   8.522
 1466TIP3   OH225956   6.617   2.592   6.909
 1466TIP3    H125957   6.611   2.637   6.825
 1466TIP3    H225958   6.619   2.662   6.974
 1467TIP3   OH225959   5.696   6.726   0.006
 1467TIP3    H125960   5.760   6.768   8.817
 1467TIP3    H225961   5.721   6.633   0.005
 1468TIP3   OH225962   5.232   3.091   1.384
 1468TIP3    H125963   5.258   3.099   1.292
 1468TIP3    H225964   5.171   3.163   1.397
 1469TIP3   OH225965   1.019   1.936   0.846
 1469TIP3    H125966   0.993   1.936   0.938
 1469TIP3    H225967   0.947   1.893   0.801
 1470TIP3   OH225968   0.955   3.138   7.428
 1470TIP3    H125969   0.967   3.207   7.494
 1470TIP3    H225970   1.020   3.071   7.451
 1471TIP3   OH225971   5.500   3.027   0.222
 1471TIP3    H125972   5.525   2.938   0.245
 1471TIP3    H225973   5.493   3.026   0.126
 1472TIP3   OH225974   1.761   0.433   1.252
 1472TIP3    H125975   1.847   0.450   1.214
 1472TIP3    H225976   1.777   0.431   1.346
 1473TIP3   OH225977   4.965   5.191   0.116
 1473TIP3    H125978   4.875   5.204   0.086
 1473TIP3    H225979   5.004   5.136   0.048
 1474TIP3   OH225980   6.051   4.981   0.198
 1474TIP3    H125981   6.005   5.028   0.268
 1474TIP3    H225982   6.081   5.049   0.139
 1475TIP3   OH225983   4.276   5.830   8.546
 1475TIP3    H125984   4.346   5.834   8.481
 1475TIP3    H225985   4.294   5.904   8.604
 1476TIP3   OH225986   4.627   4.547   7.329
 1476TIP3    H125987   4.627   4.591   7.414
 1476TIP3    H225988   4.536   4.551   7.300
 1477TIP3   OH225989   5.657   3.144   1.235
 1477TIP3    H125990   5.643   3.057   1.196
 1477TIP3    H225991   5.573   3.188   1.223
 1478TIP3   OH225992   6.546   5.496   8.104
 1478TIP3    H125993   6.526   5.511   8.012
 1478TIP3    H225994   6.461   5.504   8.149
 1479TIP3   OH225995   5.885   3.612   8.739
 1479TIP3    H125996   5.823   3.540   8.729
 1479TIP3    H225997   5.902   3.616   8.833
 1480TIP3   OH225998   3.086   3.942   0.247
 1480TIP3    H125999   3.151   4.012   0.251
 1480TIP3    H226000   3.034   3.962   0.169
 1481TIP3   OH226001   4.428   2.012   2.791
 1481TIP3    H126002   4.410   2.091   2.740
 1481TIP3    H226003   4.523   2.012   2.802
 1482TIP3   OH226004   5.009   2.806   0.935
 1482TIP3    H126005   5.064   2.753   0.993
 1482TIP3    H226006   4.944   2.846   0.993
 1483TIP3   OH226007   3.910   6.273   1.631
 1483TIP3    H126008   3.855   6.287   1.708
 1483TIP3    H226009   3.954   6.356   1.618
 1484TIP3   OH226010   0.688   2.518   1.896
 1484TIP3    H126011   0.731   2.568   1.965
 1484TIP3    H226012   0.617   2.472   1.941
 1485TIP3   OH226013   3.489   4.427   2.178
 1485TIP3    H126014   3.474   4.398   2.269
 1485TIP3    H226015   3.455   4.355   2.125
 1486TIP3   OH226016   3.302   2.619   6.673
 1486TIP3    H126017   3.384   2.594   6.716
 1486TIP3    H226018   3.247   2.541   6.679
 1487TIP3   OH226019   3.226   4.713   8.104
 1487TIP3    H126020   3.164   4.776   8.068
 1487TIP3    H226021   3.287   4.766   8.156
 1488TIP3   OH226022   2.852   0.438   0.897
 1488TIP3    H126023   2.863   0.380   0.973
 1488TIP3    H226024   2.939   0.443   0.859
 1489TIP3   OH226025   4.919   5.878   8.275
 1489TIP3    H126026   4.873   5.920   8.202
 1489TIP3    H226027   4.912   5.785   8.257
 1490TIP3   OH226028   4.688   4.528   1.429
 1490TIP3    H126029   4.658   4.496   1.514
 1490TIP3    H226030   4.727   4.452   1.386
 1491TIP3   OH226031   2.258   5.237   6.897
 1491TIP3    H126032   2.199   5.248   6.822
 1491TIP3    H226033   2.205   5.189   6.961
 1492TIP3   OH226034   0.765   6.724   2.393
 1492TIP3    H126035   0.698   6.748   2.458
 1492TIP3    H226036   0.717   6.677   2.325
 1493TIP3   OH226037   2.676   5.793   7.853
 1493TIP3    H126038   2.619   5.718   7.836
 1493TIP3    H226039   2.619   5.870   7.845
 1494TIP3   OH226040   0.751   2.698   2.087
 1494TIP3    H126041   0.679   2.761   2.084
 1494TIP3    H226042   0.792   2.711   2.172
 1495TIP3   OH226043   4.083   5.576   6.904
 1495TIP3    H126044   4.105   5.669   6.899
 1495TIP3    H226045   4.078   5.558   6.997
 1496TIP3   OH226046   1.249   3.683   0.133
 1496TIP3    H126047   1.230   3.627   0.207
 1496TIP3    H226048   1.344   3.692   0.133
 1497TIP3   OH226049   0.735   4.262   0.194
 1497TIP3    H126050   0.736   4.355   0.217
 1497TIP3    H226051   0.817   4.228   0.227
 1498TIP3   OH226052   1.923   0.099   7.868
 1498TIP3    H126053   1.909   0.089   7.962
 1498TIP3    H226054   1.929   0.010   7.835
 1499TIP3   OH226055   5.342   1.291   1.787
 1499TIP3    H126056   5.324   1.243   1.706
 1499TIP3    H226057   5.434   1.275   1.805
 1500TIP3   OH226058   0.352   2.205   1.999
 1500TIP3    H126059   0.387   2.116   2.008
 1500TIP3    H226060   0.273   2.204   2.053
 1501TIP3   OH226061   1.423   3.127   8.508
 1501TIP3    H126062   1.383   3.107   8.423
 1501TIP3    H226063   1.460   3.044   8.536
 1502TIP3   OH226064   0.165   3.910   1.295
 1502TIP3    H126065   0.090   3.962   1.325
 1502TIP3    H226066   0.155   3.826   1.338
 1503TIP3   OH226067   1.424   1.181   7.037
 1503TIP3    H126068   1.482   1.183   6.961
 1503TIP3    H226069   1.472   1.131   7.103
 1504TIP3   OH226070   1.659   4.680   6.606
 1504TIP3    H126071   1.730   4.745   6.607
 1504TIP3    H226072   1.679   4.623   6.680
 1505TIP3   OH226073   5.429   6.027   8.055
 1505TIP3    H126074   5.495   5.983   8.108
 1505TIP3    H226075   5.479   6.086   7.998
 1506TIP3   OH226076   3.486   6.019   8.696
 1506TIP3    H126077   3.395   6.038   8.672
 1506TIP3    H226078   3.527   6.106   8.700
 1507TIP3   OH226079   4.285   3.137   1.710
 1507TIP3    H126080   4.377   3.161   1.710
 1507TIP3    H226081   4.256   3.151   1.801
 1508TIP3   OH226082   0.875   6.721   7.247
 1508TIP3    H126083   0.838   0.004   7.200
 1508TIP3    H226084   0.967   6.720   7.222
 1509TIP3   OH226085   1.175   6.454   7.806
 1509TIP3    H126086   1.121   6.532   7.793
 1509TIP3    H226087   1.233   6.477   7.878
 1510TIP3   OH226088   3.976   3.833   0.004
 1510TIP3    H126089   3.918   3.905   0.025
 1510TIP3    H226090   4.060   3.874   8.853
 1511TIP3   OH226091   1.290   0.688   6.659
 1511TIP3    H126092   1.362   0.625   6.663
 1511TIP3    H226093   1.318   0.753   6.595
 1512TIP3   OH226094   2.300   3.626   0.093
 1512TIP3    H126095   2.376   3.568   0.085
 1512TIP3    H226096   2.314   3.672   0.176
 1513TIP3   OH226097   0.098   1.268   0.035
 1513TIP3    H126098   0.179   1.218   0.023
 1513TIP3    H226099   0.114   1.321   0.113
 1514TIP3   OH226100   3.127   2.770   1.700
 1514TIP3    H126101   3.072   2.846   1.720
 1514TIP3    H226102   3.163   2.744   1.785
 1515TIP3   OH226103   2.053   4.382   2.592
 1515TIP3    H126104   2.096   4.325   2.655
 1515TIP3    H226105   2.078   4.471   2.619
 1516TIP3   OH226106   1.126   1.352   0.930
 1516TIP3    H126107   1.038   1.317   0.924
 1516TIP3    H226108   1.151   1.340   1.021
 1517TIP3   OH226109   3.380   2.046   1.209
 1517TIP3    H126110   3.347   2.071   1.122
 1517TIP3    H226111   3.473   2.026   1.194
 1518TIP3   OH226112   4.812   3.197   1.426
 1518TIP3    H126113   4.885   3.196   1.488
 1518TIP3    H226114   4.829   3.274   1.371
 1519TIP3   OH226115   1.116   6.164   0.541
 1519TIP3    H126116   1.118   6.085   0.486
 1519TIP3    H226117   1.203   6.203   0.530
 1520TIP3   OH226118   6.137   5.247   1.032
 1520TIP3    H126119   6.100   5.280   1.114
 1520TIP3    H226120   6.226   5.283   1.030
 1521TIP3   OH226121   0.335   3.113   8.126
 1521TIP3    H126122   0.287   3.195   8.125
 1521TIP3    H226123   0.268   3.045   8.118
 1522TIP3   OH226124   3.803   4.098   7.610
 1522TIP3    H126125   3.771   4.152   7.682
 1522TIP3    H226126   3.884   4.060   7.642
 1523TIP3   OH226127   4.282   5.826   8.269
 1523TIP3    H126128   4.301   5.911   8.229
 1523TIP3    H226129   4.368   5.785   8.278
 1524TIP3   OH226130   4.410   5.695   1.686
 1524TIP3    H126131   4.422   5.610   1.729
 1524TIP3    H226132   4.498   5.730   1.676
 1525TIP3   OH226133   3.936   6.370   0.481
 1525TIP3    H126134   3.884   6.325   0.415
 1525TIP3    H226135   4.012   6.314   0.496
 1526TIP3   OH226136   5.084   2.124   1.055
 1526TIP3    H126137   4.995   2.141   1.025
 1526TIP3    H226138   5.075   2.090   1.143
 1527TIP3   OH226139   5.741   1.834   1.034
 1527TIP3    H126140   5.775   1.850   1.121
 1527TIP3    H226141   5.803   1.876   0.975
 1528TIP3   OH226142   5.411   4.267   0.697
 1528TIP3    H126143   5.318   4.288   0.685
 1528TIP3    H226144   5.452   4.351   0.718
 1529TIP3   OH226145   2.323   0.677   1.498
 1529TIP3    H126146   2.240   0.668   1.450
 1529TIP3    H226147   2.390   0.670   1.430
 1530TIP3   OH226148   1.843   2.634   7.776
 1530TIP3    H126149   1.934   2.662   7.779
 1530TIP3    H226150   1.841   2.551   7.823
 1531TIP3   OH226151   3.105   5.525   0.413
 1531TIP3    H126152   3.016   5.561   0.411
 1531TIP3    H226153   3.107   5.471   0.492
 1532TIP3   OH226154   2.703   4.408   8.702
 1532TIP3    H126155   2.706   4.487   8.648
 1532TIP3    H226156   2.722   4.337   8.640
 1533TIP3   OH226157   4.490   0.380   7.622
 1533TIP3    H126158   4.538   0.366   7.704
 1533TIP3    H226159   4.414   0.321   7.629
 1534TIP3   OH226160   1.649   3.214   7.365
 1534TIP3    H126161   1.697   3.182   7.289
 1534TIP3    H226162   1.606   3.137   7.402
 1535TIP3   OH226163   5.633   4.407   7.009
 1535TIP3    H126164   5.614   4.319   7.042
 1535TIP3    H226165   5.722   4.402   6.976
 1536TIP3   OH226166   2.276   6.074   1.975
 1536TIP3    H126167   2.349   6.085   2.035
 1536TIP3    H226168   2.199   6.069   2.032
 1537TIP3   OH226169   5.492   5.882   2.149
 1537TIP3    H126170   5.418   5.872   2.209
 1537TIP3    H226171   5.560   5.825   2.185
 1538TIP3   OH226172   2.847   4.723   8.769
 1538TIP3    H126173   2.837   4.747   8.677
 1538TIP3    H226174   2.940   4.706   8.779
 1539TIP3   OH226175   4.816   5.122   8.139
 1539TIP3    H126176   4.759   5.046   8.144
 1539TIP3    H226177   4.858   5.126   8.225
 1540TIP3   OH226178   1.831   2.059   0.904
 1540TIP3    H126179   1.787   1.975   0.918
 1540TIP3    H226180   1.774   2.123   0.947
 1541TIP3   OH226181   3.427   0.565   0.352
 1541TIP3    H126182   3.475   0.592   0.431
 1541TIP3    H226183   3.388   0.646   0.319
 1542TIP3   OH226184   6.381   5.407   1.383
 1542TIP3    H126185   6.464   5.454   1.375
 1542TIP3    H226186   6.343   5.411   1.296
 1543TIP3   OH226187   3.567   1.490   1.492
 1543TIP3    H126188   3.558   1.579   1.525
 1543TIP3    H226189   3.654   1.488   1.451
 1544TIP3   OH226190   5.345   3.619   7.930
 1544TIP3    H126191   5.349   3.554   7.860
 1544TIP3    H226192   5.434   3.622   7.965
 1545TIP3   OH226193   2.372   2.462   0.786
 1545TIP3    H126194   2.297   2.515   0.762
 1545TIP3    H226195   2.421   2.516   0.848
 1546TIP3   OH226196   0.192   0.508   0.781
 1546TIP3    H126197   0.119   0.532   0.723
 1546TIP3    H226198   0.246   0.587   0.786
 1547TIP3   OH226199   6.094   6.158   8.529
 1547TIP3    H126200   6.103   6.158   8.434
 1547TIP3    H226201   6.182   6.139   8.562
 1548TIP3   OH226202   3.867   2.405   7.664
 1548TIP3    H126203   3.847   2.466   7.735
 1548TIP3    H226204   3.788   2.402   7.611
 1549TIP3   OH226205   6.367   2.539   7.813
 1549TIP3    H126206   6.403   2.626   7.829
 1549TIP3    H226207   6.283   2.539   7.859
 1550TIP3   OH226208   2.156   1.799   7.233
 1550TIP3    H126209   2.128   1.745   7.160
 1550TIP3    H226210   2.124   1.753   7.311
 1551TIP3   OH226211   5.798   1.094   1.276
 1551TIP3    H126212   5.868   1.111   1.339
 1551TIP3    H226213   5.844   1.067   1.196
 1552TIP3   OH226214   5.827   5.219   8.046
 1552TIP3    H126215   5.737   5.190   8.059
 1552TIP3    H226216   5.875   5.182   8.120
 1553TIP3   OH226217   3.718   0.639   0.103
 1553TIP3    H126218   3.740   0.578   0.173
 1553TIP3    H226219   3.790   0.703   0.104
 1554TIP3   OH226220   1.299   3.865   1.299
 1554TIP3    H126221   1.311   3.784   1.348
 1554TIP3    H226222   1.388   3.895   1.280
 1555TIP3   OH226223   0.641   0.125   1.489
 1555TIP3    H126224   0.679   0.188   1.550
 1555TIP3    H226225   0.650   0.040   1.533
 1556TIP3   OH226226   5.767   6.449   7.415
 1556TIP3    H126227   5.792   6.454   7.323
 1556TIP3    H226228   5.830   6.505   7.460
 1557TIP3   OH226229   0.352   4.194   7.186
 1557TIP3    H126230   0.348   4.262   7.118
 1557TIP3    H226231   0.387   4.239   7.263
 1558TIP3   OH226232   2.714   4.412   8.179
 1558TIP3    H126233   2.773   4.439   8.109
 1558TIP3    H226234   2.627   4.420   8.141
 1559TIP3   OH226235   2.246   3.598   1.344
 1559TIP3    H126236   2.242   3.682   1.299
 1559TIP3    H226237   2.215   3.534   1.279
 1560TIP3   OH226238   3.945   1.364   7.554
 1560TIP3    H126239   3.867   1.419   7.552
 1560TIP3    H226240   4.000   1.398   7.484
 1561TIP3   OH226241   1.480   4.448   1.937
 1561TIP3    H126242   1.450   4.388   1.870
 1561TIP3    H226243   1.564   4.482   1.904
 1562TIP3   OH226244   6.757   5.122   0.644
 1562TIP3    H126245   6.750   5.168   0.728
 1562TIP3    H226246   6.745   5.030   0.667
 1563TIP3   OH226247   4.382   5.383   8.035
 1563TIP3    H126248   4.412   5.312   8.091
 1563TIP3    H226249   4.385   5.346   7.946
 1564TIP3   OH226250   2.186   0.208   7.941
 1564TIP3    H126251   2.114   0.146   7.952
 1564TIP3    H226252   2.243   0.167   7.876
 1565TIP3   OH226253   2.291   4.857   2.349
 1565TIP3    H126254   2.250   4.942   2.367
 1565TIP3    H226255   2.385   4.875   2.353
 1566TIP3   OH226256   5.875   0.687   1.296
 1566TIP3    H126257   5.800   0.630   1.306
 1566TIP3    H226258   5.877   0.739   1.377
 1567TIP3   OH226259   2.207   6.634   7.704
 1567TIP3    H126260   2.212   6.688   7.783
 1567TIP3    H226261   2.277   6.569   7.715
 1568TIP3   OH226262   3.635   1.599   0.142
 1568TIP3    H126263   3.713   1.648   0.169
 1568TIP3    H226264   3.605   1.557   0.223
 1569TIP3   OH226265   4.114   3.393   0.638
 1569TIP3    H126266   4.110   3.477   0.594
 1569TIP3    H226267   4.164   3.336   0.579
 1570TIP3   OH226268   4.400   0.327   1.031
 1570TIP3    H126269   4.313   0.287   1.028
 1570TIP3    H226270   4.430   0.325   0.940
 1571TIP3   OH226271   5.137   5.347   7.993
 1571TIP3    H126272   5.050   5.384   7.979
 1571TIP3    H226273   5.196   5.408   7.948
 1572TIP3   OH226274   5.514   3.643   0.727
 1572TIP3    H126275   5.423   3.666   0.747
 1572TIP3    H226276   5.529   3.564   0.779
 1573TIP3   OH226277   5.103   2.587   2.003
 1573TIP3    H126278   5.174   2.639   2.042
 1573TIP3    H226279   5.059   2.547   2.077
 1574TIP3   OH226280   1.665   5.327   7.259
 1574TIP3    H126281   1.611   5.380   7.200
 1574TIP3    H226282   1.715   5.270   7.201
 1575TIP3   OH226283   4.475   3.539   8.192
 1575TIP3    H126284   4.431   3.624   8.193
 1575TIP3    H226285   4.520   3.537   8.107
 1576TIP3   OH226286   5.848   2.335   6.758
 1576TIP3    H126287   5.754   2.352   6.768
 1576TIP3    H226288   5.881   2.410   6.708
 1577TIP3   OH226289   0.794   5.541   0.761
 1577TIP3    H126290   0.786   5.621   0.813
 1577TIP3    H226291   0.731   5.551   0.690
 1578TIP3   OH226292   6.205   2.730   0.198
 1578TIP3    H126293   6.164   2.645   0.184
 1578TIP3    H226294   6.206   2.741   0.293
 1579TIP3   OH226295   3.338   0.800   6.799
 1579TIP3    H126296   3.432   0.802   6.783
 1579TIP3    H226297   3.299   0.806   6.712
 1580TIP3   OH226298   4.952   0.777   1.076
 1580TIP3    H126299   4.993   0.854   1.116
 1580TIP3    H226300   5.009   0.704   1.101
 1581TIP3   OH226301   3.592   3.149   7.030
 1581TIP3    H126302   3.607   3.223   6.971
 1581TIP3    H226303   3.679   3.128   7.065
 1582TIP3   OH226304   0.590   1.098   7.096
 1582TIP3    H126305   0.679   1.065   7.093
 1582TIP3    H226306   0.534   1.020   7.099
 1583TIP3   OH226307   0.222   2.423   8.311
 1583TIP3    H126308   0.186   2.374   8.237
 1583TIP3    H226309   0.146   2.467   8.350
 1584TIP3   OH226310   5.727   3.295   0.546
 1584TIP3    H126311   5.728   3.268   0.454
 1584TIP3    H226312   5.690   3.383   0.544
 1585TIP3   OH226313   2.660   5.861   1.268
 1585TIP3    H126314   2.741   5.906   1.295
 1585TIP3    H226315   2.620   5.920   1.205
 1586TIP3   OH226316   5.168   1.664   0.752
 1586TIP3    H126317   5.090   1.709   0.781
 1586TIP3    H226318   5.239   1.702   0.804
 1587TIP3   OH226319   2.667   1.260   0.029
 1587TIP3    H126320   2.709   1.315   8.831
 1587TIP3    H226321   2.629   1.187   8.848
 1588TIP3   OH226322   5.355   1.679   1.439
 1588TIP3    H126323   5.338   1.720   1.523
 1588TIP3    H226324   5.323   1.741   1.374
 1589TIP3   OH226325   6.410   1.224   8.570
 1589TIP3    H126326   6.377   1.156   8.629
 1589TIP3    H226327   6.430   1.298   8.628
 1590TIP3   OH226328   3.958   1.237   1.040
 1590TIP3    H126329   4.018   1.170   1.074
 1590TIP3    H226330   4.013   1.292   0.984
 1591TIP3   OH226331   5.274   2.661   0.886
 1591TIP3    H126332   5.216   2.699   0.820
 1591TIP3    H226333   5.251   2.568   0.887
 1592TIP3   OH226334   0.243   2.230   0.840
 1592TIP3    H126335   0.188   2.301   0.871
 1592TIP3    H226336   0.332   2.257   0.863
 1593TIP3   OH226337   2.667   1.411   8.328
 1593TIP3    H126338   2.669   1.430   8.235
 1593TIP3    H226339   2.620   1.485   8.367
 1594TIP3   OH226340   1.842   2.352   6.748
 1594TIP3    H126341   1.794   2.275   6.717
 1594TIP3    H226342   1.933   2.323   6.756
 1595TIP3   OH226343   5.301   6.340   6.941
 1595TIP3    H126344   5.252   6.386   6.873
 1595TIP3    H226345   5.379   6.308   6.895
 1596TIP3   OH226346   6.037   6.366   7.514
 1596TIP3    H126347   6.068   6.392   7.601
 1596TIP3    H226348   5.988   6.286   7.528
 1597TIP3   OH226349   0.108   2.033   7.019
 1597TIP3    H126350   0.038   1.968   7.025
 1597TIP3    H226351   0.109   2.058   6.926
 1598TIP3   OH226352   0.541   1.405   1.680
 1598TIP3    H126353   0.463   1.354   1.661
 1598TIP3    H226354   0.508   1.492   1.701
 1599TIP3   OH226355   2.956   4.032   0.844
 1599TIP3    H126356   2.957   3.960   0.780
 1599TIP3    H226357   3.018   4.005   0.911
 1600TIP3   OH226358   4.120   2.913   1.638
 1600TIP3    H126359   4.044   2.969   1.656
 1600TIP3    H226360   4.195   2.967   1.662
 1601TIP3   OH226361   5.817   2.426   0.324
 1601TIP3    H126362   5.814   2.340   0.367
 1601TIP3    H226363   5.727   2.440   0.294
 1602TIP3   OH226364   4.935   6.348   8.227
 1602TIP3    H126365   4.918   6.282   8.159
 1602TIP3    H226366   4.885   6.318   8.303
 1603TIP3   OH226367   0.549   1.987   7.737
 1603TIP3    H126368   0.466   2.010   7.778
 1603TIP3    H226369   0.539   1.897   7.709
 1604TIP3   OH226370   2.300   1.591   1.550
 1604TIP3    H126371   2.273   1.678   1.522
 1604TIP3    H226372   2.232   1.563   1.611
 1605TIP3   OH226373   1.188   4.046   1.933
 1605TIP3    H126374   1.097   4.025   1.913
 1605TIP3    H226375   1.198   4.023   2.026
 1606TIP3   OH226376   3.269   6.231   1.235
 1606TIP3    H126377   3.254   6.322   1.209
 1606TIP3    H226378   3.302   6.188   1.156
 1607TIP3   OH226379   1.151   0.652   8.585
 1607TIP3    H126380   1.071   0.615   8.623
 1607TIP3    H226381   1.203   0.575   8.560
 1608TIP3   OH226382   0.285   6.299   1.570
 1608TIP3    H126383   0.210   6.335   1.522
 1608TIP3    H226384   0.349   6.370   1.570
 1609TIP3   OH226385   4.698   1.882   6.420
 1609TIP3    H126386   4.734   1.818   6.358
 1609TIP3    H226387   4.755   1.875   6.497
 1610TIP3   OH226388   0.228   2.586   1.127
 1610TIP3    H126389   0.197   2.501   1.159
 1610TIP3    H226390   0.149   2.633   1.101
 1611TIP3   OH226391   0.347   1.124   0.000
 1611TIP3    H126392   0.372   1.036   8.839
 1611TIP3    H226393   0.421   1.179   8.845
 1612TIP3   OH226394   2.389   0.596   7.220
 1612TIP3    H126395   2.324   0.658   7.253
 1612TIP3    H226396   2.338   0.522   7.188
 1613TIP3   OH226397   0.499   0.017   6.769
 1613TIP3    H126398   0.581   0.043   6.725
 1613TIP3    H226399   0.527   6.752   6.840
 1614TIP3   OH226400   2.435   6.386   8.060
 1614TIP3    H126401   2.436   6.430   7.975
 1614TIP3    H226402   2.365   6.322   8.054
 1615TIP3   OH226403   4.687   5.362   0.354
 1615TIP3    H126404   4.775   5.373   0.390
 1615TIP3    H226405   4.638   5.318   0.423
 1616TIP3   OH226406   5.390   3.098   7.097
 1616TIP3    H126407   5.472   3.117   7.143
 1616TIP3    H226408   5.322   3.136   7.153
 1617TIP3   OH226409   1.917   0.037   8.144
 1617TIP3    H126410   1.921   0.056   8.237
 1617TIP3    H226411   1.941   6.738   8.136
 1618TIP3   OH226412   5.968   1.000   0.299
 1618TIP3    H126413   5.911   0.948   0.242
 1618TIP3    H226414   5.938   0.980   0.388
 1619TIP3   OH226415   1.171   1.423   8.846
 1619TIP3    H126416   1.220   1.342   8.837
 1619TIP3    H226417   1.216   1.485   8.789
 1620TIP3   OH226418   6.265   4.101   0.317
 1620TIP3    H126419   6.171   4.103   0.302
 1620TIP3    H226420   6.283   4.180   0.369
 1621TIP3   OH226421   0.211   0.625   7.169
 1621TIP3    H126422   0.252   0.698   7.216
 1621TIP3    H226423   0.237   0.547   7.219
 1622TIP3   OH226424   4.388   3.250   6.527
 1622TIP3    H126425   4.368   3.174   6.581
 1622TIP3    H226426   4.418   3.317   6.589
 1623TIP3   OH226427   2.320   1.679   1.913
 1623TIP3    H126428   2.377   1.615   1.871
 1623TIP3    H226429   2.271   1.629   1.978
 1624TIP3   OH226430   1.649   6.689   8.534
 1624TIP3    H126431   1.706   6.657   8.604
 1624TIP3    H226432   1.625   6.777   8.562
 1625TIP3   OH226433   3.819   6.100   0.588
 1625TIP3    H126434   3.882   6.028   0.596
 1625TIP3    H226435   3.795   6.120   0.679
 1626TIP3   OH226436   0.513   3.631   1.099
 1626TIP3    H126437   0.533   3.579   1.021
 1626TIP3    H226438   0.543   3.719   1.076
 1627TIP3   OH226439   1.338   2.997   0.369
 1627TIP3    H126440   1.312   2.928   0.430
 1627TIP3    H226441   1.336   3.077   0.421
 1628TIP3   OH226442   2.591   1.634   1.529
 1628TIP3    H126443   2.632   1.553   1.561
 1628TIP3    H226444   2.504   1.634   1.569
 1629TIP3   OH226445   0.614   3.790   8.426
 1629TIP3    H126446   0.582   3.706   8.458
 1629TIP3    H226447   0.640   3.838   8.504
 1630TIP3   OH226448   6.146   3.861   7.900
 1630TIP3    H126449   6.090   3.905   7.963
 1630TIP3    H226450   6.086   3.809   7.847
 1631TIP3   OH226451   1.582   1.484   1.149
 1631TIP3    H126452   1.666   1.526   1.166
 1631TIP3    H226453   1.574   1.418   1.218
 1632TIP3   OH226454   3.294   3.953   8.821
 1632TIP3    H126455   3.199   3.938   8.828
 1632TIP3    H226456   3.322   3.897   8.749
 1633TIP3   OH226457   1.398   4.545   7.866
 1633TIP3    H126458   1.421   4.504   7.783
 1633TIP3    H226459   1.434   4.487   7.933
 1634TIP3   OH226460   4.398   4.200   1.721
 1634TIP3    H126461   4.323   4.252   1.691
 1634TIP3    H226462   4.474   4.243   1.682
 1635TIP3   OH226463   2.352   6.053   7.582
 1635TIP3    H126464   2.340   5.958   7.575
 1635TIP3    H226465   2.263   6.089   7.583
 1636TIP3   OH226466   6.713   1.841   8.613
 1636TIP3    H126467   6.699   1.901   8.540
 1636TIP3    H226468   0.014   1.825   8.614
 1637TIP3   OH226469   2.175   4.618   2.668
 1637TIP3    H126470   2.245   4.589   2.610
 1637TIP3    H226471   2.147   4.702   2.631
 1638TIP3   OH226472   3.959   5.753   2.212
 1638TIP3    H126473   3.975   5.744   2.306
 1638TIP3    H226474   3.901   5.681   2.191
 1639TIP3   OH226475   1.398   5.222   1.573
 1639TIP3    H126476   1.441   5.282   1.512
 1639TIP3    H226477   1.428   5.251   1.659
 1640TIP3   OH226478   5.165   6.241   2.491
 1640TIP3    H126479   5.175   6.174   2.558
 1640TIP3    H226480   5.100   6.302   2.526
 1641TIP3   OH226481   2.207   5.683   0.452
 1641TIP3    H126482   2.266   5.704   0.524
 1641TIP3    H226483   2.263   5.646   0.384
 1642TIP3   OH226484   5.938   4.433   1.887
 1642TIP3    H126485   5.899   4.346   1.877
 1642TIP3    H226486   6.030   4.420   1.864
 1643TIP3   OH226487   4.665   1.214   1.958
 1643TIP3    H126488   4.585   1.196   2.007
 1643TIP3    H226489   4.637   1.217   1.866
 1644TIP3   OH226490   6.393   2.626   1.776
 1644TIP3    H126491   6.397   2.698   1.839
 1644TIP3    H226492   6.457   2.563   1.809
 1645TIP3   OH226493   4.712   6.278   8.385
 1645TIP3    H126494   4.656   6.313   8.316
 1645TIP3    H226495   4.659   6.208   8.425
 1646TIP3   OH226496   2.111   5.125   7.085
 1646TIP3    H126497   2.017   5.108   7.092
 1646TIP3    H226498   2.149   5.041   7.058
 1647TIP3   OH226499   1.147   3.179   2.234
 1647TIP3    H126500   1.071   3.169   2.291
 1647TIP3    H226501   1.143   3.269   2.203
 1648TIP3   OH226502   2.386   3.083   8.480
 1648TIP3    H126503   2.410   3.104   8.571
 1648TIP3    H226504   2.350   2.995   8.485
 1649TIP3   OH226505   5.880   5.926   7.306
 1649TIP3    H126506   5.805   5.866   7.306
 1649TIP3    H226507   5.857   5.993   7.242
 1650TIP3   OH226508   5.185   4.619   0.079
 1650TIP3    H126509   5.278   4.614   0.101
 1650TIP3    H226510   5.159   4.529   0.061
 1651TIP3   OH226511   6.420   1.852   8.451
 1651TIP3    H126512   6.397   1.912   8.522
 1651TIP3    H226513   6.495   1.892   8.408
 1652TIP3   OH226514   6.681   2.329   7.045
 1652TIP3    H126515   6.676   2.239   7.011
 1652TIP3    H226516   6.598   2.341   7.091
 1653TIP3   OH226517   2.845   3.910   6.418
 1653TIP3    H126518   2.777   3.942   6.478
 1653TIP3    H226519   2.853   3.980   6.353
 1654TIP3   OH226520   0.027   2.516   0.088
 1654TIP3    H126521   0.051   2.583   0.152
 1654TIP3    H226522   0.098   2.517   0.024
 1655TIP3   OH226523   1.003   4.338   8.592
 1655TIP3    H126524   0.975   4.246   8.585
 1655TIP3    H226525   1.021   4.351   8.685
 1656TIP3   OH226526   6.063   2.746   1.034
 1656TIP3    H126527   6.007   2.802   0.979
 1656TIP3    H226528   6.005   2.675   1.063
 1657TIP3   OH226529   4.627   3.493   1.584
 1657TIP3    H126530   4.710   3.496   1.536
 1657TIP3    H226531   4.628   3.573   1.637
 1658TIP3   OH226532   4.783   6.083   6.585
 1658TIP3    H126533   4.812   5.999   6.550
 1658TIP3    H226534   4.688   6.082   6.575
 1659TIP3   OH226535   6.149   4.140   1.034
 1659TIP3    H126536   6.167   4.110   1.124
 1659TIP3    H226537   6.195   4.224   1.028
 1660TIP3   OH226538   5.788   3.548   7.180
 1660TIP3    H126539   5.799   3.590   7.094
 1660TIP3    H226540   5.801   3.619   7.243
 1661TIP3   OH226541   4.897   0.302   0.340
 1661TIP3    H126542   4.859   0.377   0.384
 1661TIP3    H226543   4.919   0.334   0.252
 1662TIP3   OH226544   3.010   6.372   1.023
 1662TIP3    H126545   3.027   6.441   0.959
 1662TIP3    H226546   3.056   6.296   0.988
 1663TIP3   OH226547   3.189   1.024   7.876
 1663TIP3    H126548   3.141   0.957   7.925
 1663TIP3    H226549   3.260   0.976   7.833
 1664TIP3   OH226550   4.695   4.949   6.543
 1664TIP3    H126551   4.623   4.921   6.599
 1664TIP3    H226552   4.774   4.921   6.589
 1665TIP3   OH226553   6.117   2.166   0.085
 1665TIP3    H126554   6.189   2.112   0.053
 1665TIP3    H226555   6.102   2.230   0.015
 1666TIP3   OH226556   3.192   6.526   7.443
 1666TIP3    H126557   3.133   6.572   7.384
 1666TIP3    H226558   3.262   6.589   7.460
 1667TIP3   OH226559   0.904   1.802   0.114
 1667TIP3    H126560   0.825   1.856   0.123
 1667TIP3    H226561   0.877   1.730   0.057
 1668TIP3   OH226562   1.939   6.041   1.859
 1668TIP3    H126563   1.851   6.011   1.884
 1668TIP3    H226564   1.978   6.071   1.941
 1669TIP3   OH226565   6.660   3.418   1.066
 1669TIP3    H126566   6.732   3.461   1.019
 1669TIP3    H226567   6.670   3.446   1.157
 1670TIP3   OH226568   5.827   3.999   8.356
 1670TIP3    H126569   5.859   3.953   8.434
 1670TIP3    H226570   5.856   4.089   8.368
 1671TIP3   OH226571   4.505   2.474   8.238
 1671TIP3    H126572   4.477   2.495   8.327
 1671TIP3    H226573   4.584   2.421   8.250
 1672TIP3   OH226574   0.510   0.435   0.929
 1672TIP3    H126575   0.593   0.403   0.966
 1672TIP3    H226576   0.528   0.448   0.836
 1673TIP3   OH226577   3.772   0.343   8.412
 1673TIP3    H126578   3.838   0.391   8.363
 1673TIP3    H226579   3.709   0.411   8.439
 1674TIP3   OH226580   0.025   2.405   0.510
 1674TIP3    H126581   0.009   2.458   0.588
 1674TIP3    H226582   6.750   2.337   0.512
 1675TIP3   OH226583   6.617   1.254   2.147
 1675TIP3    H126584   6.590   1.321   2.084
 1675TIP3    H226585   6.537   1.234   2.196
 1676TIP3   OH226586   6.787   6.105   1.538
 1676TIP3    H126587   0.039   6.106   1.622
 1676TIP3    H226588   0.064   6.112   1.473
 1677TIP3   OH226589   6.336   6.273   0.354
 1677TIP3    H126590   6.365   6.307   0.270
 1677TIP3    H226591   6.284   6.196   0.333
 1678TIP3   OH226592   0.067   2.915   5.985
 1678TIP3    H126593   0.144   2.943   5.936
 1678TIP3    H226594   0.102   2.871   6.062
 1679TIP3   OH226595   0.611   4.746   1.774
 1679TIP3    H126596   0.633   4.804   1.847
 1679TIP3    H226597   0.516   4.752   1.766
 1680TIP3   OH226598   3.862   0.050   0.653
 1680TIP3    H126599   3.956   0.042   0.634
 1680TIP3    H226600   3.832   6.753   0.664
 1681TIP3   OH226601   3.391   6.023   7.549
 1681TIP3    H126602   3.397   5.928   7.554
 1681TIP3    H226603   3.433   6.054   7.629
 1682TIP3   OH226604   5.872   4.649   1.702
 1682TIP3    H126605   5.907   4.737   1.716
 1682TIP3    H226606   5.928   4.593   1.756
 1683TIP3   OH226607   2.657   3.015   2.881
 1683TIP3    H126608   2.719   2.944   2.891
 1683TIP3    H226609   2.590   2.981   2.821
 1684TIP3   OH226610   5.428   6.631   1.015
 1684TIP3    H126611   5.388   6.676   0.941
 1684TIP3    H226612   5.487   6.567   0.975
 1685TIP3   OH226613   3.246   4.445   8.112
 1685TIP3    H126614   3.169   4.436   8.168
 1685TIP3    H226615   3.260   4.540   8.106
 1686TIP3   OH226616   3.998   6.474   8.289
 1686TIP3    H126617   3.932   6.543   8.300
 1686TIP3    H226618   4.057   6.486   8.363
 1687TIP3   OH226619   1.619   4.979   1.116
 1687TIP3    H126620   1.686   5.005   1.053
 1687TIP3    H226621   1.540   5.024   1.086
 1688TIP3   OH226622   4.584   1.347   7.775
 1688TIP3    H126623   4.570   1.254   7.796
 1688TIP3    H226624   4.507   1.370   7.722
 1689TIP3   OH226625   5.626   0.617   0.095
 1689TIP3    H126626   5.663   0.551   0.036
 1689TIP3    H226627   5.593   0.684   0.036
 1690TIP3   OH226628   4.212   3.976   7.136
 1690TIP3    H126629   4.271   3.933   7.074
 1690TIP3    H226630   4.143   3.912   7.154
 1691TIP3   OH226631   0.736   2.367   1.441
 1691TIP3    H126632   0.777   2.281   1.446
 1691TIP3    H226633   0.776   2.417   1.512
 1692TIP3   OH226634   2.379   2.025   2.676
 1692TIP3    H126635   2.457   1.990   2.720
 1692TIP3    H226636   2.374   2.116   2.704
 1693TIP3   OH226637   1.046   6.045   1.913
 1693TIP3    H126638   1.037   6.110   1.982
 1693TIP3    H226639   1.100   5.976   1.951
 1694TIP3   OH226640   3.369   4.282   7.617
 1694TIP3    H126641   3.306   4.294   7.689
 1694TIP3    H226642   3.424   4.360   7.620
 1695TIP3   OH226643   4.389   5.391   0.707
 1695TIP3    H126644   4.469   5.346   0.680
 1695TIP3    H226645   4.382   5.374   0.801
 1696TIP3   OH226646   2.628   3.128   7.371
 1696TIP3    H126647   2.597   3.064   7.435
 1696TIP3    H226648   2.611   3.087   7.286
 1697TIP3   OH226649   1.155   1.759   7.834
 1697TIP3    H126650   1.133   1.739   7.925
 1697TIP3    H226651   1.070   1.762   7.789
 1698TIP3   OH226652   4.749   1.916   1.134
 1698TIP3    H126653   4.761   1.981   1.065
 1698TIP3    H226654   4.746   1.968   1.215
 1699TIP3   OH226655   6.380   3.864   7.386
 1699TIP3    H126656   6.394   3.769   7.390
 1699TIP3    H226657   6.404   3.895   7.473
 1700TIP3   OH226658   5.052   3.236   1.913
 1700TIP3    H126659   5.028   3.316   1.866
 1700TIP3    H226660   4.990   3.231   1.986
 1701TIP3   OH226661   2.891   3.543   1.641
 1701TIP3    H126662   2.960   3.603   1.669
 1701TIP3    H226663   2.852   3.511   1.722
 1702TIP3   OH226664   4.374   3.560   0.420
 1702TIP3    H126665   4.293   3.577   0.467
 1702TIP3    H226666   4.442   3.602   0.473
 1703TIP3   OH226667   3.747   6.378   8.374
 1703TIP3    H126668   3.781   6.295   8.340
 1703TIP3    H226669   3.747   6.437   8.298
 1704TIP3   OH226670   6.020   1.981   8.284
 1704TIP3    H126671   5.952   1.961   8.220
 1704TIP3    H226672   6.014   1.911   8.349
 1705TIP3   OH226673   0.866   0.269   0.192
 1705TIP3    H126674   0.865   0.197   0.129
 1705TIP3    H226675   0.780   0.266   0.234
 1706TIP3   OH226676   5.268   2.053   7.654
 1706TIP3    H126677   5.233   2.069   7.741
 1706TIP3    H226678   5.281   1.958   7.650
 1707TIP3   OH226679   5.652   0.987   8.777
 1707TIP3    H126680   5.603   0.907   8.759
 1707TIP3    H226681   5.683   0.976   8.867
 1708TIP3   OH226682   5.581   6.716   6.556
 1708TIP3    H126683   5.645   6.678   6.616
 1708TIP3    H226684   5.558   0.007   6.595
 1709TIP3   OH226685   3.279   6.640   0.127
 1709TIP3    H126686   3.319   6.726   0.141
 1709TIP3    H226687   3.318   6.584   0.195
 1710TIP3   OH226688   1.401   6.562   7.973
 1710TIP3    H126689   1.464   6.581   7.904
 1710TIP3    H226690   1.386   6.646   8.016
 1711TIP3   OH226691   2.141   4.545   7.424
 1711TIP3    H126692   2.089   4.598   7.484
 1711TIP3    H226693   2.184   4.608   7.366
 1712TIP3   OH226694   2.675   1.134   8.275
 1712TIP3    H126695   2.667   1.228   8.292
 1712TIP3    H226696   2.744   1.127   8.210
 1713TIP3   OH226697   6.408   6.419   7.836
 1713TIP3    H126698   6.414   6.468   7.918
 1713TIP3    H226699   6.499   6.400   7.813
 1714TIP3   OH226700   5.131   0.361   7.846
 1714TIP3    H126701   5.100   0.450   7.858
 1714TIP3    H226702   5.066   0.320   7.788
 1715TIP3   OH226703   4.018   5.889   0.612
 1715TIP3    H126704   3.999   5.890   0.706
 1715TIP3    H226705   4.005   5.798   0.586
 1716TIP3   OH226706   2.226   0.216   2.375
 1716TIP3    H126707   2.218   0.130   2.334
 1716TIP3    H226708   2.209   0.278   2.305
 1717TIP3   OH226709   0.255   4.011   2.098
 1717TIP3    H126710   0.223   4.043   2.013
 1717TIP3    H226711   0.183   3.961   2.134
 1718TIP3   OH226712   1.241   1.529   8.508
 1718TIP3    H126713   1.317   1.573   8.547
 1718TIP3    H226714   1.256   1.534   8.414
 1719TIP3   OH226715   0.201   4.651   7.973
 1719TIP3    H126716   0.195   4.555   7.972
 1719TIP3    H226717   0.210   4.675   7.881
 1720TIP3   OH226718   0.138   6.369   8.690
 1720TIP3    H126719   0.064   6.401   8.639
 1720TIP3    H226720   0.205   6.348   8.625
 1721TIP3   OH226721   5.390   0.432   8.806
 1721TIP3    H126722   5.347   0.430   8.721
 1721TIP3    H226723   5.365   0.517   8.844
 1722TIP3   OH226724   6.788   3.493   0.458
 1722TIP3    H126725   6.708   3.445   0.435
 1722TIP3    H226726   6.759   3.583   0.469
 1723TIP3   OH226727   2.558   0.730   1.297
 1723TIP3    H126728   2.565   0.712   1.203
 1723TIP3    H226729   2.630   0.790   1.316
 1724TIP3   OH226730   5.905   1.766   6.881
 1724TIP3    H126731   5.869   1.719   6.806
 1724TIP3    H226732   5.998   1.777   6.861
 1725TIP3   OH226733   0.121   3.411   2.036
 1725TIP3    H126734   0.122   3.503   2.008
 1725TIP3    H226735   0.034   3.398   2.072
 1726TIP3   OH226736   5.924   5.033   1.549
 1726TIP3    H126737   5.929   4.982   1.630
 1726TIP3    H226738   6.013   5.032   1.515
 1727TIP3   OH226739   2.459   6.467   7.333
 1727TIP3    H126740   2.426   6.467   7.243
 1727TIP3    H226741   2.420   6.389   7.373
 1728TIP3   OH226742   4.506   1.776   7.785
 1728TIP3    H126743   4.412   1.764   7.772
 1728TIP3    H226744   4.513   1.825   7.867
 1729TIP3   OH226745   6.769   5.352   8.651
 1729TIP3    H126746   0.065   5.316   8.650
 1729TIP3    H226747   6.779   5.441   8.618
 1730TIP3   OH226748   0.656   3.988   0.648
 1730TIP3    H126749   0.716   4.039   0.594
 1730TIP3    H226750   0.610   3.932   0.586
 1731TIP3   OH226751   1.074   5.826   1.024
 1731TIP3    H126752   1.008   5.885   1.060
 1731TIP3    H226753   1.043   5.738   1.046
 1732TIP3   OH226754   3.716   4.458   7.137
 1732TIP3    H126755   3.642   4.406   7.168
 1732TIP3    H226756   3.742   4.415   7.055
 1733TIP3   OH226757   6.384   1.696   7.918
 1733TIP3    H126758   6.385   1.759   7.991
 1733TIP3    H226759   6.401   1.611   7.959
 1734TIP3   OH226760   3.788   0.483   1.710
 1734TIP3    H126761   3.869   0.476   1.660
 1734TIP3    H226762   3.799   0.422   1.783
 1735TIP3   OH226763   5.986   6.243   6.917
 1735TIP3    H126764   6.034   6.180   6.863
 1735TIP3    H226765   6.054   6.290   6.965
 1736TIP3   OH226766   6.090   6.116   8.253
 1736TIP3    H126767   6.079   6.117   8.158
 1736TIP3    H226768   6.024   6.055   8.284
 1737TIP3   OH226769   6.400   3.757   0.169
 1737TIP3    H126770   6.364   3.755   0.257
 1737TIP3    H226771   6.405   3.665   0.143
 1738TIP3   OH226772   6.709   6.384   2.253
 1738TIP3    H126773   6.767   6.360   2.181
 1738TIP3    H226774   6.702   6.306   2.307
 1739TIP3   OH226775   1.478   2.041   7.870
 1739TIP3    H126776   1.545   2.104   7.845
 1739TIP3    H226777   1.452   1.998   7.789
 1740TIP3   OH226778   2.811   2.103   1.760
 1740TIP3    H126779   2.734   2.153   1.787
 1740TIP3    H226780   2.827   2.131   1.670
 1741TIP3   OH226781   2.268   3.500   0.658
 1741TIP3    H126782   2.201   3.461   0.716
 1741TIP3    H226783   2.324   3.550   0.717
 1742TIP3   OH226784   5.849   6.762   2.752
 1742TIP3    H126785   5.943   6.779   2.759
 1742TIP3    H226786   5.810   0.056   2.739
 1743TIP3   OH226787   0.827   4.921   1.578
 1743TIP3    H126788   0.908   4.872   1.566
 1743TIP3    H226789   0.828   4.947   1.670
 1744TIP3   OH226790   6.404   4.175   0.763
 1744TIP3    H126791   6.454   4.197   0.842
 1744TIP3    H226792   6.362   4.091   0.785
 1745TIP3   OH226793   1.691   1.580   8.256
 1745TIP3    H126794   1.765   1.526   8.229
 1745TIP3    H226795   1.615   1.537   8.217
 1746TIP3   OH226796   4.236   5.691   7.332
 1746TIP3    H126797   4.326   5.691   7.299
 1746TIP3    H226798   4.212   5.784   7.334
 1747TIP3   OH226799   6.030   5.251   7.402
 1747TIP3    H126800   6.035   5.177   7.462
 1747TIP3    H226801   5.941   5.247   7.366
 1748TIP3   OH226802   2.052   4.724   6.277
 1748TIP3    H126803   2.092   4.685   6.355
 1748TIP3    H226804   1.964   4.687   6.274
 1749TIP3   OH226805   2.870   6.003   1.846
 1749TIP3    H126806   2.805   6.061   1.805
 1749TIP3    H226807   2.929   6.063   1.893
 1750TIP3   OH226808   5.431   0.378   8.449
 1750TIP3    H126809   5.510   0.356   8.497
 1750TIP3    H226810   5.397   0.294   8.418
 1751TIP3   OH226811   1.186   1.333   0.369
 1751TIP3    H126812   1.173   1.242   0.344
 1751TIP3    H226813   1.278   1.338   0.396
 1752TIP3   OH226814   4.093   2.012   2.356
 1752TIP3    H126815   4.014   2.048   2.397
 1752TIP3    H226816   4.071   2.009   2.262
 1753TIP3   OH226817   0.854   6.695   0.907
 1753TIP3    H126818   0.946   6.672   0.895
 1753TIP3    H226819   0.829   6.655   0.991
 1754TIP3   OH226820   4.207   1.118   7.591
 1754TIP3    H126821   4.193   1.112   7.497
 1754TIP3    H226822   4.193   1.210   7.612
 1755TIP3   OH226823   6.627   6.288   1.879
 1755TIP3    H126824   6.661   6.222   1.818
 1755TIP3    H226825   6.552   6.326   1.834
 1756TIP3   OH226826   1.379   5.111   8.446
 1756TIP3    H126827   1.292   5.122   8.409
 1756TIP3    H226828   1.390   5.017   8.454
 1757TIP3   OH226829   3.728   4.599   8.085
 1757TIP3    H126830   3.727   4.564   7.996
 1757TIP3    H226831   3.661   4.548   8.132
 1758TIP3   OH226832   6.665   1.234   7.792
 1758TIP3    H126833   6.587   1.218   7.738
 1758TIP3    H226834   6.733   1.180   7.752
 1759TIP3   OH226835   5.299   2.047   8.103
 1759TIP3    H126836   5.247   2.033   8.025
 1759TIP3    H226837   5.292   2.140   8.121
 1760TIP3   OH226838   2.382   4.419   7.550
 1760TIP3    H126839   2.320   4.492   7.543
 1760TIP3    H226840   2.354   4.371   7.628
 1761TIP3   OH226841   3.392   0.508   7.589
 1761TIP3    H126842   3.461   0.453   7.626
 1761TIP3    H226843   3.322   0.505   7.653
 1762TIP3   OH226844   6.450   0.596   1.014
 1762TIP3    H126845   6.457   0.638   1.100
 1762TIP3    H226846   6.399   0.658   0.961
 1763TIP3   OH226847   5.011   6.497   7.140
 1763TIP3    H126848   4.985   6.575   7.190
 1763TIP3    H226849   5.088   6.464   7.185
 1764TIP3   OH226850   6.605   4.010   2.335
 1764TIP3    H126851   6.512   4.034   2.334
 1764TIP3    H226852   6.638   4.038   2.249
 1765TIP3   OH226853   6.166   3.578   8.349
 1765TIP3    H126854   6.112   3.519   8.401
 1765TIP3    H226855   6.170   3.659   8.400
 1766TIP3   OH226856   2.194   5.085   7.523
 1766TIP3    H126857   2.277   5.110   7.482
 1766TIP3    H226858   2.216   5.073   7.616
 1767TIP3   OH226859   4.116   5.247   7.824
 1767TIP3    H126860   4.117   5.284   7.913
 1767TIP3    H226861   4.023   5.234   7.805
 1768TIP3   OH226862   4.719   1.057   7.002
 1768TIP3    H126863   4.640   1.066   6.948
 1768TIP3    H226864   4.787   1.101   6.951
 1769TIP3   OH226865   5.199   4.420   7.996
 1769TIP3    H126866   5.136   4.357   8.031
 1769TIP3    H226867   5.283   4.374   8.001
 1770TIP3   OH226868   1.049   5.152   8.070
 1770TIP3    H126869   1.076   5.150   8.162
 1770TIP3    H226870   1.070   5.065   8.037
 1771TIP3   OH226871   0.015   6.626   8.324
 1771TIP3    H126872   0.067   6.701   8.351
 1771TIP3    H226873   0.076   6.571   8.274
 1772TIP3   OH226874   0.456   2.237   6.575
 1772TIP3    H126875   0.371   2.202   6.549
 1772TIP3    H226876   0.466   2.210   6.666
 1773TIP3   OH226877   5.642   4.279   1.081
 1773TIP3    H126878   5.581   4.208   1.102
 1773TIP3    H226879   5.612   4.313   0.997
 1774TIP3   OH226880   3.146   4.006   8.186
 1774TIP3    H126881   3.212   3.962   8.240
 1774TIP3    H226882   3.064   3.996   8.235
 1775TIP3   OH226883   4.999   1.842   0.885
 1775TIP3    H126884   5.003   1.935   0.861
 1775TIP3    H226885   5.002   1.843   0.981
 1776TIP3   OH226886   1.058   1.236   1.594
 1776TIP3    H126887   1.140   1.283   1.606
 1776TIP3    H226888   0.996   1.280   1.652
 1777TIP3   OH226889   4.917   0.771   8.155
 1777TIP3    H126890   4.961   0.838   8.102
 1777TIP3    H226891   4.942   0.688   8.114
 1778TIP3   OH226892   3.357   6.711   2.362
 1778TIP3    H126893   3.354   0.011   2.337
 1778TIP3    H226894   3.343   6.711   2.456
 1779TIP3   OH226895   0.215   0.046   8.387
 1779TIP3    H126896   0.267   0.042   8.306
 1779TIP3    H226897   0.150   0.115   8.370
 1780TIP3   OH226898   6.728   1.530   8.198
 1780TIP3    H126899   6.772   1.447   8.218
 1780TIP3    H226900   6.706   1.523   8.105
 1781TIP3   OH226901   4.797   2.370   8.640
 1781TIP3    H126902   4.722   2.429   8.638
 1781TIP3    H226903   4.760   2.284   8.663
 1782TIP3   OH226904   4.621   1.420   6.576
 1782TIP3    H126905   4.568   1.425   6.656
 1782TIP3    H226906   4.572   1.470   6.511
 1783TIP3   OH226907   5.326   5.133   0.585
 1783TIP3    H126908   5.258   5.069   0.564
 1783TIP3    H226909   5.406   5.082   0.592
 1784TIP3   OH226910   2.304   4.089   7.663
 1784TIP3    H126911   2.329   4.029   7.593
 1784TIP3    H226912   2.388   4.120   7.698
 1785TIP3   OH226913   2.526   3.277   8.346
 1785TIP3    H126914   2.468   3.215   8.390
 1785TIP3    H226915   2.467   3.343   8.309
 1786TIP3   OH226916   4.714   2.438   0.147
 1786TIP3    H126917   4.683   2.357   0.188
 1786TIP3    H226918   4.708   2.504   0.216
 1787TIP3   OH226919   5.258   0.105   1.394
 1787TIP3    H126920   5.304   0.023   1.379
 1787TIP3    H226921   5.167   0.086   1.370
 1788TIP3   OH226922   0.480   2.540   7.616
 1788TIP3    H126923   0.392   2.573   7.599
 1788TIP3    H226924   0.479   2.451   7.583
 1789TIP3   OH226925   5.709   5.635   8.024
 1789TIP3    H126926   5.634   5.575   8.023
 1789TIP3    H226927   5.778   5.587   7.978
 1790TIP3   OH226928   5.588   3.930   7.210
 1790TIP3    H126929   5.539   4.012   7.216
 1790TIP3    H226930   5.583   3.905   7.118
 1791TIP3   OH226931   1.824   0.409   8.139
 1791TIP3    H126932   1.749   0.463   8.116
 1791TIP3    H226933   1.887   0.423   8.069
 1792TIP3   OH226934   2.515   5.133   1.501
 1792TIP3    H126935   2.486   5.059   1.447
 1792TIP3    H226936   2.494   5.210   1.450
 1793TIP3   OH226937   3.484   5.164   0.986
 1793TIP3    H126938   3.414   5.195   0.929
 1793TIP3    H226939   3.559   5.219   0.965
 1794TIP3   OH226940   2.438   1.468   7.748
 1794TIP3    H126941   2.445   1.564   7.751
 1794TIP3    H226942   2.526   1.437   7.770
 1795TIP3   OH226943   3.659   2.985   2.376
 1795TIP3    H126944   3.607   2.906   2.389
 1795TIP3    H226945   3.750   2.957   2.385
 1796TIP3   OH226946   1.801   6.120   8.056
 1796TIP3    H126947   1.810   6.037   8.009
 1796TIP3    H226948   1.765   6.097   8.141
 1797TIP3   OH226949   0.929   2.049   1.142
 1797TIP3    H126950   0.855   2.110   1.140
 1797TIP3    H226951   0.947   2.036   1.235
 1798TIP3   OH226952   4.659   3.721   1.779
 1798TIP3    H126953   4.654   3.800   1.724
 1798TIP3    H226954   4.699   3.751   1.860
 1799TIP3   OH226955   3.436   3.276   0.855
 1799TIP3    H126956   3.490   3.342   0.812
 1799TIP3    H226957   3.465   3.193   0.818
 1800TIP3   OH226958   4.203   5.963   1.363
 1800TIP3    H126959   4.227   5.873   1.340
 1800TIP3    H226960   4.277   5.996   1.413
 1801TIP3   OH226961   5.408   2.301   6.650
 1801TIP3    H126962   5.448   2.265   6.571
 1801TIP3    H226963   5.371   2.224   6.695
 1802TIP3   OH226964   2.109   4.496   7.123
 1802TIP3    H126965   2.097   4.442   7.201
 1802TIP3    H226966   2.020   4.521   7.097
 1803TIP3   OH226967   2.860   2.149   7.450
 1803TIP3    H126968   2.897   2.127   7.365
 1803TIP3    H226969   2.778   2.194   7.430
 1804TIP3   OH226970   3.090   0.029   1.315
 1804TIP3    H126971   3.136   0.107   1.284
 1804TIP3    H226972   3.153   6.751   1.308
 1805TIP3   OH226973   4.872   3.658   7.508
 1805TIP3    H126974   4.819   3.707   7.446
 1805TIP3    H226975   4.951   3.712   7.520
 1806TIP3   OH226976   6.147   5.914   0.127
 1806TIP3    H126977   6.227   5.919   0.075
 1806TIP3    H226978   6.173   5.865   0.205
 1807TIP3   OH226979   6.636   6.354   1.562
 1807TIP3    H126980   6.676   6.276   1.525
 1807TIP3    H226981   6.710   6.407   1.592
 1808TIP3   OH226982   3.465   1.169   6.538
 1808TIP3    H126983   3.507   1.247   6.574
 1808TIP3    H226984   3.528   1.099   6.551
 1809TIP3   OH226985   3.126   6.181   1.728
 1809TIP3    H126986   3.191   6.198   1.659
 1809TIP3    H226987   3.060   6.127   1.685
 1810TIP3   OH226988   3.378   0.839   0.331
 1810TIP3    H126989   3.284   0.851   0.323
 1810TIP3    H226990   3.411   0.838   0.241
 1811TIP3   OH226991   1.306   3.530   5.960
 1811TIP3    H126992   1.213   3.551   5.964
 1811TIP3    H226993   1.311   3.437   5.984
 1812TIP3   OH226994   6.360   4.379   8.359
 1812TIP3    H126995   6.451   4.352   8.373
 1812TIP3    H226996   6.334   4.418   8.442
 1813TIP3   OH226997   1.759   2.924   2.243
 1813TIP3    H126998   1.764   3.008   2.197
 1813TIP3    H226999   1.829   2.872   2.204
 1814TIP3   OH227000   0.562   5.057   1.581
 1814TIP3    H127001   0.598   4.975   1.548
 1814TIP3    H227002   0.476   5.064   1.539
 1815TIP3   OH227003   4.430   5.788   7.907
 1815TIP3    H127004   4.354   5.751   7.863
 1815TIP3    H227005   4.406   5.879   7.924
 1816TIP3   OH227006   4.102   1.090   8.515
 1816TIP3    H127007   4.059   1.175   8.513
 1816TIP3    H227008   4.084   1.052   8.428
 1817TIP3   OH227009   2.784   6.101   8.410
 1817TIP3    H127010   2.821   6.154   8.340
 1817TIP3    H227011   2.698   6.074   8.377
 1818TIP3   OH227012   5.591   6.404   6.578
 1818TIP3    H127013   5.667   6.431   6.630
 1818TIP3    H227014   5.549   6.336   6.630
 1819TIP3   OH227015   3.445   4.023   7.553
 1819TIP3    H127016   3.428   4.113   7.579
 1819TIP3    H227017   3.497   4.031   7.473
 1820TIP3   OH227018   0.574   3.538   8.558
 1820TIP3    H127019   0.639   3.530   8.628
 1820TIP3    H227020   0.500   3.485   8.589
 1821TIP3   OH227021   3.851   0.093   7.390
 1821TIP3    H127022   3.884   0.179   7.365
 1821TIP3    H227023   3.830   0.050   7.306
 1822TIP3   OH227024   3.327   4.299   1.240
 1822TIP3    H127025   3.288   4.241   1.174
 1822TIP3    H227026   3.374   4.365   1.189
 1823TIP3   OH227027   3.567   1.935   8.284
 1823TIP3    H127028   3.550   2.026   8.308
 1823TIP3    H227029   3.662   1.930   8.273
 1824TIP3   OH227030   0.625   1.626   1.539
 1824TIP3    H127031   0.638   1.681   1.462
 1824TIP3    H227032   0.713   1.618   1.577
 1825TIP3   OH227033   4.338   1.571   2.284
 1825TIP3    H127034   4.431   1.586   2.269
 1825TIP3    H227035   4.327   1.476   2.276
 1826TIP3   OH227036   2.052   6.461   0.645
 1826TIP3    H127037   2.123   6.414   0.602
 1826TIP3    H227038   2.091   6.545   0.671
 1827TIP3   OH227039   4.374   3.297   7.647
 1827TIP3    H127040   4.287   3.259   7.641
 1827TIP3    H227041   4.370   3.355   7.723
 1828TIP3   OH227042   3.112   3.268   0.823
 1828TIP3    H127043   3.139   3.285   0.914
 1828TIP3    H227044   3.181   3.211   0.789
 1829TIP3   OH227045   1.742   0.292   7.401
 1829TIP3    H127046   1.812   0.357   7.396
 1829TIP3    H227047   1.743   0.263   7.492
 1830TIP3   OH227048   3.626   0.358   7.656
 1830TIP3    H127049   3.720   0.345   7.642
 1830TIP3    H227050   3.601   0.286   7.714
 1831TIP3   OH227051   2.632   5.061   6.892
 1831TIP3    H127052   2.621   5.013   6.974
 1831TIP3    H227053   2.643   4.993   6.825
 1832TIP3   OH227054   2.136   2.496   6.547
 1832TIP3    H127055   2.100   2.439   6.615
 1832TIP3    H227056   2.196   2.440   6.498
 1833TIP3   OH227057   0.475   4.443   1.368
 1833TIP3    H127058   0.551   4.442   1.427
 1833TIP3    H227059   0.512   4.466   1.282
 1834TIP3   OH227060   2.420   0.639   8.473
 1834TIP3    H127061   2.464   0.617   8.391
 1834TIP3    H227062   2.364   0.713   8.450
 1835TIP3   OH227063   5.464   4.719   2.112
 1835TIP3    H127064   5.385   4.692   2.065
 1835TIP3    H227065   5.464   4.815   2.106
 1836TIP3   OH227066   1.642   6.061   8.794
 1836TIP3    H127067   1.681   6.057   0.013
 1836TIP3    H227068   1.553   6.027   8.806
 1837TIP3   OH227069   0.234   1.577   7.517
 1837TIP3    H127070   0.171   1.530   7.463
 1837TIP3    H227071   0.313   1.523   7.513
 1838TIP3   OH227072   6.496   1.472   0.309
 1838TIP3    H127073   6.492   1.507   0.398
 1838TIP3    H227074   6.405   1.464   0.282
 1839TIP3   OH227075   1.220   2.443   8.471
 1839TIP3    H127076   1.218   2.383   8.397
 1839TIP3    H227077   1.128   2.463   8.488
 1840TIP3   OH227078   4.731   0.786   7.847
 1840TIP3    H127079   4.719   0.818   7.758
 1840TIP3    H227080   4.664   0.718   7.858
 1841TIP3   OH227081   2.086   2.722   1.648
 1841TIP3    H127082   2.131   2.781   1.587
 1841TIP3    H227083   2.152   2.704   1.716
 1842TIP3   OH227084   2.545   1.815   7.900
 1842TIP3    H127085   2.491   1.891   7.924
 1842TIP3    H227086   2.635   1.843   7.918
 1843TIP3   OH227087   3.512   1.737   1.179
 1843TIP3    H127088   3.425   1.775   1.172
 1843TIP3    H227089   3.566   1.807   1.216
 1844TIP3   OH227090   3.153   3.096   7.371
 1844TIP3    H127091   3.190   3.163   7.428
 1844TIP3    H227092   3.075   3.136   7.333
 1845TIP3   OH227093   2.991   0.957   1.847
 1845TIP3    H127094   2.905   0.980   1.813
 1845TIP3    H227095   3.029   1.039   1.876
 1846TIP3   OH227096   0.628   0.859   0.276
 1846TIP3    H127097   0.581   0.787   0.234
 1846TIP3    H227098   0.670   0.820   0.352
 1847TIP3   OH227099   1.714   3.598   0.341
 1847TIP3    H127100   1.701   3.511   0.378
 1847TIP3    H227101   1.809   3.604   0.325
 1848TIP3   OH227102   3.210   6.077   8.709
 1848TIP3    H127103   3.126   6.055   8.669
 1848TIP3    H227104   3.207   6.173   8.719
 1849TIP3   OH227105   1.109   4.389   1.554
 1849TIP3    H127106   1.199   4.370   1.527
 1849TIP3    H227107   1.095   4.334   1.631
 1850TIP3   OH227108   1.275   3.755   0.896
 1850TIP3    H127109   1.269   3.735   0.990
 1850TIP3    H227110   1.184   3.759   0.867
 1851TIP3   OH227111   1.391   2.397   0.512
 1851TIP3    H127112   1.383   2.457   0.586
 1851TIP3    H227113   1.303   2.395   0.474
 1852TIP3   OH227114   0.519   3.455   6.736
 1852TIP3    H127115   0.425   3.437   6.741
 1852TIP3    H227116   0.557   3.397   6.802
 1853TIP3   OH227117   0.358   3.090   0.407
 1853TIP3    H127118   0.309   3.017   0.445
 1853TIP3    H227119   0.424   3.111   0.473
 1854TIP3   OH227120   3.952   1.260   7.156
 1854TIP3    H127121   3.983   1.267   7.066
 1854TIP3    H227122   3.857   1.254   7.149
 1855TIP3   OH227123   0.737   2.299   0.617
 1855TIP3    H127124   0.643   2.297   0.597
 1855TIP3    H227125   0.779   2.301   0.531
 1856TIP3   OH227126   1.987   0.984   6.837
 1856TIP3    H127127   2.067   0.937   6.814
 1856TIP3    H227128   1.989   1.063   6.782
 1857TIP3   OH227129   0.127   1.212   1.038
 1857TIP3    H127130   0.036   1.198   1.066
 1857TIP3    H227131   0.169   1.252   1.114
 1858TIP3   OH227132   1.049   3.570   8.339
 1858TIP3    H127133   1.103   3.522   8.402
 1858TIP3    H227134   1.024   3.505   8.274
 1859TIP3   OH227135   6.399   2.600   7.484
 1859TIP3    H127136   6.405   2.687   7.445
 1859TIP3    H227137   6.330   2.609   7.550
 1860TIP3   OH227138   5.512   2.254   0.190
 1860TIP3    H127139   5.543   2.166   0.211
 1860TIP3    H227140   5.529   2.263   0.096
 1861TIP3   OH227141   4.517   4.786   0.613
 1861TIP3    H127142   4.462   4.712   0.638
 1861TIP3    H227143   4.543   4.826   0.696
 1862TIP3   OH227144   2.343   0.456   8.025
 1862TIP3    H127145   2.335   0.381   7.966
 1862TIP3    H227146   2.357   0.531   7.967
 1863TIP3   OH227147   6.189   4.526   7.108
 1863TIP3    H127148   6.175   4.568   7.193
 1863TIP3    H227149   6.226   4.595   7.053
 1864TIP3   OH227150   4.810   2.675   8.683
 1864TIP3    H127151   4.886   2.709   8.635
 1864TIP3    H227152   4.769   2.613   8.623
 1865TIP3   OH227153   1.806   4.423   0.882
 1865TIP3    H127154   1.798   4.352   0.818
 1865TIP3    H227155   1.831   4.500   0.830
 1866TIP3   OH227156   0.580   1.619   1.254
 1866TIP3    H127157   0.605   1.705   1.289
 1866TIP3    H227158   0.651   1.597   1.193
 1867TIP3   OH227159   2.649   6.366   1.158
 1867TIP3    H127160   2.582   6.425   1.124
 1867TIP3    H227161   2.731   6.412   1.143
 1868TIP3   OH227162   2.370   1.031   7.507
 1868TIP3    H127163   2.276   1.021   7.492
 1868TIP3    H227164   2.388   1.122   7.486
 1869TIP3   OH227165   3.135   5.664   7.407
 1869TIP3    H127166   3.137   5.693   7.316
 1869TIP3    H227167   3.077   5.725   7.451
 1870TIP3   OH227168   5.758   0.509   7.416
 1870TIP3    H127169   5.778   0.578   7.479
 1870TIP3    H227170   5.777   0.548   7.330
 1871TIP3   OH227171   4.086   4.965   1.479
 1871TIP3    H127172   4.129   4.898   1.426
 1871TIP3    H227173   4.076   4.925   1.565
 1872TIP3   OH227174   2.279   6.268   2.271
 1872TIP3    H127175   2.258   6.361   2.259
 1872TIP3    H227176   2.219   6.239   2.340
 1873TIP3   OH227177   1.279   2.717   7.035
 1873TIP3    H127178   1.304   2.653   7.101
 1873TIP3    H227179   1.350   2.715   6.971
 1874TIP3   OH227180   1.977   2.424   8.866
 1874TIP3    H127181   1.902   2.418   0.057
 1874TIP3    H227182   2.035   2.488   0.040
 1875TIP3   OH227183   2.980   5.280   7.205
 1875TIP3    H127184   3.023   5.199   7.231
 1875TIP3    H227185   3.045   5.325   7.151
 1876TIP3   OH227186   1.853   4.350   0.090
 1876TIP3    H127187   1.892   4.265   0.073
 1876TIP3    H227188   1.772   4.350   0.040
 1877TIP3   OH227189   5.464   4.548   7.476
 1877TIP3    H127190   5.461   4.640   7.450
 1877TIP3    H227191   5.389   4.537   7.535
 1878TIP3   OH227192   0.847   3.328   8.583
 1878TIP3    H127193   0.888   3.313   8.668
 1878TIP3    H227194   0.849   3.423   8.572
 1879TIP3   OH227195   6.657   4.653   8.545
 1879TIP3    H127196   6.701   4.580   8.501
 1879TIP3    H227197   6.678   4.730   8.493
 1880TIP3   OH227198   3.420   1.371   8.625
 1880TIP3    H127199   3.358   1.407   8.689
 1880TIP3    H227200   3.506   1.386   8.664
 1881TIP3   OH227201   4.726   6.099   1.809
 1881TIP3    H127202   4.687   6.034   1.867
 1881TIP3    H227203   4.793   6.141   1.863
 1882TIP3   OH227204   5.662   6.292   0.001
 1882TIP3    H127205   5.619   6.215   0.038
 1882TIP3    H227206   5.694   6.341   0.077
 1883TIP3   OH227207   5.477   3.541   1.112
 1883TIP3    H127208   5.393   3.542   1.157
 1883TIP3    H227209   5.489   3.631   1.081
 1884TIP3   OH227210   4.587   5.296   1.405
 1884TIP3    H127211   4.675   5.334   1.411
 1884TIP3    H227212   4.545   5.318   1.488
 1885TIP3   OH227213   3.446   0.056   2.067
 1885TIP3    H127214   3.528   0.008   2.060
 1885TIP3    H227215   3.472   0.148   2.062
 1886TIP3   OH227216   0.211   3.061   7.277
 1886TIP3    H127217   0.263   3.089   7.202
 1886TIP3    H227218   0.273   3.060   7.350
 1887TIP3   OH227219   0.448   1.844   2.487
 1887TIP3    H127220   0.413   1.933   2.474
 1887TIP3    H227221   0.543   1.856   2.492
 1888TIP3   OH227222   2.778   6.032   8.035
 1888TIP3    H127223   2.755   5.952   8.082
 1888TIP3    H227224   2.714   6.097   8.064
 1889TIP3   OH227225   6.369   3.860   1.040
 1889TIP3    H127226   6.295   3.918   1.058
 1889TIP3    H227227   6.445   3.919   1.034
 1890TIP3   OH227228   1.906   0.986   2.009
 1890TIP3    H127229   1.900   0.892   1.996
 1890TIP3    H227230   1.854   1.002   2.089
 1891TIP3   OH227231   5.644   4.846   0.432
 1891TIP3    H127232   5.645   4.785   0.358
 1891TIP3    H227233   5.707   4.809   0.494
 1892TIP3   OH227234   3.916   2.448   2.641
 1892TIP3    H127235   4.006   2.481   2.644
 1892TIP3    H227236   3.878   2.492   2.565
 1893TIP3   OH227237   1.432   5.049   8.734
 1893TIP3    H127238   1.391   5.047   8.821
 1893TIP3    H227239   1.361   5.076   8.675
 1894TIP3   OH227240   3.860   2.172   7.839
 1894TIP3    H127241   3.946   2.134   7.851
 1894TIP3    H227242   3.877   2.261   7.807
 1895TIP3   OH227243   6.150   5.733   1.325
 1895TIP3    H127244   6.214   5.801   1.303
 1895TIP3    H227245   6.203   5.658   1.351
 1896TIP3   OH227246   3.889   2.675   1.238
 1896TIP3    H127247   3.907   2.725   1.318
 1896TIP3    H227248   3.817   2.723   1.197
 1897TIP3   OH227249   0.580   0.789   7.493
 1897TIP3    H127250   0.642   0.720   7.518
 1897TIP3    H227251   0.517   0.745   7.435
 1898TIP3   OH227252   1.760   1.776   1.017
 1898TIP3    H127253   1.776   1.711   1.085
 1898TIP3    H227254   1.810   1.744   0.942
 1899TIP3   OH227255   5.671   3.028   7.366
 1899TIP3    H127256   5.720   3.037   7.285
 1899TIP3    H227257   5.615   3.105   7.370
 1900TIP3   OH227258   4.143   5.146   6.623
 1900TIP3    H127259   4.125   5.072   6.680
 1900TIP3    H227260   4.227   5.126   6.583
 1901TIP3   OH227261   2.967   2.075   7.200
 1901TIP3    H127262   2.993   2.127   7.124
 1901TIP3    H227263   2.925   1.998   7.164
 1902TIP3   OH227264   1.457   4.556   0.517
 1902TIP3    H127265   1.392   4.525   0.580
 1902TIP3    H227266   1.408   4.616   0.461
 1903TIP3   OH227267   1.358   5.489   0.912
 1903TIP3    H127268   1.276   5.518   0.873
 1903TIP3    H227269   1.380   5.557   0.975
 1904TIP3   OH227270   0.761   4.547   0.807
 1904TIP3    H127271   0.790   4.506   0.888
 1904TIP3    H227272   0.781   4.640   0.819
 1905TIP3   OH227273   2.447   4.992   2.105
 1905TIP3    H127274   2.396   4.911   2.099
 1905TIP3    H227275   2.494   4.985   2.188
 1906TIP3   OH227276   2.259   4.582   1.473
 1906TIP3    H127277   2.244   4.676   1.473
 1906TIP3    H227278   2.222   4.551   1.556
 1907TIP3   OH227279   3.959   3.333   1.691
 1907TIP3    H127280   3.998   3.355   1.606
 1907TIP3    H227281   3.938   3.240   1.684
 1908TIP3   OH227282   0.719   5.673   8.481
 1908TIP3    H127283   0.762   5.692   8.565
 1908TIP3    H227284   0.662   5.599   8.500
 1909TIP3   OH227285   0.793   3.145   7.855
 1909TIP3    H127286   0.757   3.193   7.930
 1909TIP3    H227287   0.833   3.068   7.894
 1910TIP3   OH227288   5.954   2.739   8.675
 1910TIP3    H127289   5.987   2.654   8.648
 1910TIP3    H227290   6.033   2.790   8.694
 1911TIP3   OH227291   1.756   1.267   0.656
 1911TIP3    H127292   1.661   1.275   0.667
 1911TIP3    H227293   1.791   1.280   0.744
 1912TIP3   OH227294   2.970   6.608   2.484
 1912TIP3    H127295   2.950   6.537   2.545
 1912TIP3    H227296   2.895   6.667   2.489
 1913TIP3   OH227297   4.091   4.786   0.120
 1913TIP3    H127298   4.070   4.697   0.093
 1913TIP3    H227299   4.074   4.787   0.215
 1914TIP3   OH227300   3.281   2.503   1.860
 1914TIP3    H127301   3.268   2.523   1.768
 1914TIP3    H227302   3.212   2.552   1.906
 1915TIP3   OH227303   3.733   4.088   7.144
 1915TIP3    H127304   3.693   4.022   7.087
 1915TIP3    H227305   3.737   4.167   7.090
 1916TIP3   OH227306   5.690   4.458   7.683
 1916TIP3    H127307   5.611   4.442   7.633
 1916TIP3    H227308   5.719   4.545   7.655
 1917TIP3   OH227309   5.004   1.639   2.368
 1917TIP3    H127310   5.023   1.720   2.322
 1917TIP3    H227311   5.019   1.570   2.303
 1918TIP3   OH227312   5.626   0.590   2.684
 1918TIP3    H127313   5.597   0.546   2.765
 1918TIP3    H227314   5.552   0.644   2.659
 1919TIP3   OH227315   0.772   5.036   8.456
 1919TIP3    H127316   0.774   4.999   8.368
 1919TIP3    H227317   0.712   5.111   8.450
 1920TIP3   OH227318   6.351   4.425   8.782
 1920TIP3    H127319   6.338   4.337   8.817
 1920TIP3    H227320   6.443   4.425   8.753
 1921TIP3   OH227321   3.662   6.069   6.379
 1921TIP3    H127322   3.584   6.028   6.342
 1921TIP3    H227323   3.660   6.043   6.472
 1922TIP3   OH227324   3.881   4.725   0.615
 1922TIP3    H127325   3.860   4.801   0.670
 1922TIP3    H227326   3.859   4.650   0.670
 1923TIP3   OH227327   1.480   3.032   1.376
 1923TIP3    H127328   1.466   2.952   1.326
 1923TIP3    H227329   1.469   3.005   1.468
 1924TIP3   OH227330   1.235   4.492   0.668
 1924TIP3    H127331   1.144   4.464   0.659
 1924TIP3    H227332   1.282   4.413   0.695
 1925TIP3   OH227333   0.685   0.073   1.216
 1925TIP3    H127334   0.615   0.112   1.164
 1925TIP3    H227335   0.660   0.090   1.307
 1926TIP3   OH227336   4.828   6.457   8.535
 1926TIP3    H127337   4.796   6.394   8.470
 1926TIP3    H227338   4.749   6.503   8.564
 1927TIP3   OH227339   2.373   6.509   2.063
 1927TIP3    H127340   2.319   6.513   2.142
 1927TIP3    H227341   2.364   6.595   2.023
 1928TIP3   OH227342   1.724   2.807   7.521
 1928TIP3    H127343   1.797   2.810   7.459
 1928TIP3    H227344   1.765   2.781   7.604
 1929TIP3   OH227345   0.664   1.005   8.657
 1929TIP3    H127346   0.659   1.065   8.731
 1929TIP3    H227347   0.710   0.928   8.691
 1930TIP3   OH227348   4.802   2.062   7.452
 1930TIP3    H127349   4.867   2.132   7.454
 1930TIP3    H227350   4.847   1.988   7.411
 1931TIP3   OH227351   0.768   0.269   1.672
 1931TIP3    H127352   0.755   0.257   1.766
 1931TIP3    H227353   0.862   0.285   1.664
 1932TIP3   OH227354   4.684   6.252   0.330
 1932TIP3    H127355   4.732   6.279   0.408
 1932TIP3    H227356   4.752   6.238   0.264
 1933TIP3   OH227357   6.400   2.297   1.766
 1933TIP3    H127358   6.403   2.201   1.766
 1933TIP3    H227359   6.325   2.318   1.711
 1934TIP3   OH227360   0.552   2.571   7.900
 1934TIP3    H127361   0.459   2.558   7.919
 1934TIP3    H227362   0.557   2.567   7.804
 1935TIP3   OH227363   0.995   5.545   8.759
 1935TIP3    H127364   1.090   5.537   8.755
 1935TIP3    H227365   0.971   5.502   8.841
 1936TIP3   OH227366   0.224   1.116   7.424
 1936TIP3    H127367   0.173   1.196   7.431
 1936TIP3    H227368   0.315   1.146   7.417
 1937TIP3   OH227369   0.108   5.552   8.066
 1937TIP3    H127370   0.183   5.507   8.104
 1937TIP3    H227371   0.115   5.642   8.099
 1938TIP3   OH227372   6.684   1.606   0.709
 1938TIP3    H127373   6.686   1.579   0.617
 1938TIP3    H227374   6.721   1.532   0.756
 1939TIP3   OH227375   6.763   2.739   1.477
 1939TIP3    H127376   0.022   2.763   1.555
 1939TIP3    H227377   6.682   2.703   1.513
 1940TIP3   OH227378   5.612   5.051   0.939
 1940TIP3    H127379   5.573   5.127   0.897
 1940TIP3    H227380   5.596   4.979   0.879
 1941TIP3   OH227381   0.562   6.110   7.303
 1941TIP3    H127382   0.468   6.130   7.297
 1941TIP3    H227383   0.570   6.021   7.268
 1942TIP3   OH227384   3.642   2.200   8.839
 1942TIP3    H127385   3.576   2.216   0.037
 1942TIP3    H227386   3.686   2.284   8.827
 1943TIP3   OH227387   2.391   1.305   7.515
 1943TIP3    H127388   2.344   1.365   7.457
 1943TIP3    H227389   2.406   1.355   7.595
 1944TIP3   OH227390   4.665   5.404   8.279
 1944TIP3    H127391   4.724   5.400   8.203
 1944TIP3    H227392   4.706   5.467   8.338
 1945TIP3   OH227393   2.362   2.207   1.279
 1945TIP3    H127394   2.336   2.217   1.370
 1945TIP3    H227395   2.400   2.291   1.255
 1946TIP3   OH227396   5.480   6.350   2.139
 1946TIP3    H127397   5.393   6.378   2.167
 1946TIP3    H227398   5.505   6.416   2.074
 1947TIP3   OH227399   3.610   2.753   7.125
 1947TIP3    H127400   3.700   2.783   7.138
 1947TIP3    H227401   3.584   2.715   7.209
 1948TIP3   OH227402   3.450   5.694   0.934
 1948TIP3    H127403   3.456   5.615   0.987
 1948TIP3    H227404   3.460   5.766   0.997
 1949TIP3   OH227405   3.984   3.360   8.695
 1949TIP3    H127406   4.077   3.337   8.701
 1949TIP3    H227407   3.967   3.368   8.602
 1950TIP3   OH227408   4.895   3.884   0.121
 1950TIP3    H127409   4.852   3.831   0.055
 1950TIP3    H227410   4.902   3.827   0.197
 1951TIP3   OH227411   3.865   2.712   0.904
 1951TIP3    H127412   3.832   2.798   0.879
 1951TIP3    H227413   3.960   2.723   0.909
 1952TIP3   OH227414   0.477   0.497   1.415
 1952TIP3    H127415   0.520   0.578   1.443
 1952TIP3    H227416   0.544   0.451   1.364
 1953TIP3   OH227417   6.633   5.487   0.468
 1953TIP3    H127418   6.702   5.551   0.454
 1953TIP3    H227419   6.635   5.470   0.563
 1954TIP3   OH227420   5.576   2.063   6.828
 1954TIP3    H127421   5.498   2.061   6.773
 1954TIP3    H227422   5.646   2.033   6.771
 1955TIP3   OH227423   0.355   1.099   1.794
 1955TIP3    H127424   0.287   1.040   1.828
 1955TIP3    H227425   0.431   1.043   1.782
 1956TIP3   OH227426   1.347   1.141   6.671
 1956TIP3    H127427   1.426   1.129   6.724
 1956TIP3    H227428   1.340   1.235   6.658
 1957TIP3   OH227429   3.289   3.237   8.021
 1957TIP3    H127430   3.352   3.304   8.051
 1957TIP3    H227431   3.311   3.159   8.072
 1958TIP3   OH227432   0.275   3.119   1.675
 1958TIP3    H127433   0.265   3.115   1.770
 1958TIP3    H227434   0.271   3.212   1.655
 1959TIP3   OH227435   1.883   1.483   0.154
 1959TIP3    H127436   1.977   1.495   0.170
 1959TIP3    H227437   1.871   1.506   0.063
 1960TIP3   OH227438   0.719   1.683   8.821
 1960TIP3    H127439   0.676   1.766   8.802
 1960TIP3    H227440   0.778   1.669   8.747
 1961TIP3   OH227441   3.924   2.737   8.065
 1961TIP3    H127442   4.003   2.751   8.116
 1961TIP3    H227443   3.887   2.825   8.052
 1962TIP3   OH227444   5.005   2.258   7.265
 1962TIP3    H127445   5.080   2.222   7.312
 1962TIP3    H227446   4.965   2.320   7.326
 1963TIP3   OH227447   2.893   3.461   8.353
 1963TIP3    H127448   2.942   3.441   8.273
 1963TIP3    H227449   2.907   3.386   8.410
 1964TIP3   OH227450   3.798   6.101   8.291
 1964TIP3    H127451   3.846   6.019   8.303
 1964TIP3    H227452   3.706   6.077   8.300
 1965TIP3   OH227453   3.764   4.165   6.759
 1965TIP3    H127454   3.849   4.201   6.735
 1965TIP3    H227455   3.771   4.071   6.740
 1966TIP3   OH227456   0.675   1.004   6.665
 1966TIP3    H127457   0.721   0.963   6.737
 1966TIP3    H227458   0.637   0.932   6.616
 1967TIP3   OH227459   3.928   5.049   0.608
 1967TIP3    H127460   4.010   5.056   0.558
 1967TIP3    H227461   3.860   5.069   0.544
 1968TIP3   OH227462   5.823   2.061   6.704
 1968TIP3    H127463   5.840   2.156   6.700
 1968TIP3    H227464   5.910   2.022   6.711
 1969TIP3   OH227465   0.474   5.665   7.432
 1969TIP3    H127466   0.405   5.729   7.450
 1969TIP3    H227467   0.506   5.640   7.518
 1970TIP3   OH227468   6.123   6.424   0.177
 1970TIP3    H127469   6.134   6.465   0.091
 1970TIP3    H227470   6.207   6.438   0.221
 1971TIP3   OH227471   5.212   2.341   0.931
 1971TIP3    H127472   5.301   2.341   0.966
 1971TIP3    H227473   5.174   2.259   0.961
 1972TIP3   OH227474   2.036   0.756   0.186
 1972TIP3    H127475   1.981   0.831   0.210
 1972TIP3    H227476   1.979   0.680   0.198
 1973TIP3   OH227477   4.894   6.558   1.667
 1973TIP3    H127478   4.938   6.482   1.704
 1973TIP3    H227479   4.919   6.558   1.574
 1974TIP3   OH227480   5.534   6.144   7.285
 1974TIP3    H127481   5.607   6.105   7.333
 1974TIP3    H227482   5.456   6.099   7.317
 1975TIP3   OH227483   1.176   1.303   1.974
 1975TIP3    H127484   1.113   1.234   1.993
 1975TIP3    H227485   1.126   1.370   1.927
 1976TIP3   OH227486   0.733   5.122   0.109
 1976TIP3    H127487   0.759   5.141   0.019
 1976TIP3    H227488   0.691   5.036   0.104
 1977TIP3   OH227489   3.263   1.327   7.304
 1977TIP3    H127490   3.288   1.304   7.393
 1977TIP3    H227491   3.304   1.413   7.289
 1978TIP3   OH227492   6.745   6.284   0.564
 1978TIP3    H127493   6.690   6.243   0.631
 1978TIP3    H227494   6.687   6.344   0.517
 1979TIP3   OH227495   6.416   2.139   8.296
 1979TIP3    H127496   6.342   2.149   8.236
 1979TIP3    H227497   6.378   2.140   8.383
 1980TIP3   OH227498   4.154   5.450   2.027
 1980TIP3    H127499   4.208   5.447   2.106
 1980TIP3    H227500   4.079   5.394   2.047
 1981TIP3   OH227501   5.647   2.615   1.154
 1981TIP3    H127502   5.613   2.632   1.066
 1981TIP3    H227503   5.741   2.605   1.141
 1982TIP3   OH227504   6.288   5.699   2.439
 1982TIP3    H127505   6.253   5.687   2.527
 1982TIP3    H227506   6.240   5.774   2.403
 1983TIP3   OH227507   0.430   3.963   1.195
 1983TIP3    H127508   0.343   3.929   1.216
 1983TIP3    H227509   0.413   4.031   1.130
 1984TIP3   OH227510   1.479   4.326   5.994
 1984TIP3    H127511   1.555   4.272   5.973
 1984TIP3    H227512   1.516   4.412   6.015
 1985TIP3   OH227513   4.407   6.660   1.024
 1985TIP3    H127514   4.482   6.610   0.992
 1985TIP3    H227515   4.340   6.649   0.957
 1986TIP3   OH227516   6.711   2.901   8.715
 1986TIP3    H127517   6.769   2.952   8.772
 1986TIP3    H227518   6.754   2.816   8.708
 1987TIP3   OH227519   5.639   2.793   0.231
 1987TIP3    H127520   5.732   2.775   0.243
 1987TIP3    H227521   5.597   2.707   0.231
 1988TIP3   OH227522   1.843   4.646   0.696
 1988TIP3    H127523   1.899   4.580   0.655
 1988TIP3    H227524   1.895   4.727   0.693
 1989TIP3   OH227525   3.963   5.787   7.144
 1989TIP3    H127526   4.008   5.811   7.225
 1989TIP3    H227527   4.024   5.813   7.074
 1990TIP3   OH227528   5.791   6.568   1.498
 1990TIP3    H127529   5.698   6.582   1.481
 1990TIP3    H227530   5.834   6.647   1.465
 1991TIP3   OH227531   5.428   5.773   2.485
 1991TIP3    H127532   5.516   5.776   2.447
 1991TIP3    H227533   5.369   5.788   2.411
 1992TIP3   OH227534   4.115   6.360   0.004
 1992TIP3    H127535   4.056   6.310   0.062
 1992TIP3    H227536   4.079   6.449   0.005
 1993TIP3   OH227537   4.872   0.261   8.372
 1993TIP3    H127538   4.954   0.310   8.373
 1993TIP3    H227539   4.881   0.198   8.301
 1994TIP3   OH227540   3.682   0.289   1.469
 1994TIP3    H127541   3.770   0.261   1.445
 1994TIP3    H227542   3.688   0.384   1.477
 1995TIP3   OH227543   0.016   2.850   2.125
 1995TIP3    H127544   0.018   2.765   2.081
 1995TIP3    H227545   0.107   2.878   2.126
 1996TIP3   OH227546   5.442   3.555   7.532
 1996TIP3    H127547   5.356   3.558   7.489
 1996TIP3    H227548   5.486   3.636   7.504
 1997TIP3   OH227549   2.025   0.447   7.952
 1997TIP3    H127550   2.057   0.509   7.886
 1997TIP3    H227551   2.069   0.365   7.930
 1998TIP3   OH227552   4.352   6.587   2.036
 1998TIP3    H127553   4.406   6.517   1.999
 1998TIP3    H227554   4.350   6.569   2.130
 1999TIP3   OH227555   2.355   4.163   8.280
 1999TIP3    H127556   2.363   4.131   8.370
 1999TIP3    H227557   2.301   4.242   8.287
 2000TIP3   OH227558   4.634   6.062   7.138
 2000TIP3    H127559   4.633   6.024   7.051
 2000TIP3    H227560   4.643   5.987   7.197
 2001TIP3   OH227561   3.085   5.313   6.907
 2001TIP3    H127562   3.154   5.272   6.959
 2001TIP3    H227563   3.011   5.252   6.912
 2002TIP3   OH227564   3.182   5.501   0.920
 2002TIP3    H127565   3.268   5.480   0.955
 2002TIP3    H227566   3.159   5.585   0.961
 2003TIP3   OH227567   5.967   3.413   7.371
 2003TIP3    H127568   5.897   3.463   7.329
 2003TIP3    H227569   6.042   3.472   7.371
 2004TIP3   OH227570   1.479   3.562   8.594
 2004TIP3    H127571   1.501   3.589   8.683
 2004TIP3    H227572   1.557   3.514   8.564
 2005TIP3   OH227573   0.195   1.295   7.933
 2005TIP3    H127574   0.281   1.335   7.919
 2005TIP3    H227575   0.162   1.277   7.844
 2006TIP3   OH227576   4.916   4.840   8.678
 2006TIP3    H127577   4.968   4.760   8.669
 2006TIP3    H227578   4.981   4.908   8.695
 2007TIP3   OH227579   3.277   0.584   7.266
 2007TIP3    H127580   3.232   0.663   7.297
 2007TIP3    H227581   3.273   0.589   7.171
 2008TIP3   OH227582   1.658   0.781   7.500
 2008TIP3    H127583   1.697   0.839   7.566
 2008TIP3    H227584   1.651   0.835   7.422
 2009TIP3   OH227585   5.014   1.833   7.711
 2009TIP3    H127586   4.921   1.814   7.705
 2009TIP3    H227587   5.048   1.815   7.623
 2010TIP3   OH227588   5.826   1.338   1.630
 2010TIP3    H127589   5.876   1.419   1.622
 2010TIP3    H227590   5.879   1.273   1.583
 2011TIP3   OH227591   6.186   5.954   0.527
 2011TIP3    H127592   6.138   6.034   0.506
 2011TIP3    H227593   6.278   5.983   0.533
 2012TIP3   OH227594   0.739   0.564   0.137
 2012TIP3    H127595   0.770   0.559   0.227
 2012TIP3    H227596   0.651   0.527   0.140
 2013TIP3   OH227597   2.851   2.985   1.354
 2013TIP3    H127598   2.790   2.957   1.286
 2013TIP3    H227599   2.936   2.955   1.324
 2014TIP3   OH227600   6.058   0.465   1.464
 2014TIP3    H127601   6.040   0.503   1.377
 2014TIP3    H227602   6.035   0.373   1.454
 2015TIP3   OH227603   6.329   0.977   6.786
 2015TIP3    H127604   6.305   1.069   6.784
 2015TIP3    H227605   6.395   0.967   6.718
 2016TIP3   OH227606   6.792   6.599   7.474
 2016TIP3    H127607   0.026   6.685   7.442
 2016TIP3    H227608   0.006   6.542   7.398
 2017TIP3   OH227609   0.668   4.563   8.567
 2017TIP3    H127610   0.747   4.595   8.524
 2017TIP3    H227611   0.623   4.642   8.596
 2018TIP3   OH227612   4.606   1.631   2.208
 2018TIP3    H127613   4.670   1.667   2.269
 2018TIP3    H227614   4.659   1.582   2.145
 2019TIP3   OH227615   0.511   3.092   0.834
 2019TIP3    H127616   0.557   3.047   0.904
 2019TIP3    H227617   0.517   3.032   0.759
 2020TIP3   OH227618   5.780   4.648   7.284
 2020TIP3    H127619   5.686   4.646   7.265
 2020TIP3    H227620   5.802   4.558   7.308
 2021TIP3   OH227621   4.052   4.765   0.400
 2021TIP3    H127622   4.141   4.775   0.434
 2021TIP3    H227623   3.996   4.764   0.478
 2022TIP3   OH227624   0.367   2.229   8.461
 2022TIP3    H127625   0.396   2.319   8.477
 2022TIP3    H227626   0.280   2.239   8.421
 2023TIP3   OH227627   0.815   5.244   6.294
 2023TIP3    H127628   0.830   5.328   6.250
 2023TIP3    H227629   0.900   5.200   6.293
 2024TIP3   OH227630   5.668   1.109   0.665
 2024TIP3    H127631   5.661   1.198   0.699
 2024TIP3    H227632   5.739   1.113   0.602
 2025TIP3   OH227633   1.160   0.156   8.741
 2025TIP3    H127634   1.218   0.232   8.737
 2025TIP3    H227635   1.075   0.189   8.713
 2026TIP3   OH227636   0.674   2.744   0.829
 2026TIP3    H127637   0.646   2.653   0.841
 2026TIP3    H227638   0.607   2.782   0.771
 2027TIP3   OH227639   4.631   1.262   7.417
 2027TIP3    H127640   4.705   1.243   7.474
 2027TIP3    H227641   4.613   1.178   7.373
 2028TIP3   OH227642   2.887   5.548   1.538
 2028TIP3    H127643   2.953   5.546   1.606
 2028TIP3    H227644   2.875   5.641   1.518
 2029TIP3   OH227645   2.211   5.553   7.852
 2029TIP3    H127646   2.243   5.463   7.861
 2029TIP3    H227647   2.287   5.607   7.873
 2030TIP3   OH227648   0.312   2.042   1.508
 2030TIP3    H127649   0.349   1.960   1.541
 2030TIP3    H227650   0.384   2.081   1.458
 2031TIP3   OH227651   4.786   0.498   1.277
 2031TIP3    H127652   4.818   0.458   1.357
 2031TIP3    H227653   4.839   0.459   1.207
 2032TIP3   OH227654   0.354   3.003   1.088
 2032TIP3    H127655   0.284   3.030   1.148
 2032TIP3    H227656   0.409   2.945   1.141
 2033TIP3   OH227657   6.083   3.162   0.335
 2033TIP3    H127658   6.071   3.123   0.422
 2033TIP3    H227659   6.037   3.246   0.340
 2034TIP3   OH227660   6.535   4.849   1.863
 2034TIP3    H127661   6.604   4.885   1.919
 2034TIP3    H227662   6.574   4.846   1.776
 2035TIP3   OH227663   3.419   0.561   1.355
 2035TIP3    H127664   3.328   0.532   1.347
 2035TIP3    H227665   3.440   0.546   1.447
 2036TIP3   OH227666   2.397   5.071   0.507
 2036TIP3    H127667   2.428   5.032   0.425
 2036TIP3    H227668   2.303   5.055   0.507
 2037TIP3   OH227669   6.110   5.258   1.446
 2037TIP3    H127670   6.059   5.340   1.451
 2037TIP3    H227671   6.179   5.270   1.511
 2038TIP3   OH227672   0.245   4.880   0.676
 2038TIP3    H127673   0.158   4.845   0.657
 2038TIP3    H227674   0.258   4.949   0.612
 2039TIP3   OH227675   2.431   5.036   8.499
 2039TIP3    H127676   2.435   5.061   8.592
 2039TIP3    H227677   2.339   5.048   8.476
 2040TIP3   OH227678   1.842   3.416   6.250
 2040TIP3    H127679   1.803   3.411   6.337
 2040TIP3    H227680   1.787   3.359   6.196
 2041TIP3   OH227681   6.524   1.307   0.997
 2041TIP3    H127682   6.573   1.290   1.078
 2041TIP3    H227683   6.459   1.373   1.022
 2042TIP3   OH227684   4.307   1.163   0.720
 2042TIP3    H127685   4.212   1.157   0.715
 2042TIP3    H227686   4.331   1.219   0.646
 2043TIP3   OH227687   2.492   5.867   0.906
 2043TIP3    H127688   2.513   5.948   0.952
 2043TIP3    H227689   2.577   5.836   0.873
 2044TIP3   OH227690   4.582   2.540   0.375
 2044TIP3    H127691   4.602   2.577   0.462
 2044TIP3    H227692   4.545   2.454   0.394
 2045TIP3   OH227693   5.081   1.006   2.039
 2045TIP3    H127694   5.165   0.967   2.064
 2045TIP3    H227695   5.099   1.100   2.034
 2046TIP3   OH227696   6.664   0.394   1.710
 2046TIP3    H127697   6.571   0.402   1.690
 2046TIP3    H227698   6.708   0.417   1.628
 2047TIP3   OH227699   6.691   4.532   7.561
 2047TIP3    H127700   6.731   4.522   7.648
 2047TIP3    H227701   6.665   4.443   7.537
 2048TIP3   OH227702   4.448   4.927   7.891
 2048TIP3    H127703   4.387   4.924   7.817
 2048TIP3    H227704   4.392   4.925   7.968
 2049TIP3   OH227705   2.774   5.780   8.160
 2049TIP3    H127706   2.790   5.773   8.254
 2049TIP3    H227707   2.679   5.769   8.151
 2050TIP3   OH227708   5.168   6.147   6.622
 2050TIP3    H127709   5.140   6.225   6.574
 2050TIP3    H227710   5.259   6.134   6.595
 2051TIP3   OH227711   4.673   1.483   0.238
 2051TIP3    H127712   4.654   1.465   0.330
 2051TIP3    H227713   4.722   1.407   0.208
 2052TIP3   OH227714   6.115   6.744   8.218
 2052TIP3    H127715   6.032   6.706   8.188
 2052TIP3    H227716   6.113   0.041   8.185
 2053TIP3   OH227717   6.227   5.375   2.693
 2053TIP3    H127718   6.209   5.384   2.599
 2053TIP3    H227719   6.227   5.465   2.726
 2054TIP3   OH227720   0.649   5.326   0.281
 2054TIP3    H127721   0.681   5.252   0.230
 2054TIP3    H227722   0.598   5.287   0.352
 2055TIP3   OH227723   2.481   3.726   6.497
 2055TIP3    H127724   2.413   3.762   6.441
 2055TIP3    H227725   2.553   3.706   6.438
 2056TIP3   OH227726   1.702   0.624   8.780
 2056TIP3    H127727   1.746   0.702   8.815
 2056TIP3    H227728   1.727   0.621   8.688
 2057TIP3   OH227729   3.012   3.454   0.639
 2057TIP3    H127730   3.069   3.475   0.565
 2057TIP3    H227731   3.068   3.405   0.699
 2058TIP3   OH227732   5.553   3.591   0.059
 2058TIP3    H127733   5.465   3.627   0.065
 2058TIP3    H227734   5.611   3.664   0.081
 2059TIP3   OH227735   4.357   0.570   2.113
 2059TIP3    H127736   4.418   0.628   2.158
 2059TIP3    H227737   4.273   0.583   2.158
 2060TIP3   OH227738   3.686   0.921   1.352
 2060TIP3    H127739   3.671   0.880   1.267
 2060TIP3    H227740   3.655   1.011   1.341
 2061TIP3   OH227741   4.652   0.517   0.158
 2061TIP3    H127742   4.690   0.485   0.076
 2061TIP3    H227743   4.717   0.578   0.192
 2062TIP3   OH227744   2.172   3.233   1.420
 2062TIP3    H127745   2.185   3.297   1.490
 2062TIP3    H227746   2.258   3.224   1.380
 2063TIP3   OH227747   0.833   0.656   8.432
 2063TIP3    H127748   0.873   0.735   8.394
 2063TIP3    H227749   0.882   0.641   8.512
 2064TIP3   OH227750   5.597   6.468   0.845
 2064TIP3    H127751   5.686   6.499   0.825
 2064TIP3    H227752   5.557   6.452   0.760
 2065TIP3   OH227753   1.308   0.737   1.326
 2065TIP3    H127754   1.315   0.705   1.416
 2065TIP3    H227755   1.399   0.746   1.297
 2066TIP3   OH227756   3.105   5.878   0.634
 2066TIP3    H127757   3.068   5.791   0.653
 2066TIP3    H227758   3.032   5.927   0.595
 2067TIP3   OH227759   1.609   4.369   7.961
 2067TIP3    H127760   1.560   4.294   7.995
 2067TIP3    H227761   1.698   4.356   7.994
 2068TIP3   OH227762   2.458   5.470   7.690
 2068TIP3    H127763   2.431   5.450   7.600
 2068TIP3    H227764   2.400   5.418   7.745
 2069TIP3   OH227765   1.617   3.164   0.814
 2069TIP3    H127766   1.592   3.094   0.753
 2069TIP3    H227767   1.558   3.236   0.793
 2070TIP3   OH227768   2.291   2.513   2.379
 2070TIP3    H127769   2.221   2.460   2.416
 2070TIP3    H227770   2.247   2.573   2.319
 2071TIP3   OH227771   4.998   3.068   7.211
 2071TIP3    H127772   5.069   3.132   7.204
 2071TIP3    H227773   5.027   2.994   7.158
 2072TIP3   OH227774   4.400   6.675   0.015
 2072TIP3    H127775   4.366   6.735   8.817
 2072TIP3    H227776   4.334   6.675   0.084
 2073TIP3   OH227777   2.910   6.359   7.138
 2073TIP3    H127778   2.815   6.363   7.147
 2073TIP3    H227779   2.925   6.344   7.045
 2074TIP3   OH227780   4.352   5.258   1.252
 2074TIP3    H127781   4.413   5.264   1.326
 2074TIP3    H227782   4.391   5.313   1.184
 2075TIP3   OH227783   4.318   4.469   7.390
 2075TIP3    H127784   4.304   4.481   7.484
 2075TIP3    H227785   4.322   4.558   7.355
 2076TIP3   OH227786   3.063   2.295   1.254
 2076TIP3    H127787   3.112   2.336   1.183
 2076TIP3    H227788   3.032   2.212   1.217
 2077TIP3   OH227789   1.509   6.384   8.721
 2077TIP3    H127790   1.552   6.312   8.675
 2077TIP3    H227791   1.579   6.425   8.773
 2078TIP3   OH227792   3.910   2.148   1.171
 2078TIP3    H127793   3.828   2.178   1.132
 2078TIP3    H227794   3.978   2.191   1.120
 2079TIP3   OH227795   0.464   6.127   0.671
 2079TIP3    H127796   0.535   6.149   0.732
 2079TIP3    H227797   0.392   6.184   0.697
 2080TIP3   OH227798   0.706   5.501   7.046
 2080TIP3    H127799   0.683   5.525   6.956
 2080TIP3    H227800   0.624   5.508   7.095
 2081TIP3   OH227801   5.615   1.997   0.179
 2081TIP3    H127802   5.698   1.990   0.132
 2081TIP3    H227803   5.614   1.922   0.239
 2082TIP3   OH227804   2.924   6.719   6.561
 2082TIP3    H127805   3.001   6.663   6.561
 2082TIP3    H227806   2.864   6.677   6.500
 2083TIP3   OH227807   3.447   0.831   7.146
 2083TIP3    H127808   3.526   0.848   7.196
 2083TIP3    H227809   3.476   0.779   7.072
 2084TIP3   OH227810   1.650   3.068   8.830
 2084TIP3    H127811   1.614   2.998   0.016
 2084TIP3    H227812   1.736   3.035   8.803
 2085TIP3   OH227813   2.364   0.520   1.718
 2085TIP3    H127814   2.272   0.500   1.702
 2085TIP3    H227815   2.384   0.591   1.657
 2086TIP3   OH227816   2.202   2.990   1.740
 2086TIP3    H127817   2.245   2.993   1.654
 2086TIP3    H227818   2.118   3.033   1.726
 2087TIP3   OH227819   2.265   4.792   0.007
 2087TIP3    H127820   2.311   4.874   8.856
 2087TIP3    H227821   2.249   4.753   8.790
 2088TIP3   OH227822   1.283   0.804   1.063
 2088TIP3    H127823   1.287   0.764   1.150
 2088TIP3    H227824   1.238   0.887   1.076
 2089TIP3   OH227825   5.773   2.332   1.556
 2089TIP3    H127826   5.701   2.385   1.521
 2089TIP3    H227827   5.809   2.385   1.628
 2090TIP3   OH227828   5.098   3.757   1.127
 2090TIP3    H127829   5.155   3.695   1.174
 2090TIP3    H227830   5.045   3.702   1.070
 2091TIP3   OH227831   0.261   5.284   1.638
 2091TIP3    H127832   0.270   5.282   1.733
 2091TIP3    H227833   0.337   5.335   1.609
 2092TIP3   OH227834   1.596   0.293   0.515
 2092TIP3    H127835   1.552   0.249   0.588
 2092TIP3    H227836   1.545   0.268   0.438
 2093TIP3   OH227837   4.836   4.163   1.234
 2093TIP3    H127838   4.868   4.073   1.223
 2093TIP3    H227839   4.741   4.153   1.246
 2094TIP3   OH227840   2.292   1.005   1.419
 2094TIP3    H127841   2.378   0.983   1.455
 2094TIP3    H227842   2.270   1.088   1.460
 2095TIP3   OH227843   2.426   2.068   7.871
 2095TIP3    H127844   2.356   2.126   7.842
 2095TIP3    H227845   2.494   2.077   7.804
 2096TIP3   OH227846   2.919   6.742   0.098
 2096TIP3    H127847   3.009   6.776   0.098
 2096TIP3    H227848   2.922   6.666   0.155
 2097TIP3   OH227849   5.606   5.266   7.661
 2097TIP3    H127850   5.694   5.230   7.674
 2097TIP3    H227851   5.621   5.350   7.617
 2098TIP3   OH227852   4.824   1.228   8.218
 2098TIP3    H127853   4.747   1.185   8.182
 2098TIP3    H227854   4.791   1.310   8.254
 2099TIP3   OH227855   0.441   1.970   8.061
 2099TIP3    H127856   0.399   1.973   7.975
 2099TIP3    H227857   0.494   1.891   8.059
 2100TIP3   OH227858   2.247   6.350   7.495
 2100TIP3    H127859   2.165   6.348   7.545
 2100TIP3    H227860   2.221   6.379   7.408
 2101TIP3   OH227861   3.458   5.002   1.466
 2101TIP3    H127862   3.539   4.983   1.418
 2101TIP3    H227863   3.419   5.076   1.420
 2102TIP3   OH227864   0.079   2.797   8.294
 2102TIP3    H127865   0.067   2.719   8.348
 2102TIP3    H227866   0.128   2.857   8.350
 2103TIP3   OH227867   0.986   3.907   7.871
 2103TIP3    H127868   0.957   3.860   7.950
 2103TIP3    H227869   0.912   3.899   7.810
 2104TIP3   OH227870   1.084   0.107   7.966
 2104TIP3    H127871   1.107   0.200   7.973
 2104TIP3    H227872   1.138   0.064   8.033
 2105TIP3   OH227873   5.504   1.050   2.250
 2105TIP3    H127874   5.594   1.084   2.245
 2105TIP3    H227875   5.454   1.108   2.193
 2106TIP3   OH227876   0.624   3.359   7.679
 2106TIP3    H127877   0.572   3.279   7.670
 2106TIP3    H227878   0.641   3.387   7.589
 2107TIP3   OH227879   6.021   2.386   7.356
 2107TIP3    H127880   5.935   2.345   7.357
 2107TIP3    H227881   6.083   2.314   7.365
 2108TIP3   OH227882   5.585   2.813   7.725
 2108TIP3    H127883   5.632   2.803   7.807
 2108TIP3    H227884   5.653   2.823   7.659
 2109TIP3   OH227885   0.677   2.232   7.756
 2109TIP3    H127886   0.702   2.234   7.848
 2109TIP3    H227887   0.643   2.144   7.742
 2110TIP3   OH227888   1.223   4.642   7.510
 2110TIP3    H127889   1.173   4.577   7.461
 2110TIP3    H227890   1.237   4.713   7.447
 2111TIP3   OH227891   4.658   1.355   8.698
 2111TIP3    H127892   4.576   1.371   8.745
 2111TIP3    H227893   4.665   1.260   8.695
 2112TIP3   OH227894   6.658   4.464   8.780
 2112TIP3    H127895   6.742   4.485   8.821
 2112TIP3    H227896   6.633   4.544   8.734
 2113TIP3   OH227897   2.758   0.390   1.247
 2113TIP3    H127898   2.695   0.373   1.178
 2113TIP3    H227899   2.842   0.399   1.202
 2114TIP3   OH227900   0.653   1.119   0.730
 2114TIP3    H127901   0.631   1.037   0.773
 2114TIP3    H227902   0.645   1.100   0.636
 2115TIP3   OH227903   3.437   2.311   0.168
 2115TIP3    H127904   3.488   2.330   0.246
 2115TIP3    H227905   3.374   2.244   0.195
 2116TIP3   OH227906   4.502   5.441   8.704
 2116TIP3    H127907   4.542   5.522   8.672
 2116TIP3    H227908   4.490   5.456   8.798
 2117TIP3   OH227909   2.772   0.377   1.624
 2117TIP3    H127910   2.778   0.460   1.578
 2117TIP3    H227911   2.780   0.401   1.717
 2118TIP3   OH227912   4.226   1.058   0.970
 2118TIP3    H127913   4.235   0.980   0.916
 2118TIP3    H227914   4.183   1.122   0.912
 2119TIP3   OH227915   4.835   2.793   0.043
 2119TIP3    H127916   4.908   2.762   0.096
 2119TIP3    H227917   4.826   2.729   8.842
 2120TIP3   OH227918   4.845   0.754   7.574
 2120TIP3    H127919   4.924   0.750   7.521
 2120TIP3    H227920   4.800   0.671   7.557
 2121TIP3   OH227921   3.405   4.160   2.066
 2121TIP3    H127922   3.450   4.076   2.064
 2121TIP3    H227923   3.342   4.152   2.137
 2122TIP3   OH227924   5.166   4.964   1.929
 2122TIP3    H127925   5.077   4.960   1.964
 2122TIP3    H227926   5.201   4.876   1.941
 2123TIP3   OH227927   2.497   5.093   0.747
 2123TIP3    H127928   2.472   5.181   0.772
 2123TIP3    H227929   2.454   5.079   0.662
 2124TIP3   OH227930   4.347   5.576   1.444
 2124TIP3    H127931   4.282   5.506   1.450
 2124TIP3    H227932   4.343   5.619   1.529
 2125TIP3   OH227933   6.740   3.827   1.598
 2125TIP3    H127934   6.744   3.898   1.662
 2125TIP3    H227935   6.696   3.755   1.643
 2126TIP3   OH227936   4.267   0.433   1.866
 2126TIP3    H127937   4.298   0.476   1.946
 2126TIP3    H227938   4.312   0.348   1.866
 2127TIP3   OH227939   0.204   1.398   2.417
 2127TIP3    H127940   0.118   1.407   2.459
 2127TIP3    H227941   0.225   1.486   2.386
 2128TIP3   OH227942   6.735   5.412   0.095
 2128TIP3    H127943   6.720   5.329   0.050
 2128TIP3    H227944   6.650   5.456   0.093
 2129TIP3   OH227945   0.342   5.534   8.809
 2129TIP3    H127946   0.391   5.530   0.023
 2129TIP3    H227947   0.284   5.458   8.811
 2130TIP3   OH227948   3.248   3.898   2.656
 2130TIP3    H127949   3.265   3.992   2.649
 2130TIP3    H227950   3.153   3.892   2.669
 2131TIP3   OH227951   3.423   5.643   7.968
 2131TIP3    H127952   3.497   5.666   7.912
 2131TIP3    H227953   3.438   5.552   7.991
 2132TIP3   OH227954   1.835   3.268   0.417
 2132TIP3    H127955   1.912   3.211   0.423
 2132TIP3    H227956   1.780   3.225   0.351
 2133TIP3   OH227957   2.509   4.607   7.321
 2133TIP3    H127958   2.468   4.549   7.257
 2133TIP3    H227959   2.461   4.690   7.311
 2134TIP3   OH227960   6.730   2.284   7.513
 2134TIP3    H127961   6.668   2.305   7.583
 2134TIP3    H227962   0.018   2.259   7.559
 2135TIP3   OH227963   4.292   2.228   8.321
 2135TIP3    H127964   4.235   2.280   8.377
 2135TIP3    H227965   4.370   2.210   8.374
 2136TIP3   OH227966   6.650   2.801   1.235
 2136TIP3    H127967   6.669   2.796   1.329
 2136TIP3    H227968   6.645   2.710   1.206
 2137TIP3   OH227969   5.124   5.476   7.749
 2137TIP3    H127970   5.192   5.532   7.712
 2137TIP3    H227971   5.042   5.522   7.731
 2138TIP3   OH227972   5.187   5.196   7.130
 2138TIP3    H127973   5.154   5.270   7.180
 2138TIP3    H227974   5.282   5.203   7.137
 2139TIP3   OH227975   4.470   5.200   8.219
 2139TIP3    H127976   4.481   5.114   8.259
 2139TIP3    H227977   4.552   5.246   8.238
 2140TIP3   OH227978   4.638   5.817   1.667
 2140TIP3    H127979   4.686   5.750   1.716
 2140TIP3    H227980   4.632   5.891   1.727
 2141TIP3   OH227981   3.558   4.997   1.197
 2141TIP3    H127982   3.526   5.063   1.136
 2141TIP3    H227983   3.653   5.000   1.188
 2142TIP3   OH227984   4.732   4.025   7.738
 2142TIP3    H127985   4.809   4.081   7.744
 2142TIP3    H227986   4.711   4.024   7.644
 2143TIP3   OH227987   5.164   4.754   1.353
 2143TIP3    H127988   5.201   4.669   1.328
 2143TIP3    H227989   5.156   4.802   1.271
 2144TIP3   OH227990   4.397   1.228   2.075
 2144TIP3    H127991   4.328   1.221   2.010
 2144TIP3    H227992   4.351   1.233   2.159
 2145TIP3   OH227993   2.613   6.233   7.729
 2145TIP3    H127994   2.622   6.158   7.788
 2145TIP3    H227995   2.641   6.200   7.644
 2146TIP3   OH227996   5.018   3.426   2.281
 2146TIP3    H127997   4.973   3.363   2.224
 2146TIP3    H227998   4.947   3.468   2.331
 2147TIP3   OH227999   0.942   0.512   8.672
 2147TIP3    H128000   0.941   0.501   8.767
 2147TIP3    H228001   0.908   0.430   8.638
 2148TIP3   OH228002   6.303   4.367   8.088
 2148TIP3    H128003   6.324   4.368   8.181
 2148TIP3    H228004   6.210   4.346   8.084
 2149TIP3   OH228005   6.739   5.889   8.219
 2149TIP3    H128006   6.715   5.848   8.136
 2149TIP3    H228007   0.041   5.882   8.223
 2150TIP3   OH228008   1.041   6.580   0.111
 2150TIP3    H128009   1.101   6.606   0.041
 2150TIP3    H228010   1.098   6.562   0.186
 2151TIP3   OH228011   4.230   1.687   0.841
 2151TIP3    H128012   4.239   1.632   0.919
 2151TIP3    H228013   4.317   1.725   0.829
 2152TIP3   OH228014   5.802   3.313   0.113
 2152TIP3    H128015   5.855   3.385   0.148
 2152TIP3    H228016   5.758   3.276   0.190
 2153TIP3   OH228017   4.011   2.184   7.551
 2153TIP3    H128018   3.919   2.180   7.525
 2153TIP3    H228019   4.020   2.270   7.594
 2154TIP3   OH228020   0.463   3.202   6.397
 2154TIP3    H128021   0.497   3.286   6.364
 2154TIP3    H228022   0.520   3.182   6.471
 2155TIP3   OH228023   1.893   2.853   1.394
 2155TIP3    H128024   1.828   2.802   1.443
 2155TIP3    H228025   1.856   2.942   1.391
 2156TIP3   OH228026   0.805   6.790   8.604
 2156TIP3    H128027   0.821   6.703   8.641
 2156TIP3    H228028   0.721   6.781   8.558
 2157TIP3   OH228029   6.137   2.971   8.783
 2157TIP3    H128030   6.162   3.004   8.697
 2157TIP3    H228031   6.091   3.044   8.825
 2158TIP3   OH228032   4.213   1.991   6.338
 2158TIP3    H128033   4.187   1.966   6.427
 2158TIP3    H228034   4.210   2.087   6.338
 2159TIP3   OH228035   3.981   5.929   1.214
 2159TIP3    H128036   4.044   5.970   1.273
 2159TIP3    H228037   4.010   5.953   1.126
 2160TIP3   OH228038   2.885   0.572   2.040
 2160TIP3    H128039   2.835   0.622   2.104
 2160TIP3    H228040   2.951   0.633   2.008
 2161TIP3   OH228041   5.822   1.770   8.490
 2161TIP3    H128042   5.762   1.841   8.467
 2161TIP3    H228043   5.787   1.693   8.446
 2162TIP3   OH228044   1.323   1.576   1.439
 2162TIP3    H128045   1.381   1.524   1.496
 2162TIP3    H228046   1.381   1.640   1.399
 2163TIP3   OH228047   0.958   6.300   8.080
 2163TIP3    H128048   1.052   6.295   8.096
 2163TIP3    H228049   0.948   6.272   7.989
 2164TIP3   OH228050   3.619   3.610   7.866
 2164TIP3    H128051   3.625   3.702   7.841
 2164TIP3    H228052   3.698   3.571   7.829
 2165TIP3   OH228053   4.424   5.202   6.599
 2165TIP3    H128054   4.464   5.163   6.521
 2165TIP3    H228055   4.499   5.226   6.654
 2166TIP3   OH228056   2.725   2.815   8.612
 2166TIP3    H128057   2.682   2.794   8.694
 2166TIP3    H228058   2.658   2.804   8.545
 2167TIP3   OH228059   1.626   6.707   7.840
 2167TIP3    H128060   1.632   0.009   7.847
 2167TIP3    H228061   1.710   6.680   7.802
 2168TIP3   OH228062   3.905   4.569   0.241
 2168TIP3    H128063   3.946   4.651   0.269
 2168TIP3    H228064   3.977   4.505   0.242
 2169TIP3   OH228065   3.812   6.583   0.602
 2169TIP3    H128066   3.877   6.517   0.577
 2169TIP3    H228067   3.729   6.536   0.603
 2170TIP3   OH228068   6.238   2.036   0.704
 2170TIP3    H128069   6.316   1.984   0.684
 2170TIP3    H228070   6.242   2.050   0.798
 2171TIP3   OH228071   5.233   3.000   0.865
 2171TIP3    H128072   5.192   2.915   0.879
 2171TIP3    H228073   5.180   3.041   0.796
 2172TIP3   OH228074   3.461   4.029   1.497
 2172TIP3    H128075   3.500   4.084   1.429
 2172TIP3    H228076   3.522   3.956   1.507
 2173TIP3   OH228077   0.338   3.197   6.765
 2173TIP3    H128078   0.420   3.160   6.730
 2173TIP3    H228079   0.305   3.252   6.695
 2174TIP3   OH228080   4.364   4.518   6.921
 2174TIP3    H128081   4.358   4.435   6.873
 2174TIP3    H228082   4.290   4.570   6.889
 2175TIP3   OH228083   4.779   6.292   7.665
 2175TIP3    H128084   4.861   6.295   7.616
 2175TIP3    H228085   4.768   6.199   7.687
 2176TIP3   OH228086   2.786   3.723   8.253
 2176TIP3    H128087   2.822   3.659   8.315
 2176TIP3    H228088   2.693   3.728   8.275
 2177TIP3   OH228089   6.134   6.444   7.773
 2177TIP3    H128090   6.227   6.431   7.790
 2177TIP3    H228091   6.123   6.539   7.773
 2178TIP3   OH228092   3.121   6.047   7.898
 2178TIP3    H128093   3.055   6.011   7.840
 2178TIP3    H228094   3.136   6.136   7.866
 2179TIP3   OH228095   5.526   3.779   8.604
 2179TIP3    H128096   5.527   3.785   8.699
 2179TIP3    H228097   5.433   3.786   8.581
 2180TIP3   OH228098   4.004   2.967   7.376
 2180TIP3    H128099   3.987   2.924   7.460
 2180TIP3    H228100   3.960   2.911   7.312
 2181TIP3   OH228101   1.820   6.326   7.884
 2181TIP3    H128102   1.817   6.245   7.935
 2181TIP3    H228103   1.804   6.299   7.794
 2182TIP3   OH228104   5.908   0.458   0.204
 2182TIP3    H128105   5.908   0.467   0.109
 2182TIP3    H228106   5.922   0.547   0.237
 2183TIP3   OH228107   0.947   4.059   8.548
 2183TIP3    H128108   0.867   4.028   8.589
 2183TIP3    H228109   0.932   4.048   8.454
 2184TIP3   OH228110   3.761   4.030   0.006
 2184TIP3    H128111   3.690   3.966   0.017
 2184TIP3    H228112   3.742   4.072   8.790
 2185TIP3   OH228113   3.214   0.323   7.152
 2185TIP3    H128114   3.246   0.353   7.067
 2185TIP3    H228115   3.219   0.400   7.208
 2186TIP3   OH228116   4.222   6.178   7.452
 2186TIP3    H128117   4.233   6.269   7.424
 2186TIP3    H228118   4.310   6.151   7.481
 2187TIP3   OH228119   0.735   0.952   8.157
 2187TIP3    H128120   0.733   0.959   8.252
 2187TIP3    H228121   0.649   0.916   8.133
 2188TIP3   OH228122   3.190   3.336   1.070
 2188TIP3    H128123   3.250   3.385   1.014
 2188TIP3    H228124   3.243   3.267   1.108
 2189TIP3   OH228125   0.504   6.476   7.227
 2189TIP3    H128126   0.449   6.549   7.198
 2189TIP3    H228127   0.455   6.397   7.204
 2190TIP3   OH228128   5.969   0.301   8.495
 2190TIP3    H128129   6.015   0.310   8.411
 2190TIP3    H228130   5.900   0.367   8.493
 2191TIP3   OH228131   3.208   2.623   0.638
 2191TIP3    H128132   3.134   2.577   0.676
 2191TIP3    H228133   3.171   2.675   0.567
 2192TIP3   OH228134   4.540   5.774   0.086
 2192TIP3    H128135   4.606   5.724   0.039
 2192TIP3    H228136   4.458   5.751   0.043
 2193TIP3   OH228137   5.907   2.548   1.116
 2193TIP3    H128138   5.945   2.530   1.202
 2193TIP3    H228139   5.920   2.467   1.067
 2194TIP3   OH228140   0.514   2.277   0.912
 2194TIP3    H128141   0.582   2.211   0.899
 2194TIP3    H228142   0.540   2.349   0.854
 2195TIP3   OH228143   2.040   5.427   8.632
 2195TIP3    H128144   2.025   5.413   8.725
 2195TIP3    H228145   2.099   5.502   8.629
 2196TIP3   OH228146   4.557   3.262   7.320
 2196TIP3    H128147   4.646   3.273   7.285
 2196TIP3    H228148   4.558   3.177   7.363
 2197TIP3   OH228149   3.236   0.588   0.949
 2197TIP3    H128150   3.146   0.603   0.920
 2197TIP3    H228151   3.250   0.495   0.936
 2198TIP3   OH228152   1.399   1.177   0.928
 2198TIP3    H128153   1.365   1.127   1.001
 2198TIP3    H228154   1.491   1.151   0.922
 2199TIP3   OH228155   2.490   5.592   7.966
 2199TIP3    H128156   2.564   5.540   7.933
 2199TIP3    H228157   2.474   5.557   8.053
 2200TIP3   OH228158   2.406   5.397   0.716
 2200TIP3    H128159   2.454   5.442   0.646
 2200TIP3    H228160   2.314   5.415   0.699
 2201TIP3   OH228161   2.530   2.935   2.081
 2201TIP3    H128162   2.612   2.982   2.087
 2201TIP3    H228163   2.515   2.923   1.987
 2202TIP3   OH228164   1.937   0.525   0.945
 2202TIP3    H128165   1.990   0.499   1.020
 2202TIP3    H228166   1.869   0.458   0.939
 2203TIP3   OH228167   1.653   5.884   0.910
 2203TIP3    H128168   1.684   5.893   0.820
 2203TIP3    H228169   1.678   5.795   0.936
 2204TIP3   OH228170   6.418   1.568   1.419
 2204TIP3    H128171   6.340   1.594   1.371
 2204TIP3    H228172   6.383   1.525   1.498
 2205TIP3   OH228173   0.019   3.244   6.696
 2205TIP3    H128174   6.760   3.318   6.728
 2205TIP3    H228175   0.087   3.284   6.642
 2206TIP3   OH228176   0.785   2.200   0.044
 2206TIP3    H128177   0.871   2.230   0.014
 2206TIP3    H228178   0.722   2.252   8.860
 2207TIP3   OH228179   6.106   6.699   0.615
 2207TIP3    H128180   6.177   6.761   0.598
 2207TIP3    H228181   6.043   6.716   0.545
 2208TIP3   OH228182   5.569   6.177   8.424
 2208TIP3    H128183   5.494   6.165   8.481
 2208TIP3    H228184   5.640   6.205   8.482
 2209TIP3   OH228185   3.598   3.950   6.386
 2209TIP3    H128186   3.589   3.858   6.409
 2209TIP3    H228187   3.681   3.977   6.424
 2210TIP3   OH228188   2.989   5.368   0.661
 2210TIP3    H128189   2.940   5.344   0.739
 2210TIP3    H228190   2.932   5.344   0.588
 2211TIP3   OH228191   0.906   3.394   6.939
 2211TIP3    H128192   0.911   3.386   6.844
 2211TIP3    H228193   0.947   3.315   6.973
 2212TIP3   OH228194   3.787   1.039   7.557
 2212TIP3    H128195   3.766   1.063   7.648
 2212TIP3    H228196   3.751   1.110   7.504
 2213TIP3   OH228197   5.447   5.235   0.830
 2213TIP3    H128198   5.376   5.181   0.797
 2213TIP3    H228199   5.486   5.273   0.751
 2214TIP3   OH228200   0.076   2.480   0.872
 2214TIP3    H128201   0.087   2.563   0.918
 2214TIP3    H228202   6.788   2.490   0.823
 2215TIP3   OH228203   2.885   4.937   8.154
 2215TIP3    H128204   2.890   5.032   8.143
 2215TIP3    H228205   2.889   4.923   8.249
 2216TIP3   OH228206   2.505   4.369   8.496
 2216TIP3    H128207   2.420   4.329   8.518
 2216TIP3    H228208   2.567   4.296   8.502
 2217TIP3   OH228209   0.606   4.567   1.152
 2217TIP3    H128210   0.674   4.513   1.111
 2217TIP3    H228211   0.647   4.653   1.163
 2218TIP3   OH228212   4.505   2.129   0.740
 2218TIP3    H128213   4.556   2.087   0.672
 2218TIP3    H228214   4.558   2.205   0.766
 2219TIP3   OH228215   2.911   0.815   6.590
 2219TIP3    H128216   2.880   0.898   6.627
 2219TIP3    H228217   2.831   0.770   6.563
 2220TIP3   OH228218   2.541   2.800   8.813
 2220TIP3    H128219   2.447   2.800   8.830
 2220TIP3    H228220   2.560   2.713   8.778
 2221TIP3   OH228221   2.120   0.066   1.252
 2221TIP3    H128222   2.083   0.080   1.339
 2221TIP3    H228223   2.168   0.147   1.233
 2222TIP3   OH228224   0.657   6.148   1.013
 2222TIP3    H128225   0.634   6.221   1.070
 2222TIP3    H228226   0.665   6.188   0.926
 2223TIP3   OH228227   5.602   5.525   6.846
 2223TIP3    H128228   5.601   5.574   6.764
 2223TIP3    H228229   5.621   5.435   6.819
 2224TIP3   OH228230   2.775   0.804   8.798
 2224TIP3    H128231   2.827   0.883   8.783
 2224TIP3    H228232   2.687   0.827   8.767
 2225TIP3   OH228233   3.194   0.918   8.770
 2225TIP3    H128234   3.187   0.871   8.854
 2225TIP3    H228235   3.108   0.957   8.758
 2226TIP3   OH228236   0.902   0.264   8.575
 2226TIP3    H128237   0.940   0.254   8.488
 2226TIP3    H228238   0.853   0.183   8.589
 2227TIP3   OH228239   2.238   1.288   6.751
 2227TIP3    H128240   2.186   1.354   6.707
 2227TIP3    H228241   2.208   1.205   6.715
 2228TIP3   OH228242   2.025   3.674   0.617
 2228TIP3    H128243   1.988   3.644   0.533
 2228TIP3    H228244   2.110   3.630   0.623
 2229TIP3   OH228245   3.441   0.468   8.758
 2229TIP3    H128246   3.424   0.559   8.735
 2229TIP3    H228247   3.537   0.461   8.760
 2230TIP3   OH228248   3.139   3.107   1.395
 2230TIP3    H128249   3.210   3.108   1.460
 2230TIP3    H228250   3.071   3.162   1.434
 2231TIP3   OH228251   5.383   1.315   2.121
 2231TIP3    H128252   5.364   1.357   2.205
 2231TIP3    H228253   5.418   1.385   2.066
 2232TIP3   OH228254   3.538   0.520   6.637
 2232TIP3    H128255   3.561   0.610   6.663
 2232TIP3    H228256   3.561   0.467   6.713
 2233TIP3   OH228257   0.141   2.031   0.652
 2233TIP3    H128258   0.091   1.969   0.706
 2233TIP3    H228259   0.170   2.098   0.713
 2234TIP3   OH228260   6.707   5.870   6.810
 2234TIP3    H128261   6.617   5.867   6.777
 2234TIP3    H228262   6.722   5.962   6.830
 2235TIP3   OH228263   5.155   5.222   1.857
 2235TIP3    H128264   5.209   5.258   1.927
 2235TIP3    H228265   5.141   5.131   1.881
 2236TIP3   OH228266   6.612   3.865   7.208
 2236TIP3    H128267   6.521   3.893   7.203
 2236TIP3    H228268   6.618   3.821   7.293
 2237TIP3   OH228269   2.523   0.652   0.415
 2237TIP3    H128270   2.575   0.693   0.483
 2237TIP3    H228271   2.461   0.720   0.387
 2238TIP3   OH228272   5.134   0.086   0.002
 2238TIP3    H128273   5.130   0.108   8.777
 2238TIP3    H228274   5.098   6.790   0.006
 2239TIP3   OH228275   2.344   1.894   6.375
 2239TIP3    H128276   2.343   1.799   6.391
 2239TIP3    H228277   2.437   1.917   6.376
 2240TIP3   OH228278   3.054   4.466   6.514
 2240TIP3    H128279   3.143   4.466   6.548
 2240TIP3    H228280   2.999   4.456   6.592
 2241TIP3   OH228281   2.270   5.109   7.995
 2241TIP3    H128282   2.211   5.156   8.053
 2241TIP3    H228283   2.356   5.146   8.013
 2242TIP3   OH228284   0.990   3.215   0.633
 2242TIP3    H128285   0.963   3.124   0.646
 2242TIP3    H228286   0.907   3.263   0.627
 2243TIP3   OH228287   1.205   0.605   0.820
 2243TIP3    H128288   1.165   0.687   0.848
 2243TIP3    H228289   1.209   0.611   0.724
 2244TIP3   OH228290   5.603   0.271   8.171
 2244TIP3    H128291   5.533   0.334   8.154
 2244TIP3    H228292   5.681   0.312   8.136
 2245TIP3   OH228293   6.236   3.535   7.414
 2245TIP3    H128294   6.207   3.572   7.330
 2245TIP3    H228295   6.327   3.512   7.401
 2246TIP3   OH228296   0.916   4.160   0.985
 2246TIP3    H128297   0.831   4.179   0.944
 2246TIP3    H228298   0.909   4.068   1.013
 2247TIP3   OH228299   0.419   2.394   1.151
 2247TIP3    H128300   0.452   2.324   1.096
 2247TIP3    H228301   0.384   2.459   1.089
 2248TIP3   OH228302   2.564   6.786   8.741
 2248TIP3    H128303   2.585   0.023   8.830
 2248TIP3    H228304   2.631   6.721   8.720
 2249TIP3   OH228305   0.859   0.739   1.690
 2249TIP3    H128306   0.947   0.708   1.665
 2249TIP3    H228307   0.811   0.659   1.710
 2250TIP3   OH228308   5.702   3.482   0.880
 2250TIP3    H128309   5.780   3.522   0.840
 2250TIP3    H228310   5.725   3.472   0.972
 2251TIP3   OH228311   1.400   4.282   0.397
 2251TIP3    H128312   1.427   4.351   0.458
 2251TIP3    H228313   1.360   4.215   0.452
 2252TIP3   OH228314   6.500   4.844   7.970
 2252TIP3    H128315   6.574   4.810   8.020
 2252TIP3    H228316   6.428   4.783   7.988
 2253TIP3   OH228317   3.441   1.652   8.851
 2253TIP3    H128318   3.392   1.570   8.850
 2253TIP3    H228319   3.510   1.637   0.047
 2254TIP3   OH228320   3.679   0.510   2.132
 2254TIP3    H128321   3.748   0.475   2.076
 2254TIP3    H228322   3.722   0.580   2.182
 2255TIP3   OH228323   4.567   4.073   1.192
 2255TIP3    H128324   4.610   3.989   1.176
 2255TIP3    H228325   4.485   4.051   1.236
 2256TIP3   OH228326   5.613   5.561   2.234
 2256TIP3    H128327   5.526   5.567   2.195
 2256TIP3    H228328   5.601   5.504   2.309
 2257TIP3   OH228329   1.997   6.023   6.711
 2257TIP3    H128330   2.071   6.070   6.750
 2257TIP3    H228331   2.037   5.958   6.654
 2258TIP3   OH228332   5.702   3.202   7.721
 2258TIP3    H128333   5.701   3.263   7.647
 2258TIP3    H228334   5.778   3.146   7.704
 2259TIP3   OH228335   5.519   3.207   8.397
 2259TIP3    H128336   5.593   3.231   8.454
 2259TIP3    H228337   5.485   3.291   8.366
 2260TIP3   OH228338   6.590   0.850   6.948
 2260TIP3    H128339   6.612   0.940   6.925
 2260TIP3    H228340   6.659   0.797   6.907
 2261TIP3   OH228341   0.417   2.635   7.280
 2261TIP3    H128342   0.367   2.655   7.359
 2261TIP3    H228343   0.395   2.544   7.260
 2262TIP3   OH228344   0.994   5.926   7.379
 2262TIP3    H128345   1.038   5.851   7.420
 2262TIP3    H228346   1.007   5.912   7.285
 2263TIP3   OH228347   2.905   5.756   8.410
 2263TIP3    H128348   2.973   5.744   8.343
 2263TIP3    H228349   2.905   5.850   8.428
 2264TIP3   OH228350   4.606   5.041   7.519
 2264TIP3    H128351   4.687   5.039   7.467
 2264TIP3    H228352   4.634   5.071   7.605
 2265TIP3   OH228353   1.771   6.660   7.172
 2265TIP3    H128354   1.710   6.604   7.124
 2265TIP3    H228355   1.716   6.728   7.210
 2266TIP3   OH228356   3.324   6.009   1.955
 2266TIP3    H128357   3.356   5.981   1.870
 2266TIP3    H228358   3.321   6.104   1.950
 2267TIP3   OH228359   5.445   6.151   6.514
 2267TIP3    H128360   5.450   6.196   6.430
 2267TIP3    H228361   5.502   6.075   6.504
 2268TIP3   OH228362   0.538   6.634   8.234
 2268TIP3    H128363   0.529   6.596   8.322
 2268TIP3    H228364   0.633   6.640   8.221
 2269TIP3   OH228365   5.501   4.018   0.731
 2269TIP3    H128366   5.473   4.109   0.733
 2269TIP3    H228367   5.577   4.018   0.672
 2270TIP3   OH228368   4.548   3.188   1.712
 2270TIP3    H128369   4.614   3.254   1.694
 2270TIP3    H228370   4.597   3.106   1.721
 2271TIP3   OH228371   0.549   2.896   1.236
 2271TIP3    H128372   0.596   2.907   1.320
 2271TIP3    H228373   0.529   2.803   1.232
 2272TIP3   OH228374   3.677   4.520   1.544
 2272TIP3    H128375   3.678   4.429   1.575
 2272TIP3    H228376   3.607   4.522   1.479
 2273TIP3   OH228377   5.663   0.261   6.882
 2273TIP3    H128378   5.758   0.255   6.881
 2273TIP3    H228379   5.644   0.355   6.873
 2274TIP3   OH228380   5.218   3.989   7.664
 2274TIP3    H128381   5.260   4.046   7.600
 2274TIP3    H228382   5.241   4.026   7.749
 2275TIP3   OH228383   0.249   2.386   7.026
 2275TIP3    H128384   0.173   2.349   7.070
 2275TIP3    H228385   0.313   2.401   7.097
 2276TIP3   OH228386   2.810   1.118   7.381
 2276TIP3    H128387   2.840   1.031   7.355
 2276TIP3    H228388   2.764   1.152   7.304
 2277TIP3   OH228389   1.659   3.684   8.081
 2277TIP3    H128390   1.653   3.778   8.062
 2277TIP3    H228391   1.751   3.662   8.064
 2278TIP3   OH228392   3.021   1.741   0.609
 2278TIP3    H128393   2.965   1.808   0.649
 2278TIP3    H228394   2.976   1.719   0.527
 2279TIP3   OH228395   1.830   6.449   6.417
 2279TIP3    H128396   1.779   6.420   6.341
 2279TIP3    H228397   1.858   6.368   6.460
 2280TIP3   OH228398   1.589   5.280   7.796
 2280TIP3    H128399   1.669   5.253   7.750
 2280TIP3    H228400   1.523   5.287   7.728
 2281TIP3   OH228401   5.610   5.453   0.323
 2281TIP3    H128402   5.647   5.486   0.242
 2281TIP3    H228403   5.516   5.458   0.311
 2282TIP3   OH228404   4.046   0.768   7.568
 2282TIP3    H128405   4.074   0.682   7.536
 2282TIP3    H228406   4.017   0.814   7.489
 2283TIP3   OH228407   4.390   0.512   0.305
 2283TIP3    H128408   4.446   0.453   0.254
 2283TIP3    H228409   4.389   0.593   0.255
 2284TIP3   OH228410   1.920   0.505   7.068
 2284TIP3    H128411   1.912   0.445   6.994
 2284TIP3    H228412   1.951   0.587   7.030
 2285TIP3   OH228413   6.069   4.779   0.396
 2285TIP3    H128414   6.056   4.702   0.340
 2285TIP3    H228415   6.071   4.853   0.334
 2286TIP3   OH228416   4.371   2.250   1.972
 2286TIP3    H128417   4.294   2.198   1.950
 2286TIP3    H228418   4.374   2.249   2.068
 2287TIP3   OH228419   4.803   6.754   7.591
 2287TIP3    H128420   4.761   6.705   7.661
 2287TIP3    H228421   4.874   6.697   7.561
 2288TIP3   OH228422   6.469   5.217   0.277
 2288TIP3    H128423   6.488   5.187   0.366
 2288TIP3    H228424   6.515   5.154   0.221
 2289TIP3   OH228425   3.141   2.846   1.420
 2289TIP3    H128426   3.152   2.940   1.412
 2289TIP3    H228427   3.186   2.823   1.502
 2290TIP3   OH228428   1.361   5.653   1.127
 2290TIP3    H128429   1.394   5.697   1.205
 2290TIP3    H228430   1.305   5.584   1.160
 2291TIP3   OH228431   4.778   1.606   8.778
 2291TIP3    H128432   4.755   1.586   8.688
 2291TIP3    H228433   4.767   1.523   8.825
 2292TIP3   OH228434   0.252   3.714   0.740
 2292TIP3    H128435   0.291   3.797   0.768
 2292TIP3    H228436   0.284   3.702   0.650
 2293TIP3   OH228437   6.294   0.686   0.061
 2293TIP3    H128438   6.316   0.670   0.153
 2293TIP3    H228439   6.343   0.620   0.013
 2294TIP3   OH228440   6.108   6.540   7.018
 2294TIP3    H128441   6.105   6.545   6.923
 2294TIP3    H228442   6.148   6.455   7.037
 2295TIP3   OH228443   5.820   1.292   0.501
 2295TIP3    H128444   5.860   1.356   0.442
 2295TIP3    H228445   5.726   1.312   0.497
 2296TIP3   OH228446   5.639   6.291   7.614
 2296TIP3    H128447   5.692   6.321   7.541
 2296TIP3    H228448   5.656   6.354   7.684
 2297TIP3   OH228449   4.045   0.306   7.303
 2297TIP3    H128450   4.027   0.334   7.213
 2297TIP3    H228451   4.114   0.240   7.294
 2298TIP3   OH228452   6.629   1.911   1.250
 2298TIP3    H128453   6.717   1.948   1.239
 2298TIP3    H228454   6.576   1.955   1.183
 2299TIP3   OH228455   6.668   2.287   8.475
 2299TIP3    H128456   6.596   2.238   8.516
 2299TIP3    H228457   6.633   2.376   8.464
 2300TIP3   OH228458   4.387   0.889   7.527
 2300TIP3    H128459   4.314   0.950   7.530
 2300TIP3    H228460   4.446   0.926   7.462
 2301TIP3   OH228461   2.458   3.696   0.425
 2301TIP3    H128462   2.516   3.773   0.422
 2301TIP3    H228463   2.440   3.684   0.518
 2302TIP3   OH228464   6.689   6.631   7.103
 2302TIP3    H128465   6.624   6.694   7.072
 2302TIP3    H228466   6.772   6.678   7.097
 2303TIP3   OH228467   6.148   1.861   0.072
 2303TIP3    H128468   6.149   1.773   0.036
 2303TIP3    H228469   6.228   1.902   0.037
 2304TIP3   OH228470   5.032   0.154   0.987
 2304TIP3    H128471   5.113   0.118   1.024
 2304TIP3    H228472   5.021   0.108   0.904
 2305TIP3   OH228473   1.911   4.141   8.611
 2305TIP3    H128474   1.821   4.174   8.614
 2305TIP3    H228475   1.902   4.047   8.628
 2306TIP3   OH228476   4.475   1.839   2.470
 2306TIP3    H128477   4.481   1.920   2.419
 2306TIP3    H228478   4.385   1.838   2.503
 2307TIP3   OH228479   1.405   1.197   0.214
 2307TIP3    H128480   1.476   1.247   0.173
 2307TIP3    H228481   1.338   1.190   0.146
 2308TIP3   OH228482   1.847   3.773   7.657
 2308TIP3    H128483   1.883   3.861   7.658
 2308TIP3    H228484   1.765   3.780   7.607
 2309TIP3   OH228485   6.778   3.289   1.760
 2309TIP3    H128486   0.016   3.222   1.821
 2309TIP3    H228487   6.683   3.290   1.772
 2310TIP3   OH228488   0.073   1.843   1.035
 2310TIP3    H128489   0.155   1.815   1.076
 2310TIP3    H228490   0.014   1.768   1.043
 2311TIP3   OH228491   5.221   0.540   0.840
 2311TIP3    H128492   5.198   0.489   0.763
 2311TIP3    H228493   5.166   0.618   0.835
 2312TIP3   OH228494   5.836   4.379   7.407
 2312TIP3    H128495   5.749   4.356   7.376
 2312TIP3    H228496   5.895   4.319   7.360
 2313TIP3   OH228497   6.502   3.237   6.557
 2313TIP3    H128498   6.464   3.296   6.492
 2313TIP3    H228499   6.435   3.170   6.570
 2314TIP3   OH228500   0.984   0.134   0.415
 2314TIP3    H128501   0.954   0.049   0.383
 2314TIP3    H228502   0.937   0.198   0.362
 2315TIP3   OH228503   4.083   2.543   7.404
 2315TIP3    H128504   4.088   2.507   7.493
 2315TIP3    H228505   4.054   2.469   7.350
 2316TIP3   OH228506   6.058   4.653   8.572
 2316TIP3    H128507   6.016   4.710   8.508
 2316TIP3    H228508   6.090   4.712   8.640
 2317TIP3   OH228509   2.564   3.221   1.830
 2317TIP3    H128510   2.658   3.204   1.840
 2317TIP3    H228511   2.526   3.135   1.809
 2318TIP3   OH228512   3.532   2.946   7.366
 2318TIP3    H128513   3.520   2.997   7.446
 2318TIP3    H228514   3.521   2.855   7.394
 2319TIP3   OH228515   6.580   0.143   8.079
 2319TIP3    H128516   6.674   0.141   8.100
 2319TIP3    H228517   6.574   0.099   7.994
 2320TIP3   OH228518   0.125   4.236   8.746
 2320TIP3    H128519   0.074   4.188   8.681
 2320TIP3    H228520   0.187   4.288   8.694
 2321TIP3   OH228521   4.352   1.260   8.503
 2321TIP3    H128522   4.424   1.198   8.492
 2321TIP3    H228523   4.273   1.209   8.484
 2322TIP3   OH228524   0.081   0.255   0.200
 2322TIP3    H128525   0.024   0.189   0.161
 2322TIP3    H228526   0.159   0.254   0.145
 2323TIP3   OH228527   2.873   0.487   6.514
 2323TIP3    H128528   2.798   0.434   6.540
 2323TIP3    H228529   2.843   0.535   6.437
 2324TIP3   OH228530   5.781   2.514   0.824
 2324TIP3    H128531   5.730   2.448   0.870
 2324TIP3    H228532   5.725   2.592   0.826
 2325TIP3   OH228533   1.720   3.916   6.029
 2325TIP3    H128534   1.728   3.821   6.023
 2325TIP3    H228535   1.714   3.934   6.123
 2326TIP3   OH228536   6.282   2.215   6.614
 2326TIP3    H128537   6.245   2.302   6.603
 2326TIP3    H228538   6.329   2.198   6.532
 2327TIP3   OH228539   6.559   6.057   1.369
 2327TIP3    H128540   6.644   6.047   1.411
 2327TIP3    H228541   6.574   6.123   1.301
 2328TIP3   OH228542   5.466   6.311   1.463
 2328TIP3    H128543   5.505   6.230   1.429
 2328TIP3    H228544   5.372   6.293   1.461
 2329TIP3   OH228545   2.730   5.461   7.859
 2329TIP3    H128546   2.821   5.484   7.841
 2329TIP3    H228547   2.706   5.401   7.788
 2330TIP3   OH228548   3.021   4.823   0.226
 2330TIP3    H128549   2.985   4.754   0.282
 2330TIP3    H228550   3.018   4.785   0.138
 2331TIP3   OH228551   6.512   6.716   1.207
 2331TIP3    H128552   6.506   0.019   1.216
 2331TIP3    H228553   6.594   6.702   1.159
 2332TIP3   OH228554   6.620   0.869   0.005
 2332TIP3    H128555   6.707   0.890   8.842
 2332TIP3    H228556   6.561   0.914   8.813
 2333TIP3   OH228557   6.427   5.138   1.278
 2333TIP3    H128558   6.494   5.176   1.221
 2333TIP3    H228559   6.364   5.209   1.290
 2334TIP3   OH228560   1.791   1.259   7.456
 2334TIP3    H128561   1.771   1.207   7.378
 2334TIP3    H228562   1.808   1.194   7.524
 2335TIP3   OH228563   0.989   5.884   7.108
 2335TIP3    H128564   1.066   5.850   7.062
 2335TIP3    H228565   0.916   5.864   7.050
 2336TIP3   OH228566   6.774   4.407   1.219
 2336TIP3    H128567   6.682   4.379   1.213
 2336TIP3    H228568   6.793   4.406   1.313
 2337TIP3   OH228569   0.602   3.029   8.183
 2337TIP3    H128570   0.664   3.103   8.179
 2337TIP3    H228571   0.522   3.062   8.142
 2338TIP3   OH228572   4.724   1.062   8.413
 2338TIP3    H128573   4.762   1.096   8.495
 2338TIP3    H228574   4.782   1.095   8.345
 2339TIP3   OH228575   2.756   1.060   1.742
 2339TIP3    H128576   2.706   1.005   1.803
 2339TIP3    H228577   2.769   1.142   1.789
 2340TIP3   OH228578   4.564   1.071   1.087
 2340TIP3    H128579   4.638   1.122   1.119
 2340TIP3    H228580   4.535   1.021   1.164
 2341TIP3   OH228581   1.238   1.807   0.577
 2341TIP3    H128582   1.148   1.828   0.555
 2341TIP3    H228583   1.243   1.818   0.672
 2342TIP3   OH228584   2.217   2.055   7.199
 2342TIP3    H128585   2.181   2.071   7.112
 2342TIP3    H228586   2.215   1.960   7.209
 2343TIP3   OH228587   6.189   0.156   1.796
 2343TIP3    H128588   6.203   0.229   1.857
 2343TIP3    H228589   6.098   0.166   1.768
 2344TIP3   OH228590   5.138   3.569   6.739
 2344TIP3    H128591   5.125   3.492   6.794
 2344TIP3    H228592   5.168   3.535   6.655
 2345TIP3   OH228593   2.912   4.035   2.655
 2345TIP3    H128594   2.831   4.011   2.610
 2345TIP3    H228595   2.890   4.031   2.748
 2346TIP3   OH228596   1.435   4.313   7.352
 2346TIP3    H128597   1.382   4.315   7.272
 2346TIP3    H228598   1.508   4.256   7.331
 2347TIP3   OH228599   2.623   0.602   7.872
 2347TIP3    H128600   2.682   0.545   7.921
 2347TIP3    H228601   2.594   0.667   7.936
 2348TIP3   OH228602   1.994   1.640   2.000
 2348TIP3    H128603   2.023   1.657   2.089
 2348TIP3    H228604   2.048   1.567   1.971
 2349TIP3   OH228605   0.128   4.433   7.108
 2349TIP3    H128606   0.189   4.370   7.068
 2349TIP3    H228607   0.135   4.511   7.054
 2350TIP3   OH228608   0.637   4.021   7.822
 2350TIP3    H128609   0.634   3.989   7.732
 2350TIP3    H228610   0.550   4.002   7.858
 2351TIP3   OH228611   4.395   3.899   1.388
 2351TIP3    H128612   4.382   3.814   1.344
 2351TIP3    H228613   4.388   3.878   1.482
 2352TIP3   OH228614   4.519   5.830   8.417
 2352TIP3    H128615   4.534   5.920   8.446
 2352TIP3    H228616   4.569   5.822   8.336
 2353TIP3   OH228617   5.406   2.571   2.586
 2353TIP3    H128618   5.451   2.640   2.538
 2353TIP3    H228619   5.424   2.491   2.537
 2354TIP3   OH228620   6.650   0.988   0.668
 2354TIP3    H128621   6.624   0.989   0.576
 2354TIP3    H228622   6.637   1.078   0.698
 2355TIP3   OH228623   6.269   0.198   1.030
 2355TIP3    H128624   6.279   0.131   0.962
 2355TIP3    H228625   6.256   0.280   0.981
 2356TIP3   OH228626   3.722   0.437   8.741
 2356TIP3    H128627   3.762   0.511   8.786
 2356TIP3    H228628   3.794   0.397   8.692
 2357TIP3   OH228629   6.173   1.066   8.145
 2357TIP3    H128630   6.192   1.076   8.238
 2357TIP3    H228631   6.090   1.019   8.142
 2358TIP3   OH228632   1.683   2.824   1.077
 2358TIP3    H128633   1.606   2.821   1.133
 2358TIP3    H228634   1.736   2.748   1.104
 2359TIP3   OH228635   3.071   2.993   1.867
 2359TIP3    H128636   3.128   3.057   1.909
 2359TIP3    H228637   3.048   2.931   1.937
 2360TIP3   OH228638   2.602   4.586   7.557
 2360TIP3    H128639   2.540   4.535   7.610
 2360TIP3    H228640   2.562   4.588   7.470
 2361TIP3   OH228641   0.687   1.966   0.132
 2361TIP3    H128642   0.705   2.022   0.056
 2361TIP3    H228643   0.593   1.948   0.127
 2362TIP3   OH228644   4.086   0.923   8.759
 2362TIP3    H128645   4.154   0.952   8.819
 2362TIP3    H228646   4.099   0.976   8.680
 2363TIP3   OH228647   0.819   3.639   1.158
 2363TIP3    H128648   0.741   3.684   1.188
 2363TIP3    H228649   0.870   3.623   1.238
 2364TIP3   OH228650   4.818   0.175   1.210
 2364TIP3    H128651   4.860   0.247   1.162
 2364TIP3    H228652   4.741   0.153   1.158
 2365TIP3   OH228653   1.868   3.671   2.109
 2365TIP3    H128654   1.796   3.614   2.133
 2365TIP3    H228655   1.916   3.622   2.042
 2366TIP3   OH228656   4.495   1.027   2.242
 2366TIP3    H128657   4.470   1.102   2.187
 2366TIP3    H228658   4.540   1.066   2.317
 2367TIP3   OH228659   6.225   5.127   0.565
 2367TIP3    H128660   6.253   5.217   0.553
 2367TIP3    H228661   6.130   5.132   0.577
 2368TIP3   OH228662   4.284   3.020   7.478
 2368TIP3    H128663   4.297   3.113   7.458
 2368TIP3    H228664   4.205   2.995   7.429
 2369TIP3   OH228665   3.613   6.644   8.388
 2369TIP3    H128666   3.592   6.552   8.406
 2369TIP3    H228667   3.655   6.643   8.302
 2370TIP3   OH228668   3.691   4.611   2.207
 2370TIP3    H128669   3.604   4.574   2.223
 2370TIP3    H228670   3.743   4.586   2.284
 2371TIP3   OH228671   1.349   0.911   6.511
 2371TIP3    H128672   1.305   0.934   6.429
 2371TIP3    H228673   1.355   0.994   6.559
 2372TIP3   OH228674   6.079   3.766   2.172
 2372TIP3    H128675   6.055   3.785   2.263
 2372TIP3    H228676   6.052   3.844   2.123
 2373TIP3   OH228677   4.594   3.604   6.558
 2373TIP3    H128678   4.557   3.578   6.473
 2373TIP3    H228679   4.555   3.543   6.620
 2374TIP3   OH228680   0.876   3.872   0.995
 2374TIP3    H128681   0.942   3.833   0.938
 2374TIP3    H228682   0.867   3.810   1.068
 2375TIP3   OH228683   4.099   1.254   6.581
 2375TIP3    H128684   4.089   1.262   6.675
 2375TIP3    H228685   4.049   1.327   6.545
 2376TIP3   OH228686   0.382   4.866   8.077
 2376TIP3    H128687   0.310   4.803   8.086
 2376TIP3    H228688   0.339   4.950   8.062
 2377TIP3   OH228689   1.389   3.673   1.996
 2377TIP3    H128690   1.332   3.744   2.025
 2377TIP3    H228691   1.446   3.656   2.072
 2378TIP3   OH228692   2.966   2.043   1.135
 2378TIP3    H128693   2.910   2.006   1.203
 2378TIP3    H228694   2.962   1.979   1.063
 2379TIP3   OH228695   1.393   0.034   6.863
 2379TIP3    H128696   1.330   0.104   6.844
 2379TIP3    H228697   1.365   6.792   6.948
 2380TIP3   OH228698   4.672   2.051   8.312
 2380TIP3    H128699   4.667   2.001   8.394
 2380TIP3    H228700   4.736   2.004   8.259
 2381TIP3   OH228701   1.047   5.983   8.733
 2381TIP3    H128702   1.050   6.072   8.696
 2381TIP3    H228703   1.089   5.991   8.818
 2382TIP3   OH228704   4.518   6.264   1.528
 2382TIP3    H128705   4.470   6.339   1.563
 2382TIP3    H228706   4.454   6.193   1.527
 2383TIP3   OH228707   3.065   2.842   8.210
 2383TIP3    H128708   2.979   2.865   8.176
 2383TIP3    H228709   3.072   2.748   8.194
 2384TIP3   OH228710   3.673   5.998   1.874
 2384TIP3    H128711   3.768   5.993   1.865
 2384TIP3    H228712   3.644   5.907   1.883
 2385TIP3   OH228713   2.279   4.260   7.336
 2385TIP3    H128714   2.333   4.292   7.409
 2385TIP3    H228715   2.339   4.257   7.262
 2386TIP3   OH228716   2.757   4.011   0.021
 2386TIP3    H128717   2.668   3.993   0.051
 2386TIP3    H228718   2.765   3.963   8.807
 2387TIP3   OH228719   6.606   0.782   0.276
 2387TIP3    H128720   6.565   0.787   0.190
 2387TIP3    H228721   6.693   0.820   0.264
 2388TIP3   OH228722   5.606   0.022   8.359
 2388TIP3    H128723   5.527   6.768   8.330
 2388TIP3    H228724   5.627   0.081   8.287
 2389TIP3   OH228725   3.519   0.533   1.639
 2389TIP3    H128726   3.487   0.471   1.705
 2389TIP3    H228727   3.614   0.520   1.639
 2390TIP3   OH228728   1.802   4.240   0.688
 2390TIP3    H128729   1.792   4.267   0.597
 2390TIP3    H228730   1.772   4.149   0.689
 2391TIP3   OH228731   3.979   6.748   7.602
 2391TIP3    H128732   3.940   6.776   7.685
 2391TIP3    H228733   3.950   0.022   7.539
 2392TIP3   OH228734   3.994   2.464   1.124
 2392TIP3    H128735   4.087   2.460   1.147
 2392TIP3    H228736   3.968   2.554   1.144
 2393TIP3   OH228737   4.316   5.399   6.412
 2393TIP3    H128738   4.369   5.331   6.455
 2393TIP3    H228739   4.328   5.476   6.467
 2394TIP3   OH228740   3.373   5.268   1.385
 2394TIP3    H128741   3.307   5.265   1.454
 2394TIP3    H228742   3.328   5.237   1.307
 2395TIP3   OH228743   6.188   4.263   7.396
 2395TIP3    H128744   6.224   4.278   7.484
 2395TIP3    H228745   6.199   4.346   7.351
 2396TIP3   OH228746   1.700   3.489   1.805
 2396TIP3    H128747   1.751   3.455   1.879
 2396TIP3    H228748   1.610   3.460   1.823
 2397TIP3   OH228749   6.012   4.663   8.218
 2397TIP3    H128750   6.031   4.583   8.268
 2397TIP3    H228751   5.924   4.688   8.247
 2398TIP3   OH228752   2.242   1.467   7.372
 2398TIP3    H128753   2.156   1.439   7.341
 2398TIP3    H228754   2.304   1.431   7.308
 2399TIP3   OH228755   0.395   3.291   1.003
 2399TIP3    H128756   0.326   3.333   1.055
 2399TIP3    H228757   0.466   3.277   1.065
 2400TIP3   OH228758   6.228   1.278   1.923
 2400TIP3    H128759   6.316   1.314   1.934
 2400TIP3    H228760   6.239   1.208   1.858
 2401TIP3   OH228761   1.283   5.311   8.169
 2401TIP3    H128762   1.235   5.232   8.194
 2401TIP3    H228763   1.273   5.370   8.244
 2402TIP3   OH228764   4.999   3.988   1.989
 2402TIP3    H128765   4.987   4.076   2.025
 2402TIP3    H228766   5.081   3.957   2.028
 2403TIP3   OH228767   2.290   1.198   7.237
 2403TIP3    H128768   2.211   1.170   7.284
 2403TIP3    H228769   2.338   1.116   7.221
 2404TIP3   OH228770   3.860   2.748   7.455
 2404TIP3    H128771   3.916   2.673   7.433
 2404TIP3    H228772   3.771   2.717   7.441
 2405TIP3   OH228773   4.341   0.606   8.782
 2405TIP3    H128774   4.316   0.576   8.695
 2405TIP3    H228775   4.329   0.529   8.839
 2406TIP3   OH228776   3.952   3.943   7.255
 2406TIP3    H128777   3.890   3.990   7.198
 2406TIP3    H228778   4.013   4.011   7.284
 2407TIP3   OH228779   4.602   4.459   7.052
 2407TIP3    H128780   4.646   4.457   6.967
 2407TIP3    H228781   4.510   4.473   7.031
 2408TIP3   OH228782   6.781   3.352   0.088
 2408TIP3    H128783   6.763   3.446   0.094
 2408TIP3    H228784   0.015   3.327   0.176
 2409TIP3   OH228785   0.762   0.443   7.397
 2409TIP3    H128786   0.815   0.385   7.452
 2409TIP3    H228787   0.756   0.524   7.447
 2410TIP3   OH228788   0.755   6.391   8.251
 2410TIP3    H128789   0.680   6.344   8.213
 2410TIP3    H228790   0.827   6.374   8.190
 2411TIP3   OH228791   6.736   4.779   8.109
 2411TIP3    H128792   6.758   4.698   8.155
 2411TIP3    H228793   0.016   4.793   8.049
 2412TIP3   OH228794   0.064   3.012   0.034
 2412TIP3    H128795   0.030   3.019   0.123
 2412TIP3    H228796   0.103   3.097   0.015
 2413TIP3   OH228797   3.709   1.754   7.640
 2413TIP3    H128798   3.693   1.744   7.734
 2413TIP3    H228799   3.700   1.848   7.624
 2414TIP3   OH228800   4.064   4.979   8.275
 2414TIP3    H128801   3.969   4.963   8.269
 2414TIP3    H228802   4.092   4.928   8.351
 2415TIP3   OH228803   4.373   3.706   1.841
 2415TIP3    H128804   4.452   3.673   1.796
 2415TIP3    H228805   4.407   3.756   1.915
 2416TIP3   OH228806   1.693   3.772   1.000
 2416TIP3    H128807   1.686   3.720   1.081
 2416TIP3    H228808   1.777   3.747   0.963
 2417TIP3   OH228809   0.484   4.232   1.941
 2417TIP3    H128810   0.498   4.272   2.027
 2417TIP3    H228811   0.392   4.248   1.921
 2418TIP3   OH228812   5.059   1.040   0.239
 2418TIP3    H128813   5.078   0.967   0.299
 2418TIP3    H228814   4.973   1.071   0.266
 2419TIP3   OH228815   4.902   4.556   8.373
 2419TIP3    H128816   4.965   4.625   8.351
 2419TIP3    H228817   4.951   4.494   8.427
 2420TIP3   OH228818   3.786   2.121   7.373
 2420TIP3    H128819   3.725   2.192   7.356
 2420TIP3    H228820   3.770   2.058   7.302
 2421TIP3   OH228821   3.802   4.151   0.938
 2421TIP3    H128822   3.765   4.183   0.856
 2421TIP3    H228823   3.822   4.059   0.921
 2422TIP3   OH228824   1.711   3.404   0.882
 2422TIP3    H128825   1.777   3.421   0.815
 2422TIP3    H228826   1.677   3.317   0.861
 2423TIP3   OH228827   4.907   5.444   1.862
 2423TIP3    H128828   4.982   5.503   1.852
 2423TIP3    H228829   4.946   5.357   1.867
 2424TIP3   OH228830   1.890   4.781   7.502
 2424TIP3    H128831   1.798   4.770   7.525
 2424TIP3    H228832   1.888   4.815   7.412
 2425TIP3   OH228833   5.528   2.130   8.272
 2425TIP3    H128834   5.462   2.193   8.302
 2425TIP3    H228835   5.482   2.074   8.210
 2426TIP3   OH228836   6.687   1.253   1.211
 2426TIP3    H128837   6.683   1.265   1.305
 2426TIP3    H228838   6.705   1.159   1.200
 2427TIP3   OH228839   1.913   1.319   1.359
 2427TIP3    H128840   1.949   1.408   1.360
 2427TIP3    H228841   1.875   1.310   1.271
 2428TIP3   OH228842   6.036   5.693   2.107
 2428TIP3    H128843   5.966   5.628   2.106
 2428TIP3    H228844   6.067   5.694   2.197
 2429TIP3   OH228845   4.516   5.455   0.153
 2429TIP3    H128846   4.589   5.432   0.211
 2429TIP3    H228847   4.467   5.521   0.201
 2430TIP3   OH228848   4.590   2.608   7.982
 2430TIP3    H128849   4.555   2.534   8.032
 2430TIP3    H228850   4.601   2.678   8.046
 2431TIP3   OH228851   3.703   1.889   7.219
 2431TIP3    H128852   3.674   1.913   7.131
 2431TIP3    H228853   3.687   1.795   7.224
 2432TIP3   OH228854   3.273   3.232   7.152
 2432TIP3    H128855   3.237   3.216   7.239
 2432TIP3    H228856   3.334   3.160   7.138
 2433TIP3   OH228857   0.263   1.341   1.597
 2433TIP3    H128858   0.231   1.297   1.519
 2433TIP3    H228859   0.256   1.275   1.666
 2434TIP3   OH228860   6.553   0.935   8.230
 2434TIP3    H128861   6.599   1.014   8.202
 2434TIP3    H228862   6.569   0.872   8.159
 2435TIP3   OH228863   4.191   5.002   7.764
 2435TIP3    H128864   4.161   5.086   7.798
 2435TIP3    H228865   4.147   4.937   7.819
 2436TIP3   OH228866   2.031   5.801   8.636
 2436TIP3    H128867   1.941   5.783   8.663
 2436TIP3    H228868   2.084   5.777   8.712
 2437TIP3   OH228869   2.784   5.429   2.383
 2437TIP3    H128870   2.695   5.411   2.414
 2437TIP3    H228871   2.802   5.360   2.321
 2438TIP3   OH228872   4.557   0.122   8.602
 2438TIP3    H128873   4.522   0.175   8.531
 2438TIP3    H228874   4.620   0.064   8.560
 2439TIP3   OH228875   4.022   5.023   6.324
 2439TIP3    H128876   4.061   5.110   6.310
 2439TIP3    H228877   4.097   4.964   6.329
 2440TIP3   OH228878   4.275   2.135   6.946
 2440TIP3    H128879   4.199   2.102   6.897
 2440TIP3    H228880   4.304   2.212   6.898
 2441TIP3   OH228881   5.092   3.567   2.044
 2441TIP3    H128882   5.058   3.577   2.133
 2441TIP3    H228883   5.187   3.557   2.055
 2442TIP3   OH228884   0.674   0.035   0.238
 2442TIP3    H128885   0.755   0.015   0.285
 2442TIP3    H228886   0.641   6.742   0.209
 2443TIP3   OH228887   5.473   3.287   0.632
 2443TIP3    H128888   5.464   3.302   0.726
 2443TIP3    H228889   5.564   3.310   0.613
 2444TIP3   OH228890   3.825   1.339   0.343
 2444TIP3    H128891   3.780   1.283   0.280
 2444TIP3    H228892   3.766   1.341   0.419
 2445TIP3   OH228893   2.706   3.582   0.584
 2445TIP3    H128894   2.785   3.632   0.606
 2445TIP3    H228895   2.655   3.582   0.664
 2446TIP3   OH228896   1.822   0.647   0.611
 2446TIP3    H128897   1.814   0.559   0.574
 2446TIP3    H228898   1.917   0.659   0.622
 2447TIP3   OH228899   3.643   4.797   8.456
 2447TIP3    H128900   3.717   4.765   8.405
 2447TIP3    H228901   3.566   4.757   8.415
 2448TIP3   OH228902   5.452   3.382   1.442
 2448TIP3    H128903   5.418   3.301   1.481
 2448TIP3    H228904   5.478   3.435   1.517
 2449TIP3   OH228905   0.389   0.231   1.417
 2449TIP3    H128906   0.416   0.323   1.427
 2449TIP3    H228907   0.459   0.181   1.460
 2450TIP3   OH228908   3.335   1.305   8.037
 2450TIP3    H128909   3.285   1.319   8.118
 2450TIP3    H228910   3.426   1.316   8.063
 2451TIP3   OH228911   2.629   2.304   1.792
 2451TIP3    H128912   2.611   2.395   1.814
 2451TIP3    H228913   2.576   2.254   1.853
 2452TIP3   OH228914   0.170   1.383   8.628
 2452TIP3    H128915   0.100   1.448   8.637
 2452TIP3    H228916   0.147   1.315   8.692
 2453TIP3   OH228917   2.301   2.410   8.803
 2453TIP3    H128918   2.310   2.324   8.846
 2453TIP3    H228919   2.265   2.467   0.002
 2454TIP3   OH228920   4.645   2.210   2.998
 2454TIP3    H128921   4.576   2.250   2.946
 2454TIP3    H228922   4.673   2.134   2.947
 2455TIP3   OH228923   6.250   5.597   7.092
 2455TIP3    H128924   6.253   5.650   7.172
 2455TIP3    H228925   6.221   5.511   7.121
 2456TIP3   OH228926   3.030   2.793   8.531
 2456TIP3    H128927   2.943   2.786   8.571
 2456TIP3    H228928   3.011   2.811   8.439
 2457TIP3   OH228929   3.175   0.372   8.760
 2457TIP3    H128930   3.113   0.431   8.716
 2457TIP3    H228931   3.250   0.427   8.782
 2458TIP3   OH228932   1.176   6.099   6.904
 2458TIP3    H128933   1.149   6.190   6.901
 2458TIP3    H228934   1.122   6.055   6.838
 2459TIP3   OH228935   0.400   2.102   6.801
 2459TIP3    H128936   0.401   2.008   6.780
 2459TIP3    H228937   0.307   2.125   6.802
 2460TIP3   OH228938   6.134   6.052   7.280
 2460TIP3    H128939   6.115   5.963   7.311
 2460TIP3    H228940   6.048   6.088   7.257
 2461TIP3   OH228941   6.067   4.265   8.317
 2461TIP3    H128942   5.992   4.321   8.298
 2461TIP3    H228943   6.109   4.307   8.393
 2462TIP3   OH228944   2.318   0.136   0.265
 2462TIP3    H128945   2.397   0.121   0.316
 2462TIP3    H228946   2.307   0.231   0.265
 2463TIP3   OH228947   2.760   5.313   7.645
 2463TIP3    H128948   2.840   5.336   7.596
 2463TIP3    H228949   2.741   5.223   7.618
 2464TIP3   OH228950   5.285   2.351   0.659
 2464TIP3    H128951   5.279   2.349   0.754
 2464TIP3    H228952   5.206   2.306   0.629
 2465TIP3   OH228953   1.729   0.336   0.867
 2465TIP3    H128954   1.674   0.275   0.817
 2465TIP3    H228955   1.802   0.282   0.899
 2466TIP3   OH228956   1.724   2.010   2.395
 2466TIP3    H128957   1.728   1.976   2.306
 2466TIP3    H228958   1.649   1.965   2.435
 2467TIP3   OH228959   3.393   0.825   8.426
 2467TIP3    H128960   3.314   0.779   8.454
 2467TIP3    H228961   3.400   0.805   8.333
 2468TIP3   OH228962   5.530   5.077   1.201
 2468TIP3    H128963   5.566   5.000   1.245
 2468TIP3    H228964   5.569   5.076   1.114
 2469TIP3   OH228965   4.749   3.234   6.552
 2469TIP3    H128966   4.826   3.284   6.526
 2469TIP3    H228967   4.683   3.255   6.486
 2470TIP3   OH228968   4.422   6.509   7.705
 2470TIP3    H128969   4.366   6.546   7.637
 2470TIP3    H228970   4.383   6.537   7.787
 2471TIP3   OH228971   4.020   5.584   1.322
 2471TIP3    H128972   4.073   5.629   1.388
 2471TIP3    H228973   3.951   5.646   1.299
 2472TIP3   OH228974   5.115   3.763   7.589
 2472TIP3    H128975   5.172   3.756   7.512
 2472TIP3    H228976   5.162   3.823   7.647
 2473TIP3   OH228977   4.181   5.551   8.220
 2473TIP3    H128978   4.189   5.643   8.245
 2473TIP3    H228979   4.272   5.519   8.216
 2474TIP3   OH228980   1.609   5.941   7.709
 2474TIP3    H128981   1.545   5.924   7.640
 2474TIP3    H228982   1.688   5.895   7.680
 2475TIP3   OH228983   1.960   5.869   0.708
 2475TIP3    H128984   2.007   5.923   0.771
 2475TIP3    H228985   1.931   5.930   0.640
 2476TIP3   OH228986   2.687   2.068   8.361
 2476TIP3    H128987   2.763   2.108   8.319
 2476TIP3    H228988   2.701   2.083   8.455
 2477TIP3   OH228989   4.734   0.010   0.799
 2477TIP3    H128990   4.692   0.072   0.740
 2477TIP3    H228991   4.706   0.036   0.887
 2478TIP3   OH228992   3.669   1.245   8.517
 2478TIP3    H128993   3.587   1.280   8.483
 2478TIP3    H228994   3.671   1.155   8.486
 2479TIP3   OH228995   5.542   0.203   7.767
 2479TIP3    H128996   5.506   0.151   7.839
 2479TIP3    H228997   5.565   0.287   7.808
 2480TIP3   OH228998   0.100   6.101   1.801
 2480TIP3    H128999   0.112   6.007   1.789
 2480TIP3    H229000   0.189   6.136   1.811
 2481TIP3   OH229001   2.989   6.384   8.158
 2481TIP3    H129002   2.920   6.383   8.092
 2481TIP3    H229003   3.017   6.292   8.165
 2482TIP3   OH229004   6.461   6.367   0.137
 2482TIP3    H129005   6.421   6.361   0.050
 2482TIP3    H229006   6.545   6.322   0.128
 2483TIP3   OH229007   5.636   0.930   7.477
 2483TIP3    H129008   5.587   1.013   7.471
 2483TIP3    H229009   5.569   0.863   7.487
 2484TIP3   OH229010   3.627   2.604   8.106
 2484TIP3    H129011   3.653   2.694   8.129
 2484TIP3    H229012   3.687   2.548   8.155
 2485TIP3   OH229013   4.395   0.585   0.568
 2485TIP3    H129014   4.371   0.557   0.479
 2485TIP3    H229015   4.327   0.648   0.592
 2486TIP3   OH229016   2.024   5.062   8.853
 2486TIP3    H129017   2.030   5.084   0.077
 2486TIP3    H229018   2.083   5.124   8.809
 2487TIP3   OH229019   2.375   0.144   2.681
 2487TIP3    H129020   2.470   0.152   2.671
 2487TIP3    H229021   2.354   0.056   2.651
 2488TIP3   OH229022   4.829   4.219   0.950
 2488TIP3    H129023   4.854   4.228   1.042
 2488TIP3    H229024   4.910   4.230   0.901
 2489TIP3   OH229025   1.778   0.694   7.789
 2489TIP3    H129026   1.697   0.648   7.808
 2489TIP3    H229027   1.844   0.650   7.844
 2490TIP3   OH229028   0.734   2.142   8.427
 2490TIP3    H129029   0.816   2.126   8.474
 2490TIP3    H229030   0.706   2.228   8.458
 2491TIP3   OH229031   1.476   3.324   0.650
 2491TIP3    H129032   1.475   3.266   0.574
 2491TIP3    H229033   1.402   3.383   0.636
 2492TIP3   OH229034   6.451   0.910   0.869
 2492TIP3    H129035   6.380   0.972   0.852
 2492TIP3    H229036   6.515   0.928   0.800
 2493TIP3   OH229037   1.669   4.201   7.038
 2493TIP3    H129038   1.734   4.216   6.969
 2493TIP3    H229039   1.592   4.249   7.009
 2494TIP3   OH229040   5.621   4.239   8.338
 2494TIP3    H129041   5.581   4.155   8.316
 2494TIP3    H229042   5.579   4.302   8.280
 2495TIP3   OH229043   3.763   5.063   0.380
 2495TIP3    H129044   3.683   5.017   0.404
 2495TIP3    H229045   3.786   5.029   0.294
 2496TIP3   OH229046   4.596   3.471   1.204
 2496TIP3    H129047   4.605   3.517   1.120
 2496TIP3    H229048   4.545   3.393   1.183
 2497TIP3   OH229049   5.193   6.602   8.533
 2497TIP3    H129050   5.214   6.632   8.622
 2497TIP3    H229051   5.221   6.510   8.532
 2498TIP3   OH229052   3.759   5.953   7.687
 2498TIP3    H129053   3.742   5.957   7.593
 2498TIP3    H229054   3.850   5.982   7.696
 2499TIP3   OH229055   1.665   4.281   8.640
 2499TIP3    H129056   1.653   4.298   8.733
 2499TIP3    H229057   1.577   4.279   8.604
 2500TIP3   OH229058   4.872   2.514   0.468
 2500TIP3    H129059   4.935   2.531   0.397
 2500TIP3    H229060   4.843   2.424   0.454
 2501TIP3   OH229061   4.772   1.027   7.265
 2501TIP3    H129062   4.742   1.026   7.174
 2501TIP3    H229063   4.865   1.009   7.260
 2502TIP3   OH229064   0.131   2.322   8.580
 2502TIP3    H129065   0.049   2.299   8.537
 2502TIP3    H229066   0.176   2.378   8.516
 2503TIP3   OH229067   5.798   0.889   7.244
 2503TIP3    H129068   5.779   0.973   7.202
 2503TIP3    H229069   5.772   0.901   7.335
 2504TIP3   OH229070   2.704   2.915   1.136
 2504TIP3    H129071   2.776   2.861   1.103
 2504TIP3    H229072   2.654   2.940   1.058
 2505TIP3   OH229073   1.950   0.833   7.540
 2505TIP3    H129074   1.955   0.826   7.445
 2505TIP3    H229075   1.918   0.747   7.569
 2506TIP3   OH229076   5.282   4.767   0.725
 2506TIP3    H129077   5.271   4.678   0.758
 2506TIP3    H229078   5.196   4.790   0.689
 2507TIP3   OH229079   4.605   1.205   0.160
 2507TIP3    H129080   4.569   1.145   0.094
 2507TIP3    H229081   4.699   1.189   0.158
 2508TIP3   OH229082   6.738   2.658   7.510
 2508TIP3    H129083   6.784   2.682   7.430
 2508TIP3    H229084   6.665   2.603   7.480
 2509TIP3   OH229085   6.411   0.862   7.664
 2509TIP3    H129086   6.463   0.784   7.682
 2509TIP3    H229087   6.358   0.838   7.588
 2510TIP3   OH229088   2.821   4.219   0.468
 2510TIP3    H129089   2.744   4.239   0.416
 2510TIP3    H229090   2.840   4.127   0.448
 2511TIP3   OH229091   2.534   4.343   1.761
 2511TIP3    H129092   2.606   4.281   1.767
 2511TIP3    H229093   2.532   4.369   1.669
 2512TIP3   OH229094   2.152   3.496   0.910
 2512TIP3    H129095   2.115   3.506   0.998
 2512TIP3    H229096   2.191   3.581   0.890
 2513TIP3   OH229097   6.697   0.714   7.449
 2513TIP3    H129098   6.609   0.684   7.424
 2513TIP3    H229099   6.702   0.699   7.544
 2514TIP3   OH229100   2.036   5.100   6.446
 2514TIP3    H129101   2.060   5.116   6.538
 2514TIP3    H229102   2.106   5.045   6.412
 2515TIP3   OH229103   1.668   3.761   2.350
 2515TIP3    H129104   1.719   3.803   2.419
 2515TIP3    H229105   1.733   3.722   2.292
 2516TIP3   OH229106   4.321   1.346   2.549
 2516TIP3    H129107   4.376   1.424   2.562
 2516TIP3    H229108   4.369   1.276   2.592
 2517TIP3   OH229109   2.738   4.072   7.917
 2517TIP3    H129110   2.765   3.980   7.925
 2517TIP3    H229111   2.705   4.094   8.003
 2518TIP3   OH229112   2.067   4.680   8.186
 2518TIP3    H129113   2.086   4.762   8.140
 2518TIP3    H229114   1.983   4.695   8.227
 2519TIP3   OH229115   1.513   1.807   1.407
 2519TIP3    H129116   1.489   1.896   1.430
 2519TIP3    H229117   1.501   1.802   1.312
 2520TIP3   OH229118   1.768   1.861   7.519
 2520TIP3    H129119   1.837   1.816   7.472
 2520TIP3    H229120   1.760   1.814   7.602
 2521TIP3   OH229121   5.863   4.383   1.240
 2521TIP3    H129122   5.783   4.347   1.202
 2521TIP3    H229123   5.867   4.345   1.328
 2522TIP3   OH229124   5.538   1.282   1.556
 2522TIP3    H129125   5.545   1.188   1.538
 2522TIP3    H229126   5.624   1.307   1.589
 2523TIP3   OH229127   2.253   1.864   1.515
 2523TIP3    H129128   2.165   1.900   1.527
 2523TIP3    H229129   2.274   1.882   1.424
 2524TIP3   OH229130   5.890   0.613   1.637
 2524TIP3    H129131   5.938   0.565   1.569
 2524TIP3    H229132   5.840   0.546   1.683
 2525TIP3   OH229133   3.093   4.956   6.831
 2525TIP3    H129134   3.176   4.998   6.852
 2525TIP3    H229135   3.104   4.923   6.742
 2526TIP3   OH229136   1.518   1.953   7.604
 2526TIP3    H129137   1.608   1.969   7.575
 2526TIP3    H229138   1.478   1.903   7.533
 2527TIP3   OH229139   1.389   1.653   7.502
 2527TIP3    H129140   1.455   1.590   7.471
 2527TIP3    H229141   1.412   1.735   7.460
 2528TIP3   OH229142   1.480   4.660   8.570
 2528TIP3    H129143   1.472   4.623   8.657
 2528TIP3    H229144   1.549   4.609   8.528
 2529TIP3   OH229145   0.788   6.092   7.914
 2529TIP3    H129146   0.758   6.172   7.870
 2529TIP3    H229147   0.792   6.027   7.844
 2530TIP3   OH229148   0.669   0.218   7.755
 2530TIP3    H129149   0.705   0.134   7.785
 2530TIP3    H229150   0.623   0.198   7.674
 2531TIP3   OH229151   3.653   0.115   8.514
 2531TIP3    H129152   3.715   0.174   8.471
 2531TIP3    H229153   3.652   0.037   8.459
 2532TIP3   OH229154   5.451   4.987   7.570
 2532TIP3    H129155   5.476   4.939   7.650
 2532TIP3    H229156   5.403   4.923   7.518
 2533TIP3   OH229157   2.017   0.118   8.845
 2533TIP3    H129158   1.973   0.125   8.760
 2533TIP3    H229159   2.109   0.104   8.823
 2534TIP3   OH229160   4.866   5.017   1.370
 2534TIP3    H129161   4.871   4.922   1.366
 2534TIP3    H229162   4.889   5.039   1.460
 2535TIP3   OH229163   1.754   1.548   0.421
 2535TIP3    H129164   1.788   1.526   0.334
 2535TIP3    H229165   1.827   1.529   0.480
 2536TIP3   OH229166   1.610   4.898   7.180
 2536TIP3    H129167   1.695   4.869   7.148
 2536TIP3    H229168   1.576   4.954   7.111
 2537TIP3   OH229169   2.849   1.164   8.062
 2537TIP3    H129170   2.889   1.250   8.049
 2537TIP3    H229171   2.923   1.103   8.059
 2538TIP3   OH229172   0.841   0.417   7.824
 2538TIP3    H129173   0.782   0.342   7.833
 2538TIP3    H229174   0.783   0.494   7.826
 2539TIP3   OH229175   3.019   4.076   0.015
 2539TIP3    H129176   3.021   4.169   8.858
 2539TIP3    H229177   2.926   4.053   0.014
 2540TIP3   OH229178   0.880   2.793   7.663
 2540TIP3    H129179   0.959   2.846   7.677
 2540TIP3    H229180   0.901   2.709   7.704
 2541TIP3   OH229181   4.467   1.805   0.829
 2541TIP3    H129182   4.543   1.768   0.874
 2541TIP3    H229183   4.495   1.891   0.800
 2542TIP3   OH229184   3.643   4.250   6.497
 2542TIP3    H129185   3.697   4.245   6.576
 2542TIP3    H229186   3.644   4.343   6.474
 2543TIP3   OH229187   2.795   3.007   2.127
 2543TIP3    H129188   2.858   2.947   2.088
 2543TIP3    H229189   2.844   3.088   2.141
 2544TIP3   OH229190   4.702   2.155   6.406
 2544TIP3    H129191   4.628   2.176   6.463
 2544TIP3    H229192   4.703   2.059   6.402
 2545TIP3   OH229193   5.215   1.094   0.684
 2545TIP3    H129194   5.249   1.144   0.758
 2545TIP3    H229195   5.145   1.148   0.648
 2546TIP3   OH229196   0.755   6.050   0.670
 2546TIP3    H129197   0.752   6.135   0.626
 2546TIP3    H229198   0.775   5.988   0.601
 2547TIP3   OH229199   3.178   5.263   1.572
 2547TIP3    H129200   3.172   5.334   1.636
 2547TIP3    H229201   3.099   5.211   1.586
 2548TIP3   OH229202   4.174   5.498   1.120
 2548TIP3    H129203   4.258   5.497   1.165
 2548TIP3    H229204   4.110   5.518   1.189
 2549TIP3   OH229205   3.633   4.135   1.800
 2549TIP3    H129206   3.596   4.222   1.819
 2549TIP3    H229207   3.681   4.147   1.718
 2550TIP3   OH229208   2.994   5.643   0.670
 2550TIP3    H129209   3.028   5.566   0.715
 2550TIP3    H229210   2.899   5.629   0.668
 2551TIP3   OH229211   0.999   2.143   8.520
 2551TIP3    H129212   1.070   2.166   8.461
 2551TIP3    H229213   1.011   2.050   8.537
 2552TIP3   OH229214   0.839   4.970   8.719
 2552TIP3    H129215   0.839   4.900   8.654
 2552TIP3    H229216   0.813   5.048   8.670
 2553TIP3   OH229217   2.114   3.220   7.756
 2553TIP3    H129218   2.113   3.179   7.670
 2553TIP3    H229219   2.036   3.186   7.800
 2554TIP3   OH229220   0.287   5.120   8.053
 2554TIP3    H129221   0.284   5.119   7.957
 2554TIP3    H229222   0.346   5.192   8.074
 2555TIP3   OH229223   2.627   4.523   1.222
 2555TIP3    H129224   2.688   4.458   1.190
 2555TIP3    H229225   2.644   4.528   1.316
 2556TIP3   OH229226   4.021   4.307   1.693
 2556TIP3    H129227   3.944   4.347   1.732
 2556TIP3    H229228   4.093   4.333   1.750
 2557TIP3   OH229229   5.410   0.223   0.745
 2557TIP3    H129230   5.388   0.250   0.656
 2557TIP3    H229231   5.505   0.224   0.748
 2558TIP3   OH229232   3.331   3.497   0.681
 2558TIP3    H129233   3.426   3.502   0.692
 2558TIP3    H229234   3.300   3.583   0.708
 2559TIP3   OH229235   2.087   1.870   0.130
 2559TIP3    H129236   2.074   1.869   0.035
 2559TIP3    H229237   2.143   1.794   0.148
 2560TIP3   OH229238   3.813   0.641   6.903
 2560TIP3    H129239   3.731   0.691   6.906
 2560TIP3    H229240   3.785   0.549   6.906
 2561TIP3   OH229241   5.318   1.875   0.012
 2561TIP3    H129242   5.257   1.891   8.808
 2561TIP3    H229243   5.301   1.946   0.074
 2562TIP3   OH229244   0.768   0.812   7.071
 2562TIP3    H129245   0.833   0.774   7.130
 2562TIP3    H229246   0.816   0.877   7.020
 2563TIP3   OH229247   1.680   0.878   0.626
 2563TIP3    H129248   1.709   0.916   0.709
 2563TIP3    H229249   1.729   0.796   0.619
 2564TIP3   OH229250   5.658   2.044   7.760
 2564TIP3    H129251   5.747   2.008   7.762
 2564TIP3    H229252   5.670   2.136   7.785
 2565TIP3   OH229253   0.409   1.642   1.709
 2565TIP3    H129254   0.484   1.645   1.650
 2565TIP3    H229255   0.437   1.689   1.787
 2566TIP3   OH229256   5.002   6.137   1.278
 2566TIP3    H129257   4.913   6.147   1.244
 2566TIP3    H229258   4.999   6.057   1.330
 2567TIP3   OH229259   6.299   1.545   6.841
 2567TIP3    H129260   6.259   1.459   6.851
 2567TIP3    H229261   6.391   1.532   6.864
 2568TIP3   OH229262   3.594   4.288   6.946
 2568TIP3    H129263   3.646   4.222   6.900
 2568TIP3    H229264   3.504   4.258   6.937
 2569TIP3   OH229265   4.453   2.862   7.146
 2569TIP3    H129266   4.491   2.884   7.231
 2569TIP3    H229267   4.527   2.826   7.096
 2570TIP3   OH229268   3.712   5.539   8.555
 2570TIP3    H129269   3.795   5.523   8.510
 2570TIP3    H229270   3.649   5.554   8.484
 2571TIP3   OH229271   2.205   2.247   0.911
 2571TIP3    H129272   2.188   2.225   0.819
 2571TIP3    H229273   2.287   2.296   0.909
 2572TIP3   OH229274   2.059   4.109   1.769
 2572TIP3    H129275   2.153   4.114   1.757
 2572TIP3    H229276   2.045   4.123   1.862
 2573TIP3   OH229277   4.864   1.518   0.728
 2573TIP3    H129278   4.888   1.455   0.661
 2573TIP3    H229279   4.867   1.468   0.810
 2574TIP3   OH229280   5.793   5.529   6.230
 2574TIP3    H129281   5.844   5.473   6.289
 2574TIP3    H229282   5.787   5.613   6.277
 2575TIP3   OH229283   1.607   3.336   8.490
 2575TIP3    H129284   1.687   3.286   8.476
 2575TIP3    H229285   1.544   3.273   8.524
 2576TIP3   OH229286   1.783   1.031   8.457
 2576TIP3    H129287   1.739   1.069   8.381
 2576TIP3    H229288   1.868   1.002   8.423
 2577TIP3   OH229289   4.812   1.825   7.304
 2577TIP3    H129290   4.806   1.732   7.280
 2577TIP3    H229291   4.737   1.839   7.363
 2578TIP3   OH229292   4.966   2.767   8.192
 2578TIP3    H129293   5.037   2.826   8.170
 2578TIP3    H229294   4.888   2.823   8.193
 2579TIP3   OH229295   2.480   4.750   0.653
 2579TIP3    H129296   2.486   4.721   0.745
 2579TIP3    H229297   2.571   4.751   0.622
 2580TIP3   OH229298   1.887   5.461   6.432
 2580TIP3    H129299   1.980   5.463   6.452
 2580TIP3    H229300   1.879   5.400   6.359
 2581TIP3   OH229301   4.830   6.262   1.575
 2581TIP3    H129302   4.767   6.200   1.611
 2581TIP3    H229303   4.786   6.300   1.499
 2582TIP3   OH229304   0.253   2.540   0.645
 2582TIP3    H129305   0.186   2.497   0.592
 2582TIP3    H229306   0.254   2.630   0.614
 2583TIP3   OH229307   3.453   6.469   2.503
 2583TIP3    H129308   3.432   6.377   2.514
 2583TIP3    H229309   3.378   6.515   2.540
 2584TIP3   OH229310   4.486   1.667   0.038
 2584TIP3    H129311   4.470   1.638   8.816
 2584TIP3    H229312   4.517   1.588   0.082
 2585TIP3   OH229313   3.004   0.426   1.122
 2585TIP3    H129314   3.052   0.353   1.082
 2585TIP3    H229315   3.066   0.462   1.186
 2586TIP3   OH229316   2.893   1.590   2.124
 2586TIP3    H129317   2.924   1.535   2.052
 2586TIP3    H229318   2.802   1.609   2.101
 2587TIP3   OH229319   2.681   2.666   1.269
 2587TIP3    H129320   2.762   2.672   1.218
 2587TIP3    H229321   2.632   2.746   1.247
 2588TIP3   OH229322   5.407   6.137   0.691
 2588TIP3    H129323   5.346   6.063   0.690
 2588TIP3    H229324   5.492   6.098   0.708
 2589TIP3   OH229325   2.950   5.479   8.850
 2589TIP3    H129326   2.949   5.566   0.022
 2589TIP3    H229327   2.858   5.459   8.835
 2590TIP3   OH229328   5.671   2.794   1.458
 2590TIP3    H129329   5.578   2.808   1.478
 2590TIP3    H229330   5.680   2.822   1.366
 2591TIP3   OH229331   2.193   1.232   0.990
 2591TIP3    H129332   2.252   1.164   1.023
 2591TIP3    H229333   2.219   1.244   0.899
 2592TIP3   OH229334   1.169   6.735   0.880
 2592TIP3    H129335   1.137   0.030   0.860
 2592TIP3    H229336   1.240   6.720   0.817
 2593TIP3   OH229337   2.463   5.568   6.975
 2593TIP3    H129338   2.383   5.599   6.933
 2593TIP3    H229339   2.534   5.615   6.930
 2594TIP3   OH229340   2.688   2.917   6.676
 2594TIP3    H129341   2.631   2.855   6.629
 2594TIP3    H229342   2.763   2.864   6.703
 2595TIP3   OH229343   5.434   2.907   8.244
 2595TIP3    H129344   5.420   2.974   8.311
 2595TIP3    H229345   5.485   2.840   8.289
 2596TIP3   OH229346   2.978   0.602   8.695
 2596TIP3    H129347   2.902   0.655   8.718
 2596TIP3    H229348   2.943   0.534   8.637
 2597TIP3   OH229349   4.993   2.714   1.616
 2597TIP3    H129350   5.023   2.787   1.563
 2597TIP3    H229351   4.994   2.747   1.706
 2598TIP3   OH229352   3.479   2.334   8.086
 2598TIP3    H129353   3.415   2.273   8.123
 2598TIP3    H229354   3.462   2.417   8.130
 2599TIP3   OH229355   2.586   4.236   2.110
 2599TIP3    H129356   2.613   4.181   2.184
 2599TIP3    H229357   2.667   4.259   2.066
 2600TIP3   OH229358   0.671   2.897   8.438
 2600TIP3    H129359   0.632   2.963   8.381
 2600TIP3    H229360   0.695   2.825   8.378
 2601TIP3   OH229361   4.736   6.704   1.864
 2601TIP3    H129362   4.776   6.648   1.797
 2601TIP3    H229363   4.784   6.683   1.944
 2602TIP3   OH229364   2.179   4.257   8.705
 2602TIP3    H129365   2.179   4.335   8.761
 2602TIP3    H229366   2.128   4.283   8.628
 2603TIP3   OH229367   3.644   3.612   0.033
 2603TIP3    H129368   3.605   3.699   0.040
 2603TIP3    H229369   3.732   3.622   0.069
 2604TIP3   OH229370   1.662   0.435   7.726
 2604TIP3    H129371   1.646   0.386   7.807
 2604TIP3    H229372   1.748   0.405   7.697
 2605TIP3   OH229373   6.484   3.841   1.749
 2605TIP3    H129374   6.550   3.800   1.806
 2605TIP3    H229375   6.405   3.845   1.803
 2606TIP3   OH229376   0.673   2.981   0.411
 2606TIP3    H129377   0.711   2.940   0.333
 2606TIP3    H229378   0.650   3.069   0.384
 2607TIP3   OH229379   0.038   0.384   8.813
 2607TIP3    H129380   6.783   0.363   8.733
 2607TIP3    H229381   6.772   0.359   0.015
 2608TIP3   OH229382   3.942   3.557   0.039
 2608TIP3    H129383   3.942   3.499   8.831
 2608TIP3    H229384   3.957   3.644   0.001
 2609TIP3   OH229385   1.109   5.064   1.795
 2609TIP3    H129386   1.014   5.054   1.798
 2609TIP3    H229387   1.132   5.096   1.882
 2610TIP3   OH229388   0.168   4.685   7.701
 2610TIP3    H129389   0.261   4.676   7.679
 2610TIP3    H229390   0.137   4.758   7.647
 2611TIP3   OH229391   2.709   2.380   7.110
 2611TIP3    H129392   2.668   2.357   7.027
 2611TIP3    H229393   2.782   2.437   7.086
 2612TIP3   OH229394   5.021   3.929   0.552
 2612TIP3    H129395   4.961   4.002   0.564
 2612TIP3    H229396   4.982   3.857   0.601
 2613TIP3   OH229397   0.688   0.401   1.286
 2613TIP3    H129398   0.773   0.381   1.325
 2613TIP3    H229399   0.699   0.383   1.193
 2614TIP3   OH229400   2.298   2.839   8.555
 2614TIP3    H129401   2.258   2.768   8.506
 2614TIP3    H229402   2.283   2.816   8.647
 2615TIP3   OH229403   2.211   3.448   0.379
 2615TIP3    H129404   2.256   3.451   0.464
 2615TIP3    H229405   2.253   3.376   0.332
 2616TIP3   OH229406   4.121   0.358   8.691
 2616TIP3    H129407   4.089   0.323   8.774
 2616TIP3    H229408   4.081   0.445   8.685
 2617TIP3   OH229409   4.125   0.912   8.226
 2617TIP3    H129410   4.143   0.858   8.150
 2617TIP3    H229411   4.030   0.923   8.226
 2618TIP3   OH229412   5.089   4.615   8.658
 2618TIP3    H129413   5.036   4.546   8.618
 2618TIP3    H229414   5.108   4.582   8.746
 2619TIP3   OH229415   5.932   6.012   0.292
 2619TIP3    H129416   6.006   5.966   0.251
 2619TIP3    H229417   5.972   6.070   0.356
 2620TIP3   OH229418   2.399   5.592   1.382
 2620TIP3    H129419   2.431   5.598   1.292
 2620TIP3    H229420   2.420   5.503   1.409
 2621TIP3   OH229421   2.314   5.927   1.279
 2621TIP3    H129422   2.279   5.855   1.227
 2621TIP3    H229423   2.237   5.975   1.309
 2622TIP3   OH229424   4.787   2.668   2.153
 2622TIP3    H129425   4.838   2.749   2.157
 2622TIP3    H229426   4.845   2.601   2.189
 2623TIP3   OH229427   1.740   1.327   1.926
 2623TIP3    H129428   1.810   1.279   1.970
 2623TIP3    H229429   1.679   1.351   1.996
 2624TIP3   OH229430   5.929   2.215   1.335
 2624TIP3    H129431   6.012   2.178   1.366
 2624TIP3    H229432   5.898   2.269   1.408
 2625TIP3   OH229433   3.665   5.163   8.610
 2625TIP3    H129434   3.611   5.229   8.567
 2625TIP3    H229435   3.607   5.124   8.676
 2626TIP3   OH229436   6.141   4.241   6.863
 2626TIP3    H129437   6.195   4.299   6.810
 2626TIP3    H229438   6.161   4.153   6.831
 2627TIP3   OH229439   3.656   0.918   0.391
 2627TIP3    H129440   3.577   0.889   0.345
 2627TIP3    H229441   3.688   0.992   0.339
 2628TIP3   OH229442   5.831   0.115   8.689
 2628TIP3    H129443   5.764   0.176   8.721
 2628TIP3    H229444   5.859   0.153   8.605
 2629TIP3   OH229445   6.297   6.431   6.631
 2629TIP3    H129446   6.381   6.467   6.600
 2629TIP3    H229447   6.262   6.499   6.689
 2630TIP3   OH229448   2.498   0.899   0.887
 2630TIP3    H129449   2.506   0.992   0.908
 2630TIP3    H229450   2.410   0.889   0.852
 2631TIP3   OH229451   1.624   6.302   0.861
 2631TIP3    H129452   1.598   6.338   0.946
 2631TIP3    H229453   1.576   6.219   0.855
 2632TIP3   OH229454   0.535   2.444   6.873
 2632TIP3    H129455   0.492   2.371   6.917
 2632TIP3    H229456   0.625   2.413   6.859
 2633TIP3   OH229457   0.649   6.364   0.809
 2633TIP3    H129458   0.637   6.398   0.720
 2633TIP3    H229459   0.591   6.418   0.863
 2634TIP3   OH229460   3.649   6.266   0.386
 2634TIP3    H129461   3.612   6.180   0.367
 2634TIP3    H229462   3.674   6.262   0.478
 2635TIP3   OH229463   3.583   4.201   1.318
 2635TIP3    H129464   3.507   4.258   1.306
 2635TIP3    H229465   3.578   4.140   1.244
 2636TIP3   OH229466   0.462   3.003   0.104
 2636TIP3    H129467   0.446   3.049   0.187
 2636TIP3    H229468   0.438   2.912   0.122
 2637TIP3   OH229469   2.989   3.720   7.335
 2637TIP3    H129470   2.940   3.771   7.399
 2637TIP3    H229471   2.932   3.717   7.258
 2638TIP3   OH229472   5.894   3.139   8.412
 2638TIP3    H129473   5.950   3.173   8.482
 2638TIP3    H229474   5.860   3.056   8.447
 2639TIP3   OH229475   4.302   4.833   0.467
 2639TIP3    H129476   4.389   4.824   0.506
 2639TIP3    H229477   4.313   4.902   0.401
 2640TIP3   OH229478   6.385   0.065   8.267
 2640TIP3    H129479   6.452   0.064   8.199
 2640TIP3    H229480   6.312   0.015   8.230
 2641TIP3   OH229481   2.149   0.982   6.276
 2641TIP3    H129482   2.172   0.903   6.325
 2641TIP3    H229483   2.232   1.027   6.263
 2642TIP3   OH229484   3.555   1.747   1.542
 2642TIP3    H129485   3.520   1.832   1.569
 2642TIP3    H229486   3.637   1.767   1.497
 2643TIP3   OH229487   6.273   4.871   1.172
 2643TIP3    H129488   6.318   4.882   1.088
 2643TIP3    H229489   6.182   4.857   1.149
 2644TIP3   OH229490   2.848   4.385   1.390
 2644TIP3    H129491   2.853   4.377   1.485
 2644TIP3    H229492   2.938   4.404   1.363
 2645TIP3   OH229493   5.408   5.720   1.939
 2645TIP3    H129494   5.393   5.642   1.992
 2645TIP3    H229495   5.474   5.770   1.987
 2646TIP3   OH229496   1.798   0.759   0.980
 2646TIP3    H129497   1.844   0.676   0.972
 2646TIP3    H229498   1.709   0.739   0.950
 2647TIP3   OH229499   2.496   5.814   0.009
 2647TIP3    H129500   2.531   5.877   8.815
 2647TIP3    H229501   2.482   5.864   0.089
 2648TIP3   OH229502   5.916   2.984   0.967
 2648TIP3    H129503   5.993   3.029   0.931
 2648TIP3    H229504   5.857   3.054   0.994
 2649TIP3   OH229505   2.423   3.995   2.036
 2649TIP3    H129506   2.329   3.995   2.016
 2649TIP3    H229507   2.446   4.088   2.038
 2650TIP3   OH229508   2.822   4.324   2.003
 2650TIP3    H129509   2.782   4.397   1.955
 2650TIP3    H229510   2.914   4.348   2.009
 2651TIP3   OH229511   1.328   3.138   0.982
 2651TIP3    H129512   1.359   3.227   0.994
 2651TIP3    H229513   1.287   3.114   1.065
 2652TIP3   OH229514   1.630   6.377   7.337
 2652TIP3    H129515   1.652   6.302   7.283
 2652TIP3    H229516   1.674   6.361   7.421
 2653TIP3   OH229517   1.935   6.522   0.405
 2653TIP3    H129518   1.963   6.544   0.494
 2653TIP3    H229519   1.921   6.607   0.363
 2654TIP3   OH229520   5.293   4.626   7.730
 2654TIP3    H129521   5.293   4.531   7.741
 2654TIP3    H229522   5.370   4.655   7.778
 2655TIP3   OH229523   5.071   1.843   2.183
 2655TIP3    H129524   5.084   1.937   2.195
 2655TIP3    H229525   5.154   1.803   2.209
 2656TIP3   OH229526   4.843   3.284   8.213
 2656TIP3    H129527   4.836   3.290   8.308
 2656TIP3    H229528   4.919   3.338   8.191
 2657TIP3   OH229529   2.241   4.564   8.613
 2657TIP3    H129530   2.316   4.588   8.558
 2657TIP3    H229531   2.165   4.581   8.558
 2658TIP3   OH229532   0.549   3.202   1.677
 2658TIP3    H129533   0.481   3.266   1.699
 2658TIP3    H229534   0.628   3.254   1.667
 2659TIP3   OH229535   1.091   6.727   7.762
 2659TIP3    H129536   1.052   6.762   7.682
 2659TIP3    H229537   1.103   0.011   7.818
 2660TIP3   OH229538   4.300   2.509   8.060
 2660TIP3    H129539   4.370   2.496   8.124
 2660TIP3    H229540   4.254   2.587   8.091
 2661TIP3   OH229541   4.172   5.803   0.998
 2661TIP3    H129542   4.221   5.790   1.079
 2661TIP3    H229543   4.220   5.752   0.932
 2662TIP3   OH229544   5.780   2.930   0.004
 2662TIP3    H129545   5.732   2.884   0.073
 2662TIP3    H229546   5.853   2.872   8.852
 2663TIP3   OH229547   3.194   2.376   2.266
 2663TIP3    H129548   3.119   2.316   2.268
 2663TIP3    H229549   3.206   2.402   2.358
 2664TIP3   OH229550   5.023   2.460   6.541
 2664TIP3    H129551   4.945   2.467   6.597
 2664TIP3    H229552   4.999   2.397   6.474
 2665TIP3   OH229553   2.206   5.619   1.571
 2665TIP3    H129554   2.251   5.543   1.607
 2665TIP3    H229555   2.248   5.633   1.486
 2666TIP3   OH229556   1.141   3.622   1.117
 2666TIP3    H129557   1.063   3.567   1.116
 2666TIP3    H229558   1.186   3.598   1.198
 2667TIP3   OH229559   0.873   6.437   1.063
 2667TIP3    H129560   0.853   6.392   1.145
 2667TIP3    H229561   0.921   6.372   1.011
 2668TIP3   OH229562   3.596   1.338   8.053
 2668TIP3    H129563   3.661   1.271   8.074
 2668TIP3    H229564   3.616   1.411   8.112
 2669TIP3   OH229565   0.447   4.251   0.200
 2669TIP3    H129566   0.539   4.224   0.196
 2669TIP3    H229567   0.450   4.345   0.218
 2670TIP3   OH229568   2.448   3.020   0.264
 2670TIP3    H129569   2.484   2.932   0.269
 2670TIP3    H229570   2.355   3.008   0.244
 2671TIP3   OH229571   6.706   4.412   1.498
 2671TIP3    H129572   6.696   4.338   1.559
 2671TIP3    H229573   6.726   4.487   1.554
 2672TIP3   OH229574   2.146   0.578   7.749
 2672TIP3    H129575   2.226   0.628   7.734
 2672TIP3    H229576   2.140   0.519   7.673
 2673TIP3   OH229577   3.848   5.236   7.749
 2673TIP3    H129578   3.759   5.232   7.784
 2673TIP3    H229579   3.846   5.304   7.683
 2674TIP3   OH229580   4.244   1.309   2.280
 2674TIP3    H129581   4.237   1.309   2.376
 2674TIP3    H229582   4.154   1.298   2.250
 2675TIP3   OH229583   3.553   3.637   8.605
 2675TIP3    H129584   3.606   3.622   8.683
 2675TIP3    H229585   3.616   3.638   8.533
 2676TIP3   OH229586   6.422   6.124   7.212
 2676TIP3    H129587   6.446   6.073   7.134
 2676TIP3    H229588   6.352   6.075   7.253
 2677TIP3   OH229589   0.253   0.319   1.166
 2677TIP3    H129590   0.324   0.287   1.222
 2677TIP3    H229591   0.280   0.408   1.142
 2678TIP3   OH229592   0.430   5.079   8.502
 2678TIP3    H129593   0.502   5.128   8.462
 2678TIP3    H229594   0.424   4.999   8.450
 2679TIP3   OH229595   5.109   1.185   0.919
 2679TIP3    H129596   5.074   1.274   0.920
 2679TIP3    H229597   5.077   1.146   0.838
 2680TIP3   OH229598   5.228   1.449   1.196
 2680TIP3    H129599   5.246   1.529   1.147
 2680TIP3    H229600   5.314   1.415   1.220
 2681TIP3   OH229601   2.140   5.295   8.128
 2681TIP3    H129602   2.089   5.263   8.202
 2681TIP3    H229603   2.123   5.390   8.127
 2682TIP3   OH229604   3.032   0.127   8.355
 2682TIP3    H129605   3.110   0.166   8.394
 2682TIP3    H229606   3.061   0.041   8.324
 2683TIP3   OH229607   0.900   5.757   6.845
 2683TIP3    H129608   0.832   5.752   6.778
 2683TIP3    H229609   0.937   5.845   6.836
 2684TIP3   OH229610   6.060   5.992   1.749
 2684TIP3    H129611   6.049   6.072   1.800
 2684TIP3    H229612   5.977   5.981   1.703
 2685TIP3   OH229613   5.369   0.464   2.749
 2685TIP3    H129614   5.311   0.540   2.747
 2685TIP3    H229615   5.351   0.418   2.667
 2686TIP3   OH229616   3.490   2.125   6.928
 2686TIP3    H129617   3.541   2.046   6.946
 2686TIP3    H229618   3.555   2.194   6.922
 2687TIP3   OH229619   1.474   0.379   8.300
 2687TIP3    H129620   1.569   0.367   8.297
 2687TIP3    H229621   1.462   0.455   8.356
 2688TIP3   OH229622   5.159   0.144   7.144
 2688TIP3    H129623   5.128   0.233   7.158
 2688TIP3    H229624   5.211   0.123   7.221
 2689TIP3   OH229625   0.560   1.529   7.426
 2689TIP3    H129626   0.586   1.447   7.470
 2689TIP3    H229627   0.593   1.521   7.337
 2690TIP3   OH229628   5.839   6.286   1.007
 2690TIP3    H129629   5.762   6.342   0.993
 2690TIP3    H229630   5.812   6.226   1.077
 2691TIP3   OH229631   0.876   3.255   1.393
 2691TIP3    H129632   0.932   3.190   1.435
 2691TIP3    H229633   0.814   3.282   1.462
 2692TIP3   OH229634   1.360   5.072   7.907
 2692TIP3    H129635   1.394   5.072   7.996
 2692TIP3    H229636   1.435   5.094   7.852
 2693TIP3   OH229637   6.747   3.124   7.780
 2693TIP3    H129638   0.026   3.122   7.844
 2693TIP3    H229639   6.791   3.116   7.695
 2694TIP3   OH229640   1.226   2.980   7.133
 2694TIP3    H129641   1.226   2.909   7.068
 2694TIP3    H229642   1.318   2.991   7.156
 2695TIP3   OH229643   5.445   1.740   8.402
 2695TIP3    H129644   5.469   1.828   8.431
 2695TIP3    H229645   5.383   1.754   8.331
 2696TIP3   OH229646   4.883   1.283   8.539
 2696TIP3    H129647   4.927   1.355   8.495
 2696TIP3    H229648   4.870   1.313   8.629
 2697TIP3   OH229649   3.925   5.440   0.191
 2697TIP3    H129650   3.834   5.432   0.221
 2697TIP3    H229651   3.921   5.418   0.098
 2698TIP3   OH229652   0.667   3.849   8.176
 2698TIP3    H129653   0.661   3.837   8.270
 2698TIP3    H229654   0.614   3.778   8.139
 2699TIP3   OH229655   3.515   1.321   2.182
 2699TIP3    H129656   3.468   1.239   2.193
 2699TIP3    H229657   3.601   1.305   2.222
 2700TIP3   OH229658   6.287   3.934   1.524
 2700TIP3    H129659   6.322   3.868   1.584
 2700TIP3    H229660   6.324   4.016   1.553
 2701TIP3   OH229661   2.648   1.586   1.838
 2701TIP3    H129662   2.633   1.563   1.930
 2701TIP3    H229663   2.682   1.676   1.842
 2702TIP3   OH229664   0.400   1.184   0.305
 2702TIP3    H129665   0.322   1.238   0.321
 2702TIP3    H229666   0.391   1.154   0.215
 2703TIP3   OH229667   4.666   5.913   1.992
 2703TIP3    H129668   4.738   5.857   1.960
 2703TIP3    H229669   4.706   5.965   2.062
 2704TIP3   OH229670   6.349   0.045   0.195
 2704TIP3    H129671   6.411   0.074   0.262
 2704TIP3    H229672   6.391   0.067   0.112
 2705TIP3   OH229673   1.084   0.180   8.349
 2705TIP3    H129674   1.131   0.112   8.397
 2705TIP3    H229675   1.006   0.136   8.316
 2706TIP3   OH229676   1.835   1.835   0.621
 2706TIP3    H129677   1.852   1.769   0.553
 2706TIP3    H229678   1.756   1.804   0.665
 2707TIP3   OH229679   5.278   4.243   0.215
 2707TIP3    H129680   5.330   4.186   0.159
 2707TIP3    H229681   5.188   4.213   0.202
 2708TIP3   OH229682   4.562   5.268   6.957
 2708TIP3    H129683   4.568   5.360   6.982
 2708TIP3    H229684   4.601   5.264   6.870
 2709TIP3   OH229685   1.504   4.075   2.353
 2709TIP3    H129686   1.509   4.164   2.388
 2709TIP3    H229687   1.570   4.027   2.403
 2710TIP3   OH229688   4.113   6.758   1.418
 2710TIP3    H129689   4.183   6.702   1.385
 2710TIP3    H229690   4.124   0.048   1.370
 2711TIP3   OH229691   5.265   5.833   8.433
 2711TIP3    H129692   5.243   5.776   8.359
 2711TIP3    H229693   5.241   5.782   8.511
 2712TIP3   OH229694   5.050   2.119   1.351
 2712TIP3    H129695   4.990   2.047   1.367
 2712TIP3    H229696   5.023   2.188   1.412
 2713TIP3   OH229697   2.685   2.062   8.653
 2713TIP3    H129698   2.623   2.011   8.706
 2713TIP3    H229699   2.771   2.042   8.691
 2714TIP3   OH229700   2.037   3.635   6.697
 2714TIP3    H129701   2.103   3.576   6.731
 2714TIP3    H229702   2.031   3.615   6.604
 2715TIP3   OH229703   5.046   2.111   2.107
 2715TIP3    H129704   4.975   2.166   2.075
 2715TIP3    H229705   5.095   2.167   2.167
 2716TIP3   OH229706   0.884   0.791   7.985
 2716TIP3    H129707   0.820   0.741   7.935
 2716TIP3    H229708   0.832   0.852   8.037
 2717TIP3   OH229709   6.751   5.199   1.790
 2717TIP3    H129710   0.032   5.251   1.819
 2717TIP3    H229711   6.724   5.150   1.868
 2718TIP3   OH229712   5.268   2.026   1.512
 2718TIP3    H129713   5.216   2.000   1.587
 2718TIP3    H229714   5.204   2.039   1.442
 2719TIP3   OH229715   5.802   6.228   8.584
 2719TIP3    H129716   5.805   6.213   8.678
 2719TIP3    H229717   5.885   6.192   8.551
 2720TIP3   OH229718   0.045   2.927   1.670
 2720TIP3    H129719   6.752   2.950   1.707
 2720TIP3    H229720   0.088   3.011   1.655
 2721TIP3   OH229721   1.427   0.020   0.134
 2721TIP3    H129722   1.466   0.092   0.084
 2721TIP3    H229723   1.502   6.765   0.169
 2722TIP3   OH229724   5.777   2.810   8.195
 2722TIP3    H129725   5.745   2.898   8.214
 2722TIP3    H229726   5.750   2.758   8.271
 2723TIP3   OH229727   5.981   3.385   0.467
 2723TIP3    H129728   5.925   3.324   0.515
 2723TIP3    H229729   5.948   3.472   0.492
 2724TIP3   OH229730   4.008   1.594   7.877
 2724TIP3    H129731   3.968   1.654   7.813
 2724TIP3    H229732   3.934   1.565   7.931
 2725TIP3   OH229733   5.222   2.955   2.505
 2725TIP3    H129734   5.176   3.038   2.493
 2725TIP3    H229735   5.154   2.894   2.535
 2726TIP3   OH229736   1.957   0.948   0.816
 2726TIP3    H129737   1.896   0.889   0.860
 2726TIP3    H229738   2.001   0.894   0.751
 2727TIP3   OH229739   2.962   4.837   1.762
 2727TIP3    H129740   2.974   4.758   1.709
 2727TIP3    H229741   2.880   4.822   1.810
 2728TIP3   OH229742   0.025   3.135   6.941
 2728TIP3    H129743   0.049   3.144   6.849
 2728TIP3    H229744   0.100   3.172   6.989
 2729TIP3   OH229745   4.176   4.033   0.772
 2729TIP3    H129746   4.169   3.985   0.854
 2729TIP3    H229747   4.252   3.994   0.728
 2730TIP3   OH229748   0.549   0.478   6.180
 2730TIP3    H129749   0.610   0.551   6.193
 2730TIP3    H229750   0.468   0.520   6.150
 2731TIP3   OH229751   4.574   3.923   8.853
 2731TIP3    H129752   4.503   3.861   8.865
 2731TIP3    H229753   4.531   4.008   8.844
 2732TIP3   OH229754   3.249   2.883   6.673
 2732TIP3    H129755   3.250   2.788   6.682
 2732TIP3    H229756   3.323   2.902   6.615
 2733TIP3   OH229757   1.748   3.433   6.501
 2733TIP3    H129758   1.779   3.487   6.573
 2733TIP3    H229759   1.657   3.414   6.522
 2734TIP3   OH229760   2.030   6.425   1.406
 2734TIP3    H129761   2.009   6.344   1.361
 2734TIP3    H229762   1.976   6.492   1.363
 2735TIP3   OH229763   5.103   5.401   8.534
 2735TIP3    H129764   5.108   5.307   8.516
 2735TIP3    H229765   5.160   5.413   8.610
 2736TIP3   OH229766   3.954   4.033   1.613
 2736TIP3    H129767   3.975   4.126   1.618
 2736TIP3    H229768   3.880   4.028   1.553
 2737TIP3   OH229769   2.876   5.152   6.928
 2737TIP3    H129770   2.782   5.147   6.910
 2737TIP3    H229771   2.907   5.061   6.924
 2738TIP3   OH229772   2.826   4.957   6.663
 2738TIP3    H129773   2.765   4.889   6.635
 2738TIP3    H229774   2.912   4.926   6.632
 2739TIP3   OH229775   4.497   5.082   6.378
 2739TIP3    H129776   4.568   5.031   6.417
 2739TIP3    H229777   4.448   5.018   6.326
 2740TIP3   OH229778   2.956   5.788   0.089
 2740TIP3    H129779   2.994   5.782   0.177
 2740TIP3    H229780   2.939   5.881   0.077
 2741TIP3   OH229781   4.324   0.558   2.501
 2741TIP3    H129782   4.310   0.465   2.521
 2741TIP3    H229783   4.408   0.560   2.456
 2742TIP3   OH229784   0.913   2.273   6.744
 2742TIP3    H129785   0.979   2.257   6.811
 2742TIP3    H229786   0.942   2.352   6.699
 2743TIP3   OH229787   4.320   2.985   6.936
 2743TIP3    H129788   4.263   3.026   7.002
 2743TIP3    H229789   4.386   2.939   6.987
 2744TIP3   OH229790   1.592   0.037   7.295
 2744TIP3    H129791   1.589   0.125   7.332
 2744TIP3    H229792   1.566   6.773   7.367
 2745TIP3   OH229793   2.573   6.171   8.145
 2745TIP3    H129794   2.543   6.183   8.235
 2745TIP3    H229795   2.557   6.255   8.103
 2746TIP3   OH229796   6.449   4.475   0.735
 2746TIP3    H129797   6.364   4.432   0.730
 2746TIP3    H229798   6.484   4.449   0.820
 2747TIP3   OH229799   6.718   5.825   7.563
 2747TIP3    H129800   6.703   5.737   7.598
 2747TIP3    H229801   0.020   5.836   7.563
 2748TIP3   OH229802   4.216   3.792   8.576
 2748TIP3    H129803   4.294   3.814   8.525
 2748TIP3    H229804   4.250   3.767   8.662
 2749TIP3   OH229805   1.449   5.967   8.588
 2749TIP3    H129806   1.528   6.021   8.595
 2749TIP3    H229807   1.388   6.006   8.650
 2750TIP3   OH229808   3.702   6.707   7.829
 2750TIP3    H129809   3.609   6.715   7.807
 2750TIP3    H229810   3.728   6.623   7.791
 2751TIP3   OH229811   2.306   5.872   7.136
 2751TIP3    H129812   2.290   5.960   7.104
 2751TIP3    H229813   2.402   5.865   7.139
 2752TIP3   OH229814   5.922   6.216   7.204
 2752TIP3    H129815   5.898   6.233   7.113
 2752TIP3    H229816   5.916   6.302   7.246
 2753TIP3   OH229817   4.173   4.156   7.408
 2753TIP3    H129818   4.109   4.201   7.353
 2753TIP3    H229819   4.231   4.112   7.346
 2754TIP3   OH229820   4.099   0.441   1.193
 2754TIP3    H129821   4.130   0.366   1.244
 2754TIP3    H229822   4.047   0.403   1.122
 2755TIP3   OH229823   5.109   3.063   1.109
 2755TIP3    H129824   5.165   3.037   1.036
 2755TIP3    H229825   5.020   3.042   1.079
 2756TIP3   OH229826   3.149   6.022   7.161
 2756TIP3    H129827   3.164   6.059   7.248
 2756TIP3    H229828   3.053   6.024   7.150
 2757TIP3   OH229829   4.341   1.376   0.535
 2757TIP3    H129830   4.422   1.426   0.550
 2757TIP3    H229831   4.275   1.421   0.589
 2758TIP3   OH229832   4.088   5.222   1.359
 2758TIP3    H129833   4.168   5.226   1.306
 2758TIP3    H229834   4.098   5.143   1.412
 2759TIP3   OH229835   2.976   0.564   1.733
 2759TIP3    H129836   2.993   0.480   1.691
 2759TIP3    H229837   3.061   0.591   1.769
 2760TIP3   OH229838   0.739   1.365   6.314
 2760TIP3    H129839   0.714   1.273   6.313
 2760TIP3    H229840   0.698   1.400   6.393
 2761TIP3   OH229841   1.007   3.203   7.176
 2761TIP3    H129842   1.066   3.275   7.197
 2761TIP3    H229843   0.972   3.175   7.260
 2762TIP3   OH229844   3.279   0.134   8.023
 2762TIP3    H129845   3.186   0.146   8.041
 2762TIP3    H229846   3.315   0.096   8.103
 2763TIP3   OH229847   3.496   3.386   0.396
 2763TIP3    H129848   3.488   3.440   0.318
 2763TIP3    H229849   3.406   3.372   0.426
 2764TIP3   OH229850   5.964   0.635   8.221
 2764TIP3    H129851   5.985   0.706   8.282
 2764TIP3    H229852   5.974   0.674   8.134
 2765TIP3   OH229853   6.687   3.573   8.115
 2765TIP3    H129854   6.649   3.589   8.201
 2765TIP3    H229855   6.652   3.487   8.089
 2766TIP3   OH229856   4.199   2.241   1.721
 2766TIP3    H129857   4.182   2.147   1.721
 2766TIP3    H229858   4.244   2.257   1.638
 2767TIP3   OH229859   4.659   2.146   8.744
 2767TIP3    H129860   4.641   2.052   8.749
 2767TIP3    H229861   4.623   2.182   8.825
 2768TIP3   OH229862   2.530   1.228   0.420
 2768TIP3    H129863   2.498   1.263   0.503
 2768TIP3    H229864   2.611   1.183   0.444
 2769TIP3   OH229865   6.257   2.129   7.440
 2769TIP3    H129866   6.324   2.133   7.509
 2769TIP3    H229867   6.304   2.150   7.360
 2770TIP3   OH229868   4.713   6.305   2.619
 2770TIP3    H129869   4.671   6.388   2.599
 2770TIP3    H229870   4.675   6.277   2.702
 2771TIP3   OH229871   6.512   5.742   8.273
 2771TIP3    H129872   6.589   5.797   8.286
 2771TIP3    H229873   6.547   5.654   8.258
 2772TIP3   OH229874   2.001   4.964   2.192
 2772TIP3    H129875   1.949   4.914   2.254
 2772TIP3    H229876   2.030   5.041   2.241
 2773TIP3   OH229877   6.112   3.223   8.585
 2773TIP3    H129878   6.059   3.270   8.649
 2773TIP3    H229879   6.180   3.285   8.559
 2774TIP3   OH229880   6.788   2.569   8.429
 2774TIP3    H129881   6.704   2.546   8.390
 2774TIP3    H229882   6.772   2.570   8.523
 2775TIP3   OH229883   2.168   0.134   7.252
 2775TIP3    H129884   2.145   0.145   7.344
 2775TIP3    H229885   2.133   0.048   7.229
 2776TIP3   OH229886   3.701   3.538   1.350
 2776TIP3    H129887   3.630   3.546   1.413
 2776TIP3    H229888   3.758   3.470   1.387
 2777TIP3   OH229889   6.352   0.721   1.255
 2777TIP3    H129890   6.422   0.725   1.321
 2777TIP3    H229891   6.311   0.807   1.259
 2778TIP3   OH229892   0.527   1.093   1.049
 2778TIP3    H129893   0.523   1.068   1.141
 2778TIP3    H229894   0.515   1.188   1.049
 2779TIP3   OH229895   2.472   1.976   0.853
 2779TIP3    H129896   2.443   2.061   0.819
 2779TIP3    H229897   2.523   1.997   0.931
 2780TIP3   OH229898   3.803   5.544   7.151
 2780TIP3    H129899   3.847   5.620   7.115
 2780TIP3    H229900   3.729   5.528   7.092
 2781TIP3   OH229901   1.253   1.536   0.664
 2781TIP3    H129902   1.267   1.622   0.625
 2781TIP3    H229903   1.158   1.525   0.665
 2782TIP3   OH229904   4.751   2.985   1.813
 2782TIP3    H129905   4.831   2.941   1.842
 2782TIP3    H229906   4.709   2.922   1.755
 2783TIP3   OH229907   0.160   1.911   1.827
 2783TIP3    H129908   0.158   1.999   1.791
 2783TIP3    H229909   0.224   1.916   1.899
 2784TIP3   OH229910   2.598   5.174   0.243
 2784TIP3    H129911   2.544   5.168   0.322
 2784TIP3    H229912   2.574   5.257   0.203
 2785TIP3   OH229913   3.708   0.839   2.468
 2785TIP3    H129914   3.673   0.921   2.435
 2785TIP3    H229915   3.736   0.860   2.558
 2786TIP3   OH229916   4.981   4.105   7.432
 2786TIP3    H129917   4.900   4.055   7.434
 2786TIP3    H229918   4.981   4.155   7.514
 2787TIP3   OH229919   1.943   5.644   0.562
 2787TIP3    H129920   1.942   5.722   0.618
 2787TIP3    H229921   2.009   5.663   0.495
 2788TIP3   OH229922   3.584   6.084   2.132
 2788TIP3    H129923   3.604   6.059   2.041
 2788TIP3    H229924   3.620   6.012   2.184
 2789TIP3   OH229925   5.621   5.836   6.742
 2789TIP3    H129926   5.646   5.810   6.653
 2789TIP3    H229927   5.529   5.862   6.734
 2790TIP3   OH229928   5.588   5.911   8.762
 2790TIP3    H129929   5.556   5.994   8.729
 2790TIP3    H229930   5.682   5.912   8.743
 2791TIP3   OH229931   1.882   1.092   6.196
 2791TIP3    H129932   1.876   0.998   6.214
 2791TIP3    H229933   1.972   1.115   6.217
 2792TIP3   OH229934   0.297   2.942   8.726
 2792TIP3    H129935   0.383   2.971   8.757
 2792TIP3    H229936   0.243   2.937   8.805
 2793TIP3   OH229937   6.122   6.727   7.233
 2793TIP3    H129938   6.208   6.766   7.218
 2793TIP3    H229939   6.112   6.663   7.163
 2794TIP3   OH229940   2.719   3.435   6.546
 2794TIP3    H129941   2.725   3.485   6.464
 2794TIP3    H229942   2.701   3.502   6.613
 2795TIP3   OH229943   3.201   6.052   0.118
 2795TIP3    H129944   3.243   6.079   0.036
 2795TIP3    H229945   3.107   6.055   0.098
 2796TIP3   OH229946   2.392   0.964   7.126
 2796TIP3    H129947   2.337   0.887   7.135
 2796TIP3    H229948   2.447   0.945   7.050
 2797TIP3   OH229949   5.749   3.149   0.321
 2797TIP3    H129950   5.822   3.088   0.321
 2797TIP3    H229951   5.677   3.101   0.280
 2798TIP3   OH229952   0.135   2.252   2.167
 2798TIP3    H129953   0.133   2.346   2.153
 2798TIP3    H229954   0.043   2.227   2.179
 2799TIP3   OH229955   3.447   0.750   8.681
 2799TIP3    H129956   3.365   0.796   8.699
 2799TIP3    H229957   3.443   0.728   8.588
 2800TIP3   OH229958   1.112   4.587   7.965
 2800TIP3    H129959   1.126   4.628   7.879
 2800TIP3    H229960   1.191   4.535   7.980
 2801TIP3   OH229961   0.311   2.520   1.801
 2801TIP3    H129962   0.346   2.569   1.876
 2801TIP3    H229963   0.239   2.575   1.768
 2802TIP3   OH229964   2.811   6.731   7.039
 2802TIP3    H129965   2.880   6.685   6.993
 2802TIP3    H229966   2.785   6.671   7.109
 2803TIP3   OH229967   3.167   3.612   1.706
 2803TIP3    H129968   3.213   3.692   1.679
 2803TIP3    H229969   3.233   3.561   1.753
 2804TIP3   OH229970   5.656   1.543   8.490
 2804TIP3    H129971   5.564   1.558   8.514
 2804TIP3    H229972   5.686   1.475   8.551
 2805TIP3   OH229973   2.562   1.065   1.232
 2805TIP3    H129974   2.534   1.024   1.314
 2805TIP3    H229975   2.582   1.156   1.256
 2806TIP3   OH229976   5.162   3.168   0.625
 2806TIP3    H129977   5.222   3.160   0.551
 2806TIP3    H229978   5.120   3.253   0.614
 2807TIP3   OH229979   5.840   4.435   8.330
 2807TIP3    H129980   5.797   4.350   8.319
 2807TIP3    H229981   5.812   4.486   8.254
 2808TIP3   OH229982   0.388   3.406   7.830
 2808TIP3    H129983   0.376   3.501   7.838
 2808TIP3    H229984   0.469   3.397   7.779
 2809TIP3   OH229985   1.618   4.658   7.554
 2809TIP3    H129986   1.582   4.666   7.465
 2809TIP3    H229987   1.545   4.624   7.606
 2810TIP3   OH229988   5.595   2.831   8.660
 2810TIP3    H129989   5.653   2.856   8.733
 2810TIP3    H229990   5.507   2.844   8.694
 2811TIP3   OH229991   4.664   1.364   2.851
 2811TIP3    H129992   4.703   1.319   2.776
 2811TIP3    H229993   4.732   1.425   2.880
 2812TIP3   OH229994   3.739   6.608   8.144
 2812TIP3    H129995   3.716   6.688   8.097
 2812TIP3    H229996   3.768   6.547   8.076
 2813TIP3   OH229997   2.133   0.005   8.509
 2813TIP3    H129998   2.054   0.055   8.531
 2813TIP3    H229999   2.159   6.757   8.591
 2814TIP3   OH230000   0.143   3.408   8.558
 2814TIP3    H130001   0.225   3.360   8.571
 2814TIP3    H230002   0.132   3.410   8.463
 2815TIP3   OH230003   1.677   6.196   7.131
 2815TIP3    H130004   1.615   6.167   7.064
 2815TIP3    H230005   1.740   6.125   7.137
 2816TIP3   OH230006   2.798   2.427   0.462
 2816TIP3    H130007   2.743   2.500   0.490
 2816TIP3    H230008   2.753   2.349   0.494
 2817TIP3   OH230009   2.491   2.119   1.961
 2817TIP3    H130010   2.447   2.139   2.044
 2817TIP3    H230011   2.443   2.045   1.925
 2818TIP3   OH230012   1.304   3.534   7.538
 2818TIP3    H130013   1.211   3.530   7.559
 2818TIP3    H230014   1.348   3.539   7.623
 2819TIP3   OH230015   2.060   2.618   0.728
 2819TIP3    H130016   2.089   2.708   0.715
 2819TIP3    H230017   2.014   2.619   0.812
 2820TIP3   OH230018   5.255   5.761   7.262
 2820TIP3    H130019   5.169   5.725   7.281
 2820TIP3    H230020   5.255   5.776   7.168
 2821TIP3   OH230021   0.825   2.563   1.669
 2821TIP3    H130022   0.903   2.510   1.685
 2821TIP3    H230023   0.767   2.542   1.743
 2822TIP3   OH230024   6.475   6.604   2.198
 2822TIP3    H130025   6.496   6.671   2.132
 2822TIP3    H230026   6.379   6.605   2.202
 2823TIP3   OH230027   3.339   2.068   0.946
 2823TIP3    H130028   3.278   2.110   0.886
 2823TIP3    H230029   3.380   1.998   0.894
 2824TIP3   OH230030   5.432   2.420   7.702
 2824TIP3    H130031   5.382   2.397   7.624
 2824TIP3    H230032   5.387   2.496   7.739
 2825TIP3   OH230033   5.979   1.231   8.566
 2825TIP3    H130034   5.898   1.282   8.576
 2825TIP3    H230035   5.950   1.140   8.572
 2826TIP3   OH230036   6.127   0.413   7.887
 2826TIP3    H130037   6.219   0.400   7.863
 2826TIP3    H230038   6.077   0.376   7.814
 2827TIP3   OH230039   1.972   3.117   1.706
 2827TIP3    H130040   1.931   3.142   1.623
 2827TIP3    H230041   1.901   3.121   1.770
 2828TIP3   OH230042   1.285   3.563   1.357
 2828TIP3    H130043   1.374   3.596   1.359
 2828TIP3    H230044   1.294   3.469   1.341
 2829TIP3   OH230045   5.414   5.352   1.049
 2829TIP3    H130046   5.414   5.308   0.964
 2829TIP3    H230047   5.349   5.306   1.101
 2830TIP3   OH230048   0.144   6.247   6.693
 2830TIP3    H130049   0.240   6.245   6.691
 2830TIP3    H230050   0.117   6.178   6.633
 2831TIP3   OH230051   0.784   2.320   1.158
 2831TIP3    H130052   0.801   2.387   1.092
 2831TIP3    H230053   0.786   2.367   1.241
 2832TIP3   OH230054   0.698   1.445   7.644
 2832TIP3    H130055   0.752   1.496   7.584
 2832TIP3    H230056   0.759   1.413   7.710
 2833TIP3   OH230057   4.612   5.822   8.134
 2833TIP3    H130058   4.552   5.783   8.071
 2833TIP3    H230059   4.674   5.872   8.081
 2834TIP3   OH230060   3.979   0.633   8.005
 2834TIP3    H130061   3.935   0.681   7.934
 2834TIP3    H230062   3.942   0.545   8.001
 2835TIP3   OH230063   5.743   2.321   7.150
 2835TIP3    H130064   5.680   2.390   7.170
 2835TIP3    H230065   5.700   2.270   7.081
 2836TIP3   OH230066   4.317   1.329   1.817
 2836TIP3    H130067   4.395   1.304   1.768
 2836TIP3    H230068   4.342   1.410   1.862
 2837TIP3   OH230069   0.448   2.316   0.550
 2837TIP3    H130070   0.434   2.223   0.566
 2837TIP3    H230071   0.376   2.343   0.494
 2838TIP3   OH230072   5.864   6.353   0.271
 2838TIP3    H130073   5.949   6.375   0.234
 2838TIP3    H230074   5.876   6.268   0.313
 2839TIP3   OH230075   4.757   6.221   0.959
 2839TIP3    H130076   4.725   6.143   1.005
 2839TIP3    H230077   4.814   6.186   0.890
 2840TIP3   OH230078   5.058   0.860   1.565
 2840TIP3    H130079   5.143   0.819   1.576
 2840TIP3    H230080   5.063   0.903   1.480
 2841TIP3   OH230081   0.103   2.396   1.540
 2841TIP3    H130082   0.033   2.423   1.600
 2841TIP3    H230083   0.159   2.340   1.593
 2842TIP3   OH230084   0.369   6.166   6.882
 2842TIP3    H130085   0.460   6.143   6.903
 2842TIP3    H230086   0.368   6.172   6.786
 2843TIP3   OH230087   2.380   0.727   7.740
 2843TIP3    H130088   2.461   0.700   7.784
 2843TIP3    H230089   2.360   0.813   7.777
 2844TIP3   OH230090   4.978   6.270   7.482
 2844TIP3    H130091   5.054   6.221   7.450
 2844TIP3    H230092   5.013   6.356   7.505
 2845TIP3   OH230093   2.920   4.478   7.610
 2845TIP3    H130094   2.853   4.528   7.657
 2845TIP3    H230095   2.919   4.392   7.652
 2846TIP3   OH230096   1.834   1.831   2.173
 2846TIP3    H130097   1.894   1.830   2.248
 2846TIP3    H230098   1.887   1.864   2.100
 2847TIP3   OH230099   0.024   0.770   1.311
 2847TIP3    H130100   0.023   0.844   1.251
 2847TIP3    H230101   0.117   0.755   1.329
 2848TIP3   OH230102   4.171   2.499   1.871
 2848TIP3    H130103   4.243   2.473   1.814
 2848TIP3    H230104   4.105   2.431   1.859
 2849TIP3   OH230105   2.219   4.965   7.773
 2849TIP3    H130106   2.165   4.892   7.803
 2849TIP3    H230107   2.233   5.018   7.851
 2850TIP3   OH230108   2.333   0.039   6.665
 2850TIP3    H130109   2.249   0.082   6.678
 2850TIP3    H230110   2.398   0.103   6.692
 2851TIP3   OH230111   0.729   4.797   1.091
 2851TIP3    H130112   0.818   4.819   1.117
 2851TIP3    H230113   0.707   4.859   1.021
 2852TIP3   OH230114   0.133   0.006   1.523
 2852TIP3    H130115   0.091   0.085   1.488
 2852TIP3    H230116   0.080   6.727   1.490
 2853TIP3   OH230117   2.497   1.524   7.114
 2853TIP3    H130118   2.468   1.611   7.086
 2853TIP3    H230119   2.431   1.464   7.080
 2854TIP3   OH230120   4.440   6.252   7.588
 2854TIP3    H130121   4.465   6.342   7.611
 2854TIP3    H230122   4.366   6.233   7.646
 2855TIP3   OH230123   1.982   2.466   6.315
 2855TIP3    H130124   2.064   2.478   6.363
 2855TIP3    H230125   1.920   2.523   6.359
 2856TIP3   OH230126   0.309   6.222   7.567
 2856TIP3    H130127   0.243   6.163   7.531
 2856TIP3    H230128   0.337   6.181   7.648
 2857TIP3   OH230129   4.999   0.001   0.746
 2857TIP3    H130130   5.007   6.700   0.727
 2857TIP3    H230131   4.908   0.011   0.775
 2858TIP3   OH230132   1.955   4.330   1.087
 2858TIP3    H130133   1.892   4.374   1.030
 2858TIP3    H230134   1.926   4.238   1.088
 2859TIP3   OH230135   5.500   6.390   0.573
 2859TIP3    H130136   5.508   6.307   0.620
 2859TIP3    H230137   5.583   6.399   0.526
 2860TIP3   OH230138   2.911   6.090   0.783
 2860TIP3    H130139   2.838   6.117   0.838
 2860TIP3    H230140   2.941   6.008   0.821
 2861TIP3   OH230141   2.163   2.265   8.150
 2861TIP3    H130142   2.219   2.188   8.145
 2861TIP3    H230143   2.224   2.339   8.150
 2862TIP3   OH230144   4.935   2.794   1.879
 2862TIP3    H130145   4.993   2.724   1.909
 2862TIP3    H230146   4.896   2.829   1.959
 2863TIP3   OH230147   4.507   0.356   1.281
 2863TIP3    H130148   4.600   0.368   1.261
 2863TIP3    H230149   4.467   0.338   1.196
 2864TIP3   OH230150   6.286   4.489   1.050
 2864TIP3    H130151   6.205   4.494   1.100
 2864TIP3    H230152   6.348   4.444   1.107
 2865TIP3   OH230153   3.458   0.087   1.027
 2865TIP3    H130154   3.530   0.125   1.078
 2865TIP3    H230155   3.500   0.052   0.949
 2866TIP3   OH230156   3.809   3.880   0.882
 2866TIP3    H130157   3.860   3.845   0.809
 2866TIP3    H230158   3.720   3.846   0.869
 2867TIP3   OH230159   0.069   2.372   1.249
 2867TIP3    H130160   0.059   2.282   1.219
 2867TIP3    H230161   0.071   2.365   1.345
 2868TIP3   OH230162   6.244   6.348   1.381
 2868TIP3    H130163   6.251   6.296   1.461
 2868TIP3    H230164   6.317   6.410   1.387
 2869TIP3   OH230165   6.030   6.463   8.732
 2869TIP3    H130166   5.966   6.519   8.688
 2869TIP3    H230167   6.110   6.473   8.680
 2870TIP3   OH230168   4.492   0.714   2.297
 2870TIP3    H130169   4.437   0.756   2.363
 2870TIP3    H230170   4.545   0.652   2.346
 2871TIP3   OH230171   2.671   6.183   0.940
 2871TIP3    H130172   2.696   6.276   0.948
 2871TIP3    H230173   2.622   6.165   1.020
 2872TIP3   OH230174   4.528   5.077   7.178
 2872TIP3    H130175   4.544   5.159   7.131
 2872TIP3    H230176   4.593   5.016   7.142
 2873TIP3   OH230177   3.236   4.506   1.543
 2873TIP3    H130178   3.322   4.491   1.505
 2873TIP3    H230179   3.242   4.474   1.632
 2874TIP3   OH230180   4.676   4.542   0.282
 2874TIP3    H130181   4.710   4.456   0.309
 2874TIP3    H230182   4.743   4.604   0.310
 2875TIP3   OH230183   0.026   5.616   8.567
 2875TIP3    H130184   0.111   5.658   8.579
 2875TIP3    H230185   6.791   5.642   8.480
 2876TIP3   OH230186   1.603   0.228   6.645
 2876TIP3    H130187   1.693   0.196   6.640
 2876TIP3    H230188   1.554   0.173   6.584
 2877TIP3   OH230189   2.245   0.742   8.854
 2877TIP3    H130190   2.183   0.710   0.050
 2877TIP3    H230191   2.220   0.833   8.839
 2878TIP3   OH230192   0.968   3.484   1.869
 2878TIP3    H130193   1.004   3.495   1.780
 2878TIP3    H230194   0.876   3.508   1.861
 2879TIP3   OH230195   3.355   6.757   1.291
 2879TIP3    H130196   3.391   6.768   1.203
 2879TIP3    H230197   3.381   0.042   1.338
 2880TIP3   OH230198   5.507   0.857   7.212
 2880TIP3    H130199   5.514   0.951   7.195
 2880TIP3    H230200   5.598   0.827   7.214
 2881TIP3   OH230201   1.706   3.200   7.662
 2881TIP3    H130202   1.666   3.159   7.586
 2881TIP3    H230203   1.797   3.215   7.637
 2882TIP3   OH230204   1.519   1.957   8.181
 2882TIP3    H130205   1.456   1.976   8.111
 2882TIP3    H230206   1.501   2.022   8.249
 2883TIP3   OH230207   1.885   4.777   0.966
 2883TIP3    H130208   1.978   4.756   0.953
 2883TIP3    H230209   1.873   4.860   0.920
 2884TIP3   OH230210   4.729   0.993   7.584
 2884TIP3    H130211   4.762   0.904   7.572
 2884TIP3    H230212   4.799   1.049   7.550
 2885TIP3   OH230213   0.535   1.911   1.643
 2885TIP3    H130214   0.588   1.985   1.673
 2885TIP3    H230215   0.527   1.855   1.720
 2886TIP3   OH230216   0.340   5.236   0.255
 2886TIP3    H130217   0.384   5.151   0.250
 2886TIP3    H230218   0.247   5.216   0.240
 2887TIP3   OH230219   4.458   2.095   1.559
 2887TIP3    H130220   4.504   2.018   1.525
 2887TIP3    H230221   4.366   2.069   1.562
 2888TIP3   OH230222   2.444   0.211   0.934
 2888TIP3    H130223   2.455   0.287   0.992
 2888TIP3    H230224   2.503   0.145   0.970
 2889TIP3   OH230225   3.054   3.261   2.643
 2889TIP3    H130226   3.104   3.319   2.587
 2889TIP3    H230227   3.106   3.180   2.645
 2890TIP3   OH230228   6.147   0.472   6.625
 2890TIP3    H130229   6.112   0.383   6.632
 2890TIP3    H230230   6.200   0.471   6.545
 2891TIP3   OH230231   5.289   2.772   7.157
 2891TIP3    H130232   5.281   2.686   7.198
 2891TIP3    H230233   5.215   2.776   7.095
 2892TIP3   OH230234   2.619   0.874   8.282
 2892TIP3    H130235   2.638   0.967   8.275
 2892TIP3    H230236   2.528   0.870   8.311
 2893TIP3   OH230237   5.240   5.649   8.677
 2893TIP3    H130238   5.178   5.615   8.741
 2893TIP3    H230239   5.256   5.739   8.706
 2894TIP3   OH230240   1.502   0.276   0.054
 2894TIP3    H130241   1.470   0.315   8.841
 2894TIP3    H230242   1.589   0.314   0.066
 2895TIP3   OH230243   6.165   4.828   8.732
 2895TIP3    H130244   6.213   4.908   8.755
 2895TIP3    H230245   6.139   4.790   8.816
 2896TIP3   OH230246   0.890   5.151   0.949
 2896TIP3    H130247   0.924   5.068   0.914
 2896TIP3    H230248   0.934   5.218   0.898
 2897TIP3   OH230249   4.791   3.646   0.675
 2897TIP3    H130250   4.871   3.688   0.705
 2897TIP3    H230251   4.816   3.555   0.658
 2898TIP3   OH230252   3.939   2.187   1.516
 2898TIP3    H130253   3.913   2.263   1.464
 2898TIP3    H230254   3.867   2.173   1.577
 2899TIP3   OH230255   2.368   0.159   8.459
 2899TIP3    H130256   2.357   0.195   8.371
 2899TIP3    H230257   2.289   0.107   8.474
 2900TIP3   OH230258   6.368   0.154   6.943
 2900TIP3    H130259   6.288   0.186   6.901
 2900TIP3    H230260   6.412   0.233   6.975
 2901TIP3   OH230261   5.283   5.421   0.054
 2901TIP3    H130262   5.217   5.393   0.117
 2901TIP3    H230263   5.308   5.509   0.084
 2902TIP3   OH230264   6.335   0.961   8.827
 2902TIP3    H130265   6.312   0.921   8.743
 2902TIP3    H230266   6.287   0.910   0.023
 2903TIP3   OH230267   0.973   5.381   0.162
 2903TIP3    H130268   0.915   5.394   0.237
 2903TIP3    H230269   1.035   5.313   0.190
 2904TIP3   OH230270   2.626   5.897   8.657
 2904TIP3    H130271   2.634   5.805   8.632
 2904TIP3    H230272   2.581   5.939   8.583
 2905TIP3   OH230273   4.521   4.347   1.069
 2905TIP3    H130274   4.564   4.292   1.136
 2905TIP3    H230275   4.439   4.301   1.051
 2906TIP3   OH230276   3.058   0.382   7.830
 2906TIP3    H130277   3.010   0.321   7.774
 2906TIP3    H230278   3.014   0.376   7.915
 2907TIP3   OH230279   1.322   0.694   7.483
 2907TIP3    H130280   1.345   0.605   7.455
 2907TIP3    H230281   1.360   0.702   7.571
 2908TIP3   OH230282   4.275   2.714   0.150
 2908TIP3    H130283   4.266   2.796   0.199
 2908TIP3    H230284   4.185   2.686   0.132
 2909TIP3   OH230285   4.506   5.938   0.729
 2909TIP3    H130286   4.555   5.986   0.662
 2909TIP3    H230287   4.488   5.853   0.689
 2910TIP3   OH230288   2.497   3.504   1.379
 2910TIP3    H130289   2.463   3.430   1.428
 2910TIP3    H230290   2.420   3.557   1.359
 2911TIP3   OH230291   5.234   6.094   2.148
 2911TIP3    H130292   5.194   6.167   2.100
 2911TIP3    H230293   5.174   6.020   2.133
 2912TIP3   OH230294   2.363   3.926   7.457
 2912TIP3    H130295   2.338   3.885   7.374
 2912TIP3    H230296   2.437   3.982   7.434
 2913TIP3   OH230297   3.758   1.903   1.844
 2913TIP3    H130298   3.850   1.889   1.869
 2913TIP3    H230299   3.716   1.819   1.861
 2914TIP3   OH230300   5.619   4.286   2.072
 2914TIP3    H130301   5.608   4.375   2.107
 2914TIP3    H230302   5.679   4.244   2.133
 2915TIP3   OH230303   3.670   3.329   6.853
 2915TIP3    H130304   3.730   3.360   6.785
 2915TIP3    H230305   3.643   3.408   6.899
 2916TIP3   OH230306   2.779   5.056   1.524
 2916TIP3    H130307   2.821   5.107   1.593
 2916TIP3    H230308   2.685   5.068   1.539
 2917TIP3   OH230309   5.783   1.589   1.217
 2917TIP3    H130310   5.764   1.626   1.131
 2917TIP3    H230311   5.700   1.551   1.246
 2918TIP3   OH230312   4.687   3.705   1.415
 2918TIP3    H130313   4.597   3.691   1.445
 2918TIP3    H230314   4.708   3.794   1.442
 2919TIP3   OH230315   2.482   5.963   0.552
 2919TIP3    H130316   2.435   5.956   0.469
 2919TIP3    H230317   2.438   6.035   0.598
 2920TIP3   OH230318   0.273   1.895   6.564
 2920TIP3    H130319   0.318   1.821   6.605
 2920TIP3    H230320   0.179   1.874   6.572
 2921TIP3   OH230321   2.481   3.579   7.590
 2921TIP3    H130322   2.515   3.645   7.650
 2921TIP3    H230323   2.396   3.554   7.627
 2922TIP3   OH230324   4.554   2.435   8.766
 2922TIP3    H130325   4.589   2.427   8.855
 2922TIP3    H230326   4.515   2.523   8.763
 2923TIP3   OH230327   3.801   2.628   2.195
 2923TIP3    H130328   3.829   2.719   2.201
 2923TIP3    H230329   3.711   2.628   2.227
 2924TIP3   OH230330   6.370   0.288   7.423
 2924TIP3    H130331   6.369   0.200   7.386
 2924TIP3    H230332   6.446   0.330   7.383
 2925TIP3   OH230333   5.310   1.910   2.482
 2925TIP3    H130334   5.345   1.821   2.480
 2925TIP3    H230335   5.315   1.940   2.391
 2926TIP3   OH230336   2.401   0.094   7.767
 2926TIP3    H130337   2.447   0.176   7.747
 2926TIP3    H230338   2.436   0.032   7.704
 2927TIP3   OH230339   0.186   4.366   1.922
 2927TIP3    H130340   0.150   4.380   2.009
 2927TIP3    H230341   0.254   4.433   1.913
 2928TIP3   OH230342   0.801   3.070   1.713
 2928TIP3    H130343   0.742   3.058   1.639
 2928TIP3    H230344   0.864   2.998   1.705
 2929TIP3   OH230345   0.795   6.667   8.200
 2929TIP3    H130346   0.797   6.636   8.109
 2929TIP3    H230347   0.845   6.601   8.248
 2930TIP3   OH230348   2.977   6.007   2.353
 2930TIP3    H130349   2.911   6.067   2.387
 2930TIP3    H230350   2.928   5.947   2.296
 2931TIP3   OH230351   1.430   3.558   8.061
 2931TIP3    H130352   1.515   3.601   8.067
 2931TIP3    H230353   1.419   3.513   8.145
 2932TIP3   OH230354   0.858   1.340   2.094
 2932TIP3    H130355   0.897   1.388   2.021
 2932TIP3    H230356   0.903   1.375   2.171
 2933TIP3   OH230357   4.979   4.829   7.017
 2933TIP3    H130358   4.993   4.792   6.930
 2933TIP3    H230359   4.934   4.760   7.066
 2934TIP3   OH230360   6.680   4.214   7.243
 2934TIP3    H130361   6.699   4.307   7.254
 2934TIP3    H230362   6.587   4.206   7.263
 2935TIP3   OH230363   4.476   0.865   8.178
 2935TIP3    H130364   4.411   0.806   8.140
 2935TIP3    H230365   4.544   0.806   8.212
 2936TIP3   OH230366   6.377   4.542   7.768
 2936TIP3    H130367   6.441   4.536   7.697
 2936TIP3    H230368   6.357   4.635   7.776
 2937TIP3   OH230369   3.070   4.862   7.930
 2937TIP3    H130370   3.047   4.919   7.857
 2937TIP3    H230371   2.994   4.865   7.988
 2938TIP3   OH230372   3.704   2.033   7.633
 2938TIP3    H130373   3.758   2.070   7.703
 2938TIP3    H230374   3.733   2.079   7.554
 2939TIP3   OH230375   2.261   2.784   8.820
 2939TIP3    H130376   2.225   2.864   8.859
 2939TIP3    H230377   2.266   2.722   0.024
 2940TIP3   OH230378   5.388   0.360   1.456
 2940TIP3    H130379   5.357   0.275   1.486
 2940TIP3    H230380   5.316   0.420   1.478
 2941TIP3   OH230381   2.320   6.759   6.417
 2941TIP3    H130382   2.345   6.787   6.505
 2941TIP3    H230383   2.262   0.035   6.386
 2942TIP3   OH230384   6.479   5.287   0.851
 2942TIP3    H130385   6.410   5.224   0.869
 2942TIP3    H230386   6.558   5.234   0.839
 2943TIP3   OH230387   2.511   6.001   7.822
 2943TIP3    H130388   2.469   6.009   7.736
 2943TIP3    H230389   2.455   6.053   7.880
 2944TIP3   OH230390   4.289   2.715   0.770
 2944TIP3    H130391   4.215   2.774   0.779
 2944TIP3    H230392   4.254   2.629   0.796
 2945TIP3   OH230393   2.582   1.941   0.497
 2945TIP3    H130394   2.552   1.867   0.445
 2945TIP3    H230395   2.503   1.991   0.515
 2946TIP3   OH230396   2.805   6.349   7.942
 2946TIP3    H130397   2.736   6.303   7.896
 2946TIP3    H230398   2.769   6.436   7.960
 2947TIP3   OH230399   1.671   1.801   7.788
 2947TIP3    H130400   1.629   1.883   7.761
 2947TIP3    H230401   1.598   1.741   7.803
 2948TIP3   OH230402   3.424   2.523   7.619
 2948TIP3    H130403   3.452   2.512   7.710
 2948TIP3    H230404   3.329   2.535   7.625
 2949TIP3   OH230405   2.082   5.782   7.453
 2949TIP3    H130406   2.040   5.740   7.378
 2949TIP3    H230407   2.124   5.711   7.500
 2950TIP3   OH230408   2.064   6.691   0.812
 2950TIP3    H130409   2.088   6.778   0.844
 2950TIP3    H230410   2.101   6.631   0.877
 2951TIP3   OH230411   5.195   1.275   7.296
 2951TIP3    H130412   5.149   1.332   7.234
 2951TIP3    H230413   5.266   1.330   7.330
 2952TIP3   OH230414   4.545   0.045   1.721
 2952TIP3    H130415   4.532   0.026   1.628
 2952TIP3    H230416   4.613   6.777   1.749
 2953TIP3   OH230417   5.991   5.462   8.619
 2953TIP3    H130418   6.003   5.553   8.646
 2953TIP3    H230419   5.915   5.432   8.669
 2954TIP3   OH230420   0.597   0.709   6.882
 2954TIP3    H130421   0.532   0.779   6.887
 2954TIP3    H230422   0.640   0.710   6.968
 2955TIP3   OH230423   3.303   6.045   1.019
 2955TIP3    H130424   3.260   5.961   1.002
 2955TIP3    H230425   3.361   6.057   0.944
 2956TIP3   OH230426   6.332   3.129   7.618
 2956TIP3    H130427   6.273   3.102   7.547
 2956TIP3    H230428   6.274   3.149   7.691
 2957TIP3   OH230429   4.762   1.760   7.629
 2957TIP3    H130430   4.717   1.711   7.560
 2957TIP3    H230431   4.693   1.783   7.691
 2958TIP3   OH230432   4.397   0.828   2.577
 2958TIP3    H130433   4.347   0.884   2.518
 2958TIP3    H230434   4.352   0.744   2.574
 2959TIP3   OH230435   5.584   1.415   0.567
 2959TIP3    H130436   5.513   1.414   0.631
 2959TIP3    H230437   5.540   1.434   0.484
 2960TIP3   OH230438   6.415   5.876   0.844
 2960TIP3    H130439   6.329   5.914   0.826
 2960TIP3    H230440   6.438   5.831   0.762
 2961TIP3   OH230441   5.286   6.280   0.201
 2961TIP3    H130442   5.279   6.275   0.296
 2961TIP3    H230443   5.222   6.347   0.176
 2962TIP3   OH230444   6.491   4.758   0.654
 2962TIP3    H130445   6.407   4.787   0.690
 2962TIP3    H230446   6.475   4.669   0.624
 2963TIP3   OH230447   6.553   3.829   7.828
 2963TIP3    H130448   6.571   3.753   7.772
 2963TIP3    H230449   6.512   3.792   7.906
 2964TIP3   OH230450   5.241   0.743   2.106
 2964TIP3    H130451   5.177   0.735   2.035
 2964TIP3    H230452   5.245   0.656   2.145
 2965TIP3   OH230453   6.667   1.657   1.293
 2965TIP3    H130454   6.666   1.753   1.297
 2965TIP3    H230455   6.576   1.631   1.303
 2966TIP3   OH230456   3.948   0.918   0.164
 2966TIP3    H130457   3.996   0.870   0.097
 2966TIP3    H230458   3.943   1.008   0.131
 2967TIP3   OH230459   0.987   2.909   0.444
 2967TIP3    H130460   1.075   2.895   0.480
 2967TIP3    H230461   0.974   2.837   0.383
 2968TIP3   OH230462   6.258   5.633   8.693
 2968TIP3    H130463   6.286   5.721   8.668
 2968TIP3    H230464   6.262   5.583   8.612
 2969TIP3   OH230465   4.311   6.052   7.854
 2969TIP3    H130466   4.259   5.991   7.905
 2969TIP3    H230467   4.396   6.053   7.897
 2970TIP3   OH230468   4.030   4.705   8.528
 2970TIP3    H130469   4.066   4.671   8.610
 2970TIP3    H230470   4.014   4.797   8.546
 2971TIP3   OH230471   4.887   3.103   0.433
 2971TIP3    H130472   4.898   3.026   0.488
 2971TIP3    H230473   4.928   3.174   0.482
 2972TIP3   OH230474   0.809   4.499   0.393
 2972TIP3    H130475   0.781   4.590   0.385
 2972TIP3    H230476   0.730   4.452   0.419
 2973TIP3   OH230477   6.585   4.160   1.392
 2973TIP3    H130478   6.543   4.161   1.478
 2973TIP3    H230479   6.588   4.067   1.368
 2974TIP3   OH230480   1.535   4.079   7.555
 2974TIP3    H130481   1.542   4.099   7.462
 2974TIP3    H230482   1.582   4.151   7.599
 2975TIP3   OH230483   4.961   0.327   7.542
 2975TIP3    H130484   4.949   0.271   7.466
 2975TIP3    H230485   4.930   0.274   7.616
 2976TIP3   OH230486   3.404   6.263   1.854
 2976TIP3    H130487   3.385   6.357   1.852
 2976TIP3    H230488   3.349   6.225   1.786
 2977TIP3   OH230489   0.667   0.802   2.322
 2977TIP3    H130490   0.750   0.829   2.361
 2977TIP3    H230491   0.650   0.716   2.360
 2978TIP3   OH230492   2.671   2.626   0.938
 2978TIP3    H130493   2.712   2.700   0.895
 2978TIP3    H230494   2.589   2.660   0.973
 2979TIP3   OH230495   4.260   4.096   8.581
 2979TIP3    H130496   4.332   4.060   8.530
 2979TIP3    H230497   4.267   4.191   8.568
 2980TIP3   OH230498   6.661   5.628   7.740
 2980TIP3    H130499   6.584   5.577   7.763
 2980TIP3    H230500   6.734   5.566   7.747
 2981TIP3   OH230501   3.344   4.169   7.237
 2981TIP3    H130502   3.416   4.225   7.266
 2981TIP3    H230503   3.345   4.176   7.142
 2982TIP3   OH230504   5.132   5.198   6.481
 2982TIP3    H130505   5.050   5.150   6.470
 2982TIP3    H230506   5.197   5.131   6.500
 2983TIP3   OH230507   3.270   2.240   8.401
 2983TIP3    H130508   3.244   2.324   8.439
 2983TIP3    H230509   3.289   2.185   8.477
 2984TIP3   OH230510   0.278   5.308   7.499
 2984TIP3    H130511   0.353   5.321   7.441
 2984TIP3    H230512   0.259   5.215   7.493
 2985TIP3   OH230513   4.281   3.051   6.665
 2985TIP3    H130514   4.207   2.996   6.638
 2985TIP3    H230515   4.298   3.026   6.756
 2986TIP3   OH230516   4.189   1.101   7.259
 2986TIP3    H130517   4.147   1.178   7.221
 2986TIP3    H230518   4.265   1.086   7.203
 2987TIP3   OH230519   0.310   6.731   2.175
 2987TIP3    H130520   0.295   0.032   2.191
 2987TIP3    H230521   0.381   6.708   2.235
 2988TIP3   OH230522   1.527   2.198   8.312
 2988TIP3    H130523   1.542   2.242   8.228
 2988TIP3    H230524   1.612   2.164   8.338
 2989TIP3   OH230525   2.348   0.447   0.292
 2989TIP3    H130526   2.417   0.510   0.315
 2989TIP3    H230527   2.315   0.416   0.376
 2990TIP3   OH230528   4.112   3.603   0.475
 2990TIP3    H130529   4.062   3.635   0.401
 2990TIP3    H230530   4.131   3.680   0.528
 2991TIP3   OH230531   6.044   4.519   6.649
 2991TIP3    H130532   6.078   4.474   6.726
 2991TIP3    H230533   6.035   4.449   6.583
 2992TIP3   OH230534   2.368   4.883   0.922
 2992TIP3    H130535   2.455   4.842   0.917
 2992TIP3    H230536   2.376   4.962   0.869
 2993TIP3   OH230537   5.750   3.113   8.181
 2993TIP3    H130538   5.750   3.207   8.165
 2993TIP3    H230539   5.782   3.102   8.270
 2994TIP3   OH230540   5.526   0.138   0.169
 2994TIP3    H130541   5.482   0.056   0.191
 2994TIP3    H230542   5.549   0.129   0.077
 2995TIP3   OH230543   0.904   4.745   8.527
 2995TIP3    H130544   0.973   4.680   8.514
 2995TIP3    H230545   0.914   4.806   8.454
 2996TIP3   OH230546   1.250   4.757   8.668
 2996TIP3    H130547   1.212   4.679   8.628
 2996TIP3    H230548   1.333   4.770   8.622
 2997TIP3   OH230549   2.383   4.882   1.494
 2997TIP3    H130550   2.453   4.860   1.555
 2997TIP3    H230551   2.405   4.833   1.414
 2998TIP3   OH230552   2.110   0.612   8.165
 2998TIP3    H130553   2.203   0.599   8.149
 2998TIP3    H230554   2.066   0.556   8.100
 2999TIP3   OH230555   5.094   3.494   0.031
 2999TIP3    H130556   5.056   3.529   0.111
 2999TIP3    H230557   5.126   3.407   0.056
 3000TIP3   OH230558   2.850   1.878   2.737
 3000TIP3    H130559   2.823   1.968   2.757
 3000TIP3    H230560   2.782   1.824   2.776
 3001TIP3   OH230561   2.936   3.383   1.193
 3001TIP3    H130562   2.884   3.325   1.136
 3001TIP3    H230563   3.026   3.372   1.162
 3002TIP3   OH230564   3.800   1.173   1.555
 3002TIP3    H130565   3.751   1.224   1.491
 3002TIP3    H230566   3.878   1.143   1.507
 3003TIP3   OH230567   2.110   3.766   2.233
 3003TIP3    H130568   2.138   3.838   2.176
 3003TIP3    H230569   2.017   3.754   2.211
 3004TIP3   OH230570   6.588   5.460   6.374
 3004TIP3    H130571   6.626   5.415   6.299
 3004TIP3    H230572   6.640   5.431   6.449
 3005TIP3   OH230573   6.046   3.867   0.041
 3005TIP3    H130574   5.972   3.828   8.863
 3005TIP3    H230575   6.066   3.805   0.111
 3006TIP3   OH230576   4.095   2.217   0.248
 3006TIP3    H130577   4.064   2.291   0.300
 3006TIP3    H230578   4.150   2.167   0.308
 3007TIP3   OH230579   4.547   3.541   8.849
 3007TIP3    H130580   4.565   3.464   8.795
 3007TIP3    H230581   4.632   3.586   8.856
 3008TIP3   OH230582   3.561   3.319   8.027
 3008TIP3    H130583   3.573   3.394   7.970
 3008TIP3    H230584   3.642   3.268   8.018
 3009TIP3   OH230585   5.050   1.702   0.034
 3009TIP3    H130586   5.056   1.674   8.812
 3009TIP3    H230587   5.137   1.687   0.071
 3010TIP3   OH230588   0.636   2.960   1.523
 3010TIP3    H130589   0.638   2.873   1.563
 3010TIP3    H230590   0.543   2.979   1.510
 3011TIP3   OH230591   3.834   5.723   0.303
 3011TIP3    H130592   3.826   5.670   0.224
 3011TIP3    H230593   3.824   5.661   0.375
 3012TIP3   OH230594   0.807   3.189   8.135
 3012TIP3    H130595   0.797   3.284   8.132
 3012TIP3    H230596   0.900   3.173   8.118
 3013TIP3   OH230597   4.329   4.494   8.735
 3013TIP3    H130598   4.370   4.575   8.705
 3013TIP3    H230599   4.401   4.446   8.778
 3014TIP3   OH230600   1.390   3.989   7.063
 3014TIP3    H130601   1.314   3.932   7.066
 3014TIP3    H230602   1.358   4.073   7.096
 3015TIP3   OH230603   6.035   4.313   8.021
 3015TIP3    H130604   5.964   4.253   8.043
 3015TIP3    H230605   6.030   4.323   7.926
 3016TIP3   OH230606   1.891   4.447   7.740
 3016TIP3    H130607   1.832   4.502   7.792
 3016TIP3    H230608   1.979   4.480   7.760
 3017TIP3   OH230609   0.147   3.979   0.511
 3017TIP3    H130610   0.103   4.055   0.473
 3017TIP3    H230611   0.093   3.904   0.484
 3018TIP3   OH230612   1.528   5.823   0.031
 3018TIP3    H130613   1.457   5.878   0.065
 3018TIP3    H230614   1.487   5.771   8.830
 3019TIP3   OH230615   0.559   6.304   8.086
 3019TIP3    H130616   0.574   6.383   8.034
 3019TIP3    H230617   0.465   6.288   8.079
 3020TIP3   OH230618   0.301   1.051   0.860
 3020TIP3    H130619   0.235   1.114   0.889
 3020TIP3    H230620   0.377   1.067   0.917
 3021TIP3   OH230621   3.206   6.394   8.400
 3021TIP3    H130622   3.125   6.382   8.350
 3021TIP3    H230623   3.274   6.406   8.334
 3022TIP3   OH230624   3.883   0.754   0.406
 3022TIP3    H130625   3.933   0.800   0.339
 3022TIP3    H230626   3.794   0.789   0.398
 3023TIP3   OH230627   0.118   6.384   0.370
 3023TIP3    H130628   0.082   6.353   0.453
 3023TIP3    H230629   0.209   6.407   0.391
 3024TIP3   OH230630   4.641   4.433   7.740
 3024TIP3    H130631   4.627   4.527   7.749
 3024TIP3    H230632   4.663   4.403   7.828
 3025TIP3   OH230633   3.769   0.638   7.547
 3025TIP3    H130634   3.846   0.686   7.578
 3025TIP3    H230635   3.785   0.547   7.571
 3026TIP3   OH230636   4.286   6.414   7.245
 3026TIP3    H130637   4.342   6.350   7.201
 3026TIP3    H230638   4.332   6.498   7.235
 3027TIP3   OH230639   1.947   6.326   7.191
 3027TIP3    H130640   1.864   6.348   7.149
 3027TIP3    H230641   1.933   6.348   7.283
 3028TIP3   OH230642   3.540   2.393   8.583
 3028TIP3    H130643   3.621   2.397   8.635
 3028TIP3    H230644   3.481   2.454   8.627
 3029TIP3   OH230645   4.108   0.649   8.658
 3029TIP3    H130646   4.090   0.719   8.721
 3029TIP3    H230647   4.159   0.692   8.589
 3030TIP3   OH230648   6.015   4.996   7.538
 3030TIP3    H130649   5.980   4.919   7.496
 3030TIP3    H230650   6.015   4.975   7.631
 3031TIP3   OH230651   2.989   4.626   1.576
 3031TIP3    H130652   3.072   4.589   1.548
 3031TIP3    H230653   2.934   4.550   1.595
 3032TIP3   OH230654   5.983   5.762   8.255
 3032TIP3    H130655   6.067   5.763   8.301
 3032TIP3    H230656   5.935   5.837   8.289
 3033TIP3   OH230657   0.424   2.909   7.875
 3033TIP3    H130658   0.375   2.845   7.823
 3033TIP3    H230659   0.357   2.952   7.929
 3034TIP3   OH230660   4.191   0.088   7.332
 3034TIP3    H130661   4.258   0.083   7.264
 3034TIP3    H230662   4.184   6.791   7.365
 3035TIP3   OH230663   1.803   0.864   8.852
 3035TIP3    H130664   1.770   0.928   8.788
 3035TIP3    H230665   1.898   0.876   8.851
 3036TIP3   OH230666   4.388   4.658   7.602
 3036TIP3    H130667   4.396   4.685   7.510
 3036TIP3    H230668   4.466   4.696   7.644
 3037TIP3   OH230669   3.613   3.837   8.251
 3037TIP3    H130670   3.675   3.801   8.189
 3037TIP3    H230671   3.640   3.801   8.336
 3038TIP3   OH230672   2.747   0.073   8.006
 3038TIP3    H130673   2.691   0.125   8.064
 3038TIP3    H230674   2.726   6.775   8.026
 3039TIP3   OH230675   6.332   1.789   6.288
 3039TIP3    H130676   6.410   1.734   6.294
 3039TIP3    H230677   6.363   1.878   6.305
 3040TIP3   OH230678   2.045   4.057   8.371
 3040TIP3    H130679   1.963   4.051   8.322
 3040TIP3    H230680   2.021   4.103   8.452
 3041TIP3   OH230681   3.502   4.392   7.291
 3041TIP3    H130682   3.431   4.423   7.347
 3041TIP3    H230683   3.570   4.364   7.352
 3042TIP3   OH230684   1.523   6.450   1.593
 3042TIP3    H130685   1.550   6.365   1.559
 3042TIP3    H230686   1.553   6.513   1.528
 3043TIP3   OH230687   2.820   3.843   1.237
 3043TIP3    H130688   2.854   3.759   1.206
 3043TIP3    H230689   2.764   3.821   1.311
 3044TIP3   OH230690   5.977   0.717   6.758
 3044TIP3    H130691   5.911   0.764   6.707
 3044TIP3    H230692   6.003   0.644   6.702
 3045TIP3   OH230693   5.018   1.434   0.961
 3045TIP3    H130694   4.924   1.449   0.972
 3045TIP3    H230695   5.057   1.460   1.044
 3046TIP3   OH230696   5.918   1.043   1.036
 3046TIP3    H130697   5.957   0.960   1.067
 3046TIP3    H230698   5.867   1.018   0.960
 3047TIP3   OH230699   1.532   2.784   0.748
 3047TIP3    H130700   1.576   2.759   0.667
 3047TIP3    H230701   1.596   2.835   0.796
 3048TIP3   OH230702   6.608   0.927   1.086
 3048TIP3    H130703   6.543   0.925   1.015
 3048TIP3    H230704   6.556   0.936   1.166
 3049TIP3   OH230705   2.446   6.166   8.821
 3049TIP3    H130706   2.418   6.132   0.038
 3049TIP3    H230707   2.436   6.261   8.828
 3050TIP3   OH230708   1.136   3.817   7.140
 3050TIP3    H130709   1.121   3.725   7.163
 3050TIP3    H230710   1.077   3.865   7.198
 3051TIP3   OH230711   5.552   3.987   8.299
 3051TIP3    H130712   5.503   3.939   8.366
 3051TIP3    H230713   5.643   3.983   8.328
 3052TIP3   OH230714   4.576   5.779   1.193
 3052TIP3    H130715   4.561   5.846   1.126
 3052TIP3    H230716   4.580   5.827   1.275
 3053TIP3   OH230717   0.414   5.086   1.125
 3053TIP3    H130718   0.407   5.005   1.176
 3053TIP3    H230719   0.504   5.114   1.138
 3054TIP3   OH230720   1.592   0.734   1.273
 3054TIP3    H130721   1.659   0.680   1.231
 3054TIP3    H230722   1.626   0.823   1.266
 3055TIP3   OH230723   3.118   0.598   6.301
 3055TIP3    H130724   3.104   0.664   6.369
 3055TIP3    H230725   3.180   0.640   6.241
 3056TIP3   OH230726   4.021   4.650   7.375
 3056TIP3    H130727   4.037   4.644   7.280
 3056TIP3    H230728   4.051   4.738   7.398
 3057TIP3   OH230729   4.636   1.076   1.528
 3057TIP3    H130730   4.718   1.071   1.578
 3057TIP3    H230731   4.600   0.987   1.533
 3058TIP3   OH230732   6.783   4.136   0.869
 3058TIP3    H130733   0.042   4.195   0.814
 3058TIP3    H230734   0.034   4.138   0.954
 3059TIP3   OH230735   6.313   6.745   7.916
 3059TIP3    H130736   6.404   6.772   7.904
 3059TIP3    H230737   6.316   6.680   7.985
 3060TIP3   OH230738   4.833   5.186   6.866
 3060TIP3    H130739   4.919   5.170   6.829
 3060TIP3    H230740   4.819   5.113   6.927
 3061TIP3   OH230741   0.839   3.705   8.789
 3061TIP3    H130742   0.848   3.704   8.694
 3061TIP3    H230743   0.782   3.631   8.808
 3062TIP3   OH230744   1.041   3.761   0.478
 3062TIP3    H130745   1.022   3.814   0.555
 3062TIP3    H230746   1.092   3.818   0.421
 3063TIP3   OH230747   4.059   1.315   1.615
 3063TIP3    H130748   4.108   1.396   1.630
 3063TIP3    H230749   3.973   1.345   1.583
 3064TIP3   OH230750   6.318   3.419   8.582
 3064TIP3    H130751   6.393   3.479   8.573
 3064TIP3    H230752   6.245   3.477   8.606
 3065TIP3   OH230753   5.137   5.641   1.853
 3065TIP3    H130754   5.224   5.614   1.823
 3065TIP3    H230755   5.134   5.613   1.944
 3066TIP3   OH230756   2.029   0.987   2.426
 3066TIP3    H130757   2.049   1.036   2.507
 3066TIP3    H230758   2.037   1.052   2.357
 3067TIP3   OH230759   0.722   3.287   6.534
 3067TIP3    H130760   0.687   3.213   6.584
 3067TIP3    H230761   0.729   3.253   6.444
 3068TIP3   OH230762   3.043   6.654   8.243
 3068TIP3    H130763   3.023   6.568   8.206
 3068TIP3    H230764   3.130   6.644   8.282
 3069TIP3   OH230765   1.654   1.615   0.686
 3069TIP3    H130766   1.643   1.576   0.772
 3069TIP3    H230767   1.691   1.545   0.632
 3070TIP3   OH230768   3.130   1.861   6.981
 3070TIP3    H130769   3.101   1.891   6.895
 3070TIP3    H230770   3.068   1.793   7.005
 3071TIP3   OH230771   1.339   4.762   6.895
 3071TIP3    H130772   1.335   4.674   6.932
 3071TIP3    H230773   1.324   4.750   6.802
 3072TIP3   OH230774   6.495   2.677   0.060
 3072TIP3    H130775   6.590   2.662   0.053
 3072TIP3    H230776   6.485   2.727   0.141
 3073TIP3   OH230777   1.630   4.657   8.126
 3073TIP3    H130778   1.536   4.670   8.115
 3073TIP3    H230779   1.662   4.740   8.162
 3074TIP3   OH230780   2.334   2.225   7.535
 3074TIP3    H130781   2.315   2.136   7.505
 3074TIP3    H230782   2.250   2.271   7.528
 3075TIP3   OH230783   6.764   5.026   8.587
 3075TIP3    H130784   6.739   4.949   8.537
 3075TIP3    H230785   6.764   4.996   8.678
 3076TIP3   OH230786   2.718   5.423   8.258
 3076TIP3    H130787   2.681   5.340   8.227
 3076TIP3    H230788   2.797   5.436   8.206
 3077TIP3   OH230789   5.065   1.425   2.179
 3077TIP3    H130790   5.137   1.387   2.229
 3077TIP3    H230791   5.001   1.353   2.171
 3078TIP3   OH230792   1.509   1.828   1.143
 3078TIP3    H130793   1.591   1.793   1.109
 3078TIP3    H230794   1.482   1.894   1.078
 3079TIP3   OH230795   4.106   5.748   1.544
 3079TIP3    H130796   4.077   5.831   1.507
 3079TIP3    H230797   4.070   5.747   1.632
 3080TIP3   OH230798   3.081   1.817   0.124
 3080TIP3    H130799   3.167   1.811   0.165
 3080TIP3    H230800   3.048   1.903   0.150
 3081TIP3   OH230801   6.411   6.099   6.830
 3081TIP3    H130802   6.440   6.182   6.867
 3081TIP3    H230803   6.412   6.039   6.905
 3082TIP3   OH230804   0.998   5.647   0.516
 3082TIP3    H130805   0.976   5.554   0.507
 3082TIP3    H230806   0.916   5.693   0.497
 3083TIP3   OH230807   4.420   1.886   8.272
 3083TIP3    H130808   4.404   1.794   8.293
 3083TIP3    H230809   4.506   1.905   8.310
 3084TIP3   OH230810   4.266   4.413   1.438
 3084TIP3    H130811   4.200   4.345   1.430
 3084TIP3    H230812   4.269   4.433   1.532
 3085TIP3   OH230813   1.473   6.180   1.520
 3085TIP3    H130814   1.433   6.121   1.456
 3085TIP3    H230815   1.450   6.142   1.605
 3086TIP3   OH230816   5.391   6.016   8.565
 3086TIP3    H130817   5.387   5.972   8.651
 3086TIP3    H230818   5.327   5.969   8.512
 3087TIP3   OH230819   0.463   2.862   7.126
 3087TIP3    H130820   0.429   2.806   7.196
 3087TIP3    H230821   0.483   2.802   7.055
 3088TIP3   OH230822   0.604   1.637   7.960
 3088TIP3    H130823   0.577   1.575   7.892
 3088TIP3    H230824   0.655   1.703   7.913
 3089TIP3   OH230825   1.555   2.068   0.352
 3089TIP3    H130826   1.554   2.002   0.422
 3089TIP3    H230827   1.564   2.017   0.271
 3090TIP3   OH230828   2.560   1.686   1.260
 3090TIP3    H130829   2.640   1.675   1.208
 3090TIP3    H230830   2.588   1.669   1.350
 3091TIP3   OH230831   4.079   4.445   7.574
 3091TIP3    H130832   4.090   4.519   7.514
 3091TIP3    H230833   3.995   4.406   7.548
 3092TIP3   OH230834   3.559   0.005   0.789
 3092TIP3    H130835   3.582   0.060   0.715
 3092TIP3    H230836   3.551   6.710   0.752
 3093TIP3   OH230837   3.050   3.414   8.141
 3093TIP3    H130838   3.070   3.323   8.165
 3093TIP3    H230839   3.018   3.408   8.051
 3094TIP3   OH230840   2.831   0.317   0.517
 3094TIP3    H130841   2.763   0.379   0.541
 3094TIP3    H230842   2.902   0.371   0.482
 3095TIP3   OH230843   0.506   3.981   7.080
 3095TIP3    H130844   0.442   3.958   7.012
 3095TIP3    H230845   0.479   4.067   7.111
 3096TIP3   OH230846   5.456   1.142   7.408
 3096TIP3    H130847   5.414   1.226   7.429
 3096TIP3    H230848   5.441   1.131   7.314
 3097TIP3   OH230849   6.429   6.685   6.885
 3097TIP3    H130850   6.480   6.673   6.805
 3097TIP3    H230851   6.430   6.779   6.901
 3098TIP3   OH230852   2.835   1.926   2.122
 3098TIP3    H130853   2.859   1.960   2.208
 3098TIP3    H230854   2.740   1.929   2.121
 3099TIP3   OH230855   2.234   0.447   7.411
 3099TIP3    H130856   2.259   0.421   7.500
 3099TIP3    H230857   2.318   0.465   7.367
 3100TIP3   OH230858   3.110   0.549   7.488
 3100TIP3    H130859   3.106   0.453   7.481
 3100TIP3    H230860   3.203   0.568   7.493
 3101TIP3   OH230861   6.077   2.005   8.651
 3101TIP3    H130862   6.160   2.046   8.630
 3101TIP3    H230863   6.094   1.911   8.642
 3102TIP3   OH230864   0.996   1.915   1.445
 3102TIP3    H130865   1.049   1.903   1.367
 3102TIP3    H230866   1.020   1.843   1.503
 3103TIP3   OH230867   0.193   3.780   8.260
 3103TIP3    H130868   0.257   3.724   8.215
 3103TIP3    H230869   0.246   3.847   8.303
 3104TIP3   OH230870   3.370   5.573   0.205
 3104TIP3    H130871   3.400   5.517   0.133
 3104TIP3    H230872   3.379   5.518   0.283
 3105TIP3   OH230873   1.017   0.261   1.572
 3105TIP3    H130874   1.087   0.196   1.573
 3105TIP3    H230875   1.002   0.280   1.479
 3106TIP3   OH230876   1.720   1.194   7.181
 3106TIP3    H130877   1.731   1.215   7.088
 3106TIP3    H230878   1.731   1.099   7.185
 3107TIP3   OH230879   5.843   0.065   1.100
 3107TIP3    H130880   5.754   0.057   1.064
 3107TIP3    H230881   5.874   0.149   1.067
 3108TIP3   OH230882   5.831   5.584   6.563
 3108TIP3    H130883   5.853   5.518   6.497
 3108TIP3    H230884   5.750   5.624   6.532
 3109TIP3   OH230885   1.999   2.866   0.754
 3109TIP3    H130886   1.926   2.877   0.815
 3109TIP3    H230887   1.969   2.908   0.674
 3110TIP3   OH230888   4.481   2.726   1.144
 3110TIP3    H130889   4.455   2.655   1.085
 3110TIP3    H230890   4.457   2.806   1.097
 3111TIP3   OH230891   2.399   1.616   0.071
 3111TIP3    H130892   2.351   1.667   0.006
 3111TIP3    H230893   2.469   1.574   0.022
 3112TIP3   OH230894   5.687   4.709   6.956
 3112TIP3    H130895   5.653   4.738   6.872
 3112TIP3    H230896   5.612   4.671   7.001
 3113TIP3   OH230897   0.807   4.211   0.548
 3113TIP3    H130898   0.856   4.225   0.467
 3113TIP3    H230899   0.868   4.238   0.617
 3114TIP3   OH230900   6.570   1.245   0.731
 3114TIP3    H130901   6.511   1.300   0.680
 3114TIP3    H230902   6.559   1.275   0.821
 3115TIP3   OH230903   5.541   4.484   0.808
 3115TIP3    H130904   5.583   4.570   0.801
 3115TIP3    H230905   5.451   4.504   0.834
 3116TIP3   OH230906   1.657   2.322   0.402
 3116TIP3    H130907   1.605   2.242   0.391
 3116TIP3    H230908   1.594   2.387   0.433
 3117TIP3   OH230909   1.998   1.898   8.597
 3117TIP3    H130910   2.068   1.964   8.595
 3117TIP3    H230911   2.042   1.815   8.581
 3118TIP3   OH230912   4.384   2.500   0.973
 3118TIP3    H130913   4.371   2.442   1.048
 3118TIP3    H230914   4.303   2.491   0.922
 3119TIP3   OH230915   2.956   0.010   8.618
 3119TIP3    H130916   2.892   0.022   8.547
 3119TIP3    H230917   2.908   6.757   8.686
 3120TIP3   OH230918   0.213   5.069   0.478
 3120TIP3    H130919   0.155   5.119   0.420
 3120TIP3    H230920   0.271   5.021   0.418
 3121TIP3   OH230921   1.071   4.984   8.568
 3121TIP3    H130922   0.981   4.997   8.599
 3121TIP3    H230923   1.102   4.908   8.616
 3122TIP3   OH230924   2.218   2.446   7.931
 3122TIP3    H130925   2.312   2.458   7.922
 3122TIP3    H230926   2.179   2.525   7.892
 3123TIP3   OH230927   1.094   5.068   2.138
 3123TIP3    H130928   1.077   5.156   2.103
 3123TIP3    H230929   1.032   5.012   2.091
 3124TIP3   OH230930   4.152   5.851   7.991
 3124TIP3    H130931   4.056   5.851   7.988
 3124TIP3    H230932   4.173   5.892   8.075
 3125TIP3   OH230933   1.848   3.685   0.025
 3125TIP3    H130934   1.877   3.653   8.808
 3125TIP3    H230935   1.774   3.630   0.048
 3126TIP3   OH230936   5.123   0.818   0.810
 3126TIP3    H130937   5.028   0.830   0.808
 3126TIP3    H230938   5.156   0.878   0.743
 3127TIP3   OH230939   4.827   4.010   8.183
 3127TIP3    H130940   4.748   4.056   8.155
 3127TIP3    H230941   4.800   3.919   8.191
 3128TIP3   OH230942   0.283   5.750   0.501
 3128TIP3    H130943   0.348   5.796   0.448
 3128TIP3    H230944   0.251   5.680   0.444
 3129TIP3   OH230945   3.899   1.956   2.165
 3129TIP3    H130946   3.840   1.894   2.122
 3129TIP3    H230947   3.864   1.966   2.253
 3130TIP3   OH230948   0.633   4.632   7.127
 3130TIP3    H130949   0.627   4.536   7.120
 3130TIP3    H230950   0.568   4.656   7.193
 3131TIP3   OH230951   4.361   1.952   1.964
 3131TIP3    H130952   4.279   2.000   1.957
 3131TIP3    H230953   4.354   1.904   2.047
 3132TIP3   OH230954   2.751   1.027   8.527
 3132TIP3    H130955   2.831   1.012   8.478
 3132TIP3    H230956   2.685   1.047   8.460
 3133TIP3   OH230957   2.061   4.763   7.859
 3133TIP3    H130958   2.108   4.683   7.883
 3133TIP3    H230959   1.980   4.731   7.819
 3134TIP3   OH230960   6.163   3.291   8.232
 3134TIP3    H130961   6.099   3.251   8.291
 3134TIP3    H230962   6.141   3.384   8.231
 3135TIP3   OH230963   3.732   5.904   2.507
 3135TIP3    H130964   3.683   5.884   2.427
 3135TIP3    H230965   3.797   5.834   2.514
 3136TIP3   OH230966   0.809   3.000   0.646
 3136TIP3    H130967   0.849   2.967   0.565
 3136TIP3    H230968   0.731   3.048   0.616
 3137TIP3   OH230969   1.474   1.305   0.604
 3137TIP3    H130970   1.463   1.217   0.570
 3137TIP3    H230971   1.495   1.359   0.528
 3138TIP3   OH230972   1.870   5.994   1.114
 3138TIP3    H130973   1.897   5.903   1.128
 3138TIP3    H230974   1.780   5.988   1.082
 3139TIP3   OH230975   6.436   1.613   7.306
 3139TIP3    H130976   6.446   1.539   7.247
 3139TIP3    H230977   6.438   1.574   7.394
 3140TIP3   OH230978   1.572   3.305   8.026
 3140TIP3    H130979   1.552   3.264   7.941
 3140TIP3    H230980   1.512   3.379   8.031
 3141TIP3   OH230981   5.776   6.044   7.790
 3141TIP3    H130982   5.765   6.015   7.881
 3141TIP3    H230983   5.731   6.128   7.786
 3142TIP3   OH230984   2.948   1.017   8.738
 3142TIP3    H130985   2.942   1.105   8.775
 3142TIP3    H230986   2.895   1.021   8.658
 3143TIP3   OH230987   0.022   0.869   8.657
 3143TIP3    H130988   0.100   0.921   8.671
 3143TIP3    H230989   0.052   0.778   8.661
 3144TIP3   OH230990   4.354   4.975   0.241
 3144TIP3    H130991   4.397   5.042   0.188
 3144TIP3    H230992   4.407   4.897   0.228
 3145TIP3   OH230993   1.181   3.923   0.262
 3145TIP3    H130994   1.259   3.964   0.226
 3145TIP3    H230995   1.187   3.831   0.235
 3146TIP3   OH230996   5.216   4.013   7.322
 3146TIP3    H130997   5.148   4.031   7.387
 3146TIP3    H230998   5.258   4.098   7.306
 3147TIP3   OH230999   4.283   5.689   0.765
 3147TIP3    H131000   4.269   5.596   0.747
 3147TIP3    H231001   4.355   5.714   0.707
 3148TIP3   OH231002   1.642   0.808   8.105
 3148TIP3    H131003   1.648   0.797   8.200
 3148TIP3    H231004   1.569   0.870   8.093
 3149TIP3   OH231005   6.147   2.670   6.270
 3149TIP3    H131006   6.238   2.665   6.240
 3149TIP3    H231007   6.096   2.686   6.190
 3150TIP3   OH231008   6.719   3.034   8.474
 3150TIP3    H131009   6.693   2.979   8.548
 3150TIP3    H231010   0.021   3.022   8.468
 3151TIP3   OH231011   1.557   5.312   0.941
 3151TIP3    H131012   1.512   5.397   0.940
 3151TIP3    H231013   1.488   5.248   0.928
 3152TIP3   OH231014   2.653   4.145   8.201
 3152TIP3    H131015   2.705   4.225   8.211
 3152TIP3    H231016   2.566   4.170   8.232
 3153TIP3   OH231017   6.130   1.232   0.567
 3153TIP3    H131018   6.218   1.224   0.604
 3153TIP3    H231019   6.076   1.262   0.640
 3154TIP3   OH231020   0.123   0.960   1.586
 3154TIP3    H131021   0.070   0.957   1.506
 3154TIP3    H231022   0.067   0.919   1.653
 3155TIP3   OH231023   6.663   1.300   1.481
 3155TIP3    H131024   6.619   1.295   1.566
 3155TIP3    H231025   6.735   1.362   1.496
 3156TIP3   OH231026   6.643   2.225   1.485
 3156TIP3    H131027   6.722   2.179   1.456
 3156TIP3    H231028   6.575   2.158   1.484
 3157TIP3   OH231029   3.453   2.403   0.932
 3157TIP3    H131030   3.442   2.318   0.974
 3157TIP3    H231031   3.548   2.417   0.931
 3158TIP3   OH231032   1.893   0.303   7.690
 3158TIP3    H131033   1.895   0.227   7.747
 3158TIP3    H231034   1.983   0.313   7.658
 3159TIP3   OH231035   4.647   3.527   7.941
 3159TIP3    H131036   4.650   3.436   7.972
 3159TIP3    H231037   4.658   3.520   7.846
 3160TIP3   OH231038   1.738   4.892   8.221
 3160TIP3    H131039   1.763   4.867   8.310
 3160TIP3    H231040   1.795   4.966   8.200
 3161TIP3   OH231041   0.704   3.932   8.641
 3161TIP3    H131042   0.632   3.994   8.650
 3161TIP3    H231043   0.725   3.907   8.731
 3162TIP3   OH231044   2.107   1.022   7.356
 3162TIP3    H131045   2.099   1.006   7.262
 3162TIP3    H231046   2.024   1.063   7.380
 3163TIP3   OH231047   4.148   2.155   8.855
 3163TIP3    H131048   4.136   2.208   0.066
 3163TIP3    H231049   4.235   2.116   8.866
 3164TIP3   OH231050   5.072   3.317   7.677
 3164TIP3    H131051   4.996   3.290   7.626
 3164TIP3    H231052   5.043   3.395   7.724
 3165TIP3   OH231053   5.528   0.820   8.166
 3165TIP3    H131054   5.434   0.810   8.152
 3165TIP3    H231055   5.569   0.772   8.094
 3166TIP3   OH231056   5.250   2.361   7.511
 3166TIP3    H131057   5.301   2.305   7.452
 3166TIP3    H231058   5.168   2.312   7.523
 3167TIP3   OH231059   5.949   5.129   1.215
 3167TIP3    H131060   5.969   5.158   1.304
 3167TIP3    H231061   5.990   5.043   1.208
 3168TIP3   OH231062   2.156   4.965   1.622
 3168TIP3    H131063   2.126   4.880   1.652
 3168TIP3    H231064   2.225   4.945   1.558
 3169TIP3   OH231065   6.776   3.566   0.728
 3169TIP3    H131066   6.777   3.494   0.665
 3169TIP3    H231067   0.064   3.615   0.710
 3170TIP3   OH231068   5.538   0.429   0.552
 3170TIP3    H131069   5.525   0.488   0.478
 3170TIP3    H231070   5.535   0.485   0.629
 3171TIP3   OH231071   0.590   6.754   7.359
 3171TIP3    H131072   0.597   6.740   7.453
 3171TIP3    H231073   0.663   6.703   7.323
 3172TIP3   OH231074   3.690   1.225   7.087
 3172TIP3    H131075   3.642   1.176   7.020
 3172TIP3    H231076   3.629   1.293   7.115
 3173TIP3   OH231077   0.702   3.476   8.862
 3173TIP3    H131078   0.767   3.409   0.011
 3173TIP3    H231079   0.627   3.453   0.049
 3174TIP3   OH231080   4.146   0.794   0.849
 3174TIP3    H131081   4.052   0.815   0.842
 3174TIP3    H231082   4.177   0.793   0.759
 3175TIP3   OH231083   5.007   0.396   7.156
 3175TIP3    H131084   4.996   0.450   7.077
 3175TIP3    H231085   4.925   0.347   7.162
 3176TIP3   OH231086   4.308   0.058   8.311
 3176TIP3    H131087   4.215   0.080   8.309
 3176TIP3    H231088   4.353   0.142   8.312
 3177TIP3   OH231089   5.438   1.113   8.347
 3177TIP3    H131090   5.403   1.201   8.359
 3177TIP3    H231091   5.498   1.100   8.419
 3178TIP3   OH231092   6.040   3.197   0.053
 3178TIP3    H131093   5.963   3.249   0.077
 3178TIP3    H231094   6.073   3.164   0.137
 3179TIP3   OH231095   4.221   5.830   1.843
 3179TIP3    H131096   4.260   5.914   1.869
 3179TIP3    H231097   4.287   5.789   1.787
 3180TIP3   OH231098   1.195   0.426   7.428
 3180TIP3    H131099   1.179   0.421   7.333
 3180TIP3    H231100   1.283   0.391   7.440
 3181TIP3   OH231101   2.576   1.059   8.742
 3181TIP3    H131102   2.590   0.970   8.774
 3181TIP3    H231103   2.634   1.067   8.666
 3182TIP3   OH231104   4.776   5.312   7.159
 3182TIP3    H131105   4.818   5.226   7.149
 3182TIP3    H231106   4.728   5.324   7.076
 3183TIP3   OH231107   0.051   2.648   0.315
 3183TIP3    H131108   0.083   2.713   0.377
 3183TIP3    H231109   0.080   2.564   0.351
 3184TIP3   OH231110   1.623   5.698   0.652
 3184TIP3    H131111   1.640   5.624   0.594
 3184TIP3    H231112   1.672   5.678   0.731
 3185TIP3   OH231113   1.631   6.008   0.581
 3185TIP3    H131114   1.614   5.932   0.526
 3185TIP3    H231115   1.722   6.032   0.561
 3186TIP3   OH231116   3.836   1.750   0.247
 3186TIP3    H131117   3.821   1.844   0.247
 3186TIP3    H231118   3.876   1.731   0.332
 3187TIP3   OH231119   3.907   4.506   1.007
 3187TIP3    H131120   3.875   4.487   0.919
 3187TIP3    H231121   3.829   4.535   1.055
 3188TIP3   OH231122   6.761   2.556   7.174
 3188TIP3    H131123   6.743   2.485   7.112
 3188TIP3    H231124   6.676   2.578   7.211
 3189TIP3   OH231125   6.206   5.439   2.419
 3189TIP3    H131126   6.293   5.471   2.394
 3189TIP3    H231127   6.146   5.507   2.389
 3190TIP3   OH231128   5.146   1.398   6.927
 3190TIP3    H131129   5.163   1.472   6.986
 3190TIP3    H231130   5.202   1.328   6.960
 3191TIP3   OH231131   4.455   6.687   8.156
 3191TIP3    H131132   4.480   6.615   8.214
 3191TIP3    H231133   4.382   6.729   8.201
 3192TIP3   OH231134   1.522   1.397   2.132
 3192TIP3    H131135   1.467   1.374   2.207
 3192TIP3    H231136   1.488   1.481   2.102
 3193TIP3   OH231137   4.945   0.981   8.861
 3193TIP3    H131138   4.967   0.992   0.085
 3193TIP3    H231139   5.029   0.981   8.816
 3194TIP3   OH231140   1.675   4.104   1.525
 3194TIP3    H131141   1.640   4.147   1.447
 3194TIP3    H231142   1.761   4.071   1.498
 3195TIP3   OH231143   2.212   3.791   1.910
 3195TIP3    H131144   2.168   3.743   1.979
 3195TIP3    H231145   2.193   3.883   1.927
 3196TIP3   OH231146   0.956   5.761   1.988
 3196TIP3    H131147   1.052   5.769   1.988
 3196TIP3    H231148   0.940   5.668   1.974
 3197TIP3   OH231149   4.013   2.310   7.266
 3197TIP3    H131150   3.938   2.251   7.266
 3197TIP3    H231151   4.085   2.258   7.229
 3198TIP3   OH231152   1.994   2.547   8.612
 3198TIP3    H131153   2.010   2.529   8.705
 3198TIP3    H231154   1.906   2.513   8.596
 3199TIP3   OH231155   2.954   0.622   7.138
 3199TIP3    H131156   2.974   0.642   7.229
 3199TIP3    H231157   3.037   0.633   7.092
 3200TIP3   OH231158   2.074   4.682   0.179
 3200TIP3    H131159   2.128   4.699   0.102
 3200TIP3    H231160   2.085   4.589   0.196
 3201TIP3   OH231161   0.969   0.752   0.123
 3201TIP3    H131162   0.946   0.661   0.103
 3201TIP3    H231163   0.893   0.785   0.172
 3202TIP3   OH231164   1.165   5.818   1.298
 3202TIP3    H131165   1.074   5.790   1.313
 3202TIP3    H231166   1.193   5.768   1.221
 3203TIP3   OH231167   1.978   4.603   6.840
 3203TIP3    H131168   1.973   4.507   6.842
 3203TIP3    H231169   1.906   4.633   6.894
 3204TIP3   OH231170   1.006   3.029   0.928
 3204TIP3    H131171   1.001   3.092   0.999
 3204TIP3    H231172   1.095   3.037   0.894
 3205TIP3   OH231173   0.663   4.304   1.686
 3205TIP3    H131174   0.573   4.312   1.718
 3205TIP3    H231175   0.716   4.294   1.765
 3206TIP3   OH231176   5.067   3.579   8.619
 3206TIP3    H131177   5.044   3.551   8.708
 3206TIP3    H231178   5.089   3.497   8.574
 3207TIP3   OH231179   1.768   3.435   1.144
 3207TIP3    H131180   1.740   3.433   1.052
 3207TIP3    H231181   1.846   3.380   1.146
 3208TIP3   OH231182   4.048   0.930   2.185
 3208TIP3    H131183   4.048   0.849   2.135
 3208TIP3    H231184   3.962   0.969   2.169
 3209TIP3   OH231185   5.313   5.633   0.638
 3209TIP3    H131186   5.321   5.586   0.722
 3209TIP3    H231187   5.402   5.640   0.605
 3210TIP3   OH231188   5.563   2.686   0.920
 3210TIP3    H131189   5.468   2.677   0.924
 3210TIP3    H231190   5.578   2.758   0.860
 3211TIP3   OH231191   3.410   5.237   7.752
 3211TIP3    H131192   3.366   5.298   7.693
 3211TIP3    H231193   3.421   5.287   7.833
 3212TIP3   OH231194   3.242   0.609   1.716
 3212TIP3    H131195   3.312   0.567   1.666
 3212TIP3    H231196   3.245   0.701   1.690
 3213TIP3   OH231197   2.595   4.479   0.490
 3213TIP3    H131198   2.642   4.454   0.569
 3213TIP3    H231199   2.608   4.574   0.484
 3214TIP3   OH231200   0.656   2.526   0.278
 3214TIP3    H131201   0.568   2.543   0.244
 3214TIP3    H231202   0.660   2.576   0.360
 3215TIP3   OH231203   3.389   1.113   8.734
 3215TIP3    H131204   3.318   1.050   8.732
 3215TIP3    H231205   3.378   1.165   8.654
 3216TIP3   OH231206   3.890   5.367   6.854
 3216TIP3    H131207   3.877   5.439   6.792
 3216TIP3    H231208   3.807   5.321   6.855
 3217TIP3   OH231209   3.852   4.836   8.153
 3217TIP3    H131210   3.789   4.766   8.134
 3217TIP3    H231211   3.899   4.848   8.070
 3218TIP3   OH231212   4.688   2.435   2.287
 3218TIP3    H131213   4.636   2.507   2.253
 3218TIP3    H231214   4.779   2.460   2.267
 3219TIP3   OH231215   6.051   1.428   1.769
 3219TIP3    H131216   6.075   1.361   1.833
 3219TIP3    H231217   6.058   1.510   1.816
 3220TIP3   OH231218   3.229   4.580   2.395
 3220TIP3    H131219   3.190   4.493   2.383
 3220TIP3    H231220   3.223   4.620   2.308
 3221TIP3   OH231221   3.399   5.670   1.956
 3221TIP3    H131222   3.425   5.599   2.014
 3221TIP3    H231223   3.417   5.750   2.006
 3222TIP3   OH231224   0.207   2.862   6.241
 3222TIP3    H131225   0.254   2.931   6.194
 3222TIP3    H231226   0.186   2.900   6.326
 3223TIP3   OH231227   1.561   3.032   1.914
 3223TIP3    H131228   1.530   3.036   2.005
 3223TIP3    H231229   1.651   3.063   1.918
 3224TIP3   OH231230   1.403   0.268   0.311
 3224TIP3    H131231   1.353   0.186   0.318
 3224TIP3    H231232   1.437   0.268   0.222
 3225TIP3   OH231233   0.330   5.825   0.908
 3225TIP3    H131234   0.326   5.920   0.919
 3225TIP3    H231235   0.397   5.812   0.841
 3226TIP3   OH231236   4.574   5.194   2.090
 3226TIP3    H131237   4.604   5.143   2.165
 3226TIP3    H231238   4.580   5.285   2.119
 3227TIP3   OH231239   0.146   4.149   7.598
 3227TIP3    H131240   0.137   4.219   7.534
 3227TIP3    H231241   0.100   4.074   7.560
 3228TIP3   OH231242   3.161   3.314   1.852
 3228TIP3    H131243   3.213   3.320   1.772
 3228TIP3    H231244   3.225   3.313   1.923
 3229TIP3   OH231245   4.284   2.236   7.200
 3229TIP3    H131246   4.365   2.286   7.193
 3229TIP3    H231247   4.273   2.195   7.114
 3230TIP3   OH231248   2.338   3.285   0.178
 3230TIP3    H131249   2.375   3.354   0.122
 3230TIP3    H231250   2.414   3.234   0.206
 3231TIP3   OH231251   2.823   2.379   1.624
 3231TIP3    H131252   2.740   2.362   1.671
 3231TIP3    H231253   2.867   2.444   1.678
 3232TIP3   OH231254   4.287   2.342   0.661
 3232TIP3    H131255   4.231   2.400   0.713
 3232TIP3    H231256   4.353   2.311   0.722
 3233TIP3   OH231257   2.553   0.992   1.507
 3233TIP3    H131258   2.564   1.012   1.600
 3233TIP3    H231259   2.629   0.938   1.484
 3234TIP3   OH231260   5.071   1.905   0.294
 3234TIP3    H131261   5.029   1.895   0.209
 3234TIP3    H231262   5.153   1.951   0.276
 3235TIP3   OH231263   3.104   3.874   0.998
 3235TIP3    H131264   3.179   3.878   1.057
 3235TIP3    H231265   3.039   3.821   1.044
 3236TIP3   OH231266   1.270   6.344   1.201
 3236TIP3    H131267   1.269   6.310   1.112
 3236TIP3    H231268   1.224   6.428   1.195
 3237TIP3   OH231269   4.955   4.193   7.706
 3237TIP3    H131270   4.973   4.286   7.717
 3237TIP3    H231271   4.985   4.153   7.788
 3238TIP3   OH231272   5.167   0.465   7.379
 3238TIP3    H131273   5.111   0.435   7.451
 3238TIP3    H231274   5.108   0.473   7.304
 3239TIP3   OH231275   1.286   5.298   6.278
 3239TIP3    H131276   1.331   5.214   6.268
 3239TIP3    H231277   1.328   5.339   6.354
 3240TIP3   OH231278   2.833   4.867   1.305
 3240TIP3    H131279   2.808   4.947   1.353
 3240TIP3    H231280   2.830   4.798   1.371
 3241TIP3   OH231281   6.161   1.027   1.448
 3241TIP3    H131282   6.169   0.965   1.521
 3241TIP3    H231283   6.248   1.029   1.409
 3242TIP3   OH231284   4.252   3.085   7.198
 3242TIP3    H131285   4.310   3.009   7.207
 3242TIP3    H231286   4.166   3.047   7.180
 3243TIP3   OH231287   2.923   1.121   0.160
 3243TIP3    H131288   2.915   1.133   0.255
 3243TIP3    H231289   2.843   1.159   0.124
 3244TIP3   OH231290   4.009   5.840   8.668
 3244TIP3    H131291   4.085   5.849   8.610
 3244TIP3    H231292   4.033   5.889   8.746
 3245TIP3   OH231293   5.707   5.924   8.018
 3245TIP3    H131294   5.671   5.836   8.005
 3245TIP3    H231295   5.710   5.934   8.114
 3246TIP3   OH231296   1.363   0.382   0.863
 3246TIP3    H131297   1.313   0.462   0.846
 3246TIP3    H231298   1.415   0.403   0.940
 3247TIP3   OH231299   3.985   4.593   8.159
 3247TIP3    H131300   3.971   4.685   8.183
 3247TIP3    H231301   3.910   4.571   8.103
 3248TIP3   OH231302   6.583   0.400   7.275
 3248TIP3    H131303   6.581   0.402   7.180
 3248TIP3    H231304   6.670   0.368   7.297
 3249TIP3   OH231305   3.042   6.464   8.855
 3249TIP3    H131306   3.081   6.404   8.791
 3249TIP3    H231307   3.117   6.503   0.031
 3250TIP3   OH231308   6.188   4.904   8.471
 3250TIP3    H131309   6.257   4.870   8.414
 3250TIP3    H231310   6.213   4.875   8.559
 3251TIP3   OH231311   5.196   1.104   1.368
 3251TIP3    H131312   5.253   1.113   1.292
 3251TIP3    H231313   5.114   1.144   1.341
 3252TIP3   OH231314   4.741   3.458   0.463
 3252TIP3    H131315   4.651   3.472   0.495
 3252TIP3    H231316   4.731   3.442   0.370
 3253TIP3   OH231317   2.829   2.802   0.804
 3253TIP3    H131318   2.838   2.895   0.826
 3253TIP3    H231319   2.792   2.801   0.716
 3254TIP3   OH231320   0.864   2.138   1.557
 3254TIP3    H131321   0.806   2.137   1.633
 3254TIP3    H231322   0.889   2.046   1.545
 3255TIP3   OH231323   1.093   2.645   1.049
 3255TIP3    H131324   0.999   2.661   1.045
 3255TIP3    H231325   1.101   2.551   1.033
 3256TIP3   OH231326   6.453   2.899   8.696
 3256TIP3    H131327   6.541   2.910   8.732
 3256TIP3    H231328   6.454   2.948   8.614
 3257TIP3   OH231329   3.280   4.536   0.533
 3257TIP3    H131330   3.241   4.623   0.543
 3257TIP3    H231331   3.279   4.499   0.621
 3258TIP3   OH231332   3.223   5.435   1.790
 3258TIP3    H131333   3.189   5.452   1.877
 3258TIP3    H231334   3.250   5.521   1.757
 3259TIP3   OH231335   4.977   1.602   7.138
 3259TIP3    H131336   4.907   1.651   7.093
 3259TIP3    H231337   4.930   1.538   7.192
 3260TIP3   OH231338   0.230   3.273   6.514
 3260TIP3    H131339   0.198   3.346   6.460
 3260TIP3    H231340   0.301   3.235   6.463
 3261TIP3   OH231341   0.505   1.093   1.325
 3261TIP3    H131342   0.432   1.151   1.304
 3261TIP3    H231343   0.560   1.145   1.385
 3262TIP3   OH231344   4.578   1.784   6.834
 3262TIP3    H131345   4.583   1.856   6.771
 3262TIP3    H231346   4.484   1.770   6.846
 3263TIP3   OH231347   1.270   1.831   0.846
 3263TIP3    H131348   1.343   1.892   0.851
 3263TIP3    H231349   1.196   1.879   0.882
 3264TIP3   OH231350   1.223   0.401   8.445
 3264TIP3    H131351   1.150   0.343   8.420
 3264TIP3    H231352   1.297   0.370   8.393
 3265TIP3   OH231353   4.211   6.534   6.893
 3265TIP3    H131354   4.124   6.500   6.874
 3265TIP3    H231355   4.269   6.493   6.828
 3266TIP3   OH231356   5.484   5.207   8.386
 3266TIP3    H131357   5.497   5.235   8.477
 3266TIP3    H231358   5.515   5.280   8.333
 3267TIP3   OH231359   4.695   4.912   6.978
 3267TIP3    H131360   4.784   4.879   6.972
 3267TIP3    H231361   4.648   4.871   6.905
 3268TIP3   OH231362   2.839   4.499   0.314
 3268TIP3    H131363   2.815   4.425   0.369
 3268TIP3    H231364   2.758   4.524   0.270
 3269TIP3   OH231365   4.631   3.273   8.025
 3269TIP3    H131366   4.702   3.272   8.089
 3269TIP3    H231367   4.656   3.206   7.960
 3270TIP3   OH231368   5.732   4.321   0.048
 3270TIP3    H131369   5.667   4.300   0.115
 3270TIP3    H231370   5.782   4.240   0.037
 3271TIP3   OH231371   6.210   6.320   1.062
 3271TIP3    H131372   6.300   6.352   1.064
 3271TIP3    H231373   6.176   6.349   0.978
 3272TIP3   OH231374   4.015   6.633   0.996
 3272TIP3    H131375   4.056   6.683   0.926
 3272TIP3    H231376   4.050   6.544   0.986
 3273TIP3   OH231377   1.964   4.327   1.365
 3273TIP3    H131378   1.966   4.232   1.353
 3273TIP3    H231379   1.962   4.363   1.277
 3274TIP3   OH231380   3.543   1.780   1.970
 3274TIP3    H131381   3.531   1.723   2.046
 3274TIP3    H231382   3.467   1.839   1.971
 3275TIP3   OH231383   6.733   1.546   0.439
 3275TIP3    H131384   6.700   1.462   0.411
 3275TIP3    H231385   6.772   1.585   0.360
 3276TIP3   OH231386   1.707   6.549   8.860
 3276TIP3    H131387   1.693   6.561   0.086
 3276TIP3    H231388   1.800   6.565   8.847
 3277TIP3   OH231389   0.135   1.141   6.876
 3277TIP3    H131390   0.052   1.108   6.843
 3277TIP3    H231391   0.137   1.114   6.968
 3278TIP3   OH231392   1.932   5.977   2.551
 3278TIP3    H131393   1.982   5.896   2.563
 3278TIP3    H231394   1.870   5.978   2.624
 3279TIP3   OH231395   0.114   2.327   7.721
 3279TIP3    H131396   0.129   2.281   7.804
 3279TIP3    H231397   0.109   2.420   7.745
 3280TIP3   OH231398   3.072   3.324   0.144
 3280TIP3    H131399   3.003   3.356   0.085
 3280TIP3    H231400   3.139   3.393   0.141
 3281TIP3   OH231401   2.466   2.474   7.316
 3281TIP3    H131402   2.400   2.405   7.310
 3281TIP3    H231403   2.522   2.460   7.240
 3282TIP3   OH231404   6.476   1.132   7.645
 3282TIP3    H131405   6.388   1.170   7.646
 3282TIP3    H231406   6.465   1.042   7.674
 3283TIP3   OH231407   1.490   1.514   8.052
 3283TIP3    H131408   1.498   1.419   8.046
 3283TIP3    H231409   1.481   1.544   7.961
 3284TIP3   OH231410   0.822   1.538   8.079
 3284TIP3    H131411   0.743   1.572   8.037
 3284TIP3    H231412   0.788   1.478   8.146
 3285TIP3   OH231413   3.639   3.535   1.050
 3285TIP3    H131414   3.728   3.571   1.058
 3285TIP3    H231415   3.652   3.445   1.021
 3286TIP3   OH231416   0.173   0.122   7.809
 3286TIP3    H131417   0.185   0.189   7.741
 3286TIP3    H231418   0.171   0.039   7.761
 3287TIP3   OH231419   5.301   3.290   2.321
 3287TIP3    H131420   5.251   3.258   2.395
 3287TIP3    H231421   5.236   3.304   2.252
 3288TIP3   OH231422   5.697   2.509   8.660
 3288TIP3    H131423   5.700   2.594   8.704
 3288TIP3    H231424   5.788   2.492   8.634
 3289TIP3   OH231425   0.396   3.952   8.348
 3289TIP3    H131426   0.481   3.910   8.359
 3289TIP3    H231427   0.408   4.012   8.274
 3290TIP3   OH231428   4.950   4.982   7.871
 3290TIP3    H131429   4.889   4.908   7.865
 3290TIP3    H231430   4.916   5.035   7.942
 3291TIP3   OH231431   1.430   0.515   0.558
 3291TIP3    H131432   1.506   0.457   0.550
 3291TIP3    H231433   1.442   0.579   0.487
 3292TIP3   OH231434   1.558   6.564   8.333
 3292TIP3    H131435   1.600   6.600   8.256
 3292TIP3    H231436   1.608   6.600   8.407
 3293TIP3   OH231437   0.739   4.220   7.187
 3293TIP3    H131438   0.787   4.184   7.112
 3293TIP3    H231439   0.664   4.264   7.148
 3294TIP3   OH231440   4.222   3.255   0.962
 3294TIP3    H131441   4.311   3.231   0.936
 3294TIP3    H231442   4.186   3.175   1.000
 3295TIP3   OH231443   6.395   5.688   1.597
 3295TIP3    H131444   6.429   5.681   1.508
 3295TIP3    H231445   6.469   5.721   1.648
 3296TIP3   OH231446   4.181   2.074   1.471
 3296TIP3    H131447   4.167   2.031   1.555
 3296TIP3    H231448   4.110   2.137   1.465
 3297TIP3   OH231449   3.463   3.141   2.217
 3297TIP3    H131450   3.426   3.093   2.143
 3297TIP3    H231451   3.531   3.083   2.252
 3298TIP3   OH231452   0.285   2.575   7.992
 3298TIP3    H131453   0.256   2.628   8.067
 3298TIP3    H231454   0.213   2.581   7.930
 3299TIP3   OH231455   4.249   4.441   1.735
 3299TIP3    H131456   4.286   4.478   1.815
 3299TIP3    H231457   4.187   4.507   1.703
 3300TIP3   OH231458   1.212   0.991   7.114
 3300TIP3    H131459   1.245   0.952   7.033
 3300TIP3    H231460   1.280   1.054   7.139
 3301TIP3   OH231461   2.432   2.768   7.202
 3301TIP3    H131462   2.402   2.792   7.290
 3301TIP3    H231463   2.517   2.727   7.216
 3302TIP3   OH231464   0.611   5.904   2.160
 3302TIP3    H131465   0.569   5.947   2.234
 3302TIP3    H231466   0.704   5.928   2.167
 3303TIP3   OH231467   2.989   0.842   0.683
 3303TIP3    H131468   3.075   0.824   0.722
 3303TIP3    H231469   2.967   0.930   0.712
 3304TIP3   OH231470   0.296   0.266   7.574
 3304TIP3    H131471   0.391   0.258   7.565
 3304TIP3    H231472   0.261   0.212   7.503
 3305TIP3   OH231473   5.259   4.889   1.090
 3305TIP3    H131474   5.345   4.847   1.090
 3305TIP3    H231475   5.270   4.967   1.144
 3306TIP3   OH231476   2.872   3.402   1.891
 3306TIP3    H131477   2.955   3.359   1.874
 3306TIP3    H231478   2.843   3.369   1.976
 3307TIP3   OH231479   2.146   0.674   6.342
 3307TIP3    H131480   2.082   0.693   6.410
 3307TIP3    H231481   2.098   0.685   6.260
 3308TIP3   OH231482   3.263   6.369   0.787
 3308TIP3    H131483   3.195   6.434   0.772
 3308TIP3    H231484   3.231   6.290   0.743
 3309TIP3   OH231485   2.200   2.124   1.722
 3309TIP3    H131486   2.262   2.054   1.743
 3309TIP3    H231487   2.120   2.078   1.698
 3310TIP3   OH231488   1.653   0.134   6.914
 3310TIP3    H131489   1.562   0.113   6.897
 3310TIP3    H231490   1.692   0.146   6.828
 3311TIP3   OH231491   2.204   5.129   1.210
 3311TIP3    H131492   2.286   5.098   1.171
 3311TIP3    H231493   2.217   5.223   1.222
 3312TIP3   OH231494   3.539   4.235   0.316
 3312TIP3    H131495   3.611   4.173   0.329
 3312TIP3    H231496   3.562   4.282   0.236
 3313TIP3   OH231497   1.637   1.672   7.154
 3313TIP3    H131498   1.630   1.577   7.161
 3313TIP3    H231499   1.565   1.705   7.209
 3314TIP3   OH231500   2.460   5.032   1.139
 3314TIP3    H131501   2.463   4.956   1.198
 3314TIP3    H231502   2.426   4.998   1.057
 3315TIP3   OH231503   1.953   6.766   0.209
 3315TIP3    H131504   2.035   6.718   0.206
 3315TIP3    H231505   1.958   0.035   0.136
 3316TIP3   OH231506   2.737   0.162   1.462
 3316TIP3    H131507   2.646   0.179   1.434
 3316TIP3    H231508   2.763   0.241   1.508
 3317TIP3   OH231509   0.116   3.055   1.976
 3317TIP3    H131510   0.040   3.000   1.995
 3317TIP3    H231511   0.187   2.993   1.959
 3318TIP3   OH231512   6.003   5.881   1.023
 3318TIP3    H131513   5.915   5.901   1.053
 3318TIP3    H231514   5.991   5.840   0.937
 3319TIP3   OH231515   5.727   2.563   8.304
 3319TIP3    H131516   5.729   2.476   8.343
 3319TIP3    H231517   5.747   2.549   8.212
 3320TIP3   OH231518   4.038   0.466   7.069
 3320TIP3    H131519   4.130   0.446   7.052
 3320TIP3    H231520   3.990   0.399   7.020
 3321TIP3   OH231521   1.005   1.711   7.141
 3321TIP3    H131522   1.028   1.720   7.233
 3321TIP3    H231523   0.914   1.742   7.135
 3322TIP3   OH231524   6.578   6.598   0.828
 3322TIP3    H131525   6.556   6.634   0.742
 3322TIP3    H231526   6.604   6.674   0.880
 3323TIP3   OH231527   0.143   3.447   8.267
 3323TIP3    H131528   0.182   3.529   8.236
 3323TIP3    H231529   0.116   3.402   8.188
 3324TIP3   OH231530   2.267   0.362   0.021
 3324TIP3    H131531   2.331   0.413   0.070
 3324TIP3    H231532   2.299   0.364   8.799
 3325TIP3   OH231533   3.337   3.815   1.629
 3325TIP3    H131534   3.383   3.853   1.704
 3325TIP3    H231535   3.314   3.889   1.574
 3326TIP3   OH231536   2.369   4.329   2.315
 3326TIP3    H131537   2.306   4.284   2.260
 3326TIP3    H231538   2.450   4.280   2.304
 3327TIP3   OH231539   5.373   0.138   7.549
 3327TIP3    H131540   5.421   0.175   7.623
 3327TIP3    H231541   5.287   0.180   7.554
 3328TIP3   OH231542   1.487   6.454   7.697
 3328TIP3    H131543   1.507   6.368   7.732
 3328TIP3    H231544   1.403   6.443   7.652
 3329TIP3   OH231545   4.302   0.863   0.456
 3329TIP3    H131546   4.298   0.958   0.453
 3329TIP3    H231547   4.357   0.839   0.382
 3330TIP3   OH231548   4.852   5.514   8.459
 3330TIP3    H131549   4.890   5.599   8.438
 3330TIP3    H231550   4.920   5.469   8.509
 3331TIP3   OH231551   5.466   3.313   0.921
 3331TIP3    H131552   5.400   3.299   0.989
 3331TIP3    H231553   5.516   3.389   0.951
 3332TIP3   OH231554   2.138   1.542   0.166
 3332TIP3    H131555   2.233   1.540   0.157
 3332TIP3    H231556   2.107   1.584   0.086
 3333TIP3   OH231557   2.601   5.141   8.302
 3333TIP3    H131558   2.572   5.115   8.389
 3333TIP3    H231559   2.611   5.059   8.254
 3334TIP3   OH231560   4.382   5.290   7.779
 3334TIP3    H131561   4.298   5.245   7.784
 3334TIP3    H231562   4.415   5.271   7.691
 3335TIP3   OH231563   0.396   2.348   7.257
 3335TIP3    H131564   0.443   2.324   7.337
 3335TIP3    H231565   0.304   2.342   7.281
 3336TIP3   OH231566   4.816   1.108   2.305
 3336TIP3    H131567   4.745   1.096   2.241
 3336TIP3    H231568   4.809   1.199   2.331
 3337TIP3   OH231569   0.397   0.898   6.966
 3337TIP3    H131570   0.338   0.860   6.901
 3337TIP3    H231571   0.340   0.921   7.039
 3338TIP3   OH231572   2.141   1.619   7.013
 3338TIP3    H131573   2.175   1.532   7.034
 3338TIP3    H231574   2.149   1.625   6.918
 3339TIP3   OH231575   2.911   2.888   7.512
 3339TIP3    H131576   2.936   2.830   7.583
 3339TIP3    H231577   2.857   2.955   7.553
 3340TIP3   OH231578   5.065   4.654   1.630
 3340TIP3    H131579   5.068   4.611   1.715
 3340TIP3    H231580   5.010   4.731   1.643
 3341TIP3   OH231581   1.879   4.058   7.173
 3341TIP3    H131582   1.814   4.097   7.116
 3341TIP3    H231583   1.906   4.129   7.231
 3342TIP3   OH231584   5.524   4.351   0.263
 3342TIP3    H131585   5.571   4.284   0.312
 3342TIP3    H231586   5.435   4.317   0.253
 3343TIP3   OH231587   3.505   5.532   6.683
 3343TIP3    H131588   3.414   5.560   6.696
 3343TIP3    H231589   3.502   5.476   6.606
 3344TIP3   OH231590   5.420   3.535   6.577
 3344TIP3    H131591   5.497   3.500   6.532
 3344TIP3    H231592   5.348   3.478   6.549
 3345TIP3   OH231593   5.620   4.879   7.174
 3345TIP3    H131594   5.680   4.812   7.139
 3345TIP3    H231595   5.626   4.951   7.112
 3346TIP3   OH231596   1.431   0.975   8.142
 3346TIP3    H131597   1.354   1.027   8.118
 3346TIP3    H231598   1.443   0.990   8.236
 3347TIP3   OH231599   6.740   5.574   7.311
 3347TIP3    H131600   6.764   5.538   7.397
 3347TIP3    H231601   6.659   5.529   7.288
 3348TIP3   OH231602   3.568   6.283   1.349
 3348TIP3    H131603   3.531   6.331   1.423
 3348TIP3    H231604   3.555   6.341   1.274
 3349TIP3   OH231605   0.182   3.733   7.538
 3349TIP3    H131606   0.221   3.807   7.491
 3349TIP3    H231607   0.166   3.667   7.471
 3350TIP3   OH231608   4.942   6.581   1.396
 3350TIP3    H131609   5.038   6.589   1.389
 3350TIP3    H231610   4.925   6.488   1.383
 3351TIP3   OH231611   6.576   5.504   0.732
 3351TIP3    H131612   6.639   5.515   0.803
 3351TIP3    H231613   6.519   5.434   0.761
 3352TIP3   OH231614   5.962   4.211   7.217
 3352TIP3    H131615   5.979   4.122   7.188
 3352TIP3    H231616   6.049   4.250   7.227
 3353TIP3   OH231617   4.594   2.392   0.799
 3353TIP3    H131618   4.569   2.432   0.883
 3353TIP3    H231619   4.635   2.464   0.750
 3354TIP3   OH231620   5.514   3.706   1.371
 3354TIP3    H131621   5.598   3.750   1.380
 3354TIP3    H231622   5.478   3.738   1.288
 3355TIP3   OH231623   3.834   0.509   0.520
 3355TIP3    H131624   3.834   0.605   0.516
 3355TIP3    H231625   3.783   0.482   0.444
 3356TIP3   OH231626   3.261   5.496   2.306
 3356TIP3    H131627   3.225   5.410   2.289
 3356TIP3    H231628   3.352   5.490   2.277
 3357TIP3   OH231629   2.743   0.827   7.607
 3357TIP3    H131630   2.690   0.821   7.527
 3357TIP3    H231631   2.805   0.754   7.600
 3358TIP3   OH231632   4.855   2.027   1.832
 3358TIP3    H131633   4.877   1.998   1.921
 3358TIP3    H231634   4.770   2.069   1.842
 3359TIP3   OH231635   1.899   2.770   0.392
 3359TIP3    H131636   1.980   2.797   0.351
 3359TIP3    H231637   1.830   2.814   0.342
 3360TIP3   OH231638   3.555   3.198   0.121
 3360TIP3    H131639   3.598   3.230   0.042
 3360TIP3    H231640   3.509   3.274   0.156
 3361TIP3   OH231641   1.731   4.430   8.235
 3361TIP3    H131642   1.677   4.503   8.205
 3361TIP3    H231643   1.793   4.415   8.164
 3362TIP3   OH231644   3.942   6.514   6.771
 3362TIP3    H131645   3.908   6.518   6.681
 3362TIP3    H231646   3.869   6.546   6.824
 3363TIP3   OH231647   5.526   1.447   1.327
 3363TIP3    H131648   5.463   1.480   1.391
 3363TIP3    H231649   5.548   1.359   1.356
 3364TIP3   OH231650   1.537   5.445   1.468
 3364TIP3    H131651   1.483   5.516   1.433
 3364TIP3    H231652   1.600   5.488   1.524
 3365TIP3   OH231653   6.608   3.008   1.084
 3365TIP3    H131654   6.636   2.960   1.162
 3365TIP3    H231655   6.548   3.075   1.117
 3366TIP3   OH231656   4.015   2.204   2.588
 3366TIP3    H131657   3.989   2.274   2.648
 3366TIP3    H231658   4.011   2.244   2.501
 3367TIP3   OH231659   0.803   3.589   7.391
 3367TIP3    H131660   0.751   3.525   7.344
 3367TIP3    H231661   0.747   3.667   7.396
 3368TIP3   OH231662   2.284   2.401   0.441
 3368TIP3    H131663   2.275   2.496   0.452
 3368TIP3    H231664   2.228   2.364   0.509
 3369TIP3   OH231665   6.155   5.633   0.678
 3369TIP3    H131666   6.139   5.633   0.772
 3369TIP3    H231667   6.068   5.627   0.638
 3370TIP3   OH231668   6.323   5.072   8.095
 3370TIP3    H131669   6.354   5.015   8.024
 3370TIP3    H231670   6.275   5.142   8.051
 3371TIP3   OH231671   3.810   4.309   2.408
 3371TIP3    H131672   3.877   4.350   2.353
 3371TIP3    H231673   3.790   4.374   2.474
 3372TIP3   OH231674   0.276   6.515   1.200
 3372TIP3    H131675   0.259   6.548   1.111
 3372TIP3    H231676   0.305   6.593   1.249
 3373TIP3   OH231677   5.536   2.067   7.512
 3373TIP3    H131678   5.447   2.082   7.544
 3373TIP3    H231679   5.584   2.032   7.587
 3374TIP3   OH231680   5.691   6.307   7.897
 3374TIP3    H131681   5.618   6.358   7.931
 3374TIP3    H231682   5.766   6.367   7.900
 3375TIP3   OH231683   0.870   2.903   1.353
 3375TIP3    H131684   0.813   2.979   1.339
 3375TIP3    H231685   0.894   2.909   1.446
 3376TIP3   OH231686   0.087   2.104   6.748
 3376TIP3    H131687   0.015   2.041   6.739
 3376TIP3    H231688   0.089   2.150   6.664
 3377TIP3   OH231689   5.814   1.949   8.109
 3377TIP3    H131690   5.841   2.023   8.055
 3377TIP3    H231691   5.719   1.952   8.109
 3378TIP3   OH231692   3.803   0.104   0.917
 3378TIP3    H131693   3.824   0.097   0.824
 3378TIP3    H231694   3.722   0.055   0.928
 3379TIP3   OH231695   1.432   3.459   7.023
 3379TIP3    H131696   1.399   3.413   7.101
 3379TIP3    H231697   1.513   3.413   7.001
 3380TIP3   OH231698   5.907   4.491   0.717
 3380TIP3    H131699   5.953   4.536   0.788
 3380TIP3    H231700   5.815   4.497   0.740
 3381TIP3   OH231701   4.976   1.469   0.332
 3381TIP3    H131702   4.902   1.526   0.313
 3381TIP3    H231703   5.039   1.526   0.377
 3382TIP3   OH231704   4.888   3.716   2.285
 3382TIP3    H131705   4.874   3.656   2.358
 3382TIP3    H231706   4.910   3.800   2.326
 3383TIP3   OH231707   0.636   0.683   0.704
 3383TIP3    H131708   0.543   0.693   0.685
 3383TIP3    H231709   0.649   0.732   0.786
 3384TIP3   OH231710   0.691   3.308   1.006
 3384TIP3    H131711   0.786   3.300   1.004
 3384TIP3    H231712   0.672   3.375   0.940
 3385TIP3   OH231713   3.126   6.644   0.597
 3385TIP3    H131714   3.055   6.665   0.536
 3385TIP3    H231715   3.081   6.616   0.677
 3386TIP3   OH231716   3.348   4.512   6.321
 3386TIP3    H131717   3.420   4.455   6.349
 3386TIP3    H231718   3.323   4.559   6.401
 3387TIP3   OH231719   4.752   3.229   1.064
 3387TIP3    H131720   4.814   3.210   0.993
 3387TIP3    H231721   4.802   3.280   1.127
 3388TIP3   OH231722   5.489   0.778   8.724
 3388TIP3    H131723   5.453   0.797   8.638
 3388TIP3    H231724   5.413   0.767   8.781
 3389TIP3   OH231725   3.871   0.074   0.191
 3389TIP3    H131726   3.807   0.036   0.130
 3389TIP3    H231727   3.929   0.001   0.212
 3390TIP3   OH231728   1.056   3.106   1.551
 3390TIP3    H131729   1.070   3.017   1.583
 3390TIP3    H231730   1.081   3.162   1.625
 3391TIP3   OH231731   1.395   3.976   0.775
 3391TIP3    H131732   1.368   3.886   0.793
 3391TIP3    H231733   1.376   4.024   0.855
 3392TIP3   OH231734   4.258   4.993   8.094
 3392TIP3    H131735   4.322   5.054   8.131
 3392TIP3    H231736   4.207   4.963   8.169
 3393TIP3   OH231737   4.465   2.515   1.758
 3393TIP3    H131738   4.521   2.546   1.830
 3393TIP3    H231739   4.504   2.432   1.732
 3394TIP3   OH231740   1.587   2.167   0.014
 3394TIP3    H131741   1.572   2.081   8.843
 3394TIP3    H231742   1.499   2.200   0.033
 3395TIP3   OH231743   3.405   3.884   7.190
 3395TIP3    H131744   3.413   3.977   7.208
 3395TIP3    H231745   3.424   3.875   7.096
 3396TIP3   OH231746   2.026   5.260   0.474
 3396TIP3    H131747   1.960   5.281   0.540
 3396TIP3    H231748   2.106   5.302   0.505
 3397TIP3   OH231749   1.166   4.340   6.531
 3397TIP3    H131750   1.228   4.313   6.598
 3397TIP3    H231751   1.140   4.429   6.557
 3398TIP3   OH231752   2.937   5.815   1.491
 3398TIP3    H131753   2.889   5.897   1.498
 3398TIP3    H231754   3.011   5.825   1.552
 3399TIP3   OH231755   6.687   4.451   0.245
 3399TIP3    H131756   6.730   4.457   0.331
 3399TIP3    H231757   6.698   4.538   0.207
 3400TIP3   OH231758   4.956   6.759   7.206
 3400TIP3    H131759   5.036   0.017   7.196
 3400TIP3    H231760   4.894   0.028   7.245
 3401TIP3   OH231761   0.211   6.589   1.976
 3401TIP3    H131762   0.247   6.644   1.907
 3401TIP3    H231763   0.264   6.609   2.053
 3402TIP3   OH231764   2.064   3.230   0.081
 3402TIP3    H131765   2.057   3.169   0.155
 3402TIP3    H231766   2.143   3.280   0.099
 3403TIP3   OH231767   4.645   0.784   8.502
 3403TIP3    H131768   4.676   0.871   8.478
 3403TIP3    H231769   4.679   0.726   8.433
 3404TIP3   OH231770   2.291   0.793   0.366
 3404TIP3    H131771   2.246   0.745   0.296
 3404TIP3    H231772   2.220   0.833   0.417
 3405TIP3   OH231773   4.114   0.459   0.256
 3405TIP3    H131774   4.076   0.459   0.343
 3405TIP3    H231775   4.207   0.480   0.270
 3406TIP3   OH231776   2.393   2.650   7.532
 3406TIP3    H131777   2.454   2.607   7.592
 3406TIP3    H231778   2.413   2.611   7.447
 3407TIP3   OH231779   3.395   3.303   1.281
 3407TIP3    H131780   3.337   3.346   1.343
 3407TIP3    H231781   3.478   3.350   1.289
 3408TIP3   OH231782   1.882   5.018   0.398
 3408TIP3    H131783   1.821   4.994   0.467
 3408TIP3    H231784   1.932   5.091   0.434
 3409TIP3   OH231785   2.487   6.711   1.541
 3409TIP3    H131786   2.510   6.781   1.602
 3409TIP3    H231787   2.495   6.631   1.593
 3410TIP3   OH231788   2.701   2.931   1.607
 3410TIP3    H131789   2.758   2.997   1.647
 3410TIP3    H231790   2.751   2.900   1.531
 3411TIP3   OH231791   0.602   1.849   1.390
 3411TIP3    H131792   0.595   1.923   1.330
 3411TIP3    H231793   0.581   1.886   1.476
 3412TIP3   OH231794   5.872   6.651   8.628
 3412TIP3    H131795   5.777   6.654   8.617
 3412TIP3    H231796   5.898   6.743   8.632
 3413TIP3   OH231797   1.748   0.371   0.071
 3413TIP3    H131798   1.820   0.394   0.130
 3413TIP3    H231799   1.757   0.431   8.866
 3414TIP3   OH231800   2.115   5.226   1.795
 3414TIP3    H131801   2.024   5.255   1.794
 3414TIP3    H231802   2.122   5.166   1.721
 3415TIP3   OH231803   3.363   1.095   0.139
 3415TIP3    H131804   3.355   1.091   0.043
 3415TIP3    H231805   3.318   1.015   0.169
 3416TIP3   OH231806   3.070   6.298   7.873
 3416TIP3    H131807   2.981   6.324   7.899
 3416TIP3    H231808   3.086   6.346   7.791
 3417TIP3   OH231809   6.375   0.459   8.100
 3417TIP3    H131810   6.329   0.539   8.075
 3417TIP3    H231811   6.449   0.490   8.153
 3418TIP3   OH231812   6.060   6.443   0.493
 3418TIP3    H131813   6.095   6.519   0.540
 3418TIP3    H231814   6.103   6.446   0.408
 3419TIP3   OH231815   2.398   0.638   6.419
 3419TIP3    H131816   2.314   0.676   6.393
 3419TIP3    H231817   2.409   0.563   6.361
 3420TIP3   OH231818   5.271   0.689   0.009
 3420TIP3    H131819   5.254   0.775   0.047
 3420TIP3    H231820   5.205   0.680   8.808
 3421TIP3   OH231821   5.781   3.449   7.597
 3421TIP3    H131822   5.785   3.545   7.589
 3421TIP3    H231823   5.855   3.418   7.545
 3422TIP3   OH231824   4.066   5.180   2.140
 3422TIP3    H131825   4.159   5.167   2.157
 3422TIP3    H231826   4.043   5.112   2.077
 3423TIP3   OH231827   5.701   3.309   7.078
 3423TIP3    H131828   5.672   3.369   7.009
 3423TIP3    H231829   5.687   3.357   7.159
 3424TIP3   OH231830   5.958   5.474   1.400
 3424TIP3    H131831   5.905   5.489   1.322
 3424TIP3    H231832   5.997   5.559   1.419
 3425TIP3   OH231833   3.498   0.216   6.493
 3425TIP3    H131834   3.591   0.199   6.480
 3425TIP3    H231835   3.456   0.131   6.484
 3426TIP3   OH231836   1.464   5.257   1.844
 3426TIP3    H131837   1.455   5.187   1.908
 3426TIP3    H231838   1.529   5.317   1.881
 3427TIP3   OH231839   2.368   0.778   1.999
 3427TIP3    H131840   2.328   0.813   1.919
 3427TIP3    H231841   2.303   0.718   2.034
 3428TIP3   OH231842   4.174   0.029   1.684
 3428TIP3    H131843   4.259   0.068   1.703
 3428TIP3    H231844   4.168   0.030   1.588
 3429TIP3   OH231845   2.801   3.809   7.967
 3429TIP3    H131846   2.802   3.807   8.063
 3429TIP3    H231847   2.825   3.720   7.941
 3430TIP3   OH231848   3.904   0.403   7.558
 3430TIP3    H131849   3.972   0.437   7.501
 3430TIP3    H231850   3.951   0.350   7.623
 3431TIP3   OH231851   2.671   1.445   0.317
 3431TIP3    H131852   2.605   1.380   0.342
 3431TIP3    H231853   2.668   1.447   0.222
 3432TIP3   OH231854   6.259   3.088   8.084
 3432TIP3    H131855   6.210   3.150   8.138
 3432TIP3    H231856   6.306   3.144   8.021
 3433TIP3   OH231857   0.459   1.540   8.535
 3433TIP3    H131858   0.371   1.558   8.501
 3433TIP3    H231859   0.517   1.595   8.481
 3434TIP3   OH231860   5.769   4.039   7.435
 3434TIP3    H131861   5.850   4.007   7.474
 3434TIP3    H231862   5.796   4.107   7.374
 3435TIP3   OH231863   0.942   5.099   6.947
 3435TIP3    H131864   0.955   5.181   6.996
 3435TIP3    H231865   1.004   5.104   6.875
 3436TIP3   OH231866   0.095   5.024   2.445
 3436TIP3    H131867   0.075   5.099   2.501
 3436TIP3    H231868   0.008   4.991   2.420
 3437TIP3   OH231869   1.455   0.342   7.482
 3437TIP3    H131870   1.487   0.364   7.394
 3437TIP3    H231871   1.535   0.331   7.534
 3438TIP3   OH231872   4.440   1.337   0.918
 3438TIP3    H131873   4.375   1.363   0.983
 3438TIP3    H231874   4.441   1.408   0.854
 3439TIP3   OH231875   1.105   2.393   0.860
 3439TIP3    H131876   1.148   2.348   0.787
 3439TIP3    H231877   1.112   2.332   0.933
 3440TIP3   OH231878   0.593   6.595   0.108
 3440TIP3    H131879   0.605   6.506   0.140
 3440TIP3    H231880   0.657   6.604   0.037
 3441TIP3   OH231881   0.560   4.398   8.349
 3441TIP3    H131882   0.615   4.416   8.425
 3441TIP3    H231883   0.611   4.335   8.297
 3442TIP3   OH231884   0.052   1.511   1.429
 3442TIP3    H131885   6.771   1.544   1.377
 3442TIP3    H231886   0.118   1.488   1.363
 3443TIP3   OH231887   4.254   6.068   8.166
 3443TIP3    H131888   4.178   6.121   8.191
 3443TIP3    H231889   4.329   6.127   8.174
 3444TIP3   OH231890   0.221   3.700   1.077
 3444TIP3    H131891   0.209   3.778   1.131
 3444TIP3    H231892   0.316   3.687   1.075
 3445TIP3   OH231893   3.425   5.086   8.064
 3445TIP3    H131894   3.460   5.004   8.098
 3445TIP3    H231895   3.330   5.077   8.073
 3446TIP3   OH231896   1.713   4.540   8.477
 3446TIP3    H131897   1.729   4.507   8.389
 3446TIP3    H231898   1.709   4.462   8.532
 3447TIP3   OH231899   0.584   0.302   8.166
 3447TIP3    H131900   0.539   0.236   8.113
 3447TIP3    H231901   0.600   0.374   8.105
 3448TIP3   OH231902   3.476   5.998   0.470
 3448TIP3    H131903   3.427   6.052   0.408
 3448TIP3    H231904   3.511   5.927   0.417
 3449TIP3   OH231905   0.498   1.353   1.056
 3449TIP3    H131906   0.418   1.348   1.108
 3449TIP3    H231907   0.546   1.427   1.092
 3450TIP3   OH231908   0.427   5.729   8.336
 3450TIP3    H131909   0.481   5.678   8.395
 3450TIP3    H231910   0.470   5.721   8.251
 3451TIP3   OH231911   0.121   1.302   8.201
 3451TIP3    H131912   0.201   1.323   8.248
 3451TIP3    H231913   0.140   1.325   8.110
 3452TIP3   OH231914   6.236   5.174   0.122
 3452TIP3    H131915   6.292   5.196   0.196
 3452TIP3    H231916   6.226   5.257   0.075
 3453TIP3   OH231917   1.591   6.046   7.420
 3453TIP3    H131918   1.612   6.006   7.335
 3453TIP3    H231919   1.499   6.026   7.434
 3454TIP3   OH231920   2.608   1.907   0.048
 3454TIP3    H131921   2.687   1.937   0.095
 3454TIP3    H231922   2.586   1.824   0.090
 3455TIP3   OH231923   2.023   6.366   7.642
 3455TIP3    H131924   2.002   6.276   7.667
 3455TIP3    H231925   2.064   6.404   7.720
 3456TIP3   OH231926   6.529   6.643   0.005
 3456TIP3    H131927   6.521   6.612   8.783
 3456TIP3    H231928   6.479   6.581   0.057
 3457TIP3   OH231929   3.420   5.450   1.061
 3457TIP3    H131930   3.352   5.418   1.119
 3457TIP3    H231931   3.500   5.406   1.091
 3458TIP3   OH231932   3.959   0.520   8.299
 3458TIP3    H131933   4.038   0.470   8.277
 3458TIP3    H231934   3.907   0.520   8.219
 3459TIP3   OH231935   1.087   1.787   6.511
 3459TIP3    H131936   1.177   1.755   6.514
 3459TIP3    H231937   1.056   1.765   6.423
 3460TIP3   OH231938   0.172   5.182   1.007
 3460TIP3    H131939   0.256   5.158   1.047
 3460TIP3    H231940   0.107   5.138   1.061
 3461TIP3   OH231941   6.194   2.205   7.156
 3461TIP3    H131942   6.111   2.229   7.115
 3461TIP3    H231943   6.246   2.285   7.154
 3462TIP3   OH231944   4.455   0.296   8.387
 3462TIP3    H131945   4.438   0.368   8.449
 3462TIP3    H231946   4.488   0.339   8.309
 3463TIP3   OH231947   6.598   5.164   8.807
 3463TIP3    H131948   6.572   5.254   8.787
 3463TIP3    H231949   6.669   5.145   8.746
 3464TIP3   OH231950   0.773   1.911   7.915
 3464TIP3    H131951   0.777   1.996   7.873
 3464TIP3    H231952   0.772   1.931   8.009
 3465TIP3   OH231953   0.197   1.772   0.007
 3465TIP3    H131954   0.201   1.804   8.785
 3465TIP3    H231955   0.268   1.708   0.013
 3466TIP3   OH231956   4.304   4.260   7.661
 3466TIP3    H131957   4.383   4.308   7.637
 3466TIP3    H231958   4.254   4.253   7.580
 3467TIP3   OH231959   6.717   0.504   1.349
 3467TIP3    H131960   6.630   0.488   1.312
 3467TIP3    H231961   6.743   0.589   1.313
 3468TIP3   OH231962   6.207   1.792   6.866
 3468TIP3    H131963   6.229   1.698   6.867
 3468TIP3    H231964   6.205   1.817   6.958
 3469TIP3   OH231965   2.527   5.957   8.391
 3469TIP3    H131966   2.446   5.985   8.433
 3469TIP3    H231967   2.499   5.891   8.327
 3470TIP3   OH231968   5.214   1.288   0.393
 3470TIP3    H131969   5.128   1.292   0.351
 3470TIP3    H231970   5.199   1.314   0.483
 3471TIP3   OH231971   3.137   6.555   6.627
 3471TIP3    H131972   3.084   6.475   6.621
 3471TIP3    H231973   3.199   6.537   6.697
 3472TIP3   OH231974   5.473   5.243   7.057
 3472TIP3    H131975   5.539   5.189   7.014
 3472TIP3    H231976   5.477   5.328   7.012
 3473TIP3   OH231977   0.519   0.203   8.588
 3473TIP3    H131978   0.570   0.202   8.670
 3473TIP3    H231979   0.517   0.111   8.560
 3474TIP3   OH231980   6.604   4.249   0.556
 3474TIP3    H131981   6.592   4.207   0.641
 3474TIP3    H231982   6.530   4.309   0.548
 3475TIP3   OH231983   6.590   2.796   0.277
 3475TIP3    H131984   6.649   2.868   0.257
 3475TIP3    H231985   6.649   2.723   0.298
 3476TIP3   OH231986   1.996   4.377   8.525
 3476TIP3    H131987   1.942   4.302   8.551
 3476TIP3    H231988   1.960   4.451   8.573
 3477TIP3   OH231989   2.434   4.908   7.346
 3477TIP3    H131990   2.351   4.870   7.373
 3477TIP3    H231991   2.418   5.003   7.344
 3478TIP3   OH231992   0.598   1.997   1.093
 3478TIP3    H131993   0.514   1.963   1.061
 3478TIP3    H231994   0.629   2.053   1.022
 3479TIP3   OH231995   4.582   2.823   1.666
 3479TIP3    H131996   4.589   2.778   1.750
 3479TIP3    H231997   4.530   2.764   1.612
 3480TIP3   OH231998   3.970   4.469   6.897
 3480TIP3    H131999   4.045   4.520   6.867
 3480TIP3    H232000   4.005   4.381   6.911
 3481TIP3   OH232001   0.643   4.589   7.482
 3481TIP3    H132002   0.667   4.665   7.535
 3481TIP3    H232003   0.726   4.558   7.445
 3482TIP3   OH232004   3.433   1.053   8.067
 3482TIP3    H132005   3.395   1.141   8.063
 3482TIP3    H232006   3.441   1.026   7.976
 3483TIP3   OH232007   0.834   5.655   7.690
 3483TIP3    H132008   0.851   5.745   7.662
 3483TIP3    H232009   0.827   5.605   7.608
 3484TIP3   OH232010   2.063   0.955   1.650
 3484TIP3    H132011   2.031   0.866   1.662
 3484TIP3    H232012   1.989   1.002   1.612
 3485TIP3   OH232013   0.467   6.479   6.675
 3485TIP3    H132014   0.450   6.390   6.647
 3485TIP3    H232015   0.514   6.470   6.758
 3486TIP3   OH232016   3.323   3.873   8.333
 3486TIP3    H132017   3.410   3.882   8.294
 3486TIP3    H232018   3.288   3.793   8.295
 3487TIP3   OH232019   0.976   2.759   1.925
 3487TIP3    H132020   0.994   2.839   1.973
 3487TIP3    H232021   0.889   2.731   1.955
 3488TIP3   OH232022   0.025   1.155   6.214
 3488TIP3    H132023   0.072   1.239   6.211
 3488TIP3    H232024   6.728   1.178   6.237
 3489TIP3   OH232025   5.766   0.690   1.028
 3489TIP3    H132026   5.824   0.701   1.103
 3489TIP3    H232027   5.812   0.628   0.971
 3490TIP3   OH232028   2.814   4.520   6.951
 3490TIP3    H132029   2.891   4.574   6.935
 3490TIP3    H232030   2.743   4.583   6.966
 3491TIP3   OH232031   2.102   2.018   0.710
 3491TIP3    H132032   2.094   1.961   0.786
 3491TIP3    H232033   2.169   1.976   0.656
 3492TIP3   OH232034   6.374   0.305   8.805
 3492TIP3    H132035   6.439   0.267   8.745
 3492TIP3    H232036   6.294   0.310   8.753
 3493TIP3   OH232037   5.912   4.386   6.989
 3493TIP3    H132038   5.933   4.354   7.077
 3493TIP3    H232039   5.983   4.353   6.934
 3494TIP3   OH232040   4.652   5.354   6.729
 3494TIP3    H132041   4.694   5.422   6.676
 3494TIP3    H232042   4.724   5.302   6.763
 3495TIP3   OH232043   0.222   5.442   8.394
 3495TIP3    H132044   0.129   5.463   8.389
 3495TIP3    H232045   0.226   5.360   8.443
 3496TIP3   OH232046   5.365   4.915   0.263
 3496TIP3    H132047   5.396   5.001   0.294
 3496TIP3    H232048   5.405   4.852   0.323
 3497TIP3   OH232049   3.918   5.998   2.076
 3497TIP3    H132050   3.904   5.910   2.111
 3497TIP3    H232051   3.956   5.983   1.989
 3498TIP3   OH232052   0.907   0.788   1.371
 3498TIP3    H132053   0.934   0.875   1.401
 3498TIP3    H232054   0.854   0.753   1.443
 3499TIP3   OH232055   0.969   5.588   1.051
 3499TIP3    H132056   0.973   5.502   1.010
 3499TIP3    H232057   0.876   5.610   1.054
 3500TIP3   OH232058   4.959   4.286   8.079
 3500TIP3    H132059   4.877   4.336   8.072
 3500TIP3    H232060   4.944   4.208   8.025
 3501TIP3   OH232061   1.747   6.296   2.243
 3501TIP3    H132062   1.827   6.347   2.231
 3501TIP3    H232063   1.778   6.208   2.265
 3502TIP3   OH232064   0.400   2.495   0.161
 3502TIP3    H132065   0.353   2.463   0.084
 3502TIP3    H232066   0.376   2.434   0.231
 3503TIP3   OH232067   3.865   0.656   8.520
 3503TIP3    H132068   3.891   0.622   8.435
 3503TIP3    H232069   3.947   0.657   8.571
 3504TIP3   OH232070   5.478   1.655   8.059
 3504TIP3    H132071   5.495   1.744   8.028
 3504TIP3    H232072   5.541   1.642   8.130
 3505TIP3   OH232073   2.245   5.605   7.182
 3505TIP3    H132074   2.237   5.691   7.140
 3505TIP3    H232075   2.332   5.574   7.156
 3506TIP3   OH232076   3.527   4.044   6.720
 3506TIP3    H132077   3.506   3.958   6.758
 3506TIP3    H232078   3.594   4.080   6.778
 3507TIP3   OH232079   4.766   5.159   8.537
 3507TIP3    H132080   4.705   5.088   8.520
 3507TIP3    H232081   4.735   5.230   8.481
 3508TIP3   OH232082   1.280   6.781   0.417
 3508TIP3    H132083   1.206   6.792   0.476
 3508TIP3    H232084   1.350   0.042   0.456
 3509TIP3   OH232085   1.237   0.102   1.569
 3509TIP3    H132086   1.296   0.082   1.642
 3509TIP3    H232087   1.277   0.058   1.493
 3510TIP3   OH232088   1.987   6.077   7.101
 3510TIP3    H132089   2.076   6.058   7.073
 3510TIP3    H232090   1.989   6.170   7.124
 3511TIP3   OH232091   3.447   3.453   0.134
 3511TIP3    H132092   3.524   3.496   0.098
 3511TIP3    H232093   3.376   3.517   0.124
 3512TIP3   OH232094   2.497   6.301   0.698
 3512TIP3    H132095   2.416   6.249   0.697
 3512TIP3    H232096   2.556   6.253   0.756
 3513TIP3   OH232097   0.132   5.083   2.174
 3513TIP3    H132098   0.221   5.112   2.155
 3513TIP3    H232099   0.134   5.058   2.266
 3514TIP3   OH232100   4.932   5.951   7.040
 3514TIP3    H132101   4.950   6.001   6.961
 3514TIP3    H232102   4.905   6.016   7.104
 3515TIP3   OH232103   6.189   4.310   1.463
 3515TIP3    H132104   6.247   4.381   1.491
 3515TIP3    H232105   6.104   4.332   1.503
 3516TIP3   OH232106   3.751   6.661   2.759
 3516TIP3    H132107   3.724   6.575   2.726
 3516TIP3    H232108   3.729   6.722   2.689
 3517TIP3   OH232109   3.699   4.887   0.774
 3517TIP3    H132110   3.671   4.961   0.720
 3517TIP3    H232111   3.771   4.922   0.827
 3518TIP3   OH232112   0.039   0.293   0.863
 3518TIP3    H132113   6.746   0.337   0.862
 3518TIP3    H232114   0.102   0.365   0.869
 3519TIP3   OH232115   0.134   1.762   1.618
 3519TIP3    H132116   0.125   1.823   1.691
 3519TIP3    H232117   0.172   1.814   1.547
 3520TIP3   OH232118   1.635   2.694   0.232
 3520TIP3    H132119   1.584   2.768   0.200
 3520TIP3    H232120   1.604   2.619   0.180
 3521TIP3   OH232121   1.865   2.167   8.853
 3521TIP3    H132122   1.924   2.241   8.843
 3521TIP3    H232123   1.784   2.205   0.019
 3522TIP3   OH232124   0.710   3.412   1.541
 3522TIP3    H132125   0.680   3.487   1.489
 3522TIP3    H232126   0.741   3.451   1.623
 3523TIP3   OH232127   5.957   2.506   7.603
 3523TIP3    H132128   5.940   2.600   7.596
 3523TIP3    H232129   5.991   2.482   7.517
 3524TIP3   OH232130   1.142   4.401   0.346
 3524TIP3    H132131   1.103   4.469   0.290
 3524TIP3    H232132   1.223   4.441   0.379
 3525TIP3   OH232133   4.520   2.940   2.053
 3525TIP3    H132134   4.597   2.997   2.048
 3525TIP3    H232135   4.451   2.996   2.090
 3526TIP3   OH232136   2.831   4.035   1.992
 3526TIP3    H132137   2.816   4.015   2.085
 3526TIP3    H232138   2.922   4.010   1.977
 3527TIP3   OH232139   0.110   1.616   0.212
 3527TIP3    H132140   0.129   1.693   0.159
 3527TIP3    H232141   0.029   1.581   0.175
 3528TIP3   OH232142   6.455   3.683   1.234
 3528TIP3    H132143   6.439   3.725   1.150
 3528TIP3    H232144   6.378   3.628   1.249
 3529TIP3   OH232145   5.977   5.104   7.063
 3529TIP3    H132146   5.980   5.041   7.135
 3529TIP3    H232147   6.011   5.056   6.988
 3530TIP3   OH232148   5.808   3.809   1.055
 3530TIP3    H132149   5.771   3.808   0.967
 3530TIP3    H232150   5.807   3.901   1.081
 3531TIP3   OH232151   4.959   4.415   7.474
 3531TIP3    H132152   4.917   4.427   7.560
 3531TIP3    H232153   4.895   4.366   7.423
 3532TIP3   OH232154   4.340   3.336   1.206
 3532TIP3    H132155   4.330   3.306   1.296
 3532TIP3    H232156   4.252   3.336   1.171
 3533TIP3   OH232157   1.045   5.131   6.284
 3533TIP3    H132158   1.064   5.097   6.371
 3533TIP3    H232159   1.128   5.168   6.253
 3534TIP3   OH232160   5.725   2.108   8.743
 3534TIP3    H132161   5.646   2.144   8.783
 3534TIP3    H232162   5.778   2.078   8.816
 3535TIP3   OH232163   5.494   5.354   8.624
 3535TIP3    H132164   5.458   5.411   8.556
 3535TIP3    H232165   5.518   5.413   8.695
 3536TIP3   OH232166   4.995   3.800   6.897
 3536TIP3    H132167   5.016   3.759   6.814
 3536TIP3    H232168   4.989   3.728   6.959
 3537TIP3   OH232169   2.224   4.113   0.239
 3537TIP3    H132170   2.265   4.161   0.311
 3537TIP3    H232171   2.147   4.072   0.280
 3538TIP3   OH232172   4.943   2.810   7.689
 3538TIP3    H132173   4.849   2.792   7.695
 3538TIP3    H232174   4.984   2.723   7.679
 3539TIP3   OH232175   4.856   6.193   0.071
 3539TIP3    H132176   4.878   6.256   0.003
 3539TIP3    H232177   4.940   6.151   0.092
 3540TIP3   OH232178   1.128   5.854   8.001
 3540TIP3    H132179   1.211   5.806   7.993
 3540TIP3    H232180   1.153   5.944   8.021
 3541TIP3   OH232181   5.528   4.430   8.168
 3541TIP3    H132182   5.615   4.439   8.129
 3541TIP3    H232183   5.518   4.506   8.224
 3542TIP3   OH232184   4.295   0.814   8.455
 3542TIP3    H132185   4.250   0.835   8.373
 3542TIP3    H232186   4.361   0.882   8.464
 3543TIP3   OH232187   1.056   0.641   7.528
 3543TIP3    H132188   1.088   0.557   7.494
 3543TIP3    H232189   1.135   0.694   7.538
 3544TIP3   OH232190   2.924   2.553   1.836
 3544TIP3    H132191   2.987   2.623   1.854
 3544TIP3    H232192   2.940   2.489   1.904
 3545TIP3   OH232193   1.145   0.157   7.378
 3545TIP3    H132194   1.174   0.070   7.351
 3545TIP3    H232195   1.195   0.175   7.458
 3546TIP3   OH232196   3.560   4.080   1.052
 3546TIP3    H132197   3.530   4.134   0.978
 3546TIP3    H232198   3.654   4.098   1.057
 3547TIP3   OH232199   1.351   1.114   1.431
 3547TIP3    H132200   1.358   1.040   1.370
 3547TIP3    H232201   1.306   1.182   1.380
 3548TIP3   OH232202   3.592   3.322   1.822
 3548TIP3    H132203   3.590   3.323   1.918
 3548TIP3    H232204   3.619   3.233   1.799
 3549TIP3   OH232205   5.409   4.087   6.793
 3549TIP3    H132206   5.337   4.041   6.837
 3549TIP3    H232207   5.402   4.060   6.702
 3550TIP3   OH232208   3.065   3.150   8.276
 3550TIP3    H132209   3.021   3.088   8.217
 3550TIP3    H232210   3.151   3.112   8.291
 3551TIP3   OH232211   0.600   6.620   2.226
 3551TIP3    H132212   0.640   6.548   2.178
 3551TIP3    H232213   0.593   6.691   2.161
 3552TIP3   OH232214   3.807   5.552   0.556
 3552TIP3    H132215   3.786   5.604   0.634
 3552TIP3    H232216   3.902   5.539   0.560
 3553TIP3   OH232217   0.262   4.291   7.803
 3553TIP3    H132218   0.341   4.323   7.761
 3553TIP3    H232219   0.210   4.255   7.731
 3554TIP3   OH232220   1.643   3.501   2.184
 3554TIP3    H132221   1.628   3.476   2.275
 3554TIP3    H232222   1.623   3.423   2.133
 3555TIP3   OH232223   4.283   5.352   1.619
 3555TIP3    H132224   4.273   5.276   1.675
 3555TIP3    H232225   4.313   5.421   1.677
 3556TIP3   OH232226   5.859   5.304   8.399
 3556TIP3    H132227   5.877   5.377   8.339
 3556TIP3    H232228   5.919   5.318   8.472
 3557TIP3   OH232229   5.126   0.153   8.618
 3557TIP3    H132230   5.163   0.136   8.532
 3557TIP3    H232231   5.138   0.247   8.632
 3558TIP3   OH232232   4.255   5.364   6.799
 3558TIP3    H132233   4.178   5.409   6.835
 3558TIP3    H232234   4.220   5.314   6.725
 3559TIP3   OH232235   6.154   3.443   7.688
 3559TIP3    H132236   6.127   3.353   7.700
 3559TIP3    H232237   6.191   3.446   7.599
 3560TIP3   OH232238   3.181   4.773   1.877
 3560TIP3    H132239   3.106   4.799   1.824
 3560TIP3    H232240   3.257   4.781   1.818
 3561TIP3   OH232241   4.677   6.735   0.012
 3561TIP3    H132242   4.716   0.029   8.867
 3561TIP3    H232243   4.583   6.749   8.867
 3562TIP3   OH232244   0.230   3.543   0.262
 3562TIP3    H132245   0.192   3.457   0.282
 3562TIP3    H232246   0.165   3.586   0.207
 3563TIP3   OH232247   4.232   5.276   0.269
 3563TIP3    H132248   4.189   5.206   0.319
 3563TIP3    H232249   4.277   5.230   0.198
 3564TIP3   OH232250   3.758   0.772   7.261
 3564TIP3    H132251   3.819   0.817   7.320
 3564TIP3    H232252   3.781   0.805   7.174
 3565TIP3   OH232253   5.382   6.225   7.858
 3565TIP3    H132254   5.314   6.160   7.840
 3565TIP3    H232255   5.446   6.213   7.787
 3566TIP3   OH232256   0.774   6.619   0.649
 3566TIP3    H132257   0.816   6.641   0.732
 3566TIP3    H232258   0.689   6.662   0.652
 3567TIP3   OH232259   1.113   2.140   0.685
 3567TIP3    H132260   1.063   2.111   0.609
 3567TIP3    H232261   1.082   2.084   0.756
 3568TIP3   OH232262   3.844   5.865   1.550
 3568TIP3    H132263   3.833   5.771   1.560
 3568TIP3    H232264   3.797   5.887   1.470
 3569TIP3   OH232265   1.537   5.941   8.236
 3569TIP3    H132266   1.510   5.854   8.206
 3569TIP3    H232267   1.502   6.001   8.170
 3570TIP3   OH232268   4.166   3.471   7.410
 3570TIP3    H132269   4.158   3.455   7.316
 3570TIP3    H232270   4.256   3.449   7.431
 3571TIP3   OH232271   5.104   0.317   0.669
 3571TIP3    H132272   5.193   0.298   0.638
 3571TIP3    H232273   5.053   0.240   0.645
 3572TIP3   OH232274   6.244   0.809   1.594
 3572TIP3    H132275   6.188   0.750   1.544
 3572TIP3    H232276   6.333   0.782   1.572
 3573TIP3   OH232277   6.098   3.555   1.489
 3573TIP3    H132278   6.058   3.626   1.539
 3573TIP3    H232279   6.161   3.516   1.550
 3574TIP3   OH232280   1.318   5.959   1.074
 3574TIP3    H132281   1.260   5.883   1.069
 3574TIP3    H232282   1.303   6.006   0.992
 3575TIP3   OH232283   2.795   6.725   8.370
 3575TIP3    H132284   2.829   6.641   8.401
 3575TIP3    H232285   2.873   6.779   8.356
 3576TIP3   OH232286   3.172   3.970   7.441
 3576TIP3    H132287   3.194   4.040   7.379
 3576TIP3    H232288   3.222   3.991   7.520
 3577TIP3   OH232289   5.959   4.876   7.236
 3577TIP3    H132290   5.884   4.878   7.296
 3577TIP3    H232291   5.951   4.791   7.191
 3578TIP3   OH232292   6.365   5.694   1.050
 3578TIP3    H132293   6.388   5.756   0.980
 3578TIP3    H232294   6.379   5.742   1.131
 3579TIP3   OH232295   1.995   3.284   8.222
 3579TIP3    H132296   2.044   3.307   8.301
 3579TIP3    H232297   2.037   3.333   8.152
 3580TIP3   OH232298   3.037   4.229   8.389
 3580TIP3    H132299   3.021   4.146   8.344
 3580TIP3    H232300   3.016   4.296   8.324
 3581TIP3   OH232301   0.130   0.697   0.074
 3581TIP3    H132302   0.054   0.751   0.097
 3581TIP3    H232303   0.168   0.672   0.158
 3582TIP3   OH232304   2.584   5.319   0.926
 3582TIP3    H132305   2.673   5.355   0.931
 3582TIP3    H232306   2.548   5.353   0.844
 3583TIP3   OH232307   3.045   6.365   2.368
 3583TIP3    H132308   3.042   6.454   2.405
 3583TIP3    H232309   2.995   6.312   2.430
 3584TIP3   OH232310   5.008   4.413   1.531
 3584TIP3    H132311   5.093   4.381   1.502
 3584TIP3    H232312   5.027   4.499   1.569
 3585TIP3   OH232313   4.923   5.638   8.129
 3585TIP3    H132314   4.933   5.690   8.049
 3585TIP3    H232315   4.889   5.554   8.100
 3586TIP3   OH232316   4.096   6.047   0.002
 3586TIP3    H132317   4.015   6.097   0.012
 3586TIP3    H232318   4.129   6.037   0.092
 3587TIP3   OH232319   3.494   1.350   1.723
 3587TIP3    H132320   3.424   1.285   1.713
 3587TIP3    H232321   3.517   1.373   1.633
 3588TIP3   OH232322   5.451   5.771   0.137
 3588TIP3    H132323   5.464   5.807   0.225
 3588TIP3    H232324   5.524   5.807   0.086
 3589TIP3   OH232325   4.858   0.365   1.508
 3589TIP3    H132326   4.781   0.399   1.554
 3589TIP3    H232327   4.847   0.270   1.509
 3590TIP3   OH232328   4.236   4.719   0.749
 3590TIP3    H132329   4.272   4.805   0.772
 3590TIP3    H232330   4.235   4.671   0.832
 3591TIP3   OH232331   6.482   6.449   1.034
 3591TIP3    H132332   6.461   6.520   1.095
 3591TIP3    H232333   6.477   6.490   0.947
 3592TIP3   OH232334   2.147   3.696   8.739
 3592TIP3    H132335   2.207   3.685   8.813
 3592TIP3    H232336   2.062   3.668   8.772
 3593TIP3   OH232337   0.016   5.980   2.304
 3593TIP3    H132338   0.054   5.893   2.315
 3593TIP3    H232339   0.071   6.023   2.238
 3594TIP3   OH232340   2.356   4.796   6.494
 3594TIP3    H132341   2.401   4.718   6.462
 3594TIP3    H232342   2.377   4.799   6.588
 3595TIP3   OH232343   6.771   0.539   8.231
 3595TIP3    H132344   6.718   0.613   8.201
 3595TIP3    H232345   6.717   0.497   8.298
 3596TIP3   OH232346   5.407   2.763   1.819
 3596TIP3    H132347   5.458   2.722   1.889
 3596TIP3    H232348   5.375   2.689   1.767
 3597TIP3   OH232349   3.004   1.830   2.510
 3597TIP3    H132350   2.978   1.909   2.463
 3597TIP3    H232351   2.930   1.811   2.567
 3598TIP3   OH232352   1.774   2.590   1.182
 3598TIP3    H132353   1.841   2.547   1.129
 3598TIP3    H232354   1.770   2.540   1.263
 3599TIP3   OH232355   1.810   2.469   0.209
 3599TIP3    H132356   1.747   2.414   0.257
 3599TIP3    H232357   1.793   2.558   0.241
 3600TIP3   OH232358   1.378   1.975   0.026
 3600TIP3    H132359   1.448   1.927   0.070
 3600TIP3    H232360   1.303   1.915   0.030
 3601TIP3   OH232361   3.469   4.373   1.861
 3601TIP3    H132362   3.439   4.369   1.770
 3601TIP3    H232363   3.424   4.300   1.904
 3602TIP3   OH232364   3.848   5.333   8.763
 3602TIP3    H132365   3.892   5.413   8.736
 3602TIP3    H232366   3.768   5.330   8.709
 3603TIP3   OH232367   3.629   4.518   6.472
 3603TIP3    H132368   3.640   4.602   6.428
 3603TIP3    H232369   3.667   4.531   6.559
 3604TIP3   OH232370   6.776   6.521   0.166
 3604TIP3    H132371   0.050   6.504   0.232
 3604TIP3    H232372   6.741   6.434   0.144
 3605TIP3   OH232373   4.157   0.448   0.818
 3605TIP3    H132374   4.164   0.543   0.821
 3605TIP3    H232375   4.089   0.426   0.882
 3606TIP3   OH232376   0.152   0.105   2.456
 3606TIP3    H132377   0.191   0.127   2.371
 3606TIP3    H232378   0.145   0.189   2.502
 3607TIP3   OH232379   6.108   2.523   2.183
 3607TIP3    H132380   6.173   2.489   2.244
 3607TIP3    H232381   6.156   2.584   2.128
 3608TIP3   OH232382   0.682   1.087   6.256
 3608TIP3    H132383   0.635   1.004   6.247
 3608TIP3    H232384   0.773   1.063   6.273
 3609TIP3   OH232385   4.136   5.541   7.524
 3609TIP3    H132386   4.180   5.585   7.452
 3609TIP3    H232387   4.043   5.545   7.501
 3610TIP3   OH232388   6.692   1.113   8.044
 3610TIP3    H132389   6.754   1.172   8.087
 3610TIP3    H232390   6.689   1.143   7.953
 3611TIP3   OH232391   3.486   3.957   0.375
 3611TIP3    H132392   3.576   3.967   0.341
 3611TIP3    H232393   3.442   4.038   0.348
 3612TIP3   OH232394   2.407   4.141   7.052
 3612TIP3    H132395   2.398   4.082   6.977
 3612TIP3    H232396   2.321   4.181   7.062
 3613TIP3   OH232397   0.372   2.781   0.230
 3613TIP3    H132398   0.323   2.781   0.312
 3613TIP3    H232399   0.367   2.691   0.199
 3614TIP3   OH232400   1.805   2.990   0.893
 3614TIP3    H132401   1.766   2.943   0.965
 3614TIP3    H232402   1.746   3.063   0.876
 3615TIP3   OH232403   1.564   0.180   7.858
 3615TIP3    H132404   1.487   0.238   7.867
 3615TIP3    H232405   1.597   0.170   7.947
 3616TIP3   OH232406   2.047   1.794   2.342
 3616TIP3    H132407   2.079   1.707   2.318
 3616TIP3    H232408   2.104   1.821   2.414
 3617TIP3   OH232409   4.159   5.204   7.472
 3617TIP3    H132410   4.168   5.289   7.514
 3617TIP3    H232411   4.248   5.169   7.468
 3618TIP3   OH232412   1.134   1.702   1.619
 3618TIP3    H132413   1.143   1.669   1.708
 3618TIP3    H232414   1.211   1.669   1.573
 3619TIP3   OH232415   5.094   0.597   1.219
 3619TIP3    H132416   5.188   0.597   1.204
 3619TIP3    H232417   5.084   0.574   1.312
 3620TIP3   OH232418   0.179   2.287   6.338
 3620TIP3    H132419   0.242   2.346   6.296
 3620TIP3    H232420   0.227   2.204   6.347
 3621TIP3   OH232421   4.556   5.077   1.173
 3621TIP3    H132422   4.608   4.999   1.194
 3621TIP3    H232423   4.593   5.146   1.228
 3622TIP3   OH232424   6.571   2.356   7.721
 3622TIP3    H132425   6.627   2.377   7.796
 3622TIP3    H232426   6.496   2.415   7.728
 3623TIP3   OH232427   2.698   3.679   1.447
 3623TIP3    H132428   2.638   3.604   1.447
 3623TIP3    H232429   2.775   3.647   1.495
 3624TIP3   OH232430   0.468   3.502   0.846
 3624TIP3    H132431   0.425   3.427   0.888
 3624TIP3    H232432   0.395   3.556   0.815
 3625TIP3   OH232433   0.852   6.729   6.825
 3625TIP3    H132434   0.822   6.672   6.755
 3625TIP3    H232435   0.940   6.696   6.847
 3626TIP3   OH232436   2.751   6.090   7.525
 3626TIP3    H132437   2.814   6.138   7.472
 3626TIP3    H232438   2.761   5.999   7.498
 3627TIP3   OH232439   3.933   0.026   7.860
 3627TIP3    H132440   3.845   6.787   7.883
 3627TIP3    H232441   3.979   0.030   7.944
 3628TIP3   OH232442   1.802   1.062   8.184
 3628TIP3    H132443   1.851   0.982   8.201
 3628TIP3    H232444   1.765   1.049   8.096
 3629TIP3   OH232445   6.332   0.859   7.192
 3629TIP3    H132446   6.361   0.908   7.268
 3629TIP3    H232447   6.237   0.854   7.202
 3630TIP3   OH232448   1.685   2.263   7.262
 3630TIP3    H132449   1.679   2.172   7.290
 3630TIP3    H232450   1.776   2.274   7.235
 3631TIP3   OH232451   3.602   4.836   1.773
 3631TIP3    H132452   3.602   4.742   1.792
 3631TIP3    H232453   3.587   4.877   1.859
 3632TIP3   OH232454   4.297   1.720   1.551
 3632TIP3    H132455   4.319   1.695   1.641
 3632TIP3    H232456   4.310   1.814   1.548
 3633TIP3   OH232457   2.225   5.517   0.093
 3633TIP3    H132458   2.164   5.466   0.146
 3633TIP3    H232459   2.185   5.604   0.087
 3634TIP3   OH232460   1.511   0.563   8.510
 3634TIP3    H132461   1.548   0.547   8.596
 3634TIP3    H232462   1.508   0.658   8.502
 3635TIP3   OH232463   2.222   6.165   7.301
 3635TIP3    H132464   2.207   6.144   7.209
 3635TIP3    H232465   2.301   6.115   7.325
 3636TIP3   OH232466   3.837   6.015   0.320
 3636TIP3    H132467   3.812   6.028   0.411
 3636TIP3    H232468   3.838   5.920   0.308
 3637TIP3   OH232469   3.089   4.328   2.307
 3637TIP3    H132470   3.014   4.377   2.276
 3637TIP3    H232471   3.065   4.302   2.396
 3638TIP3   OH232472   3.562   0.689   0.566
 3638TIP3    H132473   3.586   0.781   0.556
 3638TIP3    H232474   3.563   0.674   0.660
 3639TIP3   OH232475   3.169   4.302   7.801
 3639TIP3    H132476   3.087   4.252   7.790
 3639TIP3    H232477   3.142   4.383   7.843
 3640TIP3   OH232478   2.920   2.732   1.145
 3640TIP3    H132479   2.952   2.684   1.069
 3640TIP3    H232480   2.975   2.810   1.149
 3641TIP3   OH232481   5.277   1.750   1.097
 3641TIP3    H132482   5.192   1.783   1.127
 3641TIP3    H232483   5.334   1.827   1.100
 3642TIP3   OH232484   1.775   5.192   6.641
 3642TIP3    H132485   1.708   5.260   6.636
 3642TIP3    H232486   1.836   5.211   6.570
 3643TIP3   OH232487   6.569   0.010   7.836
 3643TIP3    H132488   6.599   6.712   7.832
 3643TIP3    H232489   6.585   0.044   7.748
 3644TIP3   OH232490   3.802   2.973   0.857
 3644TIP3    H132491   3.801   3.012   0.944
 3644TIP3    H232492   3.731   3.017   0.810
 3645TIP3   OH232493   3.999   3.015   7.894
 3645TIP3    H132494   4.042   2.930   7.889
 3645TIP3    H232495   3.977   3.025   7.987
 3646TIP3   OH232496   6.502   4.110   6.075
 3646TIP3    H132497   6.529   4.090   6.164
 3646TIP3    H232498   6.556   4.053   6.020
 3647TIP3   OH232499   5.606   0.608   8.462
 3647TIP3    H132500   5.539   0.564   8.411
 3647TIP3    H232501   5.618   0.552   8.539
 3648TIP3   OH232502   4.894   6.072   8.475
 3648TIP3    H132503   4.892   5.995   8.419
 3648TIP3    H232504   4.827   6.130   8.438
 3649TIP3   OH232505   4.370   0.046   7.947
 3649TIP3    H132506   4.308   6.776   7.911
 3649TIP3    H232507   4.423   6.788   8.009
 3650TIP3   OH232508   4.488   5.500   1.214
 3650TIP3    H132509   4.569   5.551   1.204
 3650TIP3    H232510   4.467   5.508   1.307
 3651TIP3   OH232511   5.056   4.763   8.320
 3651TIP3    H132512   5.014   4.843   8.350
 3651TIP3    H232513   5.148   4.787   8.307
 3652TIP3   OH232514   1.543   1.414   7.205
 3652TIP3    H132515   1.583   1.428   7.291
 3652TIP3    H232516   1.589   1.338   7.170
 3653TIP3   OH232517   3.930   5.028   0.973
 3653TIP3    H132518   3.903   4.959   1.033
 3653TIP3    H232519   4.023   5.012   0.958
 3654TIP3   OH232520   0.146   4.411   8.148
 3654TIP3    H132521   0.077   4.443   8.090
 3654TIP3    H232522   0.133   4.316   8.151
 3655TIP3   OH232523   3.215   2.155   8.143
 3655TIP3    H132524   3.123   2.156   8.118
 3655TIP3    H232525   3.221   2.216   8.216
 3656TIP3   OH232526   3.056   6.642   7.240
 3656TIP3    H132527   3.023   6.726   7.208
 3656TIP3    H232528   3.018   6.578   7.180
 3657TIP3   OH232529   5.461   4.077   1.152
 3657TIP3    H132530   5.488   4.079   1.243
 3657TIP3    H232531   5.366   4.075   1.155
 3658TIP3   OH232532   5.354   6.072   1.005
 3658TIP3    H132533   5.328   6.161   0.980
 3658TIP3    H232534   5.367   6.026   0.922
 3659TIP3   OH232535   3.731   1.099   8.117
 3659TIP3    H132536   3.775   1.024   8.157
 3659TIP3    H232537   3.638   1.076   8.118
 3660TIP3   OH232538   0.921   4.894   6.462
 3660TIP3    H132539   0.984   4.839   6.415
 3660TIP3    H232540   0.973   4.937   6.530
 3661TIP3   OH232541   1.244   6.363   8.119
 3661TIP3    H132542   1.286   6.436   8.074
 3661TIP3    H232543   1.258   6.380   8.212
 3662TIP3   OH232544   6.535   2.326   6.382
 3662TIP3    H132545   6.621   2.358   6.355
 3662TIP3    H232546   6.513   2.378   6.459
 3663TIP3   OH232547   6.635   5.787   1.748
 3663TIP3    H132548   6.667   5.714   1.801
 3663TIP3    H232549   6.639   5.862   1.807
 3664TIP3   OH232550   0.009   2.289   6.548
 3664TIP3    H132551   0.071   2.306   6.477
 3664TIP3    H232552   6.767   2.376   6.570
 3665TIP3   OH232553   5.458   5.544   6.542
 3665TIP3    H132554   5.482   5.636   6.548
 3665TIP3    H232555   5.401   5.538   6.466
 3666TIP3   OH232556   0.799   6.335   7.722
 3666TIP3    H132557   0.867   6.368   7.663
 3666TIP3    H232558   0.756   6.266   7.672
 3667TIP3   OH232559   0.485   5.067   0.843
 3667TIP3    H132560   0.447   5.034   0.925
 3667TIP3    H232561   0.449   5.155   0.834
 3668TIP3   OH232562   2.795   6.610   8.717
 3668TIP3    H132563   2.800   6.540   8.652
 3668TIP3    H232564   2.864   6.589   8.780
 3669TIP3   OH232565   0.856   3.671   8.504
 3669TIP3    H132566   0.801   3.736   8.460
 3669TIP3    H232567   0.906   3.629   8.434
 3670TIP3   OH232568   5.850   0.824   0.503
 3670TIP3    H132569   5.872   0.814   0.596
 3670TIP3    H232570   5.755   0.812   0.500
 3671TIP3   OH232571   5.306   5.471   6.890
 3671TIP3    H132572   5.388   5.456   6.843
 3671TIP3    H232573   5.332   5.520   6.968
 3672TIP3   OH232574   5.649   4.536   2.181
 3672TIP3    H132575   5.728   4.589   2.176
 3672TIP3    H232576   5.579   4.595   2.152
 3673TIP3   OH232577   4.191   6.717   7.776
 3673TIP3    H132578   4.106   6.758   7.756
 3673TIP3    H232579   4.173   6.623   7.773
 3674TIP3   OH232580   3.155   1.305   0.985
 3674TIP3    H132581   3.182   1.231   0.932
 3674TIP3    H232582   3.118   1.266   1.064
 3675TIP3   OH232583   0.683   3.372   6.225
 3675TIP3    H132584   0.669   3.416   6.141
 3675TIP3    H232585   0.771   3.399   6.252
 3676TIP3   OH232586   6.054   3.886   1.379
 3676TIP3    H132587   6.064   3.796   1.348
 3676TIP3    H232588   6.121   3.895   1.447
 3677TIP3   OH232589   4.792   5.572   1.253
 3677TIP3    H132590   4.808   5.541   1.342
 3677TIP3    H232591   4.811   5.497   1.197
 3678TIP3   OH232592   5.960   4.399   1.587
 3678TIP3    H132593   5.890   4.353   1.633
 3678TIP3    H232594   5.938   4.491   1.595
 3679TIP3   OH232595   1.367   4.410   6.314
 3679TIP3    H132596   1.375   4.423   6.408
 3679TIP3    H232597   1.322   4.489   6.282
 3680TIP3   OH232598   2.775   6.776   7.622
 3680TIP3    H132599   2.729   6.708   7.673
 3680TIP3    H232600   2.866   6.749   7.623
 3681TIP3   OH232601   2.250   4.723   7.188
 3681TIP3    H132602   2.185   4.662   7.154
 3681TIP3    H232603   2.248   4.798   7.128
 3682TIP3   OH232604   5.648   5.748   7.285
 3682TIP3    H132605   5.615   5.764   7.196
 3682TIP3    H232606   5.684   5.660   7.281
 3683TIP3   OH232607   6.082   1.751   1.624
 3683TIP3    H132608   6.115   1.695   1.694
 3683TIP3    H232609   6.001   1.710   1.595
 3684TIP3   OH232610   1.205   1.504   7.337
 3684TIP3    H132611   1.256   1.549   7.403
 3684TIP3    H232612   1.209   1.412   7.362
 3685TIP3   OH232613   1.431   3.274   7.224
 3685TIP3    H132614   1.484   3.235   7.294
 3685TIP3    H232615   1.353   3.309   7.269
 3686TIP3   OH232616   3.749   4.049   0.314
 3686TIP3    H132617   3.813   3.986   0.346
 3686TIP3    H232618   3.799   4.108   0.257
 3687TIP3   OH232619   2.469   6.075   2.175
 3687TIP3    H132620   2.429   6.153   2.214
 3687TIP3    H232621   2.557   6.072   2.214
 3688TIP3   OH232622   1.190   6.470   0.692
 3688TIP3    H132623   1.174   6.536   0.624
 3688TIP3    H232624   1.102   6.445   0.721
 3689TIP3   OH232625   4.543   3.318   8.336
 3689TIP3    H132626   4.492   3.379   8.284
 3689TIP3    H232627   4.627   3.312   8.292
 3690TIP3   OH232628   0.584   5.043   7.786
 3690TIP3    H132629   0.618   4.959   7.817
 3690TIP3    H232630   0.589   5.101   7.862
 3691TIP3   OH232631   0.484   4.777   8.710
 3691TIP3    H132632   0.416   4.836   8.743
 3691TIP3    H232633   0.436   4.707   8.667
 3692TIP3   OH232634   1.332   5.644   7.307
 3692TIP3    H132635   1.378   5.560   7.316
 3692TIP3    H232636   1.390   5.697   7.251
 3693TIP3   OH232637   5.756   2.265   7.439
 3693TIP3    H132638   5.774   2.232   7.351
 3693TIP3    H232639   5.680   2.214   7.468
 3694TIP3   OH232640   4.653   3.309   0.699
 3694TIP3    H132641   4.662   3.255   0.621
 3694TIP3    H232642   4.736   3.355   0.707
 3695TIP3   OH232643   3.679   3.724   7.289
 3695TIP3    H132644   3.751   3.718   7.226
 3695TIP3    H232645   3.600   3.729   7.235
 3696TIP3   OH232646   2.480   4.789   1.259
 3696TIP3    H132647   2.448   4.708   1.220
 3696TIP3    H232648   2.575   4.779   1.262
 3697TIP3   OH232649   2.233   5.954   8.197
 3697TIP3    H132650   2.269   5.900   8.268
 3697TIP3    H232651   2.243   6.044   8.228
 3698TIP3   OH232652   1.484   2.178   1.160
 3698TIP3    H132653   1.544   2.138   1.222
 3698TIP3    H232654   1.538   2.199   1.084
 3699TIP3   OH232655   1.636   0.778   8.411
 3699TIP3    H132656   1.668   0.865   8.435
 3699TIP3    H232657   1.714   0.732   8.380
 3700TIP3   OH232658   0.309   0.062   0.812
 3700TIP3    H132659   0.366   0.138   0.805
 3700TIP3    H232660   0.230   0.086   0.763
 3701TIP3   OH232661   6.354   3.286   0.710
 3701TIP3    H132662   6.320   3.203   0.676
 3701TIP3    H232663   6.279   3.325   0.756
 3702TIP3   OH232664   3.036   1.778   1.011
 3702TIP3    H132665   2.996   1.704   0.967
 3702TIP3    H232666   3.110   1.803   0.955
 3703TIP3   OH232667   2.552   0.586   1.954
 3703TIP3    H132668   2.471   0.634   1.939
 3703TIP3    H232669   2.611   0.615   1.884
 3704TIP3   OH232670   1.810   2.004   6.232
 3704TIP3    H132671   1.768   2.090   6.229
 3704TIP3    H232672   1.753   1.948   6.179
 3705TIP3   OH232673   5.585   1.639   7.484
 3705TIP3    H132674   5.565   1.711   7.424
 3705TIP3    H232675   5.678   1.621   7.469
 3706TIP3   OH232676   5.983   5.816   6.588
 3706TIP3    H132677   5.914   5.749   6.584
 3706TIP3    H232678   6.038   5.789   6.661
 3707TIP3   OH232679   2.685   5.196   7.208
 3707TIP3    H132680   2.769   5.202   7.162
 3707TIP3    H232681   2.671   5.102   7.221
 3708TIP3   OH232682   0.650   6.139   7.572
 3708TIP3    H132683   0.643   6.136   7.477
 3708TIP3    H232684   0.560   6.127   7.603
 3709TIP3   OH232685   4.417   6.228   0.378
 3709TIP3    H132686   4.395   6.186   0.295
 3709TIP3    H232687   4.511   6.248   0.370
 3710TIP3   OH232688   1.429   4.784   0.887
 3710TIP3    H132689   1.506   4.769   0.943
 3710TIP3    H232690   1.449   4.736   0.807
 3711TIP3   OH232691   1.515   5.686   8.143
 3711TIP3    H132692   1.443   5.623   8.137
 3711TIP3    H232693   1.586   5.646   8.091
 3712TIP3   OH232694   6.585   0.740   8.015
 3712TIP3    H132695   6.491   0.721   8.024
 3712TIP3    H232696   6.609   0.701   7.931
 3713TIP3   OH232697   4.884   4.723   1.399
 3713TIP3    H132698   4.828   4.661   1.445
 3713TIP3    H232699   4.973   4.698   1.424
 3714TIP3   OH232700   1.770   6.209   8.448
 3714TIP3    H132701   1.828   6.285   8.458
 3714TIP3    H232702   1.828   6.134   8.450
 3715TIP3   OH232703   2.165   5.807   0.116
 3715TIP3    H132704   2.224   5.872   0.153
 3715TIP3    H232705   2.084   5.816   0.166
 3716TIP3   OH232706   0.627   6.760   7.011
 3716TIP3    H132707   0.708   6.759   6.960
 3716TIP3    H232708   0.636   0.043   7.069
 3717TIP3   OH232709   0.487   2.554   0.815
 3717TIP3    H132710   0.460   2.623   0.876
 3717TIP3    H232711   0.405   2.526   0.773
 3718TIP3   OH232712   3.946   0.332   0.966
 3718TIP3    H132713   3.913   0.249   0.931
 3718TIP3    H232714   3.877   0.395   0.950
 3719TIP3   OH232715   2.957   5.496   6.658
 3719TIP3    H132716   2.922   5.409   6.640
 3719TIP3    H232717   2.898   5.556   6.613
 3720TIP3   OH232718   0.555   3.094   7.682
 3720TIP3    H132719   0.526   3.063   7.768
 3720TIP3    H232720   0.649   3.076   7.681
 3721TIP3   OH232721   4.609   0.536   2.475
 3721TIP3    H132722   4.686   0.483   2.454
 3721TIP3    H232723   4.624   0.565   2.565
 3722TIP3   OH232724   0.277   0.351   0.389
 3722TIP3    H132725   0.337   0.292   0.343
 3722TIP3    H232726   0.198   0.352   0.335
 3723TIP3   OH232727   6.604   3.517   6.613
 3723TIP3    H132728   6.571   3.602   6.583
 3723TIP3    H232729   6.554   3.453   6.563
 3724TIP3   OH232730   4.544   6.493   0.226
 3724TIP3    H132731   4.524   6.530   0.140
 3724TIP3    H232732   4.578   6.406   0.208
 3725TIP3   OH232733   1.263   4.061   0.497
 3725TIP3    H132734   1.286   3.977   0.536
 3725TIP3    H232735   1.220   4.039   0.415
 3726TIP3   OH232736   0.122   0.506   8.002
 3726TIP3    H132737   0.078   0.421   7.994
 3726TIP3    H232738   0.107   0.533   8.093
 3727TIP3   OH232739   2.616   2.637   0.534
 3727TIP3    H132740   2.550   2.597   0.478
 3727TIP3    H232741   2.648   2.712   0.483
 3728TIP3   OH232742   3.715   5.629   0.071
 3728TIP3    H132743   3.802   5.604   0.039
 3728TIP3    H232744   3.677   5.548   0.104
 3729TIP3   OH232745   6.082   1.885   7.527
 3729TIP3    H132746   6.126   1.965   7.499
 3729TIP3    H232747   6.113   1.818   7.465
 3730TIP3   OH232748   1.132   5.899   0.417
 3730TIP3    H132749   1.223   5.871   0.419
 3730TIP3    H232750   1.086   5.836   0.472
 3731TIP3   OH232751   1.828   5.136   8.041
 3731TIP3    H132752   1.866   5.222   8.058
 3731TIP3    H232753   1.767   5.150   7.969
 3732TIP3   OH232754   4.576   2.197   3.243
 3732TIP3    H132755   4.603   2.198   3.151
 3732TIP3    H232756   4.557   2.289   3.263
 3733TIP3   OH232757   3.449   5.970   1.724
 3733TIP3    H132758   3.526   6.003   1.770
 3733TIP3    H232759   3.469   5.980   1.631
 3734TIP3   OH232760   0.709   4.917   0.774
 3734TIP3    H132761   0.787   4.951   0.817
 3734TIP3    H232762   0.640   4.979   0.799
 3735TIP3   OH232763   3.467   3.214   8.293
 3735TIP3    H132764   3.422   3.129   8.289
 3735TIP3    H232765   3.479   3.239   8.201
 3736TIP3   OH232766   0.392   2.451   1.420
 3736TIP3    H132767   0.297   2.457   1.430
 3736TIP3    H232768   0.405   2.421   1.330
 3737TIP3   OH232769   1.865   5.786   1.471
 3737TIP3    H132770   1.804   5.796   1.398
 3737TIP3    H232771   1.913   5.869   1.474
 3738TIP3   OH232772   6.050   2.332   8.194
 3738TIP3    H132773   5.987   2.297   8.257
 3738TIP3    H232774   6.110   2.259   8.178
 3739TIP3   OH232775   5.515   4.498   8.812
 3739TIP3    H132776   5.579   4.437   8.848
 3739TIP3    H232777   5.507   4.472   8.720
 3740TIP3   OH232778   4.328   1.891   3.022
 3740TIP3    H132779   4.386   1.888   3.099
 3740TIP3    H232780   4.365   1.960   2.967
 3741TIP3   OH232781   4.878   5.303   2.394
 3741TIP3    H132782   4.899   5.210   2.381
 3741TIP3    H232783   4.928   5.328   2.472
 3742TIP3   OH232784   2.854   2.859   7.057
 3742TIP3    H132785   2.859   2.823   6.968
 3742TIP3    H232786   2.942   2.892   7.075
 3743TIP3   OH232787   3.948   2.599   8.364
 3743TIP3    H132788   3.879   2.538   8.338
 3743TIP3    H232789   4.028   2.546   8.361
 3744TIP3   OH232790   2.716   3.394   7.452
 3744TIP3    H132791   2.692   3.305   7.426
 3744TIP3    H232792   2.675   3.450   7.386
 3745TIP3   OH232793   2.113   2.321   0.664
 3745TIP3    H132794   2.080   2.399   0.709
 3745TIP3    H232795   2.045   2.298   0.602
 3746TIP3   OH232796   0.107   6.775   7.119
 3746TIP3    H132797   0.137   0.003   7.208
 3746TIP3    H232798   0.036   0.044   7.103
 3747TIP3   OH232799   2.671   5.643   7.136
 3747TIP3    H132800   2.598   5.588   7.107
 3747TIP3    H232801   2.727   5.584   7.187
 3748TIP3   OH232802   5.218   3.215   7.276
 3748TIP3    H132803   5.216   3.157   7.352
 3748TIP3    H232804   5.196   3.302   7.311
 3749TIP3   OH232805   0.278   5.101   7.779
 3749TIP3    H132806   0.202   5.073   7.727
 3749TIP3    H232807   0.353   5.063   7.734
 3750TIP3   OH232808   3.333   1.999   0.468
 3750TIP3    H132809   3.274   2.073   0.457
 3750TIP3    H232810   3.388   2.000   0.390
 3751TIP3   OH232811   6.317   6.587   0.360
 3751TIP3    H132812   6.374   6.589   0.437
 3751TIP3    H232813   6.294   6.678   0.345
 3752TIP3   OH232814   4.246   5.475   2.728
 3752TIP3    H132815   4.198   5.438   2.802
 3752TIP3    H232816   4.210   5.563   2.717
 3753TIP3   OH232817   6.125   2.342   8.749
 3753TIP3    H132818   6.087   2.359   8.664
 3753TIP3    H232819   6.210   2.302   8.730
 3754TIP3   OH232820   0.248   3.748   6.705
 3754TIP3    H132821   0.292   3.743   6.790
 3754TIP3    H232822   0.280   3.830   6.667
 3755TIP3   OH232823   5.409   3.500   6.878
 3755TIP3    H132824   5.500   3.471   6.878
 3755TIP3    H232825   5.389   3.516   6.786
 3756TIP3   OH232826   2.639   0.584   0.070
 3756TIP3    H132827   2.603   0.549   8.857
 3756TIP3    H232828   2.655   0.677   0.052
 3757TIP3   OH232829   4.802   3.142   8.708
 3757TIP3    H132830   4.747   3.132   8.786
 3757TIP3    H232831   4.774   3.072   8.649
 3758TIP3   OH232832   2.569   2.929   0.849
 3758TIP3    H132833   2.572   3.020   0.820
 3758TIP3    H232834   2.487   2.895   0.812
 3759TIP3   OH232835   6.162   1.440   7.718
 3759TIP3    H132836   6.086   1.433   7.662
 3759TIP3    H232837   6.138   1.507   7.783
 3760TIP3   OH232838   2.299   2.867   0.723
 3760TIP3    H132839   2.296   2.828   0.635
 3760TIP3    H232840   2.216   2.841   0.763
 3761TIP3   OH232841   6.395   2.073   1.483
 3761TIP3    H132842   6.405   2.092   1.389
 3761TIP3    H232843   6.307   2.036   1.490
 3762TIP3   OH232844   5.589   1.015   1.483
 3762TIP3    H132845   5.597   0.928   1.522
 3762TIP3    H232846   5.675   1.033   1.445
 3763TIP3   OH232847   5.768   3.524   1.194
 3763TIP3    H132848   5.676   3.504   1.172
 3763TIP3    H232849   5.773   3.619   1.192
 3764TIP3   OH232850   0.789   5.258   8.716
 3764TIP3    H132851   0.801   5.352   8.728
 3764TIP3    H232852   0.694   5.246   8.721
 3765TIP3   OH232853   2.416   3.707   8.087
 3765TIP3    H132854   2.336   3.736   8.042
 3765TIP3    H232855   2.460   3.650   8.024
 3766TIP3   OH232856   4.882   6.280   7.048
 3766TIP3    H132857   4.945   6.341   7.087
 3766TIP3    H232858   4.896   6.288   6.954
 3767TIP3   OH232859   3.531   0.181   7.929
 3767TIP3    H132860   3.585   0.181   8.008
 3767TIP3    H232861   3.442   0.166   7.961
 3768TIP3   OH232862   2.135   3.788   7.600
 3768TIP3    H132863   2.207   3.840   7.564
 3768TIP3    H232864   2.070   3.785   7.530
 3769TIP3   OH232865   4.091   0.723   7.134
 3769TIP3    H132866   4.029   0.730   7.207
 3769TIP3    H232867   4.060   0.647   7.084
 3770TIP3   OH232868   3.906   0.426   2.002
 3770TIP3    H132869   3.952   0.355   1.957
 3770TIP3    H232870   3.923   0.410   2.095
 3771TIP3   OH232871   5.478   3.012   0.979
 3771TIP3    H132872   5.485   3.108   0.984
 3771TIP3    H232873   5.398   2.997   0.929
 3772TIP3   OH232874   2.679   3.459   0.883
 3772TIP3    H132875   2.592   3.480   0.915
 3772TIP3    H232876   2.735   3.530   0.916
 3773TIP3   OH232877   1.427   6.657   2.247
 3773TIP3    H132878   1.518   6.654   2.276
 3773TIP3    H232879   1.418   6.744   2.208
 3774TIP3   OH232880   4.577   4.596   8.198
 3774TIP3    H132881   4.611   4.656   8.132
 3774TIP3    H232882   4.499   4.558   8.158
 3775TIP3   OH232883   3.514   5.246   8.347
 3775TIP3    H132884   3.477   5.170   8.391
 3775TIP3    H232885   3.576   5.209   8.284
 3776TIP3   OH232886   1.669   3.222   1.701
 3776TIP3    H132887   1.706   3.289   1.758
 3776TIP3    H232888   1.621   3.272   1.634
 3777TIP3   OH232889   0.273   4.581   1.549
 3777TIP3    H132890   0.333   4.535   1.490
 3777TIP3    H232891   0.329   4.619   1.617
 3778TIP3   OH232892   4.014   5.904   8.302
 3778TIP3    H132893   4.017   5.917   8.207
 3778TIP3    H232894   4.105   5.900   8.329
 3779TIP3   OH232895   3.667   4.103   8.319
 3779TIP3    H132896   3.582   4.134   8.349
 3779TIP3    H232897   3.648   4.021   8.273
 3780TIP3   OH232898   4.966   1.427   8.049
 3780TIP3    H132899   5.006   1.343   8.025
 3780TIP3    H232900   4.895   1.439   7.986
 3781TIP3   OH232901   0.376   3.471   1.488
 3781TIP3    H132902   0.322   3.460   1.566
 3781TIP3    H232903   0.363   3.390   1.438
 3782TIP3   OH232904   2.530   2.619   1.528
 3782TIP3    H132905   2.613   2.664   1.510
 3782TIP3    H232906   2.538   2.590   1.619
 3783TIP3   OH232907   4.900   0.615   0.391
 3783TIP3    H132908   4.818   0.666   0.389
 3783TIP3    H232909   4.915   0.590   0.301
 3784TIP3   OH232910   3.546   0.466   8.031
 3784TIP3    H132911   3.506   0.453   8.117
 3784TIP3    H232912   3.504   0.400   7.975
 3785TIP3   OH232913   5.856   3.675   7.949
 3785TIP3    H132914   5.927   3.725   7.911
 3785TIP3    H232915   5.826   3.618   7.878
 3786TIP3   OH232916   3.557   2.503   1.489
 3786TIP3    H132917   3.573   2.594   1.515
 3786TIP3    H232918   3.465   2.487   1.514
 3787TIP3   OH232919   0.349   0.209   6.446
 3787TIP3    H132920   0.310   0.255   6.372
 3787TIP3    H232921   0.283   0.144   6.471
 3788TIP3   OH232922   6.318   4.835   7.747
 3788TIP3    H132923   6.360   4.814   7.663
 3788TIP3    H232924   6.389   4.866   7.802
 3789TIP3   OH232925   5.974   5.062   0.487
 3789TIP3    H132926   5.902   5.099   0.537
 3789TIP3    H232927   5.954   4.969   0.480
 3790TIP3   OH232928   4.991   6.288   6.476
 3790TIP3    H132929   5.004   6.368   6.526
 3790TIP3    H232930   4.912   6.249   6.512
 3791TIP3   OH232931   3.956   1.294   1.966
 3791TIP3    H132932   3.950   1.321   2.058
 3791TIP3    H232933   3.865   1.296   1.934
 3792TIP3   OH232934   3.042   6.685   7.657
 3792TIP3    H132935   3.131   6.706   7.628
 3792TIP3    H232936   3.038   6.589   7.653
 3793TIP3   OH232937   4.771   3.798   2.048
 3793TIP3    H132938   4.825   3.763   2.120
 3793TIP3    H232939   4.820   3.873   2.016
 3794TIP3   OH232940   2.608   2.991   7.802
 3794TIP3    H132941   2.541   2.968   7.737
 3794TIP3    H232942   2.584   2.941   7.880
 3795TIP3   OH232943   5.700   4.885   1.928
 3795TIP3    H132944   5.782   4.929   1.945
 3795TIP3    H232945   5.702   4.807   1.984
 3796TIP3   OH232946   2.761   1.385   1.022
 3796TIP3    H132947   2.785   1.424   1.106
 3796TIP3    H232948   2.760   1.291   1.038
 3797TIP3   OH232949   1.572   2.382   6.935
 3797TIP3    H132950   1.496   2.329   6.912
 3797TIP3    H232951   1.646   2.337   6.892
 3798TIP3   OH232952   4.475   2.253   1.209
 3798TIP3    H132953   4.547   2.228   1.267
 3798TIP3    H232954   4.458   2.345   1.229
 3799TIP3   OH232955   6.678   2.113   0.822
 3799TIP3    H132956   6.702   2.021   0.838
 3799TIP3    H232957   6.705   2.129   0.732
 3800TIP3   OH232958   3.102   4.694   7.572
 3800TIP3    H132959   3.127   4.714   7.662
 3800TIP3    H232960   3.024   4.639   7.580
 3801TIP3   OH232961   5.263   6.344   8.527
 3801TIP3    H132962   5.335   6.340   8.590
 3801TIP3    H232963   5.206   6.271   8.551
 3802TIP3   OH232964   2.296   0.574   1.070
 3802TIP3    H132965   2.360   0.561   1.000
 3802TIP3    H232966   2.271   0.666   1.062
 3803TIP3   OH232967   5.236   4.306   1.411
 3803TIP3    H132968   5.189   4.304   1.327
 3803TIP3    H232969   5.246   4.213   1.434
 3804TIP3   OH232970   5.294   0.398   6.488
 3804TIP3    H132971   5.213   0.416   6.441
 3804TIP3    H232972   5.314   0.479   6.534
 3805TIP3   OH232973   2.550   6.785   8.257
 3805TIP3    H132974   2.640   6.769   8.286
 3805TIP3    H232975   2.534   0.083   8.279
 3806TIP3   OH232976   5.994   4.900   1.770
 3806TIP3    H132977   6.085   4.896   1.800
 3806TIP3    H232978   5.949   4.953   1.836
 3807TIP3   OH232979   1.297   1.351   1.723
 3807TIP3    H132980   1.270   1.314   1.808
 3807TIP3    H232981   1.374   1.404   1.744
 3808TIP3   OH232982   4.593   4.442   0.574
 3808TIP3    H132983   4.502   4.412   0.575
 3808TIP3    H232984   4.636   4.386   0.509
 3809TIP3   OH232985   4.658   1.746   8.142
 3809TIP3    H132986   4.653   1.670   8.084
 3809TIP3    H232987   4.672   1.821   8.083
 3810TIP3   OH232988   5.526   2.432   1.343
 3810TIP3    H132989   5.446   2.477   1.371
 3810TIP3    H232990   5.582   2.502   1.310
 3811TIP3   OH232991   3.708   2.850   8.445
 3811TIP3    H132992   3.789   2.820   8.405
 3811TIP3    H232993   3.737   2.915   8.510
 3812TIP3   OH232994   4.841   0.404   2.479
 3812TIP3    H132995   4.867   0.315   2.502
 3812TIP3    H232996   4.922   0.444   2.447
 3813TIP3   OH232997   0.206   2.931   0.789
 3813TIP3    H132998   0.243   2.860   0.841
 3813TIP3    H232999   0.181   2.888   0.706
 3814TIP3   OH233000   0.221   3.214   7.708
 3814TIP3    H133001   0.275   3.176   7.639
 3814TIP3    H233002   0.282   3.263   7.763
 3815TIP3   OH233003   4.562   3.750   7.544
 3815TIP3    H133004   4.628   3.729   7.611
 3815TIP3    H233005   4.564   3.675   7.484
 3816TIP3   OH233006   0.676   5.911   0.897
 3816TIP3    H133007   0.642   5.990   0.938
 3816TIP3    H233008   0.718   5.941   0.817
 3817TIP3   OH233009   1.352   0.818   8.582
 3817TIP3    H133010   1.396   0.806   8.666
 3817TIP3    H233011   1.294   0.743   8.574
 3818TIP3   OH233012   6.269   1.244   7.036
 3818TIP3    H133013   6.342   1.182   7.042
 3818TIP3    H233014   6.221   1.218   6.957
 3819TIP3   OH233015   1.131   6.596   1.114
 3819TIP3    H133016   1.071   6.649   1.166
 3819TIP3    H233017   1.147   6.648   1.035
 3820TIP3   OH233018   5.825   4.720   0.565
 3820TIP3    H133019   5.846   4.658   0.635
 3820TIP3    H233020   5.906   4.727   0.514
 3821TIP3   OH233021   5.450   1.859   0.456
 3821TIP3    H133022   5.477   1.950   0.461
 3821TIP3    H233023   5.516   1.811   0.506
 3822TIP3   OH233024   1.116   5.178   8.816
 3822TIP3    H133025   1.058   5.196   8.742
 3822TIP3    H233026   1.155   5.263   8.837
 3823TIP3   OH233027   1.954   1.217   0.854
 3823TIP3    H133028   2.045   1.222   0.885
 3823TIP3    H233029   1.944   1.126   0.824
 3824TIP3   OH233030   1.510   3.838   1.785
 3824TIP3    H133031   1.506   3.780   1.861
 3824TIP3    H233032   1.596   3.821   1.747
 3825TIP3   OH233033   1.720   1.027   7.907
 3825TIP3    H133034   1.706   0.940   7.944
 3825TIP3    H233035   1.669   1.027   7.826
 3826TIP3   OH233036   4.407   4.076   1.968
 3826TIP3    H133037   4.421   4.146   2.032
 3826TIP3    H233038   4.404   4.121   1.884
 3827TIP3   OH233039   5.175   6.020   1.658
 3827TIP3    H133040   5.080   6.013   1.646
 3827TIP3    H233041   5.193   5.970   1.737
 3828TIP3   OH233042   6.444   3.274   1.574
 3828TIP3    H133043   6.352   3.263   1.548
 3828TIP3    H233044   6.441   3.275   1.670
 3829TIP3   OH233045   1.410   5.457   7.918
 3829TIP3    H133046   1.479   5.402   7.882
 3829TIP3    H233047   1.370   5.404   7.987
 3830TIP3   OH233048   1.000   4.093   0.040
 3830TIP3    H133049   0.930   4.038   0.076
 3830TIP3    H233050   1.078   4.038   0.042
 3831TIP3   OH233051   2.515   1.246   6.543
 3831TIP3    H133052   2.540   1.182   6.609
 3831TIP3    H233053   2.591   1.305   6.536
 3832TIP3   OH233054   4.588   0.099   7.774
 3832TIP3    H133055   4.494   0.099   7.792
 3832TIP3    H233056   4.621   0.019   7.817
 3833TIP3   OH233057   2.835   1.761   7.361
 3833TIP3    H133058   2.859   1.730   7.273
 3833TIP3    H233059   2.740   1.766   7.359
 3834TIP3   OH233060   5.893   0.050   7.262
 3834TIP3    H133061   5.969   6.786   7.256
 3834TIP3    H233062   5.846   0.019   7.339
 3835TIP3   OH233063   1.849   6.055   2.303
 3835TIP3    H133064   1.893   6.039   2.386
 3835TIP3    H233065   1.809   5.971   2.281
 3836TIP3   OH233066   6.608   5.247   8.362
 3836TIP3    H133067   6.694   5.205   8.364
 3836TIP3    H233068   6.545   5.175   8.360
 3837TIP3   OH233069   3.843   0.895   0.887
 3837TIP3    H133070   3.789   0.936   0.955
 3837TIP3    H233071   3.831   0.801   0.900
 3838TIP3   OH233072   1.591   3.939   1.280
 3838TIP3    H133073   1.588   3.963   1.373
 3838TIP3    H233074   1.685   3.934   1.261
 3839TIP3   OH233075   5.295   6.365   1.797
 3839TIP3    H133076   5.263   6.366   1.888
 3839TIP3    H233077   5.373   6.309   1.799
 3840TIP3   OH233078   1.103   4.827   1.585
 3840TIP3    H133079   1.137   4.755   1.531
 3840TIP3    H233080   1.150   4.904   1.554
 3841TIP3   OH233081   0.606   1.915   8.715
 3841TIP3    H133082   0.550   1.952   8.783
 3841TIP3    H233083   0.571   1.949   8.633
 3842TIP3   OH233084   2.101   1.813   8.330
 3842TIP3    H133085   2.133   1.903   8.339
 3842TIP3    H233086   2.006   1.822   8.323
 3843TIP3   OH233087   1.286   1.562   8.238
 3843TIP3    H133088   1.353   1.583   8.172
 3843TIP3    H233089   1.205   1.597   8.201
 3844TIP3   OH233090   6.468   4.095   1.617
 3844TIP3    H133091   6.515   4.018   1.649
 3844TIP3    H233092   6.413   4.122   1.690
 3845TIP3   OH233093   2.930   5.204   8.084
 3845TIP3    H133094   2.963   5.178   7.998
 3845TIP3    H233095   2.940   5.300   8.085
 3846TIP3   OH233096   6.421   5.540   7.833
 3846TIP3    H133097   6.345   5.486   7.812
 3846TIP3    H233098   6.389   5.630   7.828
 3847TIP3   OH233099   3.973   6.290   2.577
 3847TIP3    H133100   3.885   6.327   2.590
 3847TIP3    H233101   3.957   6.203   2.540
 3848TIP3   OH233102   2.529   5.649   2.208
 3848TIP3    H133103   2.562   5.612   2.126
 3848TIP3    H233104   2.504   5.572   2.259
 3849TIP3   OH233105   0.389   0.689   8.235
 3849TIP3    H133106   0.474   0.673   8.277
 3849TIP3    H233107   0.392   0.637   8.155
 3850TIP3   OH233108   5.829   5.618   5.975
 3850TIP3    H133109   5.736   5.635   5.958
 3850TIP3    H233110   5.829   5.572   6.058
 3851TIP3   OH233111   1.359   3.036   2.130
 3851TIP3    H133112   1.310   2.955   2.143
 3851TIP3    H233113   1.313   3.101   2.183
 3852TIP3   OH233114   0.099   4.559   0.024
 3852TIP3    H133115   0.105   4.636   0.081
 3852TIP3    H233116   0.179   4.563   8.840
 3853TIP3   OH233117   3.714   2.339   1.194
 3853TIP3    H133118   3.679   2.399   1.128
 3853TIP3    H233119   3.809   2.353   1.191
 3854TIP3   OH233120   0.333   4.208   0.637
 3854TIP3    H133121   0.393   4.281   0.655
 3854TIP3    H233122   0.252   4.251   0.609
 3855TIP3   OH233123   1.593   5.752   8.451
 3855TIP3    H133124   1.563   5.842   8.466
 3855TIP3    H233125   1.564   5.731   8.363
 3856TIP3   OH233126   5.765   4.509   8.051
 3856TIP3    H133127   5.788   4.594   8.013
 3856TIP3    H233128   5.799   4.445   7.989
 3857TIP3   OH233129   2.211   1.949   2.484
 3857TIP3    H133130   2.258   1.973   2.564
 3857TIP3    H233131   2.269   1.977   2.413
 3858TIP3   OH233132   6.714   6.279   0.064
 3858TIP3    H133133   6.776   6.246   0.129
 3858TIP3    H233134   6.738   6.235   8.851
 3859TIP3   OH233135   6.759   2.850   7.762
 3859TIP3    H133136   6.708   2.926   7.791
 3859TIP3    H233137   6.732   2.837   7.671
 3860TIP3   OH233138   2.546   0.005   1.136
 3860TIP3    H133139   2.529   0.048   1.220
 3860TIP3    H233140   2.641   0.008   1.126
 3861TIP3   OH233141   1.628   5.428   6.547
 3861TIP3    H133142   1.637   5.488   6.620
 3861TIP3    H233143   1.708   5.440   6.495
 3862TIP3   OH233144   5.593   4.303   7.329
 3862TIP3    H133145   5.547   4.385   7.344
 3862TIP3    H233146   5.556   4.268   7.248
 3863TIP3   OH233147   4.070   6.621   8.034
 3863TIP3    H133148   3.995   6.562   8.046
 3863TIP3    H233149   4.146   6.564   8.038
 3864TIP3   OH233150   2.914   1.729   7.089
 3864TIP3    H133151   2.904   1.713   6.995
 3864TIP3    H233152   2.895   1.644   7.129
 3865TIP3   OH233153   2.506   5.894   1.938
 3865TIP3    H133154   2.489   5.960   2.006
 3865TIP3    H233155   2.601   5.883   1.938
 3866TIP3   OH233156   4.433   2.925   1.351
 3866TIP3    H133157   4.461   2.846   1.304
 3866TIP3    H233158   4.377   2.892   1.421
 3867TIP3   OH233159   1.018   4.965   0.074
 3867TIP3    H133160   1.074   5.037   0.048
 3867TIP3    H233161   0.954   4.956   0.003
 3868TIP3   OH233162   5.929   2.205   8.587
 3868TIP3    H133163   5.846   2.174   8.623
 3868TIP3    H233164   5.989   2.131   8.595
 3869TIP3   OH233165   0.505   5.250   8.748
 3869TIP3    H133166   0.436   5.316   8.743
 3869TIP3    H233167   0.474   5.179   8.693
 3870TIP3   OH233168   3.331   3.469   8.488
 3870TIP3    H133169   3.328   3.539   8.553
 3870TIP3    H233170   3.287   3.395   8.530
 3871TIP3   OH233171   0.611   3.847   0.434
 3871TIP3    H133172   0.695   3.856   0.388
 3871TIP3    H233173   0.556   3.916   0.397
 3872TIP3   OH233174   2.617   6.577   7.707
 3872TIP3    H133175   2.618   6.481   7.701
 3872TIP3    H233176   2.545   6.603   7.650
 3873TIP3   OH233177   5.238   0.682   7.715
 3873TIP3    H133178   5.298   0.686   7.641
 3873TIP3    H233179   5.261   0.758   7.769
 3874TIP3   OH233180   1.341   6.710   7.647
 3874TIP3    H133181   1.271   6.695   7.710
 3874TIP3    H233182   1.412   6.652   7.675
 3875TIP3   OH233183   0.062   6.354   2.010
 3875TIP3    H133184   6.771   6.358   1.965
 3875TIP3    H233185   0.110   6.431   1.980
 3876TIP3   OH233186   5.299   2.744   2.116
 3876TIP3    H133187   5.369   2.726   2.052
 3876TIP3    H233188   5.247   2.813   2.075
 3877TIP3   OH233189   5.973   1.164   7.338
 3877TIP3    H133190   5.879   1.182   7.336
 3877TIP3    H233191   6.004   1.187   7.251
 3878TIP3   OH233192   5.866   4.466   8.650
 3878TIP3    H133193   5.857   4.492   8.558
 3878TIP3    H233194   5.791   4.408   8.666
 3879TIP3   OH233195   4.202   3.011   1.166
 3879TIP3    H133196   4.191   3.080   1.232
 3879TIP3    H233197   4.297   3.004   1.156
 3880TIP3   OH233198   5.276   2.542   1.672
 3880TIP3    H133199   5.299   2.526   1.581
 3880TIP3    H233200   5.185   2.573   1.670
 3881TIP3   OH233201   3.650   2.820   1.118
 3881TIP3    H133202   3.621   2.880   1.049
 3881TIP3    H233203   3.570   2.775   1.145
 3882TIP3   OH233204   1.874   0.160   7.096
 3882TIP3    H133205   1.848   0.176   7.187
 3882TIP3    H233206   1.792   0.135   7.052
 3883TIP3   OH233207   2.287   0.381   1.391
 3883TIP3    H133208   2.288   0.445   1.462
 3883TIP3    H233209   2.203   0.337   1.399
 3884TIP3   OH233210   6.247   5.424   8.504
 3884TIP3    H133211   6.249   5.344   8.556
 3884TIP3    H233212   6.154   5.441   8.490
 3885TIP3   OH233213   1.957   6.028   1.572
 3885TIP3    H133214   1.884   6.076   1.533
 3885TIP3    H233215   1.932   6.017   1.664
 3886TIP3   OH233216   0.861   1.785   8.316
 3886TIP3    H133217   0.829   1.749   8.399
 3886TIP3    H233218   0.903   1.867   8.340
 3887TIP3   OH233219   4.068   4.021   0.225
 3887TIP3    H133220   4.082   4.025   0.130
 3887TIP3    H233221   4.122   4.091   0.260
 3888TIP3   OH233222   2.764   0.535   8.126
 3888TIP3    H133223   2.812   0.497   8.199
 3888TIP3    H233224   2.776   0.630   8.136
 3889TIP3   OH233225   6.050   2.057   2.067
 3889TIP3    H133226   6.113   1.993   2.035
 3889TIP3    H233227   6.089   2.142   2.046
 3890TIP3   OH233228   2.741   0.569   1.445
 3890TIP3    H133229   2.734   0.483   1.406
 3890TIP3    H233230   2.683   0.624   1.393
 3891TIP3   OH233231   0.265   4.064   2.490
 3891TIP3    H133232   0.297   4.005   2.558
 3891TIP3    H233233   0.182   4.026   2.462
 3892TIP3   OH233234   0.621   3.557   7.143
 3892TIP3    H133235   0.535   3.554   7.184
 3892TIP3    H233236   0.628   3.475   7.094
 3893TIP3   OH233237   5.946   2.469   8.551
 3893TIP3    H133238   5.950   2.470   8.455
 3893TIP3    H233239   5.928   2.378   8.573
 3894TIP3   OH233240   0.394   2.049   0.572
 3894TIP3    H133241   0.431   1.970   0.532
 3894TIP3    H233242   0.299   2.035   0.567
 3895TIP3   OH233243   0.150   5.572   1.510
 3895TIP3    H133244   0.149   5.646   1.450
 3895TIP3    H233245   0.125   5.497   1.456
 3896TIP3   OH233246   1.245   3.232   6.961
 3896TIP3    H133247   1.280   3.315   6.992
 3896TIP3    H233248   1.242   3.175   7.038
 3897TIP3   OH233249   3.946   4.824   7.911
 3897TIP3    H133250   3.985   4.764   7.847
 3897TIP3    H233251   3.865   4.854   7.870
 3898TIP3   OH233252   5.711   6.623   6.351
 3898TIP3    H133253   5.688   6.684   6.421
 3898TIP3    H233254   5.806   6.623   6.350
 3899TIP3   OH233255   3.920   5.699   0.980
 3899TIP3    H133256   4.009   5.731   0.963
 3899TIP3    H233257   3.895   5.740   1.063
 3900TIP3   OH233258   0.136   3.238   0.335
 3900TIP3    H133259   0.073   3.166   0.341
 3900TIP3    H233260   0.216   3.203   0.372
 3901TIP3   OH233261   3.847   1.989   0.715
 3901TIP3    H133262   3.878   2.030   0.635
 3901TIP3    H233263   3.926   1.962   0.761
 3902TIP3   OH233264   6.417   6.569   1.911
 3902TIP3    H133265   6.430   6.501   1.845
 3902TIP3    H233266   6.505   6.591   1.942
 3903TIP3   OH233267   3.271   5.983   1.348
 3903TIP3    H133268   3.263   6.067   1.304
 3903TIP3    H233269   3.324   6.002   1.426
 3904TIP3   OH233270   4.438   4.574   7.948
 3904TIP3    H133271   4.494   4.648   7.924
 3904TIP3    H233272   4.369   4.612   8.002
 3905TIP3   OH233273   5.874   5.974   8.375
 3905TIP3    H133274   5.779   5.978   8.375
 3905TIP3    H233275   5.899   5.988   8.467
 3906TIP3   OH233276   6.625   4.989   7.055
 3906TIP3    H133277   6.594   4.991   6.964
 3906TIP3    H233278   6.676   4.908   7.060
 3907TIP3   OH233279   5.941   6.209   8.825
 3907TIP3    H133280   5.990   6.283   8.790
 3907TIP3    H233281   5.874   6.248   0.013
 3908TIP3   OH233282   5.551   6.141   6.125
 3908TIP3    H133283   5.613   6.116   6.057
 3908TIP3    H233284   5.538   6.060   6.176
 3909TIP3   OH233285   2.775   0.261   7.169
 3909TIP3    H133286   2.779   0.182   7.223
 3909TIP3    H233287   2.701   0.310   7.203
 3910TIP3   OH233288   1.648   2.263   0.937
 3910TIP3    H133289   1.657   2.284   0.844
 3910TIP3    H233290   1.641   2.349   0.980
 3911TIP3   OH233291   6.499   0.591   7.047
 3911TIP3    H133292   6.583   0.624   7.080
 3911TIP3    H233293   6.515   0.498   7.032
 3912TIP3   OH233294   5.904   2.805   0.521
 3912TIP3    H133295   5.886   2.730   0.465
 3912TIP3    H233296   5.994   2.790   0.552
 3913TIP3   OH233297   3.499   2.513   7.287
 3913TIP3    H133298   3.498   2.500   7.382
 3913TIP3    H233299   3.411   2.489   7.259
 3914TIP3   OH233300   5.515   4.618   8.399
 3914TIP3    H133301   5.424   4.645   8.407
 3914TIP3    H233302   5.519   4.533   8.444
 3915TIP3   OH233303   2.927   6.388   1.496
 3915TIP3    H133304   2.838   6.360   1.519
 3915TIP3    H233305   2.917   6.432   1.411
 3916TIP3   OH233306   4.039   4.268   1.039
 3916TIP3    H133307   3.978   4.201   1.008
 3916TIP3    H233308   3.997   4.351   1.017
 3917TIP3   OH233309   2.909   5.317   8.482
 3917TIP3    H133310   2.936   5.406   8.505
 3917TIP3    H233311   2.872   5.324   8.394
 3918TIP3   OH233312   2.506   0.533   8.221
 3918TIP3    H133313   2.452   0.510   8.146
 3918TIP3    H233314   2.596   0.521   8.190
 3919TIP3   OH233315   5.064   0.760   8.690
 3919TIP3    H133316   4.990   0.703   8.668
 3919TIP3    H233317   5.086   0.804   8.608
 3920TIP3   OH233318   6.722   4.150   0.324
 3920TIP3    H133319   6.693   4.183   0.409
 3920TIP3    H233320   6.752   4.228   0.277
 3921TIP3   OH233321   3.380   5.195   8.675
 3921TIP3    H133322   3.316   5.249   8.722
 3921TIP3    H233323   3.327   5.140   8.618
 3922TIP3   OH233324   0.920   0.852   2.383
 3922TIP3    H133325   0.920   0.939   2.421
 3922TIP3    H233326   1.012   0.832   2.366
 3923TIP3   OH233327   2.091   0.241   6.957
 3923TIP3    H133328   2.017   0.212   7.010
 3923TIP3    H233329   2.097   0.178   6.886
 3924TIP3   OH233330   1.897   3.068   7.845
 3924TIP3    H133331   1.815   3.116   7.831
 3924TIP3    H233332   1.892   3.038   7.936
 3925TIP3   OH233333   2.642   2.058   1.040
 3925TIP3    H133334   2.677   2.147   1.048
 3925TIP3    H233335   2.684   2.010   1.112
 3926TIP3   OH233336   6.061   0.806   0.041
 3926TIP3    H133337   6.141   0.752   0.043
 3926TIP3    H233338   5.995   0.749   0.001
 3927TIP3   OH233339   0.813   5.731   8.238
 3927TIP3    H133340   0.779   5.744   8.327
 3927TIP3    H233341   0.835   5.819   8.208
 3928TIP3   OH233342   2.387   5.743   7.604
 3928TIP3    H133343   2.412   5.684   7.676
 3928TIP3    H233344   2.397   5.689   7.525
 3929TIP3   OH233345   2.999   2.417   0.695
 3929TIP3    H133346   2.981   2.448   0.606
 3929TIP3    H233347   2.913   2.417   0.737
 3930TIP3   OH233348   5.164   2.981   0.125
 3930TIP3    H133349   5.069   2.982   0.138
 3930TIP3    H233350   5.194   2.903   0.171
 3931TIP3   OH233351   3.112   0.770   2.046
 3931TIP3    H133352   3.082   0.847   1.998
 3931TIP3    H233353   3.170   0.805   2.113
 3932TIP3   OH233354   4.812   5.750   1.012
 3932TIP3    H133355   4.821   5.691   1.087
 3932TIP3    H233356   4.749   5.816   1.040
 3933TIP3   OH233357   4.596   2.538   8.512
 3933TIP3    H133358   4.518   2.490   8.540
 3933TIP3    H233359   4.563   2.621   8.480
 3934TIP3   OH233360   6.037   2.488   0.710
 3934TIP3    H133361   6.096   2.554   0.674
 3934TIP3    H233362   5.970   2.539   0.755
 3935TIP3   OH233363   5.348   6.691   0.587
 3935TIP3    H133364   5.344   6.688   0.683
 3935TIP3    H233365   5.425   6.746   0.569
 3936TIP3   OH233366   5.277   3.589   1.291
 3936TIP3    H133367   5.248   3.506   1.329
 3936TIP3    H233368   5.363   3.605   1.331
 3937TIP3   OH233369   2.456   4.375   8.034
 3937TIP3    H133370   2.437   4.420   8.116
 3937TIP3    H233371   2.394   4.302   8.031
 3938TIP3   OH233372   0.966   4.944   0.615
 3938TIP3    H133373   0.894   4.900   0.659
 3938TIP3    H233374   1.040   4.935   0.675
 3939TIP3   OH233375   1.960   1.450   7.369
 3939TIP3    H133376   1.905   1.377   7.397
 3939TIP3    H233377   1.928   1.472   7.281
 3940TIP3   OH233378   0.918   1.173   0.933
 3940TIP3    H133379   0.861   1.167   1.009
 3940TIP3    H233380   0.871   1.126   0.864
 3941TIP3   OH233381   1.675   0.978   2.179
 3941TIP3    H133382   1.728   0.904   2.210
 3941TIP3    H233383   1.592   0.968   2.225
 3942TIP3   OH233384   3.517   3.698   1.235
 3942TIP3    H133385   3.542   3.639   1.164
 3942TIP3    H233386   3.536   3.649   1.315
 3943TIP3   OH233387   1.818   5.264   8.806
 3943TIP3    H133388   1.818   5.214   8.724
 3943TIP3    H233389   1.767   5.342   8.787
 3944TIP3   OH233390   2.579   3.520   0.271
 3944TIP3    H133391   2.625   3.590   0.224
 3944TIP3    H233392   2.527   3.566   0.337
 3945TIP3   OH233393   4.095   0.580   1.455
 3945TIP3    H133394   4.150   0.643   1.409
 3945TIP3    H233395   4.035   0.547   1.388
 3946TIP3   OH233396   6.679   4.489   8.060
 3946TIP3    H133397   6.641   4.417   8.110
 3946TIP3    H233398   6.672   4.461   7.969
 3947TIP3   OH233399   3.432   0.998   0.632
 3947TIP3    H133400   3.489   1.067   0.668
 3947TIP3    H233401   3.467   0.981   0.545
 3948TIP3   OH233402   4.872   2.428   7.474
 3948TIP3    H133403   4.853   2.522   7.481
 3948TIP3    H233404   4.881   2.399   7.565
 3949TIP3   OH233405   6.322   3.805   7.019
 3949TIP3    H133406   6.260   3.784   7.088
 3949TIP3    H233407   6.273   3.858   6.957
 3950TIP3   OH233408   5.557   0.478   7.597
 3950TIP3    H133409   5.630   0.479   7.535
 3950TIP3    H233410   5.598   0.460   7.682
 3951TIP3   OH233411   3.528   3.872   0.079
 3951TIP3    H133412   3.506   3.886   0.171
 3951TIP3    H233413   3.453   3.906   0.030
 3952TIP3   OH233414   5.520   3.808   7.432
 3952TIP3    H133415   5.426   3.789   7.430
 3952TIP3    H233416   5.539   3.842   7.344
 3953TIP3   OH233417   1.873   5.002   7.029
 3953TIP3    H133418   1.874   4.979   6.936
 3953TIP3    H233419   1.881   4.918   7.074
 3954TIP3   OH233420   1.585   5.020   0.689
 3954TIP3    H133421   1.509   5.033   0.633
 3954TIP3    H233422   1.607   4.927   0.679
 3955TIP3   OH233423   0.319   2.060   6.365
 3955TIP3    H133424   0.297   2.018   6.449
 3955TIP3    H233425   0.309   1.990   6.300
 3956TIP3   OH233426   2.139   1.630   0.453
 3956TIP3    H133427   2.145   1.601   0.362
 3956TIP3    H233428   2.107   1.553   0.501
 3957TIP3   OH233429   3.323   4.552   7.064
 3957TIP3    H133430   3.349   4.642   7.041
 3957TIP3    H233431   3.400   4.499   7.042
 3958TIP3   OH233432   3.444   2.003   1.508
 3958TIP3    H133433   3.492   2.070   1.459
 3958TIP3    H233434   3.354   2.010   1.476
 3959TIP3   OH233435   1.006   4.741   0.439
 3959TIP3    H133436   0.983   4.668   0.497
 3959TIP3    H233437   0.980   4.819   0.488
 3960TIP3   OH233438   5.803   2.899   8.486
 3960TIP3    H133439   5.876   2.862   8.535
 3960TIP3    H233440   5.733   2.909   8.550
 3961TIP3   OH233441   5.261   0.690   8.174
 3961TIP3    H133442   5.245   0.743   8.252
 3961TIP3    H233443   5.175   0.657   8.150
 3962TIP3   OH233444   1.273   4.105   1.459
 3962TIP3    H133445   1.289   4.081   1.551
 3962TIP3    H233446   1.304   4.029   1.409
 3963TIP3   OH233447   0.991   4.942   7.909
 3963TIP3    H133448   0.943   4.884   7.969
 3963TIP3    H233449   1.048   4.882   7.860
 3964TIP3   OH233450   4.053   6.044   7.649
 3964TIP3    H133451   4.112   6.066   7.577
 3964TIP3    H233452   4.110   6.032   7.725
 3965TIP3   OH233453   0.430   6.610   2.429
 3965TIP3    H133454   0.501   6.593   2.366
 3965TIP3    H233455   0.474   6.651   2.504
 3966TIP3   OH233456   2.747   6.653   0.780
 3966TIP3    H133457   2.727   6.737   0.738
 3966TIP3    H233458   2.759   6.592   0.707
 3967TIP3   OH233459   1.076   3.236   8.394
 3967TIP3    H133460   1.133   3.310   8.412
 3967TIP3    H233461   1.007   3.242   8.460
 3968TIP3   OH233462   4.152   2.297   7.861
 3968TIP3    H133463   4.086   2.366   7.862
 3968TIP3    H233464   4.225   2.333   7.911
 3969TIP3   OH233465   4.066   3.567   8.113
 3969TIP3    H133466   4.132   3.634   8.132
 3969TIP3    H233467   3.982   3.611   8.128
 3970TIP3   OH233468   6.357   2.846   7.874
 3970TIP3    H133469   6.300   2.844   7.952
 3970TIP3    H233470   6.426   2.908   7.896
 3971TIP3   OH233471   2.520   4.498   0.895
 3971TIP3    H133472   2.612   4.474   0.883
 3971TIP3    H233473   2.510   4.509   0.990
 3972TIP3   OH233474   1.741   6.329   0.447
 3972TIP3    H133475   1.735   6.354   0.539
 3972TIP3    H233476   1.806   6.389   0.410
 3973TIP3   OH233477   5.199   4.009   1.096
 3973TIP3    H133478   5.151   3.933   1.128
 3973TIP3    H233479   5.223   3.987   1.006
 3974TIP3   OH233480   4.456   3.940   8.448
 3974TIP3    H133481   4.508   3.870   8.487
 3974TIP3    H233482   4.503   4.020   8.470
 3975TIP3   OH233483   2.043   6.066   7.496
 3975TIP3    H133484   2.053   5.972   7.482
 3975TIP3    H233485   2.085   6.106   7.420
 3976TIP3   OH233486   4.212   5.462   8.854
 3976TIP3    H133487   4.134   5.484   8.804
 3976TIP3    H233488   4.268   5.416   8.792
 3977TIP3   OH233489   3.701   3.423   8.308
 3977TIP3    H133490   3.665   3.391   8.225
 3977TIP3    H233491   3.648   3.380   8.375
 3978TIP3   OH233492   6.318   5.153   8.637
 3978TIP3    H133493   6.365   5.152   8.720
 3978TIP3    H233494   6.386   5.140   8.571
 3979TIP3   OH233495   0.213   6.655   0.980
 3979TIP3    H133496   0.171   6.608   0.908
 3979TIP3    H233497   0.267   6.722   0.937
 3980TIP3   OH233498   3.171   0.099   0.921
 3980TIP3    H133499   3.163   0.157   0.997
 3980TIP3    H233500   3.248   0.046   0.940
 3981TIP3   OH233501   4.702   4.384   8.045
 3981TIP3    H133502   4.659   4.455   8.093
 3981TIP3    H233503   4.651   4.306   8.068
 3982TIP3   OH233504   6.668   0.595   6.671
 3982TIP3    H133505   6.695   0.527   6.609
 3982TIP3    H233506   6.641   0.668   6.615
 3983TIP3   OH233507   6.595   4.212   8.200
 3983TIP3    H133508   6.599   4.122   8.233
 3983TIP3    H233509   6.557   4.203   8.112
 3984TIP3   OH233510   5.909   5.545   7.866
 3984TIP3    H133511   5.929   5.587   7.783
 3984TIP3    H233512   5.886   5.455   7.843
 3985TIP3   OH233513   5.723   6.575   7.714
 3985TIP3    H133514   5.812   6.610   7.705
 3985TIP3    H233515   5.703   6.585   7.807
 3986TIP3   OH233516   0.132   2.923   8.016
 3986TIP3    H133517   0.087   2.892   8.095
 3986TIP3    H233518   0.073   2.899   7.945
 3987TIP3   OH233519   4.135   4.655   7.753
 3987TIP3    H133520   4.124   4.570   7.710
 3987TIP3    H233521   4.223   4.683   7.726
 3988TIP3   OH233522   0.334   0.297   0.661
 3988TIP3    H133523   0.312   0.380   0.704
 3988TIP3    H233524   0.324   0.316   0.567
 3989TIP3   OH233525   0.686   5.194   1.139
 3989TIP3    H133526   0.757   5.175   1.201
 3989TIP3    H233527   0.727   5.186   1.053
 3990TIP3   OH233528   2.317   6.686   7.962
 3990TIP3    H133529   2.318   6.700   8.057
 3990TIP3    H233530   2.369   6.758   7.926
 3991TIP3   OH233531   5.015   3.565   7.804
 3991TIP3    H133532   5.090   3.621   7.825
 3991TIP3    H233533   4.956   3.623   7.754
 3992TIP3   OH233534   4.420   2.956   7.717
 3992TIP3    H133535   4.363   2.932   7.790
 3992TIP3    H233536   4.362   2.957   7.640
 3993TIP3   OH233537   6.247   2.704   0.729
 3993TIP3    H133538   6.316   2.639   0.712
 3993TIP3    H233539   6.295   2.781   0.759
 3994TIP3   OH233540   0.946   3.541   1.373
 3994TIP3    H133541   0.924   3.449   1.366
 3994TIP3    H233542   1.015   3.545   1.438
 3995TIP3   OH233543   3.439   5.793   1.186
 3995TIP3    H133544   3.389   5.845   1.249
 3995TIP3    H233545   3.454   5.709   1.231
 3996TIP3   OH233546   1.139   2.033   1.679
 3996TIP3    H133547   1.100   2.115   1.710
 3996TIP3    H233548   1.084   2.008   1.604
 3997TIP3   OH233549   6.626   0.936   7.254
 3997TIP3    H133550   6.626   0.868   7.186
 3997TIP3    H233551   6.680   0.898   7.324
 3998TIP3   OH233552   1.039   4.647   1.817
 3998TIP3    H133553   0.954   4.604   1.809
 3998TIP3    H233554   1.045   4.704   1.740
 3999TIP3   OH233555   2.305   6.107   8.574
 3999TIP3    H133556   2.223   6.072   8.607
 3999TIP3    H233557   2.366   6.100   8.647
 4000TIP3   OH233558   5.202   6.618   8.079
 4000TIP3    H133559   5.237   6.584   7.996
 4000TIP3    H233560   5.198   6.541   8.136
 4001TIP3   OH233561   4.761   4.802   8.280
 4001TIP3    H133562   4.845   4.756   8.275
 4001TIP3    H233563   4.695   4.733   8.273
 4002TIP3   OH233564   3.091   3.976   7.895
 4002TIP3    H133565   3.179   3.956   7.862
 4002TIP3    H233566   3.086   3.929   7.978
 4003TIP3   OH233567   0.080   4.301   0.667
 4003TIP3    H133568   0.091   4.385   0.622
 4003TIP3    H233569   6.792   4.265   0.631
 4004TIP3   OH233570   2.648   6.078   6.878
 4004TIP3    H133571   2.561   6.118   6.884
 4004TIP3    H233572   2.698   6.137   6.822
 4005TIP3   OH233573   3.611   3.751   0.599
 4005TIP3    H133574   3.579   3.807   0.529
 4005TIP3    H233575   3.677   3.696   0.558
 4006TIP3   OH233576   5.472   4.074   1.428
 4006TIP3    H133577   5.543   4.098   1.489
 4006TIP3    H233578   5.395   4.065   1.484
 4007TIP3   OH233579   5.143   2.268   2.580
 4007TIP3    H133580   5.148   2.363   2.568
 4007TIP3    H233581   5.220   2.247   2.634
 4008TIP3   OH233582   5.094   3.776   1.545
 4008TIP3    H133583   5.083   3.774   1.640
 4008TIP3    H233584   5.086   3.684   1.518
 4009TIP3   OH233585   1.120   5.671   8.238
 4009TIP3    H133586   1.153   5.725   8.166
 4009TIP3    H233587   1.089   5.734   8.303
 4010TIP3   OH233588   4.923   0.374   0.069
 4010TIP3    H133589   5.002   0.391   0.019
 4010TIP3    H233590   4.858   0.348   0.003
 4011TIP3   OH233591   3.676   5.996   0.055
 4011TIP3    H133592   3.676   6.079   0.007
 4011TIP3    H233593   3.626   6.015   0.135
 4012TIP3   OH233594   5.415   6.032   0.387
 4012TIP3    H133595   5.389   5.945   0.417
 4012TIP3    H233596   5.440   6.079   0.466
 4013TIP3   OH233597   2.333   4.089   8.001
 4013TIP3    H133598   2.317   4.093   8.095
 4013TIP3    H233599   2.321   3.997   7.979
 4014TIP3   OH233600   0.028   3.484   7.406
 4014TIP3    H133601   0.097   3.449   7.462
 4014TIP3    H233602   6.743   3.434   7.430
 4015TIP3   OH233603   4.822   5.995   8.023
 4015TIP3    H133604   4.870   6.078   8.013
 4015TIP3    H233605   4.865   5.935   7.963
 4016TIP3   OH233606   0.191   4.066   1.834
 4016TIP3    H133607   0.157   4.143   1.789
 4016TIP3    H233608   0.117   4.005   1.837
 4017TIP3   OH233609   3.983   1.122   0.399
 4017TIP3    H133610   3.999   1.040   0.353
 4017TIP3    H233611   3.943   1.179   0.334
 4018TIP3   OH233612   6.323   1.513   1.100
 4018TIP3    H133613   6.260   1.505   1.028
 4018TIP3    H233614   6.379   1.587   1.075
 4019TIP3   OH233615   5.981   1.226   1.444
 4019TIP3    H133616   6.044   1.156   1.429
 4019TIP3    H233617   6.024   1.304   1.410
 4020TIP3   OH233618   3.133   4.611   7.846
 4020TIP3    H133619   3.201   4.644   7.905
 4020TIP3    H233620   3.061   4.673   7.855
 4021TIP3   OH233621   2.573   1.348   1.401
 4021TIP3    H133622   2.598   1.356   1.493
 4021TIP3    H233623   2.479   1.328   1.403
 4022TIP3   OH233624   0.089   1.248   0.625
 4022TIP3    H133625   6.786   1.250   0.625
 4022TIP3    H233626   0.115   1.325   0.675
 4023TIP3   OH233627   2.554   6.562   0.980
 4023TIP3    H133628   2.533   6.642   1.029
 4023TIP3    H233629   2.615   6.591   0.912
 4024TIP3   OH233630   0.732   5.693   1.036
 4024TIP3    H133631   0.698   5.771   0.991
 4024TIP3    H233632   0.680   5.687   1.116
 4025TIP3   OH233633   5.632   3.296   1.685
 4025TIP3    H133634   5.669   3.369   1.634
 4025TIP3    H233635   5.548   3.278   1.643
 4026TIP3   OH233636   2.423   3.227   7.983
 4026TIP3    H133637   2.359   3.298   7.992
 4026TIP3    H233638   2.443   3.224   7.890
 4027TIP3   OH233639   5.625   4.130   0.381
 4027TIP3    H133640   5.672   4.122   0.464
 4027TIP3    H233641   5.603   4.040   0.358
 4028TIP3   OH233642   3.445   4.826   0.090
 4028TIP3    H133643   3.388   4.749   0.097
 4028TIP3    H233644   3.432   4.858   0.001
 4029TIP3   OH233645   1.942   2.073   7.626
 4029TIP3    H133646   2.010   2.045   7.565
 4029TIP3    H233647   1.903   1.992   7.657
 4030TIP3   OH233648   5.889   4.051   1.204
 4030TIP3    H133649   5.945   4.116   1.162
 4030TIP3    H233650   5.948   3.998   1.257
 4031TIP3   OH233651   2.029   6.645   7.144
 4031TIP3    H133652   2.013   6.578   7.209
 4031TIP3    H233653   1.950   6.698   7.143
 4032TIP3   OH233654   0.558   6.629   6.468
 4032TIP3    H133655   0.495   6.585   6.525
 4032TIP3    H233656   0.594   6.559   6.413
 4033TIP3   OH233657   5.177   4.912   6.761
 4033TIP3    H133658   5.209   4.841   6.817
 4033TIP3    H233659   5.247   4.977   6.763
 4034TIP3   OH233660   1.873   1.057   7.639
 4034TIP3    H133661   1.915   0.977   7.606
 4034TIP3    H233662   1.828   1.030   7.719
 4035TIP3   OH233663   0.976   2.103   7.216
 4035TIP3    H133664   0.903   2.081   7.159
 4035TIP3    H233665   1.049   2.120   7.156
 4036TIP3   OH233666   6.568   3.335   8.013
 4036TIP3    H133667   6.499   3.385   7.971
 4036TIP3    H233668   6.532   3.313   8.099
 4037TIP3   OH233669   3.311   1.303   1.386
 4037TIP3    H133670   3.277   1.386   1.421
 4037TIP3    H233671   3.264   1.291   1.303
 4038TIP3   OH233672   0.963   3.014   2.076
 4038TIP3    H133673   0.935   3.086   2.020
 4038TIP3    H233674   1.050   3.038   2.106
 4039TIP3   OH233675   3.189   6.324   7.057
 4039TIP3    H133676   3.103   6.332   7.014
 4039TIP3    H233677   3.177   6.254   7.121
 4040TIP3   OH233678   2.786   6.396   8.529
 4040TIP3    H133679   2.742   6.343   8.463
 4040TIP3    H233680   2.796   6.337   8.604
 4041TIP3   OH233681   0.777   1.676   2.510
 4041TIP3    H133682   0.795   1.662   2.603
 4041TIP3    H233683   0.771   1.771   2.501
 4042TIP3   OH233684   4.279   6.404   7.945
 4042TIP3    H133685   4.222   6.364   7.878
 4042TIP3    H233686   4.311   6.329   7.996
 4043TIP3   OH233687   2.248   1.472   0.825
 4043TIP3    H133688   2.253   1.567   0.814
 4043TIP3    H233689   2.224   1.460   0.917
 4044TIP3   OH233690   3.352   4.836   2.296
 4044TIP3    H133691   3.326   4.893   2.368
 4044TIP3    H233692   3.417   4.887   2.247
 4045TIP3   OH233693   5.110   4.028   8.272
 4045TIP3    H133694   5.019   4.022   8.244
 4045TIP3    H233695   5.144   3.939   8.266
 4046TIP3   OH233696   5.013   1.338   2.505
 4046TIP3    H133697   5.068   1.414   2.527
 4046TIP3    H233698   5.060   1.295   2.434
 4047TIP3   OH233699   1.760   6.476   0.694
 4047TIP3    H133700   1.726   6.462   0.782
 4047TIP3    H233701   1.841   6.424   0.691
 4048TIP3   OH233702   2.241   3.131   0.618
 4048TIP3    H133703   2.330   3.100   0.634
 4048TIP3    H233704   2.215   3.173   0.700
 4049TIP3   OH233705   5.337   1.374   8.373
 4049TIP3    H133706   5.241   1.381   8.371
 4049TIP3    H233707   5.366   1.457   8.412
 4050TIP3   OH233708   1.892   6.727   0.610
 4050TIP3    H133709   1.833   6.652   0.614
 4050TIP3    H233710   1.955   6.712   0.680
 4051TIP3   OH233711   6.065   4.567   1.206
 4051TIP3    H133712   6.015   4.486   1.210
 4051TIP3    H233713   6.019   4.627   1.265
 4052TIP3   OH233714   5.698   5.037   0.252
 4052TIP3    H133715   5.615   5.080   0.273
 4052TIP3    H233716   5.698   4.957   0.304
 4053TIP3   OH233717   1.281   1.233   7.438
 4053TIP3    H133718   1.309   1.237   7.530
 4053TIP3    H233719   1.294   1.142   7.413
 4054TIP3   OH233720   2.646   4.851   0.909
 4054TIP3    H133721   2.724   4.796   0.919
 4054TIP3    H233722   2.674   4.922   0.850
 4055TIP3   OH233723   2.982   5.517   7.750
 4055TIP3    H133724   3.071   5.550   7.757
 4055TIP3    H233725   2.941   5.572   7.683
 4056TIP3   OH233726   2.731   1.934   1.278
 4056TIP3    H133727   2.687   1.938   1.363
 4056TIP3    H233728   2.780   1.852   1.281
 4057TIP3   OH233729   5.095   0.292   6.705
 4057TIP3    H133730   5.142   0.345   6.768
 4057TIP3    H233731   5.129   0.319   6.620
 4058TIP3   OH233732   4.837   4.997   7.409
 4058TIP3    H133733   4.866   5.032   7.325
 4058TIP3    H233734   4.873   4.908   7.411
 4059TIP3   OH233735   4.809   2.595   7.168
 4059TIP3    H133736   4.868   2.655   7.215
 4059TIP3    H233737   4.741   2.652   7.133
 4060TIP3   OH233738   6.622   4.357   6.281
 4060TIP3    H133739   6.593   4.416   6.350
 4060TIP3    H233740   6.617   4.409   6.201
 4061TIP3   OH233741   5.282   1.678   2.164
 4061TIP3    H133742   5.348   1.655   2.099
 4061TIP3    H233743   5.283   1.606   2.226
 4062TIP3   OH233744   1.362   6.296   0.587
 4062TIP3    H133745   1.408   6.245   0.654
 4062TIP3    H233746   1.361   6.385   0.621
 4063TIP3   OH233747   4.963   3.803   7.225
 4063TIP3    H133748   5.011   3.862   7.284
 4063TIP3    H233749   4.906   3.862   7.176
 4064TIP3   OH233750   4.116   5.318   2.453
 4064TIP3    H133751   4.177   5.252   2.421
 4064TIP3    H233752   4.171   5.380   2.502
 4065TIP3   OH233753   4.251   4.360   7.921
 4065TIP3    H133754   4.252   4.360   7.825
 4065TIP3    H233755   4.305   4.434   7.946
 4066TIP3   OH233756   0.654   4.922   7.483
 4066TIP3    H133757   0.728   4.889   7.432
 4066TIP3    H233758   0.621   4.997   7.432
 4067TIP3   OH233759   5.288   6.090   7.106
 4067TIP3    H133760   5.295   6.151   7.032
 4067TIP3    H233761   5.290   6.003   7.066
 4068TIP3   OH233762   1.566   2.529   0.988
 4068TIP3    H133763   1.635   2.539   1.054
 4068TIP3    H233764   1.518   2.612   0.991
 4069TIP3   OH233765   0.601   3.306   8.387
 4069TIP3    H133766   0.676   3.294   8.446
 4069TIP3    H233767   0.563   3.390   8.414
 4070TIP3   OH233768   3.276   6.032   8.262
 4070TIP3    H133769   3.188   6.068   8.250
 4070TIP3    H233770   3.284   5.963   8.196
 4071TIP3   OH233771   5.515   1.926   7.992
 4071TIP3    H133772   5.547   1.971   7.913
 4071TIP3    H233773   5.429   1.964   8.007
 4072TIP3   OH233774   4.427   0.556   8.463
 4072TIP3    H133775   4.358   0.619   8.440
 4072TIP3    H233776   4.498   0.610   8.497
 4073TIP3   OH233777   1.176   6.597   2.456
 4073TIP3    H133778   1.110   6.637   2.513
 4073TIP3    H233779   1.223   6.671   2.417
 4074TIP3   OH233780   4.021   4.243   6.735
 4074TIP3    H133781   4.099   4.187   6.738
 4074TIP3    H233782   4.047   4.317   6.681
 4075TIP3   OH233783   2.318   5.570   8.585
 4075TIP3    H133784   2.360   5.520   8.516
 4075TIP3    H233785   2.376   5.561   8.660
 4076TIP3   OH233786   5.298   1.169   6.970
 4076TIP3    H133787   5.380   1.150   7.014
 4076TIP3    H233788   5.273   1.086   6.929
 4077TIP3   OH233789   4.003   5.410   0.937
 4077TIP3    H133790   3.967   5.496   0.958
 4077TIP3    H233791   4.079   5.400   0.994
 4078TIP3   OH233792   4.853   4.873   0.061
 4078TIP3    H133793   4.854   4.855   8.835
 4078TIP3    H233794   4.945   4.870   0.087
 4079TIP3   OH233795   3.879   2.025   0.130
 4079TIP3    H133796   3.925   2.105   0.156
 4079TIP3    H233797   3.820   2.053   0.061
 4080TIP3   OH233798   5.871   2.192   7.995
 4080TIP3    H133799   5.788   2.216   7.953
 4080TIP3    H233800   5.938   2.234   7.942
 4081TIP3   OH233801   1.306   6.349   7.509
 4081TIP3    H133802   1.331   6.364   7.418
 4081TIP3    H233803   1.261   6.264   7.507
 4082TIP3   OH233804   4.897   3.483   1.858
 4082TIP3    H133805   4.927   3.524   1.776
 4082TIP3    H233806   4.949   3.527   1.926
 4083TIP3   OH233807   4.009   6.655   0.336
 4083TIP3    H133808   3.948   6.634   0.406
 4083TIP3    H233809   4.068   6.579   0.332
 4084TIP3   OH233810   3.936   3.401   0.348
 4084TIP3    H133811   3.860   3.445   0.387
 4084TIP3    H233812   3.953   3.450   0.267
 4085TIP3   OH233813   4.652   1.074   7.834
 4085TIP3    H133814   4.659   0.991   7.881
 4085TIP3    H233815   4.656   1.050   7.741
 4086TIP3   OH233816   3.590   6.709   8.694
 4086TIP3    H133817   3.620   0.004   8.668
 4086TIP3    H233818   3.502   6.703   8.658
 4087TIP3   OH233819   6.551   3.146   6.941
 4087TIP3    H133820   6.644   3.152   6.964
 4087TIP3    H233821   6.551   3.136   6.846
 4088TIP3   OH233822   1.202   5.056   1.172
 4088TIP3    H133823   1.260   5.065   1.096
 4088TIP3    H233824   1.204   5.142   1.214
 4089TIP3   OH233825   6.459   3.581   8.370
 4089TIP3    H133826   6.373   3.614   8.395
 4089TIP3    H233827   6.521   3.645   8.404
 4090TIP3   OH233828   3.469   3.565   1.487
 4090TIP3    H133829   3.462   3.646   1.537
 4090TIP3    H233830   3.387   3.519   1.503
 4091TIP3   OH233831   3.223   3.604   0.060
 4091TIP3    H133832   3.136   3.639   0.040
 4091TIP3    H233833   3.269   3.677   0.102
 4092TIP3   OH233834   2.355   2.391   8.524
 4092TIP3    H133835   2.364   2.301   8.492
 4092TIP3    H233836   2.333   2.382   8.617
 4093TIP3   OH233837   1.658   2.707   8.468
 4093TIP3    H133838   1.712   2.723   8.391
 4093TIP3    H233839   1.614   2.624   8.450
 4094TIP3   OH233840   3.687   3.358   1.559
 4094TIP3    H133841   3.627   3.327   1.628
 4094TIP3    H233842   3.752   3.288   1.551
 4095TIP3   OH233843   3.146   4.341   8.633
 4095TIP3    H133844   3.128   4.313   8.543
 4095TIP3    H233845   3.221   4.289   8.660
 4096TIP3   OH233846   4.842   4.964   0.771
 4096TIP3    H133847   4.802   5.016   0.841
 4096TIP3    H233848   4.802   4.997   0.691
 4097TIP3   OH233849   4.234   6.346   1.451
 4097TIP3    H133850   4.243   6.437   1.426
 4097TIP3    H233851   4.219   6.299   1.369
 4098TIP3   OH233852   3.025   3.418   8.738
 4098TIP3    H133853   3.110   3.405   8.780
 4098TIP3    H233854   3.031   3.370   8.656
 4099TIP3   OH233855   6.200   6.034   0.935
 4099TIP3    H133856   6.134   6.018   1.002
 4099TIP3    H233857   6.169   6.112   0.888
 4100TIP3   OH233858   3.524   2.440   0.416
 4100TIP3    H133859   3.480   2.416   0.498
 4100TIP3    H233860   3.616   2.417   0.431
 4101TIP3   OH233861   2.807   1.269   6.999
 4101TIP3    H133862   2.794   1.267   6.904
 4101TIP3    H233863   2.761   1.192   7.031
 4102TIP3   OH233864   6.062   3.742   1.015
 4102TIP3    H133865   5.969   3.752   1.034
 4102TIP3    H233866   6.094   3.832   1.005
 4103TIP3   OH233867   3.518   6.121   7.794
 4103TIP3    H133868   3.609   6.111   7.767
 4103TIP3    H233869   3.509   6.065   7.871
 4104TIP3   OH233870   6.568   5.748   8.594
 4104TIP3    H133871   6.559   5.676   8.531
 4104TIP3    H233872   6.637   5.719   8.654
 4105TIP3   OH233873   4.228   2.418   8.755
 4105TIP3    H133874   4.139   2.455   8.750
 4105TIP3    H233875   4.251   2.424   8.848
 4106TIP3   OH233876   5.144   5.923   7.518
 4106TIP3    H133877   5.079   5.874   7.468
 4106TIP3    H233878   5.156   6.004   7.469
 4107TIP3   OH233879   6.221   2.259   1.319
 4107TIP3    H133880   6.205   2.209   1.239
 4107TIP3    H233881   6.311   2.290   1.311
 4108TIP3   OH233882   3.088   0.093   7.084
 4108TIP3    H133883   3.145   0.147   7.139
 4108TIP3    H233884   3.147   0.049   7.023
 4109TIP3   OH233885   5.336   3.206   1.650
 4109TIP3    H133886   5.267   3.167   1.596
 4109TIP3    H233887   5.389   3.132   1.678
 4110TIP3   OH233888   0.517   5.389   1.301
 4110TIP3    H133889   0.429   5.395   1.264
 4110TIP3    H233890   0.567   5.339   1.237
 4111TIP3   OH233891   3.616   4.356   0.596
 4111TIP3    H133892   3.548   4.349   0.530
 4111TIP3    H233893   3.640   4.266   0.617
 4112TIP3   OH233894   6.464   0.762   2.452
 4112TIP3    H133895   6.375   0.759   2.487
 4112TIP3    H233896   6.471   0.847   2.409
 4113TIP3   OH233897   6.459   0.627   7.332
 4113TIP3    H133898   6.507   0.558   7.285
 4113TIP3    H233899   6.421   0.681   7.264
 4114TIP3   OH233900   6.485   4.195   7.938
 4114TIP3    H133901   6.416   4.260   7.953
 4114TIP3    H233902   6.442   4.126   7.888
 4115TIP3   OH233903   1.271   2.034   1.225
 4115TIP3    H133904   1.296   2.007   1.314
 4115TIP3    H233905   1.347   2.083   1.193
 4116TIP3   OH233906   6.595   4.010   1.024
 4116TIP3    H133907   6.628   3.982   1.109
 4116TIP3    H233908   6.664   4.066   0.989
 4117TIP3   OH233909   2.137   0.394   8.554
 4117TIP3    H133910   2.103   0.483   8.541
 4117TIP3    H233911   2.205   0.385   8.487
 4118TIP3   OH233912   5.836   3.787   7.319
 4118TIP3    H133913   5.758   3.841   7.330
 4118TIP3    H233914   5.909   3.846   7.339
 4119TIP3   OH233915   3.225   3.612   8.250
 4119TIP3    H133916   3.260   3.573   8.330
 4119TIP3    H233917   3.156   3.553   8.222
 4120TIP3   OH233918   2.530   5.776   7.372
 4120TIP3    H133919   2.592   5.717   7.414
 4120TIP3    H233920   2.566   5.790   7.284
 4121TIP3   OH233921   2.891   6.005   7.037
 4121TIP3    H133922   2.806   6.036   7.005
 4121TIP3    H233923   2.930   5.960   6.962
 4122TIP3   OH233924   4.716   4.276   7.224
 4122TIP3    H133925   4.684   4.339   7.160
 4122TIP3    H233926   4.677   4.304   7.307
 4123TIP3   OH233927   3.541   4.255   2.397
 4123TIP3    H133928   3.569   4.247   2.488
 4123TIP3    H233929   3.622   4.251   2.346
 4124TIP3   OH233930   2.287   4.518   0.632
 4124TIP3    H133931   2.363   4.513   0.690
 4124TIP3    H233932   2.277   4.612   0.614
 4125TIP3   OH233933   5.533   1.690   8.844
 4125TIP3    H133934   5.455   1.746   8.851
 4125TIP3    H233935   5.606   1.751   8.851
 4126TIP3   OH233936   3.367   3.585   0.964
 4126TIP3    H133937   3.355   3.567   0.871
 4126TIP3    H233938   3.457   3.559   0.983
 4127TIP3   OH233939   0.909   1.784   2.136
 4127TIP3    H133940   0.863   1.771   2.053
 4127TIP3    H233941   0.980   1.844   2.115
 4128TIP3   OH233942   2.127   1.243   1.526
 4128TIP3    H133943   2.059   1.251   1.459
 4128TIP3    H233944   2.082   1.265   1.608
 4129TIP3   OH233945   1.410   2.587   2.019
 4129TIP3    H133946   1.420   2.500   2.058
 4129TIP3    H233947   1.375   2.570   1.931
 4130TIP3   OH233948   1.614   3.966   0.158
 4130TIP3    H133949   1.678   4.003   0.098
 4130TIP3    H233950   1.539   4.025   0.153
 4131TIP3   OH233951   2.050   3.104   0.429
 4131TIP3    H133952   2.091   3.047   0.363
 4131TIP3    H233953   2.118   3.118   0.494
 4132TIP3   OH233954   5.151   5.149   8.406
 4132TIP3    H133955   5.171   5.128   8.315
 4132TIP3    H233956   5.225   5.113   8.455
 4133TIP3   OH233957   0.164   1.587   1.848
 4133TIP3    H133958   0.160   1.675   1.884
 4133TIP3    H233959   0.116   1.533   1.910
 4134TIP3   OH233960   2.115   4.922   0.312
 4134TIP3    H133961   2.028   4.937   0.347
 4134TIP3    H233962   2.106   4.846   0.256
 4135TIP3   OH233963   4.087   1.566   8.645
 4135TIP3    H133964   4.085   1.563   8.740
 4135TIP3    H233965   4.172   1.606   8.624
 4136TIP3   OH233966   3.076   0.862   8.097
 4136TIP3    H133967   3.028   0.823   8.170
 4136TIP3    H233968   3.010   0.879   8.031
 4137TIP3   OH233969   0.067   0.168   8.059
 4137TIP3    H133970   0.093   0.135   7.973
 4137TIP3    H233971   0.148   0.172   8.109
 4138TIP3   OH233972   4.266   6.515   0.364
 4138TIP3    H133973   4.277   6.420   0.364
 4138TIP3    H233974   4.355   6.550   0.366
 4139TIP3   OH233975   2.707   5.067   1.964
 4139TIP3    H133976   2.731   4.975   1.957
 4139TIP3    H233977   2.789   5.112   1.984
 4140TIP3   OH233978   2.221   4.919   6.944
 4140TIP3    H133979   2.309   4.903   6.911
 4140TIP3    H233980   2.168   4.930   6.866
 4141TIP3   OH233981   0.012   3.888   0.752
 4141TIP3    H133982   6.778   3.970   0.793
 4141TIP3    H233983   0.104   3.901   0.730
 4142TIP3   OH233984   3.097   4.411   2.053
 4142TIP3    H133985   3.142   4.494   2.067
 4142TIP3    H233986   3.111   4.362   2.135
 4143TIP3   OH233987   2.209   2.660   0.466
 4143TIP3    H133988   2.220   2.747   0.428
 4143TIP3    H233989   2.125   2.665   0.512
 4144TIP3   OH233990   3.156   2.189   0.755
 4144TIP3    H133991   3.072   2.144   0.756
 4144TIP3    H233992   3.134   2.282   0.756
 4145TIP3   OH233993   1.512   1.924   8.487
 4145TIP3    H133994   1.437   1.978   8.514
 4145TIP3    H233995   1.588   1.971   8.520
 4146TIP3   OH233996   1.465   4.526   1.135
 4146TIP3    H133997   1.503   4.527   1.223
 4146TIP3    H233998   1.536   4.553   1.077
 4147TIP3   OH233999   2.319   5.417   7.442
 4147TIP3    H134000   2.296   5.464   7.362
 4147TIP3    H234001   2.236   5.404   7.487
 4148TIP3   OH234002   2.344   6.352   1.222
 4148TIP3    H134003   2.350   6.438   1.264
 4148TIP3    H234004   2.283   6.303   1.277
 4149TIP3   OH234005   1.066   3.958   1.209
 4149TIP3    H134006   1.050   3.881   1.154
 4149TIP3    H234007   1.147   3.937   1.256
 4150TIP3   OH234008   0.934   6.009   6.751
 4150TIP3    H134009   0.946   5.984   6.660
 4150TIP3    H234010   0.846   6.047   6.755
 4151TIP3   OH234011   2.185   3.297   1.700
 4151TIP3    H134012   2.148   3.382   1.676
 4151TIP3    H234013   2.109   3.239   1.709
 4152TIP3   OH234014   3.625   4.340   8.206
 4152TIP3    H134015   3.688   4.270   8.226
 4152TIP3    H234016   3.561   4.299   8.149
 4153TIP3   OH234017   0.105   5.302   1.399
 4153TIP3    H134018   0.176   5.331   1.342
 4153TIP3    H234019   0.148   5.280   1.482
 4154TIP3   OH234020   3.167   4.786   7.335
 4154TIP3    H134021   3.107   4.732   7.283
 4154TIP3    H234022   3.157   4.754   7.425
 4155TIP3   OH234023   1.267   3.539   7.832
 4155TIP3    H134024   1.322   3.527   7.910
 4155TIP3    H234025   1.257   3.634   7.825
 4156TIP3   OH234026   3.648   3.939   6.941
 4156TIP3    H134027   3.704   3.904   6.872
 4156TIP3    H234028   3.565   3.893   6.930
 4157TIP3   OH234029   0.496   4.891   8.332
 4157TIP3    H134030   0.588   4.873   8.313
 4157TIP3    H234031   0.451   4.875   8.249
 4158TIP3   OH234032   5.457   3.559   1.664
 4158TIP3    H134033   5.433   3.598   1.748
 4158TIP3    H234034   5.489   3.632   1.611
 4159TIP3   OH234035   0.712   3.024   7.393
 4159TIP3    H134036   0.688   2.944   7.439
 4159TIP3    H234037   0.807   3.029   7.402
 4160TIP3   OH234038   6.669   6.326   7.825
 4160TIP3    H134039   6.719   6.358   7.900
 4160TIP3    H234040   6.659   6.232   7.841
 4161TIP3   OH234041   5.775   4.105   0.613
 4161TIP3    H134042   5.835   4.141   0.547
 4161TIP3    H234043   5.823   4.112   0.695
 4162TIP3   OH234044   3.526   6.053   1.470
 4162TIP3    H134045   3.598   6.003   1.432
 4162TIP3    H234046   3.547   6.145   1.451
 4163TIP3   OH234047   1.016   0.658   6.782
 4163TIP3    H134048   1.101   0.681   6.744
 4163TIP3    H234049   0.961   0.734   6.765
 4164TIP3   OH234050   0.995   1.604   0.680
 4164TIP3    H134051   0.912   1.570   0.713
 4164TIP3    H234052   0.977   1.625   0.588
 4165TIP3   OH234053   6.533   5.444   1.819
 4165TIP3    H134054   6.542   5.537   1.843
 4165TIP3    H234055   6.602   5.429   1.755
 4166TIP3   OH234056   0.722   1.402   6.009
 4166TIP3    H134057   0.671   1.389   6.089
 4166TIP3    H234058   0.718   1.318   5.964
 4167TIP3   OH234059   6.341   4.817   0.261
 4167TIP3    H134060   6.351   4.737   0.208
 4167TIP3    H234061   6.249   4.842   0.250
 4168TIP3   OH234062   5.200   1.909   2.755
 4168TIP3    H134063   5.119   1.947   2.787
 4168TIP3    H234064   5.253   1.984   2.728
 4169TIP3   OH234065   3.310   1.369   0.524
 4169TIP3    H134066   3.380   1.362   0.590
 4169TIP3    H234067   3.237   1.408   0.572
 4170TIP3   OH234068   1.151   0.455   0.602
 4170TIP3    H134069   1.246   0.461   0.617
 4170TIP3    H234070   1.143   0.431   0.510
 4171TIP3   OH234071   5.442   3.812   1.079
 4171TIP3    H134072   5.452   3.904   1.104
 4171TIP3    H234073   5.367   3.810   1.021
 4172TIP3   OH234074   4.961   4.716   8.039
 4172TIP3    H134075   4.991   4.764   8.116
 4172TIP3    H234076   5.042   4.690   7.994
 4173TIP3   OH234077   2.159   1.850   0.946
 4173TIP3    H134078   2.240   1.846   0.894
 4173TIP3    H234079   2.176   1.916   1.012
 4174TIP3   OH234080   5.228   4.484   1.135
 4174TIP3    H134081   5.185   4.399   1.143
 4174TIP3    H234082   5.314   4.470   1.174
 4175TIP3   OH234083   1.503   0.641   7.667
 4175TIP3    H134084   1.546   0.563   7.701
 4175TIP3    H234085   1.562   0.674   7.600
 4176TIP3   OH234086   4.233   0.256   6.886
 4176TIP3    H134087   4.168   0.215   6.828
 4176TIP3    H234088   4.253   0.188   6.951
 4177TIP3   OH234089   0.830   1.083   0.399
 4177TIP3    H134090   0.791   1.169   0.383
 4177TIP3    H234091   0.756   1.028   0.423
 4178TIP3   OH234092   2.426   1.359   0.642
 4178TIP3    H134093   2.513   1.396   0.661
 4178TIP3    H234094   2.370   1.393   0.711
 4179TIP3   OH234095   2.303   6.758   2.248
 4179TIP3    H134096   2.262   6.675   2.271
 4179TIP3    H234097   2.388   6.756   2.291
 4180TIP3   OH234098   0.842   5.961   7.637
 4180TIP3    H134099   0.776   6.024   7.609
 4180TIP3    H234100   0.905   5.958   7.565
 4181TIP3   OH234101   5.499   0.612   0.359
 4181TIP3    H134102   5.527   0.608   0.267
 4181TIP3    H234103   5.405   0.594   0.356
 4182TIP3   OH234104   2.096   6.281   0.412
 4182TIP3    H134105   2.043   6.338   0.358
 4182TIP3    H234106   2.181   6.277   0.367
 4183TIP3   OH234107   1.682   0.042   1.742
 4183TIP3    H134108   1.689   0.084   1.828
 4183TIP3    H234109   1.621   0.098   1.693
 4184TIP3   OH234110   2.875   2.538   2.330
 4184TIP3    H134111   2.901   2.446   2.336
 4184TIP3    H234112   2.788   2.540   2.371
 4185TIP3   OH234113   4.988   3.752   0.824
 4185TIP3    H134114   4.954   3.830   0.868
 4185TIP3    H234115   4.967   3.680   0.883
 4186TIP3   OH234116   3.736   6.783   7.086
 4186TIP3    H134117   3.724   6.719   7.017
 4186TIP3    H234118   3.648   0.010   7.116
 4187TIP3   OH234119   6.019   5.668   7.652
 4187TIP3    H134120   6.072   5.747   7.667
 4187TIP3    H234121   6.074   5.613   7.596
 4188TIP3   OH234122   5.383   1.136   0.901
 4188TIP3    H134123   5.434   1.216   0.916
 4188TIP3    H234124   5.292   1.163   0.918
 4189TIP3   OH234125   5.075   0.515   1.487
 4189TIP3    H134126   5.047   0.594   1.533
 4189TIP3    H234127   4.995   0.463   1.478
 4190TIP3   OH234128   2.665   4.760   0.104
 4190TIP3    H134129   2.721   4.808   0.165
 4190TIP3    H234130   2.717   4.753   0.024
 4191TIP3   OH234131   2.865   0.780   8.258
 4191TIP3    H134132   2.900   0.788   8.346
 4191TIP3    H234133   2.775   0.810   8.265
 4192TIP3   OH234134   1.905   3.382   0.670
 4192TIP3    H134135   1.934   3.291   0.671
 4192TIP3    H234136   1.881   3.399   0.579
 4193TIP3   OH234137   1.284   6.690   1.385
 4193TIP3    H134138   1.218   6.695   1.316
 4193TIP3    H234139   1.266   6.608   1.430
 4194TIP3   OH234140   1.099   2.460   1.651
 4194TIP3    H134141   1.140   2.401   1.715
 4194TIP3    H234142   1.123   2.423   1.566
 4195TIP3   OH234143   6.032   5.093   8.577
 4195TIP3    H134144   6.090   5.150   8.626
 4195TIP3    H234145   6.090   5.027   8.538
 4196TIP3   OH234146   2.354   6.753   1.923
 4196TIP3    H134147   2.419   0.014   1.968
 4196TIP3    H234148   2.339   0.006   1.840
 4197TIP3   OH234149   6.297   2.463   7.185
 4197TIP3    H134150   6.206   2.473   7.213
 4197TIP3    H234151   6.346   2.523   7.241
 4198TIP3   OH234152   3.110   5.871   1.751
 4198TIP3    H134153   3.019   5.901   1.742
 4198TIP3    H234154   3.149   5.930   1.815
 4199TIP3   OH234155   6.369   4.529   1.687
 4199TIP3    H134156   6.438   4.540   1.752
 4199TIP3    H234157   6.363   4.615   1.646
 4200TIP3   OH234158   1.578   3.035   0.558
 4200TIP3    H134159   1.633   3.048   0.480
 4200TIP3    H234160   1.531   2.954   0.541
 4201TIP3   OH234161   3.379   3.292   7.467
 4201TIP3    H134162   3.392   3.205   7.504
 4201TIP3    H234163   3.439   3.348   7.517
 4202TIP3   OH234164   2.946   5.752   7.946
 4202TIP3    H134165   2.900   5.741   8.029
 4202TIP3    H234166   2.889   5.808   7.894
 4203TIP3   OH234167   4.137   3.963   1.038
 4203TIP3    H134168   4.151   4.008   1.122
 4203TIP3    H234169   4.134   3.870   1.060
 4204TIP3   OH234170   3.049   1.529   8.595
 4204TIP3    H134171   3.005   1.471   8.533
 4204TIP3    H234172   3.139   1.533   8.565
 4205TIP3   OH234173   1.617   3.093   8.178
 4205TIP3    H134174   1.532   3.092   8.221
 4205TIP3    H234175   1.610   3.160   8.110
 4206TIP3   OH234176   4.514   0.822   1.530
 4206TIP3    H134177   4.536   0.735   1.497
 4206TIP3    H234178   4.503   0.810   1.624
 4207TIP3   OH234179   4.401   1.380   8.761
 4207TIP3    H134180   4.314   1.408   8.791
 4207TIP3    H234181   4.384   1.330   8.682
 4208TIP3   OH234182   6.148   2.851   2.343
 4208TIP3    H134183   6.084   2.922   2.341
 4208TIP3    H234184   6.212   2.875   2.276
 4209TIP3   OH234185   5.527   5.197   1.440
 4209TIP3    H134186   5.530   5.144   1.361
 4209TIP3    H234187   5.615   5.232   1.449
 4210TIP3   OH234188   0.319   1.513   0.684
 4210TIP3    H134189   0.399   1.475   0.722
 4210TIP3    H234190   0.255   1.509   0.755
 4211TIP3   OH234191   5.841   2.505   1.820
 4211TIP3    H134192   5.936   2.515   1.811
 4211TIP3    H234193   5.827   2.496   1.914
 4212TIP3   OH234194   3.419   2.545   8.282
 4212TIP3    H134195   3.398   2.566   8.373
 4212TIP3    H234196   3.491   2.603   8.260
 4213TIP3   OH234197   1.576   2.279   8.055
 4213TIP3    H134198   1.571   2.184   8.044
 4213TIP3    H234199   1.489   2.311   8.032
 4214TIP3   OH234200   4.533   2.558   7.671
 4214TIP3    H134201   4.484   2.521   7.744
 4214TIP3    H234202   4.553   2.482   7.615
 4215TIP3   OH234203   2.923   6.490   0.218
 4215TIP3    H134204   2.953   6.431   0.287
 4215TIP3    H234205   2.962   6.456   0.138
 4216TIP3   OH234206   6.261   1.119   0.863
 4216TIP3    H134207   6.228   1.144   0.949
 4216TIP3    H234208   6.320   1.191   0.838
 4217TIP3   OH234209   4.118   1.415   0.932
 4217TIP3    H134210   4.101   1.439   0.841
 4217TIP3    H234211   4.081   1.487   0.983
 4218TIP3   OH234212   1.069   0.353   0.037
 4218TIP3    H134213   1.119   0.287   0.085
 4218TIP3    H234214   0.978   0.333   0.055
 4219TIP3   OH234215   2.159   2.913   1.472
 4219TIP3    H134216   2.076   2.866   1.462
 4219TIP3    H234217   2.142   3.000   1.436
 4220TIP3   OH234218   3.205   5.821   0.887
 4220TIP3    H134219   3.186   5.839   0.795
 4220TIP3    H234220   3.286   5.769   0.885
 4221TIP3   OH234221   6.715   3.107   0.560
 4221TIP3    H134222   6.689   3.189   0.519
 4221TIP3    H234223   6.671   3.106   0.645
 4222TIP3   OH234224   6.125   0.844   6.956
 4222TIP3    H134225   6.108   0.802   6.872
 4222TIP3    H234226   6.075   0.926   6.952
 4223TIP3   OH234227   2.708   1.246   0.659
 4223TIP3    H134228   2.773   1.185   0.695
 4223TIP3    H234229   2.746   1.333   0.676
 4224TIP3   OH234230   0.598   0.911   8.408
 4224TIP3    H134231   0.559   0.829   8.440
 4224TIP3    H234232   0.609   0.964   8.487
 4225TIP3   OH234233   4.031   3.804   0.749
 4225TIP3    H134234   4.125   3.787   0.748
 4225TIP3    H234235   4.023   3.892   0.786
 4226TIP3   OH234236   2.562   3.639   1.843
 4226TIP3    H134237   2.633   3.646   1.779
 4226TIP3    H234238   2.484   3.620   1.791
 4227TIP3   OH234239   1.565   6.282   8.257
 4227TIP3    H134240   1.594   6.373   8.270
 4227TIP3    H234241   1.628   6.230   8.307
 4228TIP3   OH234242   6.190   5.321   7.131
 4228TIP3    H134243   6.110   5.273   7.153
 4228TIP3    H234244   6.256   5.287   7.190
 4229TIP3   OH234245   6.313   0.416   8.476
 4229TIP3    H134246   6.397   0.386   8.441
 4229TIP3    H234247   6.250   0.398   8.405
 4230TIP3   OH234248   4.908   5.077   6.398
 4230TIP3    H134249   4.838   5.017   6.425
 4230TIP3    H234250   4.879   5.110   6.313
 4231TIP3   OH234251   4.651   6.632   1.525
 4231TIP3    H134252   4.596   6.565   1.566
 4231TIP3    H234253   4.740   6.609   1.552
 4232TIP3   OH234254   3.463   4.439   0.809
 4232TIP3    H134255   3.478   4.412   0.719
 4232TIP3    H234256   3.511   4.521   0.818
 4233TIP3   OH234257   4.024   1.222   0.661
 4233TIP3    H134258   4.025   1.219   0.565
 4233TIP3    H234259   3.938   1.259   0.682
 4234TIP3   OH234260   5.564   1.143   8.577
 4234TIP3    H134261   5.605   1.089   8.645
 4234TIP3    H234262   5.593   1.232   8.598
 4235TIP3   OH234263   5.771   5.225   7.214
 4235TIP3    H134264   5.844   5.199   7.158
 4235TIP3    H234265   5.739   5.307   7.176
 4236TIP3   OH234266   3.580   3.759   6.595
 4236TIP3    H134267   3.671   3.777   6.619
 4236TIP3    H234268   3.533   3.757   6.679
 4237TIP3   OH234269   4.248   3.635   0.172
 4237TIP3    H134270   4.167   3.657   0.217
 4237TIP3    H234271   4.302   3.592   0.238
 4238TIP3   OH234272   2.991   0.226   8.067
 4238TIP3    H134273   2.967   0.203   8.157
 4238TIP3    H234274   2.928   0.179   8.013
 4239TIP3   OH234275   4.884   6.278   2.311
 4239TIP3    H134276   4.923   6.235   2.388
 4239TIP3    H234277   4.945   6.348   2.290
 4240TIP3   OH234278   4.774   0.732   1.649
 4240TIP3    H134279   4.727   0.805   1.689
 4240TIP3    H234280   4.837   0.773   1.590
 4241TIP3   OH234281   0.550   1.327   8.759
 4241TIP3    H134282   0.503   1.403   8.723
 4241TIP3    H234283   0.547   1.339   8.854
 4242TIP3   OH234284   2.423   0.439   8.661
 4242TIP3    H134285   2.450   0.508   8.599
 4242TIP3    H234286   2.478   0.364   8.637
 4243TIP3   OH234287   1.182   1.075   0.057
 4243TIP3    H134288   1.089   1.050   0.050
 4243TIP3    H234289   1.201   1.119   8.843
 4244TIP3   OH234290   4.527   2.778   2.491
 4244TIP3    H134291   4.501   2.699   2.538
 4244TIP3    H234292   4.502   2.761   2.400
 4245TIP3   OH234293   5.421   1.145   1.192
 4245TIP3    H134294   5.412   1.110   1.103
 4245TIP3    H234295   5.510   1.182   1.194
 4246TIP3   OH234296   0.003   0.702   2.031
 4246TIP3    H134297   6.783   0.734   2.120
 4246TIP3    H234298   6.735   0.630   2.022
 4247TIP3   OH234299   0.428   2.521   8.520
 4247TIP3    H134300   0.431   2.615   8.537
 4247TIP3    H234301   0.389   2.513   8.433
 4248TIP3   OH234302   5.332   2.005   0.786
 4248TIP3    H134303   5.408   2.049   0.823
 4248TIP3    H234304   5.330   2.035   0.695
 4249TIP3   OH234305   1.207   3.484   8.542
 4249TIP3    H134306   1.225   3.444   8.628
 4249TIP3    H234307   1.285   3.535   8.523
 4250TIP3   OH234308   1.706   5.805   0.246
 4250TIP3    H134309   1.640   5.788   0.179
 4250TIP3    H234310   1.742   5.890   0.224
 4251TIP3   OH234311   0.038   0.874   8.093
 4251TIP3    H134312   0.017   0.966   8.110
 4251TIP3    H234313   6.756   0.842   8.042
 4252TIP3   OH234314   2.993   6.300   0.377
 4252TIP3    H134315   2.987   6.208   0.350
 4252TIP3    H234316   2.993   6.297   0.473
 4253TIP3   OH234317   6.210   2.122   7.862
 4253TIP3    H134318   6.170   2.203   7.832
 4253TIP3    H234319   6.190   2.058   7.793
 4254TIP3   OH234320   0.209   4.746   8.713
 4254TIP3    H134321   0.142   4.680   8.698
 4254TIP3    H234322   0.245   4.765   8.626
 4255TIP3   OH234323   2.697   4.741   6.587
 4255TIP3    H134324   2.632   4.724   6.656
 4255TIP3    H234325   2.651   4.721   6.506
 4256TIP3   OH234326   5.252   3.224   8.866
 4256TIP3    H134327   5.196   3.188   8.798
 4256TIP3    H234328   5.235   3.169   0.074
 4257TIP3   OH234329   0.605   6.265   1.711
 4257TIP3    H134330   0.618   6.317   1.631
 4257TIP3    H234331   0.681   6.286   1.766
 4258TIP3   OH234332   6.280   1.435   1.635
 4258TIP3    H134333   6.307   1.343   1.634
 4258TIP3    H234334   6.187   1.433   1.656
 4259TIP3   OH234335   3.199   4.819   1.375
 4259TIP3    H134336   3.241   4.765   1.442
 4259TIP3    H234337   3.141   4.877   1.425
 4260TIP3   OH234338   3.291   6.190   0.335
 4260TIP3    H134339   3.276   6.279   0.303
 4260TIP3    H234340   3.255   6.133   0.266
 4261TIP3   OH234341   3.835   0.899   8.274
 4261TIP3    H134342   3.792   0.912   8.359
 4261TIP3    H234343   3.800   0.817   8.242
 4262TIP3   OH234344   6.452   0.421   0.684
 4262TIP3    H134345   6.361   0.450   0.690
 4262TIP3    H234346   6.463   0.393   0.593
 4263TIP3   OH234347   6.208   4.123   8.595
 4263TIP3    H134348   6.123   4.081   8.579
 4263TIP3    H234349   6.192   4.216   8.577
 4264TIP3   OH234350   3.830   5.282   7.182
 4264TIP3    H134351   3.855   5.372   7.163
 4264TIP3    H234352   3.806   5.245   7.097
 4265TIP3   OH234353   0.110   6.613   8.805
 4265TIP3    H134354   0.128   6.527   8.768
 4265TIP3    H234355   0.038   6.599   8.865
 4266TIP3   OH234356   6.605   4.660   1.347
 4266TIP3    H134357   6.586   4.643   1.254
 4266TIP3    H234358   6.581   4.578   1.391
 4267TIP3   OH234359   0.853   4.689   7.618
 4267TIP3    H134360   0.831   4.716   7.707
 4267TIP3    H234361   0.924   4.747   7.592
 4268TIP3   OH234362   4.390   2.020   7.824
 4268TIP3    H134363   4.418   2.045   7.912
 4268TIP3    H234364   4.295   2.007   7.832
 4269TIP3   OH234365   6.586   2.111   6.622
 4269TIP3    H134366   6.571   2.057   6.544
 4269TIP3    H234367   6.654   2.173   6.596
 4270TIP3   OH234368   3.052   1.417   0.320
 4270TIP3    H134369   3.144   1.410   0.294
 4270TIP3    H234370   3.034   1.334   0.365
 4271TIP3   OH234371   4.659   3.972   1.551
 4271TIP3    H134372   4.574   3.984   1.508
 4271TIP3    H234373   4.715   4.039   1.512
 4272TIP3   OH234374   6.426   1.864   8.143
 4272TIP3    H134375   6.408   1.946   8.188
 4272TIP3    H234376   6.507   1.832   8.181
 4273TIP3   OH234377   4.550   6.053   7.961
 4273TIP3    H134378   4.588   6.053   7.874
 4273TIP3    H234379   4.619   6.016   8.017
 4274TIP3   OH234380   6.225   1.016   0.429
 4274TIP3    H134381   6.169   1.080   0.472
 4274TIP3    H234382   6.187   1.007   0.341
 4275TIP3   OH234383   2.368   1.232   8.797
 4275TIP3    H134384   2.429   1.274   8.858
 4275TIP3    H234385   2.418   1.158   8.760
 4276TIP3   OH234386   1.776   2.473   1.453
 4276TIP3    H134387   1.705   2.424   1.494
 4276TIP3    H234388   1.856   2.431   1.485
 4277TIP3   OH234389   0.271   5.673   1.138
 4277TIP3    H134390   0.197   5.722   1.175
 4277TIP3    H234391   0.277   5.703   1.048
 4278TIP3   OH234392   6.201   4.713   6.836
 4278TIP3    H134393   6.227   4.786   6.779
 4278TIP3    H234394   6.112   4.736   6.865
 4279TIP3   OH234395   1.083   6.752   6.640
 4279TIP3    H134396   1.000   6.723   6.602
 4279TIP3    H234397   1.094   6.696   6.717
 4280TIP3   OH234398   3.378   0.207   8.477
 4280TIP3    H134399   3.306   0.195   8.539
 4280TIP3    H234400   3.452   0.161   8.517
 4281TIP3   OH234401   6.722   1.810   7.047
 4281TIP3    H134402   6.632   1.786   7.069
 4281TIP3    H234403   6.726   1.802   6.952
 4282TIP3   OH234404   0.872   1.752   7.719
 4282TIP3    H134405   0.843   1.809   7.790
 4282TIP3    H234406   0.792   1.726   7.674
 4283TIP3   OH234407   5.849   0.743   8.502
 4283TIP3    H134408   5.769   0.690   8.508
 4283TIP3    H234409   5.920   0.680   8.516
 4284TIP3   OH234410   1.034   5.827   1.646
 4284TIP3    H134411   1.108   5.771   1.624
 4284TIP3    H234412   1.004   5.861   1.562
 4285TIP3   OH234413   2.129   4.552   6.476
 4285TIP3    H134414   2.173   4.535   6.560
 4285TIP3    H234415   2.119   4.466   6.437
 4286TIP3   OH234416   2.964   4.204   8.057
 4286TIP3    H134417   3.053   4.172   8.073
 4286TIP3    H234418   2.925   4.139   7.999
 4287TIP3   OH234419   2.926   5.472   1.284
 4287TIP3    H134420   2.915   5.377   1.291
 4287TIP3    H234421   2.942   5.501   1.374
 4288TIP3   OH234422   3.562   2.897   8.168
 4288TIP3    H134423   3.472   2.870   8.150
 4288TIP3    H234424   3.569   2.894   8.263
 4289TIP3   OH234425   0.186   0.076   8.718
 4289TIP3    H134426   0.225   0.066   8.631
 4289TIP3    H234427   0.165   6.779   8.745
 4290TIP3   OH234428   5.896   0.978   8.640
 4290TIP3    H134429   5.806   0.965   8.671
 4290TIP3    H234430   5.914   0.899   8.588
 4291TIP3   OH234431   4.484   3.219   0.914
 4291TIP3    H134432   4.537   3.251   0.987
 4291TIP3    H234433   4.541   3.228   0.838
 4292TIP3   OH234434   1.455   6.733   0.891
 4292TIP3    H134435   1.534   6.726   0.945
 4292TIP3    H234436   1.387   6.689   0.942
 4293TIP3   OH234437   5.430   0.814   8.456
 4293TIP3    H134438   5.437   0.849   8.367
 4293TIP3    H234439   5.510   0.763   8.469
 4294TIP3   OH234440   2.108   0.070   7.528
 4294TIP3    H134441   2.019   0.036   7.540
 4294TIP3    H234442   2.165   6.792   7.559
 4295TIP3   OH234443   5.503   2.210   7.042
 4295TIP3    H134444   5.530   2.253   6.961
 4295TIP3    H234445   5.486   2.119   7.018
 4296TIP3   OH234446   0.061   2.812   1.046
 4296TIP3    H134447   6.785   2.827   1.111
 4296TIP3    H234448   0.076   2.898   1.008
 4297TIP3   OH234449   4.812   5.777   8.785
 4297TIP3    H134450   4.844   5.844   8.725
 4297TIP3    H234451   4.881   5.711   8.785
 4298TIP3   OH234452   5.336   2.017   1.111
 4298TIP3    H134453   5.263   2.064   1.071
 4298TIP3    H234454   5.405   2.082   1.121
 4299TIP3   OH234455   2.926   1.083   0.793
 4299TIP3    H134456   2.885   1.112   0.874
 4299TIP3    H234457   3.019   1.105   0.803
 4300TIP3   OH234458   3.111   2.691   0.955
 4300TIP3    H134459   3.057   2.761   0.918
 4300TIP3    H234460   3.195   2.733   0.975
 4301TIP3   OH234461   5.162   4.556   6.633
 4301TIP3    H134462   5.106   4.485   6.663
 4301TIP3    H234463   5.119   4.636   6.664
 4302TIP3   OH234464   1.421   4.980   0.455
 4302TIP3    H134465   1.464   5.009   0.374
 4302TIP3    H234466   1.390   4.892   0.434
 4303TIP3   OH234467   3.164   1.346   7.793
 4303TIP3    H134468   3.246   1.356   7.841
 4303TIP3    H234469   3.151   1.251   7.786
 4304TIP3   OH234470   5.229   4.025   1.524
 4304TIP3    H134471   5.166   4.040   1.594
 4304TIP3    H234472   5.223   3.931   1.506
 4305TIP3   OH234473   1.357   3.026   1.739
 4305TIP3    H134474   1.433   3.050   1.792
 4305TIP3    H234475   1.325   2.945   1.779
 4306TIP3   OH234476   0.234   5.274   0.703
 4306TIP3    H134477   0.239   5.210   0.774
 4306TIP3    H234478   0.221   5.221   0.624
 4307TIP3   OH234479   4.870   1.044   1.690
 4307TIP3    H134480   4.960   1.068   1.668
 4307TIP3    H234481   4.878   0.987   1.766
 4308TIP3   OH234482   2.873   1.702   1.332
 4308TIP3    H134483   2.820   1.623   1.335
 4308TIP3    H234484   2.961   1.671   1.308
 4309TIP3   OH234485   2.324   2.016   8.161
 4309TIP3    H134486   2.379   2.027   8.083
 4309TIP3    H234487   2.315   1.921   8.170
 4310TIP3   OH234488   2.239   2.436   1.742
 4310TIP3    H134489   2.241   2.349   1.783
 4310TIP3    H234490   2.282   2.493   1.805
 4311TIP3   OH234491   3.455   6.427   1.569
 4311TIP3    H134492   3.530   6.424   1.628
 4311TIP3    H234493   3.459   6.513   1.528
 4312TIP3   OH234494   4.569   2.805   0.336
 4312TIP3    H134495   4.567   2.710   0.321
 4312TIP3    H234496   4.569   2.813   0.431
 4313TIP3   OH234497   4.840   2.967   1.064
 4313TIP3    H134498   4.833   2.939   1.155
 4313TIP3    H234499   4.775   3.037   1.055
 4314TIP3   OH234500   4.677   4.738   7.979
 4314TIP3    H134501   4.766   4.707   7.992
 4314TIP3    H234502   4.685   4.808   7.914
 4315TIP3   OH234503   1.390   0.283   8.033
 4315TIP3    H134504   1.362   0.372   8.056
 4315TIP3    H234505   1.454   0.260   8.101
 4316TIP3   OH234506   4.059   3.910   6.619
 4316TIP3    H134507   4.073   3.824   6.660
 4316TIP3    H234508   4.137   3.960   6.642
 4317TIP3   OH234509   5.041   3.961   2.378
 4317TIP3    H134510   5.075   3.935   2.293
 4317TIP3    H234511   5.086   4.044   2.397
 4318TIP3   OH234512   0.562   0.996   7.676
 4318TIP3    H134513   0.652   1.012   7.703
 4318TIP3    H234514   0.569   0.926   7.611
 4319TIP3   OH234515   4.454   2.958   8.695
 4319TIP3    H134516   4.471   3.008   8.775
 4319TIP3    H234517   4.473   2.867   8.720
 4320TIP3   OH234518   2.725   3.247   0.052
 4320TIP3    H134519   2.685   3.321   0.007
 4320TIP3    H234520   2.676   3.170   0.021
 4321TIP3   OH234521   2.845   1.498   7.187
 4321TIP3    H134522   2.852   1.410   7.149
 4321TIP3    H234523   2.758   1.500   7.227
 4322TIP3   OH234524   4.126   1.413   8.273
 4322TIP3    H134525   4.068   1.384   8.343
 4322TIP3    H234526   4.087   1.378   8.193
 4323TIP3   OH234527   6.706   0.104   2.052
 4323TIP3    H134528   6.752   0.187   2.041
 4323TIP3    H234529   6.761   0.053   2.111
 4324TIP3   OH234530   5.644   2.084   0.791
 4324TIP3    H134531   5.729   2.058   0.828
 4324TIP3    H234532   5.655   2.074   0.697
 4325TIP3   OH234533   2.615   0.192   8.540
 4325TIP3    H134534   2.521   0.177   8.526
 4325TIP3    H234535   2.639   0.130   8.609
 4326TIP3   OH234536   3.746   5.519   8.214
 4326TIP3    H134537   3.731   5.436   8.169
 4326TIP3    H234538   3.828   5.506   8.261
 4327TIP3   OH234539   1.407   1.645   7.783
 4327TIP3    H134540   1.321   1.661   7.822
 4327TIP3    H234541   1.390   1.634   7.690
 4328TIP3   OH234542   2.171   4.037   0.922
 4328TIP3    H134543   2.116   4.075   0.854
 4328TIP3    H234544   2.252   4.089   0.920
 4329TIP3   OH234545   2.555   1.533   0.888
 4329TIP3    H134546   2.644   1.500   0.875
 4329TIP3    H234547   2.529   1.502   0.975
 4330TIP3   OH234548   4.341   1.569   2.013
 4330TIP3    H134549   4.392   1.504   2.062
 4330TIP3    H234550   4.276   1.600   2.076
 4331TIP3   OH234551   6.537   2.734   0.940
 4331TIP3    H134552   6.465   2.690   0.986
 4331TIP3    H234553   6.600   2.757   1.009
 4332TIP3   OH234554   0.190   3.927   7.018
 4332TIP3    H134555   0.136   3.966   7.087
 4332TIP3    H234556   0.218   4.002   6.965
 4333TIP3   OH234557   1.626   5.346   8.141
 4333TIP3    H134558   1.578   5.410   8.193
 4333TIP3    H234559   1.637   5.388   8.055
 4334TIP3   OH234560   4.939   5.962   0.400
 4334TIP3    H134561   4.871   5.988   0.337
 4334TIP3    H234562   4.967   6.045   0.439
 4335TIP3   OH234563   2.061   3.529   1.630
 4335TIP3    H134564   2.017   3.567   1.553
 4335TIP3    H234565   2.022   3.576   1.704
 4336TIP3   OH234566   3.826   0.698   2.262
 4336TIP3    H134567   3.790   0.758   2.327
 4336TIP3    H234568   3.894   0.749   2.217
 4337TIP3   OH234569   5.046   2.626   1.182
 4337TIP3    H134570   5.067   2.691   1.249
 4337TIP3    H234571   4.951   2.630   1.173
 4338TIP3   OH234572   0.872   2.710   8.716
 4338TIP3    H134573   0.824   2.674   8.641
 4338TIP3    H234574   0.833   2.797   8.730
 4339TIP3   OH234575   1.411   4.097   1.091
 4339TIP3    H134576   1.480   4.033   1.112
 4339TIP3    H234577   1.459   4.171   1.053
 4340TIP3   OH234578   4.822   1.987   0.141
 4340TIP3    H134579   4.805   1.962   0.050
 4340TIP3    H234580   4.818   1.904   0.189
 4341TIP3   OH234581   2.122   4.401   8.228
 4341TIP3    H134582   2.105   4.495   8.227
 4341TIP3    H234583   2.069   4.367   8.299
 4342TIP3   OH234584   3.961   3.947   0.497
 4342TIP3    H134585   3.971   3.855   0.521
 4342TIP3    H234586   4.039   3.967   0.445
 4343TIP3   OH234587   1.437   2.700   7.406
 4343TIP3    H134588   1.475   2.746   7.332
 4343TIP3    H234589   1.508   2.695   7.470
 4344TIP3   OH234590   3.441   3.091   1.137
 4344TIP3    H134591   3.409   3.159   1.197
 4344TIP3    H234592   3.514   3.133   1.091
 4345TIP3   OH234593   3.779   2.957   2.658
 4345TIP3    H134594   3.858   2.956   2.604
 4345TIP3    H234595   3.707   2.961   2.595
 4346TIP3   OH234596   0.985   4.899   1.198
 4346TIP3    H134597   1.063   4.946   1.171
 4346TIP3    H234598   1.017   4.821   1.242
 4347TIP3   OH234599   0.642   1.381   7.107
 4347TIP3    H134600   0.629   1.292   7.076
 4347TIP3    H234601   0.726   1.379   7.151
 4348TIP3   OH234602   2.485   0.782   8.752
 4348TIP3    H134603   2.404   0.776   8.803
 4348TIP3    H234604   2.460   0.758   8.663
 4349TIP3   OH234605   6.496   1.595   8.572
 4349TIP3    H134606   6.506   1.684   8.539
 4349TIP3    H234607   6.482   1.542   8.493
 4350TIP3   OH234608   0.075   4.134   1.132
 4350TIP3    H134609   0.093   4.169   1.220
 4350TIP3    H234610   0.135   4.061   1.122
 4351TIP3   OH234611   3.892   4.212   1.274
 4351TIP3    H134612   3.815   4.259   1.241
 4351TIP3    H234613   3.961   4.231   1.211
 4352TIP3   OH234614   4.025   3.981   8.510
 4352TIP3    H134615   4.066   3.899   8.537
 4352TIP3    H234616   4.079   4.049   8.548
 4353TIP3   OH234617   5.268   2.666   0.007
 4353TIP3    H134618   5.270   2.577   8.838
 4353TIP3    H234619   5.257   2.723   8.800
 4354TIP3   OH234620   2.475   3.967   1.727
 4354TIP3    H134621   2.556   3.924   1.702
 4354TIP3    H234622   2.460   3.941   1.818
 4355TIP3   OH234623   1.466   2.022   0.885
 4355TIP3    H134624   1.556   2.055   0.885
 4355TIP3    H234625   1.427   2.061   0.807
 4356TIP3   OH234626   0.920   5.073   0.312
 4356TIP3    H134627   0.871   5.111   0.239
 4356TIP3    H234628   0.977   5.007   0.271
 4357TIP3   OH234629   0.973   4.197   0.324
 4357TIP3    H134630   1.050   4.253   0.329
 4357TIP3    H234631   1.003   4.117   0.280
 4358TIP3   OH234632   2.557   1.666   8.470
 4358TIP3    H134633   2.604   1.718   8.536
 4358TIP3    H234634   2.479   1.635   8.516
 4359TIP3   OH234635   3.300   2.369   2.572
 4359TIP3    H134636   3.326   2.440   2.514
 4359TIP3    H234637   3.338   2.392   2.657
 4360TIP3   OH234638   6.508   5.434   8.768
 4360TIP3    H134639   6.529   5.449   8.676
 4360TIP3    H234640   6.516   5.520   8.809
 4361TIP3   OH234641   6.361   0.062   7.212
 4361TIP3    H134642   6.448   0.056   7.251
 4361TIP3    H234643   6.377   0.076   7.119
 4362TIP3   OH234644   6.548   2.783   8.283
 4362TIP3    H134645   6.500   2.866   8.277
 4362TIP3    H234646   6.632   2.807   8.321
 4363TIP3   OH234647   1.203   0.458   0.283
 4363TIP3    H134648   1.266   0.386   0.276
 4363TIP3    H234649   1.127   0.428   0.233
 4364TIP3   OH234650   1.039   3.822   8.122
 4364TIP3    H134651   1.026   3.739   8.167
 4364TIP3    H234652   1.134   3.833   8.119
 4365TIP3   OH234653   2.349   4.137   8.539
 4365TIP3    H134654   2.390   4.059   8.578
 4365TIP3    H234655   2.285   4.165   8.603
 4366TIP3   OH234656   6.391   5.960   8.846
 4366TIP3    H134657   6.369   6.053   8.840
 4366TIP3    H234658   6.476   5.958   0.020
 4367TIP3   OH234659   1.386   3.746   7.364
 4367TIP3    H134660   1.323   3.796   7.416
 4367TIP3    H234661   1.353   3.656   7.368
 4368TIP3   OH234662   0.900   2.321   6.254
 4368TIP3    H134663   0.841   2.359   6.319
 4368TIP3    H234664   0.929   2.239   6.293
 4369TIP3   OH234665   2.497   0.330   1.866
 4369TIP3    H134666   2.457   0.386   1.800
 4369TIP3    H234667   2.579   0.374   1.889
 4370TIP3   OH234668   0.873   1.596   1.653
 4370TIP3    H134669   0.894   1.514   1.698
 4370TIP3    H234670   0.946   1.609   1.593
 4371TIP3   OH234671   4.448   1.359   3.027
 4371TIP3    H134672   4.532   1.348   2.983
 4371TIP3    H234673   4.419   1.446   3.000
 4372TIP3   OH234674   2.573   0.040   2.072
 4372TIP3    H134675   2.565   0.080   2.158
 4372TIP3    H234676   2.665   0.051   2.048
 4373TIP3   OH234677   2.322   4.559   2.442
 4373TIP3    H134678   2.332   4.490   2.376
 4373TIP3    H234679   2.378   4.630   2.410
 4374TIP3   OH234680   2.989   2.860   6.757
 4374TIP3    H134681   3.074   2.884   6.720
 4374TIP3    H234682   2.979   2.917   6.833
 4375TIP3   OH234683   0.241   5.789   8.527
 4375TIP3    H134684   0.305   5.757   8.464
 4375TIP3    H234685   0.228   5.881   8.504
 4376TIP3   OH234686   2.594   5.039   7.810
 4376TIP3    H134687   2.637   5.080   7.735
 4376TIP3    H234688   2.508   5.012   7.776
 4377TIP3   OH234689   6.082   0.854   1.185
 4377TIP3    H134690   6.108   0.936   1.228
 4377TIP3    H234691   6.018   0.816   1.244
 4378TIP3   OH234692   0.367   4.157   1.018
 4378TIP3    H134693   0.428   4.186   0.950
 4378TIP3    H234694   0.375   4.223   1.087
 4379TIP3   OH234695   2.922   0.447   0.184
 4379TIP3    H134696   2.989   0.451   0.252
 4379TIP3    H234697   2.841   0.429   0.232
 4380TIP3   OH234698   2.429   1.256   8.041
 4380TIP3    H134699   2.496   1.188   8.040
 4380TIP3    H234700   2.478   1.338   8.037
 4381TIP3   OH234701   3.513   6.388   0.919
 4381TIP3    H134702   3.500   6.406   1.012
 4381TIP3    H234703   3.424   6.381   0.884
 4382TIP3   OH234704   4.194   6.445   1.852
 4382TIP3    H134705   4.247   6.487   1.919
 4382TIP3    H234706   4.126   6.509   1.830
 4383TIP3   OH234707   1.244   3.161   0.588
 4383TIP3    H134708   1.256   3.096   0.657
 4383TIP3    H234709   1.151   3.186   0.595
 4384TIP3   OH234710   1.977   2.082   2.339
 4384TIP3    H134711   1.894   2.059   2.382
 4384TIP3    H234712   2.033   2.005   2.352
 4385TIP3   OH234713   3.222   3.234   0.351
 4385TIP3    H134714   3.205   3.227   0.257
 4385TIP3    H234715   3.213   3.327   0.371
 4386TIP3   OH234716   1.999   1.989   1.491
 4386TIP3    H134717   1.930   2.007   1.555
 4386TIP3    H234718   1.953   1.984   1.407
 4387TIP3   OH234719   5.143   1.980   7.890
 4387TIP3    H134720   5.090   1.925   7.832
 4387TIP3    H234721   5.081   2.039   7.932
 4388TIP3   OH234722   3.071   4.762   0.859
 4388TIP3    H134723   3.056   4.723   0.944
 4388TIP3    H234724   3.153   4.812   0.870
 4389TIP3   OH234725   2.025   4.869   0.718
 4389TIP3    H134726   2.103   4.845   0.670
 4389TIP3    H234727   2.054   4.938   0.779
 4390TIP3   OH234728   4.780   2.385   1.153
 4390TIP3    H134729   4.762   2.360   1.243
 4390TIP3    H234730   4.785   2.481   1.155
 4391TIP3   OH234731   2.126   4.026   1.394
 4391TIP3    H134732   2.190   3.970   1.437
 4391TIP3    H234733   2.177   4.076   1.331
 4392TIP3   OH234734   1.830   1.591   1.199
 4392TIP3    H134735   1.882   1.636   1.266
 4392TIP3    H234736   1.889   1.525   1.163
 4393TIP3   OH234737   2.907   6.055   0.033
 4393TIP3    H134738   2.893   6.122   0.099
 4393TIP3    H234739   2.841   6.074   8.834
 4394TIP3   OH234740   4.816   5.486   0.130
 4394TIP3    H134741   4.766   5.439   0.063
 4394TIP3    H234742   4.777   5.458   0.213
 4395TIP3   OH234743   3.284   2.485   1.562
 4395TIP3    H134744   3.257   2.393   1.560
 4395TIP3    H234745   3.265   2.518   1.475
 4396TIP3   OH234746   6.351   0.246   7.848
 4396TIP3    H134747   6.365   0.159   7.810
 4396TIP3    H234748   6.417   0.252   7.918
 4397TIP3   OH234749   1.366   3.695   6.878
 4397TIP3    H134750   1.431   3.708   6.946
 4397TIP3    H234751   1.328   3.609   6.897
 4398TIP3   OH234752   2.968   5.185   1.328
 4398TIP3    H134753   3.038   5.140   1.374
 4398TIP3    H234754   2.889   5.164   1.378
 4399TIP3   OH234755   1.028   5.519   7.009
 4399TIP3    H134756   1.000   5.600   6.967
 4399TIP3    H234757   1.012   5.532   7.102
 4400TIP3   OH234758   4.012   1.127   1.370
 4400TIP3    H134759   4.060   1.079   1.303
 4400TIP3    H234760   4.049   1.215   1.368
 4401TIP3   OH234761   5.234   5.232   7.687
 4401TIP3    H134762   5.193   5.317   7.704
 4401TIP3    H234763   5.164   5.168   7.705
 4402TIP3   OH234764   0.496   4.555   6.468
 4402TIP3    H134765   0.451   4.596   6.394
 4402TIP3    H234766   0.589   4.563   6.447
 4403TIP3   OH234767   6.572   4.768   8.775
 4403TIP3    H134768   6.503   4.833   8.779
 4403TIP3    H234769   6.565   4.729   8.688
 4404TIP3   OH234770   0.825   5.347   7.226
 4404TIP3    H134771   0.839   5.413   7.158
 4404TIP3    H234772   0.762   5.286   7.187
 4405TIP3   OH234773   3.358   4.911   6.714
 4405TIP3    H134774   3.435   4.963   6.740
 4405TIP3    H234775   3.375   4.885   6.624
 4406TIP3   OH234776   5.719   4.944   1.383
 4406TIP3    H134777   5.645   4.925   1.440
 4406TIP3    H234778   5.771   5.008   1.431
 4407TIP3   OH234779   3.115   1.473   0.670
 4407TIP3    H134780   3.074   1.554   0.641
 4407TIP3    H234781   3.067   1.449   0.750
 4408TIP3   OH234782   3.971   6.520   7.227
 4408TIP3    H134783   4.046   6.463   7.207
 4408TIP3    H234784   3.994   6.604   7.186
 4409TIP3   OH234785   4.569   5.818   2.420
 4409TIP3    H134786   4.581   5.776   2.334
 4409TIP3    H234787   4.654   5.807   2.463
 4410TIP3   OH234788   2.697   0.977   0.409
 4410TIP3    H134789   2.643   0.942   0.338
 4410TIP3    H234790   2.663   0.933   0.487
 4411TIP3   OH234791   2.739   3.791   0.237
 4411TIP3    H134792   2.779   3.827   0.316
 4411TIP3    H234793   2.649   3.822   0.239
 4412TIP3   OH234794   4.266   1.844   2.224
 4412TIP3    H134795   4.299   1.759   2.254
 4412TIP3    H234796   4.218   1.879   2.299
 4413TIP3   OH234797   0.567   0.246   7.473
 4413TIP3    H134798   0.610   0.171   7.432
 4413TIP3    H234799   0.621   0.321   7.448
 4414TIP3   OH234800   3.981   1.740   0.493
 4414TIP3    H134801   3.919   1.690   0.545
 4414TIP3    H234802   4.040   1.674   0.456
 4415TIP3   OH234803   4.868   5.387   8.023
 4415TIP3    H134804   4.801   5.391   7.955
 4415TIP3    H234805   4.870   5.295   8.049
 4416TIP3   OH234806   2.037   4.403   0.300
 4416TIP3    H134807   1.973   4.424   0.232
 4416TIP3    H234808   2.043   4.308   0.299
 4417TIP3   OH234809   2.155   1.411   1.901
 4417TIP3    H134810   2.219   1.396   1.971
 4417TIP3    H234811   2.110   1.327   1.891
 4418TIP3   OH234812   6.604   3.878   1.356
 4418TIP3    H134813   6.553   3.799   1.336
 4418TIP3    H234814   6.650   3.857   1.437
 4419TIP3   OH234815   6.356   6.409   8.747
 4419TIP3    H134816   6.352   6.320   8.713
 4419TIP3    H234817   6.362   6.464   8.669
 4420TIP3   OH234818   0.123   1.432   0.861
 4420TIP3    H134819   0.130   1.341   0.889
 4420TIP3    H234820   0.081   1.477   0.934
 4421TIP3   OH234821   6.767   6.666   1.147
 4421TIP3    H134822   6.772   6.759   1.125
 4421TIP3    H234823   0.059   6.631   1.121
 4422TIP3   OH234824   6.084   3.108   7.014
 4422TIP3    H134825   6.061   3.091   6.923
 4422TIP3    H234826   6.173   3.074   7.023
 4423TIP3   OH234827   4.541   4.437   0.057
 4423TIP3    H134828   4.526   4.425   0.151
 4423TIP3    H234829   4.636   4.447   0.049
 4424TIP3   OH234830   3.296   3.979   0.692
 4424TIP3    H134831   3.305   4.035   0.615
 4424TIP3    H234832   3.292   4.040   0.765
 4425TIP3   OH234833   4.630   5.640   7.767
 4425TIP3    H134834   4.644   5.555   7.809
 4425TIP3    H234835   4.551   5.674   7.808
 4426TIP3   OH234836   4.721   2.313   7.923
 4426TIP3    H134837   4.698   2.403   7.899
 4426TIP3    H234838   4.648   2.284   7.978
 4427TIP3   OH234839   1.622   6.647   6.683
 4427TIP3    H134840   1.534   6.678   6.702
 4427TIP3    H234841   1.612   6.592   6.605
 4428TIP3   OH234842   0.110   5.032   6.789
 4428TIP3    H134843   0.093   4.937   6.790
 4428TIP3    H234844   0.033   5.069   6.746
 4429TIP3   OH234845   5.827   2.084   1.890
 4429TIP3    H134846   5.882   2.113   1.818
 4429TIP3    H234847   5.883   2.093   1.968
 4430TIP3   OH234848   6.125   5.582   0.971
 4430TIP3    H134849   6.186   5.653   0.991
 4430TIP3    H234850   6.078   5.567   1.054
 4431TIP3   OH234851   3.340   2.959   7.190
 4431TIP3    H134852   3.271   2.900   7.219
 4431TIP3    H234853   3.393   2.975   7.268
 4432TIP3   OH234854   6.248   1.327   0.325
 4432TIP3    H134855   6.166   1.358   0.286
 4432TIP3    H234856   6.225   1.304   0.415
 4433TIP3   OH234857   0.498   5.979   8.467
 4433TIP3    H134858   0.485   5.890   8.435
 4433TIP3    H234859   0.411   6.020   8.458
 4434TIP3   OH234860   6.103   0.187   8.039
 4434TIP3    H134861   6.095   0.266   7.986
 4434TIP3    H234862   6.167   0.133   7.992
 4435TIP3   OH234863   3.021   4.315   0.818
 4435TIP3    H134864   3.037   4.358   0.734
 4435TIP3    H234865   3.010   4.223   0.797
 4436TIP3   OH234866   6.171   3.573   0.251
 4436TIP3    H134867   6.171   3.582   0.346
 4436TIP3    H234868   6.217   3.490   0.234
 4437TIP3   OH234869   1.428   1.551   0.912
 4437TIP3    H134870   1.465   1.578   0.996
 4437TIP3    H234871   1.384   1.630   0.879
 4438TIP3   OH234872   0.507   5.698   1.275
 4438TIP3    H134873   0.436   5.703   1.211
 4438TIP3    H234874   0.501   5.609   1.309
 4439TIP3   OH234875   5.581   1.339   0.911
 4439TIP3    H134876   5.666   1.383   0.919
 4439TIP3    H234877   5.529   1.398   0.857
 4440TIP3   OH234878   0.089   4.858   1.546
 4440TIP3    H134879   0.048   4.850   1.632
 4440TIP3    H234880   0.020   4.835   1.484
 4441TIP3   OH234881   2.381   6.396   7.732
 4441TIP3    H134882   2.342   6.360   7.652
 4441TIP3    H234883   2.466   6.352   7.739
 4442TIP3   OH234884   3.595   3.086   0.470
 4442TIP3    H134885   3.648   3.006   0.463
 4442TIP3    H234886   3.530   3.078   0.400
 4443TIP3   OH234887   3.955   6.057   2.382
 4443TIP3    H134888   3.881   6.020   2.431
 4443TIP3    H234889   3.958   6.006   2.302
 4444TIP3   OH234890   2.956   3.670   0.081
 4444TIP3    H134891   2.910   3.682   8.866
 4444TIP3    H234892   2.893   3.697   0.147
 4445TIP3   OH234893   2.327   6.110   0.790
 4445TIP3    H134894   2.245   6.065   0.810
 4445TIP3    H234895   2.325   6.189   0.843
 4446TIP3   OH234896   4.978   4.034   7.950
 4446TIP3    H134897   5.063   4.012   7.989
 4446TIP3    H234898   4.914   3.985   8.002
 4447TIP3   OH234899   2.521   2.031   6.950
 4447TIP3    H134900   2.559   2.111   6.915
 4447TIP3    H234901   2.429   2.033   6.922
 4448TIP3   OH234902   0.230   5.210   6.933
 4448TIP3    H134903   0.190   5.145   6.876
 4448TIP3    H234904   0.213   5.179   7.021
 4449TIP3   OH234905   1.970   6.505   7.406
 4449TIP3    H134906   1.982   6.436   7.470
 4449TIP3    H234907   1.940   6.581   7.457
 4450TIP3   OH234908   6.264   2.594   8.758
 4450TIP3    H134909   6.350   2.552   8.760
 4450TIP3    H234910   6.202   2.523   8.776
 4451TIP3   OH234911   4.940   3.928   1.301
 4451TIP3    H134912   4.985   3.875   1.235
 4451TIP3    H234913   4.982   3.903   1.384
 4452TIP3   OH234914   0.194   1.343   0.284
 4452TIP3    H134915   0.118   1.296   0.318
 4452TIP3    H234916   0.191   1.428   0.329
 4453TIP3   OH234917   0.701   4.268   8.675
 4453TIP3    H134918   0.663   4.337   8.621
 4453TIP3    H234919   0.782   4.305   8.709
 4454TIP3   OH234920   0.224   3.467   6.750
 4454TIP3    H134921   0.130   3.475   6.768
 4454TIP3    H234922   0.252   3.556   6.728
 4455TIP3   OH234923   2.004   3.056   7.282
 4455TIP3    H134924   1.932   3.000   7.252
 4455TIP3    H234925   1.974   3.145   7.265
 4456TIP3   OH234926   6.356   3.949   8.260
 4456TIP3    H134927   6.376   3.901   8.180
 4456TIP3    H234928   6.295   4.017   8.233
 4457TIP3   OH234929   6.101   5.233   7.713
 4457TIP3    H134930   6.101   5.139   7.698
 4457TIP3    H234931   6.147   5.244   7.797
 4458TIP3   OH234932   4.616   2.123   1.945
 4458TIP3    H134933   4.642   2.052   2.005
 4458TIP3    H234934   4.522   2.133   1.960
 4459TIP3   OH234935   4.547   1.838   0.267
 4459TIP3    H134936   4.634   1.828   0.228
 4459TIP3    H234937   4.488   1.797   0.204
 4460TIP3   OH234938   0.287   6.092   8.032
 4460TIP3    H134939   0.276   6.157   7.964
 4460TIP3    H234940   0.372   6.052   8.015
 4461TIP3   OH234941   2.139   3.835   8.222
 4461TIP3    H134942   2.149   3.770   8.292
 4461TIP3    H234943   2.127   3.918   8.268
 4462TIP3   OH234944   5.125   4.940   0.514
 4462TIP3    H134945   5.077   4.878   0.569
 4462TIP3    H234946   5.068   4.952   0.437
 4463TIP3   OH234947   2.295   4.291   0.454
 4463TIP3    H134948   2.285   4.353   0.382
 4463TIP3    H234949   2.297   4.346   0.533
 4464TIP3   OH234950   0.501   0.406   0.096
 4464TIP3    H134951   0.422   0.377   0.051
 4464TIP3    H234952   0.477   0.406   0.189
 4465TIP3   OH234953   1.567   2.379   7.462
 4465TIP3    H134954   1.493   2.327   7.492
 4465TIP3    H234955   1.597   2.335   7.383
 4466TIP3   OH234956   3.729   1.510   7.497
 4466TIP3    H134957   3.717   1.579   7.563
 4466TIP3    H234958   3.696   1.548   7.416
 4467TIP3   OH234959   3.379   4.691   8.380
 4467TIP3    H134960   3.413   4.613   8.422
 4467TIP3    H234961   3.284   4.683   8.388
 4468TIP3   OH234962   4.203   6.447   0.883
 4468TIP3    H134963   4.176   6.447   0.791
 4468TIP3    H234964   4.293   6.416   0.881
 4469TIP3   OH234965   1.106   0.211   0.924
 4469TIP3    H134966   1.019   0.241   0.897
 4469TIP3    H234967   1.166   0.279   0.892
 4470TIP3   OH234968   2.746   6.176   8.707
 4470TIP3    H134969   2.752   6.119   8.630
 4470TIP3    H234970   2.653   6.176   8.729
 4471TIP3   OH234971   0.809   1.901   0.667
 4471TIP3    H134972   0.792   1.939   0.581
 4471TIP3    H234973   0.833   1.810   0.648
 4472TIP3   OH234974   3.894   5.584   7.750
 4472TIP3    H134975   3.897   5.534   7.832
 4472TIP3    H234976   3.978   5.629   7.746
 4473TIP3   OH234977   3.133   2.398   0.078
 4473TIP3    H134978   3.192   2.463   0.116
 4473TIP3    H234979   3.050   2.410   0.124
 4474TIP3   OH234980   6.170   3.441   1.745
 4474TIP3    H134981   6.242   3.455   1.806
 4474TIP3    H234982   6.091   3.451   1.799
 4475TIP3   OH234983   2.295   5.298   1.978
 4475TIP3    H134984   2.227   5.291   1.910
 4475TIP3    H234985   2.248   5.331   2.055
 4476TIP3   OH234986   4.147   0.025   0.082
 4476TIP3    H134987   4.104   0.108   0.064
 4476TIP3    H234988   4.185   0.036   0.169
 4477TIP3   OH234989   0.360   1.308   8.360
 4477TIP3    H134990   0.362   1.350   8.446
 4477TIP3    H234991   0.383   1.378   8.299
 4478TIP3   OH234992   5.055   0.568   8.394
 4478TIP3    H134993   5.050   0.529   8.307
 4478TIP3    H234994   5.046   0.662   8.379
 4479TIP3   OH234995   0.581   3.248   1.253
 4479TIP3    H134996   0.649   3.258   1.319
 4479TIP3    H234997   0.622   3.277   1.171
 4480TIP3   OH234998   6.771   1.917   0.159
 4480TIP3    H134999   0.042   1.856   0.123
 4480TIP3    H235000   6.688   1.868   0.159
 4481TIP3   OH235001   3.868   1.622   1.692
 4481TIP3    H135002   3.836   1.709   1.669
 4481TIP3    H235003   3.876   1.576   1.609
 4482TIP3   OH235004   5.961   3.097   7.934
 4482TIP3    H135005   5.948   3.148   8.014
 4482TIP3    H235006   5.873   3.066   7.911
 4483TIP3   OH235007   6.684   4.866   8.374
 4483TIP3    H135008   6.764   4.890   8.328
 4483TIP3    H235009   6.618   4.860   8.306
 4484TIP3   OH235010   3.675   5.475   0.322
 4484TIP3    H135011   3.586   5.449   0.347
 4484TIP3    H235012   3.704   5.533   0.392
 4485TIP3   OH235013   1.660   2.237   7.765
 4485TIP3    H135014   1.679   2.257   7.674
 4485TIP3    H235015   1.646   2.322   7.806
 4486TIP3   OH235016   2.703   0.236   7.762
 4486TIP3    H135017   2.746   0.178   7.700
 4486TIP3    H235018   2.712   0.192   7.847
 4487TIP3   OH235019   3.028   3.994   1.662
 4487TIP3    H135020   3.026   4.086   1.691
 4487TIP3    H235021   3.086   3.993   1.587
 4488TIP3   OH235022   3.420   1.721   2.430
 4488TIP3    H135023   3.367   1.767   2.496
 4488TIP3    H235024   3.506   1.762   2.435
 4489TIP3   OH235025   1.694   5.972   1.978
 4489TIP3    H135026   1.603   5.944   1.975
 4489TIP3    H235027   1.732   5.919   2.049
 4490TIP3   OH235028   1.456   2.452   0.159
 4490TIP3    H135029   1.408   2.369   0.153
 4490TIP3    H235030   1.393   2.514   0.196
 4491TIP3   OH235031   4.120   4.106   7.986
 4491TIP3    H135032   4.178   4.177   7.959
 4491TIP3    H235033   4.173   4.052   8.044
 4492TIP3   OH235034   0.036   4.481   7.804
 4492TIP3    H135035   0.075   4.555   7.756
 4492TIP3    H235036   0.105   4.415   7.806
 4493TIP3   OH235037   4.457   0.786   0.241
 4493TIP3    H135038   4.528   0.764   0.302
 4493TIP3    H235039   4.502   0.826   0.166
 4494TIP3   OH235040   1.204   2.692   7.748
 4494TIP3    H135041   1.207   2.692   7.652
 4494TIP3    H235042   1.216   2.600   7.772
 4495TIP3   OH235043   3.280   6.518   1.901
 4495TIP3    H135044   3.267   6.581   1.972
 4495TIP3    H235045   3.235   6.556   1.826
 4496TIP3   OH235046   3.051   0.735   1.469
 4496TIP3    H135047   2.957   0.730   1.450
 4496TIP3    H235048   3.055   0.756   1.562
 4497TIP3   OH235049   4.618   4.152   8.446
 4497TIP3    H135050   4.634   4.246   8.438
 4497TIP3    H235051   4.670   4.113   8.376
 4498TIP3   OH235052   6.499   4.393   1.262
 4498TIP3    H135053   6.434   4.444   1.311
 4498TIP3    H235054   6.495   4.306   1.301
 4499TIP3   OH235055   2.241   3.760   7.110
 4499TIP3    H135056   2.205   3.810   7.037
 4499TIP3    H235057   2.267   3.676   7.072
 4500TIP3   OH235058   3.224   2.219   1.810
 4500TIP3    H135059   3.158   2.198   1.876
 4500TIP3    H235060   3.277   2.288   1.850
 4501TIP3   OH235061   4.834   2.273   2.058
 4501TIP3    H135062   4.744   2.257   2.029
 4501TIP3    H235063   4.876   2.313   1.983
 4502TIP3   OH235064   4.545   2.637   0.660
 4502TIP3    H135065   4.577   2.696   0.728
 4502TIP3    H235066   4.451   2.630   0.677
 4503TIP3   OH235067   3.936   3.923   8.212
 4503TIP3    H135068   3.978   3.838   8.220
 4503TIP3    H235069   3.956   3.968   8.294
 4504TIP3   OH235070   4.363   3.393   1.530
 4504TIP3    H135071   4.453   3.415   1.556
 4504TIP3    H235072   4.320   3.367   1.612
 4505TIP3   OH235073   0.770   2.471   7.617
 4505TIP3    H135074   0.702   2.416   7.657
 4505TIP3    H235075   0.725   2.520   7.549
 4506TIP3   OH235076   3.348   2.871   0.712
 4506TIP3    H135077   3.321   2.781   0.692
 4506TIP3    H235078   3.301   2.925   0.648
 4507TIP3   OH235079   4.038   1.917   1.255
 4507TIP3    H135080   4.132   1.932   1.244
 4507TIP3    H235081   3.998   2.000   1.229
 4508TIP3   OH235082   2.478   0.334   1.177
 4508TIP3    H135083   2.508   0.289   1.257
 4508TIP3    H235084   2.414   0.398   1.208
 4509TIP3   OH235085   0.532   4.516   0.213
 4509TIP3    H135086   0.489   4.499   0.129
 4509TIP3    H235087   0.616   4.556   0.189
 4510TIP3   OH235088   6.271   2.496   8.276
 4510TIP3    H135089   6.211   2.565   8.303
 4510TIP3    H235090   6.220   2.442   8.215
 4511TIP3   OH235091   0.233   1.046   7.142
 4511TIP3    H135092   0.178   0.999   7.205
 4511TIP3    H235093   0.304   1.082   7.195
 4512TIP3   OH235094   2.446   2.481   1.305
 4512TIP3    H135095   2.509   2.538   1.261
 4512TIP3    H235096   2.475   2.479   1.396
 4513TIP3   OH235097   2.795   3.745   7.136
 4513TIP3    H135098   2.792   3.651   7.116
 4513TIP3    H235099   2.706   3.776   7.119
 4514TIP3   OH235100   0.065   5.106   7.167
 4514TIP3    H135101   0.055   5.124   7.260
 4514TIP3    H235102   6.771   5.078   7.138
 4515TIP3   OH235103   3.192   2.051   1.381
 4515TIP3    H135104   3.255   2.054   1.309
 4515TIP3    H235105   3.107   2.064   1.339
 4516TIP3   OH235106   6.749   4.860   0.730
 4516TIP3    H135107   6.787   4.814   0.805
 4516TIP3    H235108   6.694   4.794   0.688
 4517TIP3   OH235109   1.054   1.627   0.957
 4517TIP3    H135110   1.041   1.637   0.863
 4517TIP3    H235111   1.095   1.541   0.966
 4518TIP3   OH235112   0.909   0.987   6.918
 4518TIP3    H135113   0.929   0.941   6.837
 4518TIP3    H235114   0.993   1.021   6.948
 4519TIP3   OH235115   4.897   2.080   0.694
 4519TIP3    H135116   4.969   2.120   0.645
 4519TIP3    H235117   4.863   2.012   0.636
 4520TIP3   OH235118   4.174   1.069   1.973
 4520TIP3    H135119   4.109   1.069   2.044
 4520TIP3    H235120   4.214   0.982   1.977
 4521TIP3   OH235121   3.620   2.218   0.661
 4521TIP3    H135122   3.602   2.144   0.719
 4521TIP3    H235123   3.537   2.265   0.655
 4522TIP3   OH235124   2.006   3.846   1.650
 4522TIP3    H135125   2.037   3.927   1.691
 4522TIP3    H235126   2.077   3.819   1.593
 4523TIP3   OH235127   1.016   2.107   7.475
 4523TIP3    H135128   1.042   2.182   7.529
 4523TIP3    H235129   1.007   2.143   7.387
 4524TIP3   OH235130   5.208   6.341   6.349
 4524TIP3    H135131   5.214   6.406   6.419
 4524TIP3    H235132   5.119   6.307   6.354
 4525TIP3   OH235133   1.787   1.769   1.487
 4525TIP3    H135134   1.783   1.850   1.537
 4525TIP3    H235135   1.707   1.769   1.433
 4526TIP3   OH235136   1.845   0.391   0.483
 4526TIP3    H135137   1.883   0.304   0.474
 4526TIP3    H235138   1.752   0.375   0.501
 4527TIP3   OH235139   3.393   1.328   7.529
 4527TIP3    H135140   3.485   1.307   7.513
 4527TIP3    H235141   3.395   1.381   7.608
 4528TIP3   OH235142   6.297   3.818   8.487
 4528TIP3    H135143   6.315   3.880   8.557
 4528TIP3    H235144   6.331   3.860   8.408
 4529TIP3   OH235145   5.307   2.874   7.994
 4529TIP3    H135146   5.366   2.890   8.068
 4529TIP3    H235147   5.326   2.947   7.934
 4530TIP3   OH235148   4.362   0.273   1.615
 4530TIP3    H135149   4.401   0.311   1.694
 4530TIP3    H235150   4.429   0.214   1.582
 4531TIP3   OH235151   0.765   1.059   7.380
 4531TIP3    H135152   0.857   1.035   7.391
 4531TIP3    H235153   0.719   0.975   7.371
 4532TIP3   OH235154   5.079   5.743   1.155
 4532TIP3    H135155   5.020   5.753   1.080
 4532TIP3    H235156   5.125   5.661   1.138
 4533TIP3   OH235157   2.302   4.723   8.345
 4533TIP3    H135158   2.253   4.763   8.417
 4533TIP3    H235159   2.241   4.726   8.271
 4534TIP3   OH235160   6.730   4.012   7.425
 4534TIP3    H135161   6.771   3.943   7.372
 4534TIP3    H235162   6.708   4.081   7.362
 4535TIP3   OH235163   3.848   5.968   0.855
 4535TIP3    H135164   3.801   6.045   0.887
 4535TIP3    H235165   3.819   5.897   0.912
 4536TIP3   OH235166   0.981   3.241   7.670
 4536TIP3    H135167   1.018   3.165   7.714
 4536TIP3    H235168   0.893   3.250   7.707
 4537TIP3   OH235169   4.127   6.302   7.728
 4537TIP3    H135170   4.097   6.212   7.735
 4537TIP3    H235171   4.088   6.335   7.647
 4538TIP3   OH235172   1.314   6.789   8.070
 4538TIP3    H135173   1.356   0.080   8.055
 4538TIP3    H235174   1.288   6.790   8.162
 4539TIP3   OH235175   3.189   5.935   6.855
 4539TIP3    H135176   3.124   5.996   6.820
 4539TIP3    H235177   3.271   5.963   6.816
 4540TIP3   OH235178   6.578   6.125   8.224
 4540TIP3    H135179   6.623   6.041   8.220
 4540TIP3    H235180   6.497   6.112   8.175
 4541TIP3   OH235181   6.147   4.992   1.402
 4541TIP3    H135182   6.204   4.948   1.339
 4541TIP3    H235183   6.161   5.086   1.386
 4542TIP3   OH235184   3.768   3.268   6.487
 4542TIP3    H135185   3.728   3.346   6.527
 4542TIP3    H235186   3.735   3.267   6.398
 4543TIP3   OH235187   2.871   0.898   7.926
 4543TIP3    H135188   2.883   0.882   7.833
 4543TIP3    H235189   2.778   0.885   7.941
 4544TIP3   OH235190   4.706   0.550   7.207
 4544TIP3    H135191   4.704   0.533   7.301
 4544TIP3    H235192   4.732   0.467   7.168
 4545TIP3   OH235193   3.314   1.349   0.229
 4545TIP3    H135194   3.300   1.362   0.323
 4545TIP3    H235195   3.317   1.254   0.219
 4546TIP3   OH235196   0.764   1.875   7.144
 4546TIP3    H135197   0.794   1.940   7.080
 4546TIP3    H235198   0.749   1.925   7.224
 4547TIP3   OH235199   4.800   0.968   2.015
 4547TIP3    H135200   4.763   1.056   2.012
 4547TIP3    H235201   4.893   0.981   2.032
 4548TIP3   OH235202   2.296   5.407   1.690
 4548TIP3    H135203   2.377   5.366   1.722
 4548TIP3    H235204   2.227   5.344   1.712
 4549TIP3   OH235205   5.375   4.169   8.648
 4549TIP3    H135206   5.406   4.108   8.716
 4549TIP3    H235207   5.288   4.196   8.678
 4550TIP3   OH235208   6.232   1.334   8.764
 4550TIP3    H135209   6.165   1.266   8.760
 4550TIP3    H235210   6.275   1.320   8.849
 4551TIP3   OH235211   4.271   3.563   2.299
 4551TIP3    H135212   4.286   3.493   2.363
 4551TIP3    H235213   4.354   3.611   2.297
 4552TIP3   OH235214   6.190   1.210   1.111
 4552TIP3    H135215   6.259   1.222   1.175
 4552TIP3    H235216   6.115   1.259   1.146
 4553TIP3   OH235217   4.045   5.406   6.576
 4553TIP3    H135218   3.981   5.393   6.505
 4553TIP3    H235219   4.092   5.323   6.581
 4554TIP3   OH235220   2.556   4.180   7.731
 4554TIP3    H135221   2.532   4.272   7.744
 4554TIP3    H235222   2.615   4.160   7.804
 4555TIP3   OH235223   2.899   5.457   1.831
 4555TIP3    H135224   2.869   5.548   1.841
 4555TIP3    H235225   2.965   5.446   1.900
 4556TIP3   OH235226   3.689   6.548   7.400
 4556TIP3    H135227   3.672   6.455   7.416
 4556TIP3    H235228   3.678   6.558   7.306
 4557TIP3   OH235229   0.834   6.537   7.965
 4557TIP3    H135230   0.825   6.473   7.895
 4557TIP3    H235231   0.924   6.524   7.997
 4558TIP3   OH235232   5.244   5.893   0.732
 4558TIP3    H135233   5.253   5.805   0.697
 4558TIP3    H235234   5.152   5.898   0.760
 4559TIP3   OH235235   0.051   3.044   7.528
 4559TIP3    H135236   0.078   3.015   7.441
 4559TIP3    H235237   0.131   3.079   7.568
 4560TIP3   OH235238   3.794   4.914   1.585
 4560TIP3    H135239   3.723   4.897   1.646
 4560TIP3    H235240   3.873   4.912   1.639
 4561TIP3   OH235241   1.389   0.846   0.666
 4561TIP3    H135242   1.392   0.807   0.578
 4561TIP3    H235243   1.480   0.860   0.690
 4562TIP3   OH235244   4.134   0.164   0.355
 4562TIP3    H135245   4.045   0.142   0.326
 4562TIP3    H235246   4.125   0.250   0.396
 4563TIP3   OH235247   3.121   4.849   8.789
 4563TIP3    H135248   3.159   4.878   8.706
 4563TIP3    H235249   3.167   4.768   8.810
 4564TIP3   OH235250   2.462   2.679   0.300
 4564TIP3    H135251   2.502   2.592   0.293
 4564TIP3    H235252   2.373   2.662   0.331
 4565TIP3   OH235253   2.837   5.713   1.938
 4565TIP3    H135254   2.880   5.745   2.018
 4565TIP3    H235255   2.829   5.790   1.883
 4566TIP3   OH235256   5.706   4.814   8.617
 4566TIP3    H135257   5.649   4.790   8.544
 4566TIP3    H235258   5.649   4.814   8.694
 4567TIP3   OH235259   6.657   1.160   8.791
 4567TIP3    H135260   6.672   1.200   8.705
 4567TIP3    H235261   6.730   1.190   8.844
 4568TIP3   OH235262   2.919   1.349   8.449
 4568TIP3    H135263   2.829   1.355   8.417
 4568TIP3    H235264   2.944   1.257   8.435
 4569TIP3   OH235265   2.160   6.117   1.408
 4569TIP3    H135266   2.112   6.071   1.476
 4569TIP3    H235267   2.093   6.160   1.355
 4570TIP3   OH235268   0.266   1.670   2.310
 4570TIP3    H135269   0.321   1.682   2.232
 4570TIP3    H235270   0.308   1.723   2.377
 4571TIP3   OH235271   1.667   0.487   1.934
 4571TIP3    H135272   1.640   0.537   2.011
 4571TIP3    H235273   1.598   0.422   1.922
 4572TIP3   OH235274   5.031   1.880   1.651
 4572TIP3    H135275   4.957   1.893   1.709
 4572TIP3    H235276   4.997   1.823   1.581
 4573TIP3   OH235277   5.646   2.297   0.963
 4573TIP3    H135278   5.740   2.288   0.977
 4573TIP3    H235279   5.624   2.224   0.905
 4574TIP3   OH235280   3.225   6.689   2.097
 4574TIP3    H135281   3.301   6.747   2.087
 4574TIP3    H235282   3.194   6.707   2.186
 4575TIP3   OH235283   4.491   6.523   2.763
 4575TIP3    H135284   4.409   6.505   2.809
 4575TIP3    H235285   4.472   6.500   2.672
 4576TIP3   OH235286   1.601   4.618   1.377
 4576TIP3    H135287   1.666   4.672   1.331
 4576TIP3    H235288   1.654   4.566   1.439
 4577TIP3   OH235289   5.511   5.774   1.074
 4577TIP3    H135290   5.476   5.746   1.159
 4577TIP3    H235291   5.478   5.709   1.012
 4578TIP3   OH235292   3.519   1.963   7.940
 4578TIP3    H135293   3.580   2.023   7.982
 4578TIP3    H235294   3.433   2.005   7.950
 4579TIP3   OH235295   6.761   0.827   0.864
 4579TIP3    H135296   6.719   0.856   0.945
 4579TIP3    H235297   6.717   0.877   0.795
 4580TIP3   OH235298   0.395   5.352   8.158
 4580TIP3    H135299   0.357   5.389   8.238
 4580TIP3    H235300   0.439   5.426   8.116
 4581TIP3   OH235301   5.662   5.578   0.785
 4581TIP3    H135302   5.738   5.629   0.758
 4581TIP3    H235303   5.694   5.522   0.856
 4582TIP3   OH235304   1.752   4.664   7.832
 4582TIP3    H135305   1.711   4.627   7.910
 4582TIP3    H235306   1.679   4.683   7.774
 4583TIP3   OH235307   1.689   1.240   1.674
 4583TIP3    H135308   1.638   1.314   1.641
 4583TIP3    H235309   1.686   1.251   1.770
 4584TIP3   OH235310   5.247   5.234   8.739
 4584TIP3    H135311   5.280   5.291   8.807
 4584TIP3    H235312   5.316   5.234   8.672
 4585TIP3   OH235313   0.498   1.778   0.480
 4585TIP3    H135314   0.547   1.696   0.470
 4585TIP3    H235315   0.406   1.752   0.481
 4586TIP3   OH235316   5.651   4.745   0.841
 4586TIP3    H135317   5.668   4.732   0.934
 4586TIP3    H235318   5.725   4.797   0.810
 4587TIP3   OH235319   5.100   5.806   0.236
 4587TIP3    H135320   5.127   5.737   0.297
 4587TIP3    H235321   5.038   5.859   0.285
 4588TIP3   OH235322   4.815   3.466   2.457
 4588TIP3    H135323   4.783   3.536   2.514
 4588TIP3    H235324   4.779   3.386   2.494
 4589TIP3   OH235325   1.597   2.522   7.693
 4589TIP3    H135326   1.596   2.490   7.603
 4589TIP3    H235327   1.679   2.572   7.699
 4590TIP3   OH235328   3.065   4.304   0.509
 4590TIP3    H135329   2.972   4.289   0.495
 4590TIP3    H235330   3.094   4.352   0.431
 4591TIP3   OH235331   3.826   4.871   8.663
 4591TIP3    H135332   3.770   4.830   8.596
 4591TIP3    H235333   3.791   4.959   8.673
 4592TIP3   OH235334   0.110   3.302   7.997
 4592TIP3    H135335   0.020   3.312   7.965
 4592TIP3    H235336   0.164   3.313   7.919
 4593TIP3   OH235337   5.975   1.261   0.811
 4593TIP3    H135338   5.907   1.328   0.805
 4593TIP3    H235339   5.938   1.195   0.869
 4594TIP3   OH235340   0.057   0.274   1.458
 4594TIP3    H135341   0.143   0.279   1.415
 4594TIP3    H235342   0.006   0.344   1.418
 4595TIP3   OH235343   6.634   6.161   2.389
 4595TIP3    H135344   6.694   6.088   2.377
 4595TIP3    H235345   6.563   6.126   2.443
 4596TIP3   OH235346   2.968   4.953   7.697
 4596TIP3    H135347   2.876   4.971   7.717
 4596TIP3    H235348   2.965   4.888   7.627
 4597TIP3   OH235349   2.865   2.613   8.796
 4597TIP3    H135350   2.812   2.537   8.772
 4597TIP3    H235351   2.864   2.668   8.718
 4598TIP3   OH235352   5.514   2.510   0.293
 4598TIP3    H135353   5.535   2.489   0.384
 4598TIP3    H235354   5.494   2.425   0.252
 4599TIP3   OH235355   0.628   6.405   1.500
 4599TIP3    H135356   0.601   6.497   1.503
 4599TIP3    H235357   0.673   6.396   1.417
 4600TIP3   OH235358   5.773   5.093   8.683
 4600TIP3    H135359   5.858   5.109   8.643
 4600TIP3    H235360   5.735   5.021   8.633
 4601TIP3   OH235361   4.815   1.712   0.172
 4601TIP3    H135362   4.875   1.707   0.098
 4601TIP3    H235363   4.775   1.625   0.177
 4602TIP3   OH235364   2.640   0.885   1.903
 4602TIP3    H135365   2.563   0.847   1.946
 4602TIP3    H235366   2.660   0.824   1.832
 4603TIP3   OH235367   3.685   5.807   8.237
 4603TIP3    H135368   3.613   5.812   8.300
 4603TIP3    H235369   3.686   5.715   8.210
 4604TIP3   OH235370   3.037   4.010   7.140
 4604TIP3    H135371   2.966   3.946   7.147
 4604TIP3    H235372   3.003   4.089   7.181
 4605TIP3   OH235373   4.945   2.266   0.281
 4605TIP3    H135374   4.976   2.309   0.201
 4605TIP3    H235375   4.882   2.201   0.251
 4606TIP3   OH235376   3.916   0.196   1.815
 4606TIP3    H135377   3.941   0.125   1.874
 4606TIP3    H235378   3.998   0.219   1.771
 4607TIP3   OH235379   5.552   6.719   7.549
 4607TIP3    H135380   5.621   6.657   7.574
 4607TIP3    H235381   5.578   0.007   7.593
 4608TIP3   OH235382   5.206   3.232   7.963
 4608TIP3    H135383   5.288   3.196   7.997
 4608TIP3    H235384   5.209   3.215   7.868
 4609TIP3   OH235385   0.257   2.587   7.485
 4609TIP3    H135386   0.234   2.506   7.440
 4609TIP3    H235387   0.175   2.636   7.491
 4610TIP3   OH235388   2.243   2.059   8.677
 4610TIP3    H135389   2.168   2.116   8.666
 4610TIP3    H235390   2.292   2.069   8.595
 4611TIP3   OH235391   5.034   0.557   8.057
 4611TIP3    H135392   5.040   0.462   8.049
 4611TIP3    H235393   5.001   0.586   7.972
 4612TIP3   OH235394   6.487   1.910   0.654
 4612TIP3    H135395   6.528   1.904   0.567
 4612TIP3    H235396   6.559   1.896   0.715
 4613TIP3   OH235397   0.519   4.433   0.730
 4613TIP3    H135398   0.593   4.484   0.764
 4613TIP3    H235399   0.442   4.484   0.753
 4614TIP3   OH235400   4.452   4.973   8.740
 4614TIP3    H135401   4.520   5.014   8.793
 4614TIP3    H235402   4.373   4.981   8.793
 4615TIP3   OH235403   1.212   3.281   7.881
 4615TIP3    H135404   1.278   3.236   7.829
 4615TIP3    H235405   1.209   3.370   7.846
 4616TIP3   OH235406   2.709   0.497   0.661
 4616TIP3    H135407   2.751   0.502   0.747
 4616TIP3    H235408   2.740   0.576   0.615
 4617TIP3   OH235409   3.813   3.583   7.671
 4617TIP3    H135410   3.794   3.670   7.638
 4617TIP3    H235411   3.908   3.575   7.668
 4618TIP3   OH235412   1.928   6.651   1.207
 4618TIP3    H135413   1.872   6.691   1.273
 4618TIP3    H235414   2.010   6.699   1.212
 4619TIP3   OH235415   2.694   3.478   7.119
 4619TIP3    H135416   2.626   3.544   7.105
 4619TIP3    H235417   2.657   3.397   7.085
 4620TIP3   OH235418   6.090   4.784   6.559
 4620TIP3    H135419   6.005   4.829   6.560
 4620TIP3    H235420   6.072   4.698   6.596
 4621TIP3   OH235421   4.015   6.486   7.487
 4621TIP3    H135422   4.009   6.504   7.393
 4621TIP3    H235423   4.020   6.572   7.528
 4622TIP3   OH235424   5.978   1.754   2.122
 4622TIP3    H135425   6.021   1.803   2.192
 4622TIP3    H235426   5.934   1.820   2.069
 4623TIP3   OH235427   0.815   5.590   8.015
 4623TIP3    H135428   0.733   5.623   7.978
 4623TIP3    H235429   0.819   5.628   8.103
 4624TIP3   OH235430   6.655   4.726   0.165
 4624TIP3    H135431   6.639   4.815   0.197
 4624TIP3    H235432   6.649   4.733   0.070
 4625TIP3   OH235433   0.676   4.727   0.346
 4625TIP3    H135434   0.622   4.752   0.271
 4625TIP3    H235435   0.647   4.785   0.417
 4626TIP3   OH235436   0.424   1.992   0.029
 4626TIP3    H135437   0.367   2.062   8.868
 4626TIP3    H235438   0.366   1.917   0.041
 4627TIP3   OH235439   6.075   0.654   0.362
 4627TIP3    H135440   6.040   0.739   0.389
 4627TIP3    H235441   6.155   0.675   0.314
 4628TIP3   OH235442   2.393   1.918   1.279
 4628TIP3    H135443   2.438   2.000   1.296
 4628TIP3    H235444   2.459   1.861   1.239
 4629TIP3   OH235445   5.035   1.995   7.258
 4629TIP3    H135446   4.997   2.068   7.209
 4629TIP3    H235447   4.964   1.931   7.265
 4630TIP3   OH235448   2.693   5.608   7.537
 4630TIP3    H135449   2.727   5.540   7.479
 4630TIP3    H235450   2.666   5.561   7.616
 4631TIP3   OH235451   6.226   4.100   1.289
 4631TIP3    H135452   6.291   4.050   1.340
 4631TIP3    H235453   6.195   4.167   1.350
 4632TIP3   OH235454   5.166   5.609   0.428
 4632TIP3    H135455   5.225   5.601   0.503
 4632TIP3    H235456   5.153   5.519   0.399
 4633TIP3   OH235457   4.559   1.209   8.124
 4633TIP3    H135458   4.468   1.189   8.147
 4633TIP3    H235459   4.576   1.156   8.047
 4634TIP3   OH235460   6.542   2.954   7.463
 4634TIP3    H135461   6.469   2.984   7.518
 4634TIP3    H235462   6.617   2.948   7.522
 4635TIP3   OH235463   6.241   4.548   7.430
 4635TIP3    H135464   6.291   4.628   7.444
 4635TIP3    H235465   6.164   4.557   7.486
 4636TIP3   OH235466   6.131   1.729   0.329
 4636TIP3    H135467   6.107   1.739   0.237
 4636TIP3    H235468   6.133   1.819   0.363
 4637TIP3   OH235469   2.494   3.995   0.082
 4637TIP3    H135470   2.415   4.027   0.126
 4637TIP3    H235471   2.469   3.986   8.859
 4638TIP3   OH235472   4.060   1.815   2.970
 4638TIP3    H135473   4.147   1.833   3.006
 4638TIP3    H235474   4.034   1.897   2.928
 4639TIP3   OH235475   2.543   5.236   1.730
 4639TIP3    H135476   2.539   5.170   1.661
 4639TIP3    H235477   2.608   5.299   1.698
 4640TIP3   OH235478   2.153   5.563   8.203
 4640TIP3    H135479   2.183   5.631   8.264
 4640TIP3    H235480   2.229   5.544   8.148
 4641TIP3   OH235481   1.375   4.524   1.479
 4641TIP3    H135482   1.462   4.551   1.449
 4641TIP3    H235483   1.315   4.556   1.411
 4642TIP3   OH235484   1.672   1.078   0.162
 4642TIP3    H135485   1.578   1.071   0.181
 4642TIP3    H235486   1.679   1.061   0.069
 4643TIP3   OH235487   2.612   4.830   8.536
 4643TIP3    H135488   2.539   4.891   8.526
 4643TIP3    H235489   2.599   4.791   8.622
 4644TIP3   OH235490   2.400   1.754   7.029
 4644TIP3    H135491   2.321   1.770   7.080
 4644TIP3    H235492   2.439   1.841   7.017
 4645TIP3   OH235493   3.134   5.032   2.383
 4645TIP3    H135494   3.048   5.061   2.411
 4645TIP3    H235495   3.118   4.984   2.301
 4646TIP3   OH235496   3.733   5.940   1.311
 4646TIP3    H135497   3.827   5.930   1.295
 4646TIP3    H235498   3.693   5.939   1.224
 4647TIP3   OH235499   0.003   3.868   6.711
 4647TIP3    H135500   6.785   3.906   6.798
 4647TIP3    H235501   0.081   3.813   6.719
 4648TIP3   OH235502   2.160   0.310   2.630
 4648TIP3    H135503   2.232   0.274   2.682
 4648TIP3    H235504   2.179   0.283   2.540
 4649TIP3   OH235505   6.430   1.202   0.078
 4649TIP3    H135506   6.399   1.112   0.061
 4649TIP3    H235507   6.514   1.207   0.033
 4650TIP3   OH235508   1.484   4.795   7.856
 4650TIP3    H135509   1.456   4.710   7.889
 4650TIP3    H235510   1.435   4.858   7.909
 4651TIP3   OH235511   1.333   4.498   6.975
 4651TIP3    H135512   1.254   4.460   6.935
 4651TIP3    H235513   1.404   4.441   6.945
 4652TIP3   OH235514   3.729   3.249   2.127
 4652TIP3    H135515   3.644   3.236   2.168
 4652TIP3    H235516   3.748   3.342   2.140
 4653TIP3   OH235517   3.193   3.995   1.435
 4653TIP3    H135518   3.284   4.026   1.444
 4653TIP3    H235519   3.183   3.978   1.342
 4654TIP3   OH235520   1.400   5.052   7.355
 4654TIP3    H135521   1.335   5.020   7.292
 4654TIP3    H235522   1.481   5.008   7.329
 4655TIP3   OH235523   1.647   3.374   1.466
 4655TIP3    H135524   1.666   3.467   1.456
 4655TIP3    H235525   1.556   3.364   1.440
 4656TIP3   OH235526   6.318   3.284   8.824
 4656TIP3    H135527   6.317   3.311   8.733
 4656TIP3    H235528   6.229   3.253   8.841
 4657TIP3   OH235529   3.492   6.261   7.085
 4657TIP3    H135530   3.536   6.328   7.034
 4657TIP3    H235531   3.405   6.297   7.101
 4658TIP3   OH235532   0.801   3.450   8.112
 4658TIP3    H135533   0.733   3.507   8.078
 4658TIP3    H235534   0.879   3.474   8.063
 4659TIP3   OH235535   2.570   2.540   8.730
 4659TIP3    H135536   2.608   2.476   8.671
 4659TIP3    H235537   2.483   2.505   8.751
 4660TIP3   OH235538   6.150   1.913   7.117
 4660TIP3    H135539   6.149   2.007   7.136
 4660TIP3    H235540   6.074   1.879   7.163
 4661TIP3   OH235541   0.395   5.934   1.988
 4661TIP3    H135542   0.448   5.905   2.062
 4661TIP3    H235543   0.396   5.860   1.928
 4662TIP3   OH235544   4.718   2.065   6.753
 4662TIP3    H135545   4.641   2.048   6.698
 4662TIP3    H235546   4.785   2.007   6.718
 4663TIP3   OH235547   6.685   2.435   7.951
 4663TIP3    H135548   6.670   2.359   8.007
 4663TIP3    H235549   6.624   2.501   7.983
 4664TIP3   OH235550   1.588   5.478   7.478
 4664TIP3    H135551   1.515   5.446   7.529
 4664TIP3    H235552   1.603   5.411   7.412
 4665TIP3   OH235553   6.126   6.763   0.891
 4665TIP3    H135554   6.076   0.051   0.882
 4665TIP3    H235555   6.147   6.737   0.801
 4666TIP3   OH235556   3.453   0.359   2.102
 4666TIP3    H135557   3.508   0.430   2.134
 4666TIP3    H235558   3.381   0.403   2.056
 4667TIP3   OH235559   2.587   4.222   0.337
 4667TIP3    H135560   2.524   4.278   0.384
 4667TIP3    H235561   2.583   4.254   0.246
 4668TIP3   OH235562   4.831   3.346   7.232
 4668TIP3    H135563   4.832   3.436   7.199
 4668TIP3    H235564   4.882   3.296   7.168
 4669TIP3   OH235565   2.853   5.240   6.647
 4669TIP3    H135566   2.871   5.162   6.700
 4669TIP3    H235567   2.796   5.209   6.577
 4670TIP3   OH235568   4.796   0.510   2.021
 4670TIP3    H135569   4.746   0.567   2.079
 4670TIP3    H235570   4.869   0.478   2.075
 4671TIP3   OH235571   4.883   6.019   7.368
 4671TIP3    H135572   4.979   6.021   7.369
 4671TIP3    H235573   4.861   5.927   7.363
 4672TIP3   OH235574   6.602   0.085   7.307
 4672TIP3    H135575   6.622   0.073   7.214
 4672TIP3    H235576   6.684   0.066   7.352
 4673TIP3   OH235577   5.671   3.820   0.486
 4673TIP3    H135578   5.581   3.790   0.503
 4673TIP3    H235579   5.670   3.846   0.394
 4674TIP3   OH235580   3.760   5.622   1.273
 4674TIP3    H135581   3.713   5.697   1.310
 4674TIP3    H235582   3.701   5.548   1.285
 4675TIP3   OH235583   3.348   4.165   6.918
 4675TIP3    H135584   3.371   4.167   6.825
 4675TIP3    H235585   3.293   4.087   6.927
 4676TIP3   OH235586   1.957   0.712   2.029
 4676TIP3    H135587   2.021   0.677   2.090
 4676TIP3    H235588   1.990   0.686   1.943
 4677TIP3   OH235589   0.520   1.387   0.148
 4677TIP3    H135590   0.483   1.347   0.226
 4677TIP3    H235591   0.515   1.481   0.165
 4678TIP3   OH235592   2.899   6.394   2.657
 4678TIP3    H135593   2.831   6.415   2.721
 4678TIP3    H235594   2.864   6.319   2.609
 4679TIP3   OH235595   5.472   6.434   8.119
 4679TIP3    H135596   5.553   6.400   8.156
 4679TIP3    H235597   5.403   6.384   8.162
 4680TIP3   OH235598   6.429   3.304   8.265
 4680TIP3    H135599   6.441   3.390   8.305
 4680TIP3    H235600   6.334   3.290   8.268
 4681TIP3   OH235601   3.021   6.639   0.884
 4681TIP3    H135602   3.057   6.727   0.881
 4681TIP3    H235603   2.928   6.650   0.863
 4682TIP3   OH235604   4.851   6.615   1.070
 4682TIP3    H135605   4.902   6.654   1.141
 4682TIP3    H235606   4.897   6.533   1.050
 4683TIP3   OH235607   6.647   2.070   8.752
 4683TIP3    H135608   6.559   2.081   8.717
 4683TIP3    H235609   6.670   1.980   8.731
 4684TIP3   OH235610   2.710   2.428   2.118
 4684TIP3    H135611   2.700   2.521   2.094
 4684TIP3    H235612   2.803   2.417   2.133
 4685TIP3   OH235613   1.939   1.232   0.463
 4685TIP3    H135614   1.967   1.320   0.485
 4685TIP3    H235615   1.853   1.223   0.506
 4686TIP3   OH235616   3.194   5.710   2.473
 4686TIP3    H135617   3.100   5.692   2.471
 4686TIP3    H235618   3.232   5.641   2.419
 4687TIP3   OH235619   3.918   1.788   6.695
 4687TIP3    H135620   3.910   1.753   6.783
 4687TIP3    H235621   3.950   1.715   6.642
 4688TIP3   OH235622   0.356   4.485   8.844
 4688TIP3    H135623   0.345   4.466   8.751
 4688TIP3    H235624   0.317   4.410   0.021
 4689TIP3   OH235625   2.688   3.188   6.775
 4689TIP3    H135626   2.675   3.240   6.696
 4689TIP3    H235627   2.686   3.097   6.745
 4690TIP3   OH235628   2.598   4.870   1.675
 4690TIP3    H135629   2.667   4.858   1.740
 4690TIP3    H235630   2.525   4.907   1.725
 4691TIP3   OH235631   3.919   3.862   7.922
 4691TIP3    H135632   3.960   3.919   7.857
 4691TIP3    H235633   3.934   3.906   8.005
 4692TIP3   OH235634   4.897   3.463   1.318
 4692TIP3    H135635   4.915   3.471   1.225
 4692TIP3    H235636   4.808   3.496   1.329
 4693TIP3   OH235637   5.805   6.783   6.991
 4693TIP3    H135638   5.818   0.043   7.070
 4693TIP3    H235639   5.882   0.009   6.937
 4694TIP3   OH235640   4.476   4.699   0.155
 4694TIP3    H135641   4.553   4.646   0.134
 4694TIP3    H235642   4.412   4.675   0.088
 4695TIP3   OH235643   6.277   4.289   7.652
 4695TIP3    H135644   6.284   4.356   7.720
 4695TIP3    H235645   6.284   4.206   7.699
 4696TIP3   OH235646   6.046   4.035   7.645
 4696TIP3    H135647   6.129   4.064   7.682
 4696TIP3    H235648   6.013   3.970   7.707
 4697TIP3   OH235649   4.603   3.581   7.180
 4697TIP3    H135650   4.546   3.658   7.180
 4697TIP3    H235651   4.578   3.533   7.101
 4698TIP3   OH235652   3.512   2.465   6.768
 4698TIP3    H135653   3.595   2.479   6.722
 4698TIP3    H235654   3.537   2.418   6.848
 4699TIP3   OH235655   1.657   6.685   1.076
 4699TIP3    H135656   1.673   6.746   1.149
 4699TIP3    H235657   1.733   6.628   1.075
 4700TIP3   OH235658   1.022   1.042   7.389
 4700TIP3    H135659   1.078   0.979   7.344
 4700TIP3    H235660   1.066   1.058   7.472
 4701TIP3   OH235661   4.356   1.705   8.658
 4701TIP3    H135662   4.369   1.693   8.564
 4701TIP3    H235663   4.384   1.796   8.674
 4702TIP3   OH235664   6.367   0.797   8.594
 4702TIP3    H135665   6.441   0.839   8.549
 4702TIP3    H235666   6.408   0.737   8.656
 4703TIP3   OH235667   1.368   1.093   0.477
 4703TIP3    H135668   1.378   1.148   0.399
 4703TIP3    H235669   1.383   1.004   0.445
 4704TIP3   OH235670   5.935   6.381   1.340
 4704TIP3    H135671   5.890   6.444   1.397
 4704TIP3    H235672   5.870   6.360   1.272
 4705TIP3   OH235673   0.898   5.774   1.387
 4705TIP3    H135674   0.817   5.755   1.434
 4705TIP3    H235675   0.869   5.804   1.301
 4706TIP3   OH235676   5.547   5.730   0.497
 4706TIP3    H135677   5.595   5.750   0.578
 4706TIP3    H235678   5.615   5.719   0.431
 4707TIP3   OH235679   4.807   1.941   2.333
 4707TIP3    H135680   4.902   1.953   2.334
 4707TIP3    H235681   4.772   2.025   2.366
 4708TIP3   OH235682   6.049   3.996   7.038
 4708TIP3    H135683   6.114   3.999   6.968
 4708TIP3    H235684   5.967   3.973   6.993
 4709TIP3   OH235685   1.729   2.858   6.718
 4709TIP3    H135686   1.738   2.901   6.633
 4709TIP3    H235687   1.716   2.766   6.697
 4710TIP3   OH235688   3.077   0.118   0.653
 4710TIP3    H135689   3.143   0.095   0.718
 4710TIP3    H235690   3.076   0.043   0.593
 4711TIP3   OH235691   0.488   4.450   7.721
 4711TIP3    H135692   0.555   4.390   7.688
 4711TIP3    H235693   0.504   4.532   7.674
 4712TIP3   OH235694   4.856   3.694   8.468
 4712TIP3    H135695   4.923   3.726   8.407
 4712TIP3    H235696   4.903   3.633   8.525
 4713TIP3   OH235697   3.910   5.281   7.450
 4713TIP3    H135698   3.994   5.234   7.451
 4713TIP3    H235699   3.884   5.280   7.358
 4714TIP3   OH235700   1.501   2.892   8.594
 4714TIP3    H135701   1.452   2.829   8.647
 4714TIP3    H235702   1.579   2.844   8.566
 4715TIP3   OH235703   5.652   4.337   1.458
 4715TIP3    H135704   5.666   4.254   1.503
 4715TIP3    H235705   5.684   4.403   1.519
 4716TIP3   OH235706   6.715   2.602   8.701
 4716TIP3    H135707   6.756   2.562   8.778
 4716TIP3    H235708   6.648   2.539   8.675
 4717TIP3   OH235709   2.306   2.049   0.382
 4717TIP3    H135710   2.303   1.967   0.430
 4717TIP3    H235711   2.275   2.027   0.294
 4718TIP3   OH235712   6.104   1.698   7.862
 4718TIP3    H135713   6.194   1.709   7.893
 4718TIP3    H235714   6.053   1.691   7.943
 4719TIP3   OH235715   1.959   0.478   7.350
 4719TIP3    H135716   2.052   0.473   7.372
 4719TIP3    H235717   1.954   0.450   7.259
 4720TIP3   OH235718   6.006   5.876   0.749
 4720TIP3    H135719   6.075   5.874   0.683
 4720TIP3    H235720   5.930   5.836   0.706
 4721TIP3   OH235721   0.480   1.125   7.896
 4721TIP3    H135722   0.556   1.162   7.942
 4721TIP3    H235723   0.517   1.070   7.828
 4722TIP3   OH235724   4.677   0.285   7.985
 4722TIP3    H135725   4.613   0.293   7.915
 4722TIP3    H235726   4.655   0.204   8.030
 4723TIP3   OH235727   5.020   1.795   1.170
 4723TIP3    H135728   5.035   1.704   1.195
 4723TIP3    H235729   4.926   1.808   1.183
 4724TIP3   OH235730   5.289   0.924   7.400
 4724TIP3    H135731   5.364   0.984   7.399
 4724TIP3    H235732   5.328   0.836   7.398
 4725TIP3   OH235733   5.653   5.767   2.696
 4725TIP3    H135734   5.630   5.755   2.604
 4725TIP3    H235735   5.655   5.862   2.707
 4726TIP3   OH235736   0.929   3.625   0.180
 4726TIP3    H135737   0.850   3.585   0.215
 4726TIP3    H235738   0.915   3.627   0.085
 4727TIP3   OH235739   4.228   2.565   1.216
 4727TIP3    H135740   4.193   2.599   1.298
 4727TIP3    H235741   4.310   2.521   1.240
 4728TIP3   OH235742   0.363   0.802   1.898
 4728TIP3    H135743   0.447   0.844   1.877
 4728TIP3    H235744   0.319   0.864   1.956
 4729TIP3   OH235745   4.178   0.476   7.916
 4729TIP3    H135746   4.206   0.536   7.847
 4729TIP3    H235747   4.123   0.529   7.974
 4730TIP3   OH235748   0.328   5.372   7.844
 4730TIP3    H135749   0.234   5.384   7.830
 4730TIP3    H235750   0.349   5.293   7.795
 4731TIP3   OH235751   0.818   2.281   0.309
 4731TIP3    H135752   0.806   2.236   0.225
 4731TIP3    H235753   0.762   2.358   0.303
 4732TIP3   OH235754   2.433   4.891   0.280
 4732TIP3    H135755   2.383   4.822   0.236
 4732TIP3    H235756   2.515   4.895   0.232
 4733TIP3   OH235757   4.138   6.160   1.656
 4733TIP3    H135758   4.046   6.177   1.634
 4733TIP3    H235759   4.187   6.202   1.585
 4734TIP3   OH235760   1.385   4.128   0.159
 4734TIP3    H135761   1.419   4.192   0.222
 4734TIP3    H235762   1.341   4.181   0.093
 4735TIP3   OH235763   5.767   4.672   1.116
 4735TIP3    H135764   5.773   4.580   1.141
 4735TIP3    H235765   5.694   4.706   1.167
 4736TIP3   OH235766   5.546   6.054   1.337
 4736TIP3    H135767   5.566   5.995   1.409
 4736TIP3    H235768   5.468   6.016   1.295
 4737TIP3   OH235769   4.410   1.630   2.924
 4737TIP3    H135770   4.470   1.662   2.857
 4737TIP3    H235771   4.364   1.707   2.955
 4738TIP3   OH235772   4.611   1.527   7.986
 4738TIP3    H135773   4.615   1.587   7.911
 4738TIP3    H235774   4.579   1.445   7.949
 4739TIP3   OH235775   1.229   0.242   6.839
 4739TIP3    H135776   1.135   0.232   6.829
 4739TIP3    H235777   1.239   0.314   6.900
 4740TIP3   OH235778   5.122   4.286   0.513
 4740TIP3    H135779   5.136   4.202   0.559
 4740TIP3    H235780   5.206   4.305   0.472
 4741TIP3   OH235781   0.731   4.206   1.285
 4741TIP3    H135782   0.823   4.225   1.304
 4741TIP3    H235783   0.721   4.228   1.192
 4742TIP3   OH235784   5.717   6.318   8.229
 4742TIP3    H135785   5.666   6.265   8.290
 4742TIP3    H235786   5.766   6.254   8.177
 4743TIP3   OH235787   3.728   3.547   0.472
 4743TIP3    H135788   3.767   3.516   0.553
 4743TIP3    H235789   3.652   3.490   0.459
 4744TIP3   OH235790   3.124   0.411   0.774
 4744TIP3    H135791   3.092   0.334   0.726
 4744TIP3    H235792   3.196   0.444   0.720
 4745TIP3   OH235793   0.476   6.596   0.655
 4745TIP3    H135794   0.466   6.599   0.750
 4745TIP3    H235795   0.420   6.666   0.622
 4746TIP3   OH235796   3.612   4.087   0.666
 4746TIP3    H135797   3.542   4.091   0.601
 4746TIP3    H235798   3.585   4.017   0.726
 4747TIP3   OH235799   5.155   0.823   8.426
 4747TIP3    H135800   5.123   0.913   8.427
 4747TIP3    H235801   5.244   0.828   8.462
 4748TIP3   OH235802   1.941   2.152   7.304
 4748TIP3    H135803   1.945   2.098   7.225
 4748TIP3    H235804   1.909   2.093   7.372
 4749TIP3   OH235805   1.974   1.049   0.202
 4749TIP3    H135806   1.884   1.057   0.171
 4749TIP3    H235807   1.976   1.102   0.282
 4750TIP3   OH235808   0.069   4.917   7.569
 4750TIP3    H135809   6.781   4.968   7.569
 4750TIP3    H235810   0.126   4.961   7.506
 4751TIP3   OH235811   1.071   2.380   0.230
 4751TIP3    H135812   0.993   2.344   0.272
 4751TIP3    H235813   1.038   2.434   0.159
 4752TIP3   OH235814   0.060   3.932   2.393
 4752TIP3    H135815   6.763   3.958   2.411
 4752TIP3    H235816   0.066   3.931   2.298
 4753TIP3   OH235817   5.134   2.563   2.518
 4753TIP3    H135818   5.229   2.565   2.530
 4753TIP3    H235819   5.103   2.646   2.553
 4754TIP3   OH235820   0.124   6.084   2.093
 4754TIP3    H135821   0.096   6.153   2.033
 4754TIP3    H235822   0.219   6.079   2.080
 4755TIP3   OH235823   6.246   0.779   0.591
 4755TIP3    H135824   6.242   0.871   0.563
 4755TIP3    H235825   6.169   0.767   0.646
 4756TIP3   OH235826   5.903   0.728   7.550
 4756TIP3    H135827   5.962   0.710   7.623
 4756TIP3    H235828   5.922   0.818   7.525
 4757TIP3   OH235829   3.039   1.635   8.280
 4757TIP3    H135830   3.110   1.699   8.275
 4757TIP3    H235831   2.960   1.688   8.296
 4758TIP3   OH235832   1.646   6.366   6.203
 4758TIP3    H135833   1.644   6.416   6.121
 4758TIP3    H235834   1.571   6.307   6.196
 4759TIP3   OH235835   5.989   1.273   0.242
 4759TIP3    H135836   6.026   1.256   0.155
 4759TIP3    H235837   5.973   1.187   0.279
 4760TIP3   OH235838   6.329   4.648   8.039
 4760TIP3    H135839   6.242   4.608   8.053
 4760TIP3    H235840   6.389   4.574   8.037
 4761TIP3   OH235841   2.841   4.196   6.620
 4761TIP3    H135842   2.808   4.286   6.615
 4761TIP3    H235843   2.766   4.142   6.596
 4762TIP3   OH235844   6.681   1.946   8.344
 4762TIP3    H135845   6.670   2.040   8.328
 4762TIP3    H235846   6.753   1.920   8.286
 4763TIP3   OH235847   2.739   1.684   1.024
 4763TIP3    H135848   2.752   1.779   1.033
 4763TIP3    H235849   2.667   1.676   0.961
 4764TIP3   OH235850   1.227   6.683   8.805
 4764TIP3    H135851   1.177   6.752   8.763
 4764TIP3    H235852   1.305   6.727   8.839
 4765TIP3   OH235853   1.436   3.175   7.786
 4765TIP3    H135854   1.501   3.191   7.718
 4765TIP3    H235855   1.464   3.094   7.828
 4766TIP3   OH235856   2.655   2.230   0.091
 4766TIP3    H135857   2.673   2.168   0.162
 4766TIP3    H235858   2.576   2.196   0.048
 4767TIP3   OH235859   2.296   0.056   8.836
 4767TIP3    H135860   2.381   0.039   8.796
 4767TIP3    H235861   2.315   0.116   0.040
 4768TIP3   OH235862   2.326   3.629   1.693
 4768TIP3    H135863   2.264   3.574   1.645
 4768TIP3    H235864   2.272   3.683   1.751
 4769TIP3   OH235865   6.593   4.964   0.255
 4769TIP3    H135866   6.506   4.940   0.288
 4769TIP3    H235867   6.634   5.009   0.329
 4770TIP3   OH235868   1.286   4.229   7.127
 4770TIP3    H135869   1.200   4.263   7.152
 4770TIP3    H235870   1.307   4.274   7.045
 4771TIP3   OH235871   5.587   0.523   6.938
 4771TIP3    H135872   5.508   0.487   6.978
 4771TIP3    H235873   5.560   0.608   6.904
 4772TIP3   OH235874   2.499   3.317   7.686
 4772TIP3    H135875   2.418   3.299   7.638
 4772TIP3    H235876   2.529   3.402   7.653
 4773TIP3   OH235877   5.450   5.872   7.421
 4773TIP3    H135878   5.385   5.825   7.370
 4773TIP3    H235879   5.533   5.829   7.400
 4774TIP3   OH235880   6.214   0.776   7.483
 4774TIP3    H135881   6.191   0.710   7.418
 4774TIP3    H235882   6.148   0.844   7.474
 4775TIP3   OH235883   3.939   4.429   8.680
 4775TIP3    H135884   3.853   4.388   8.675
 4775TIP3    H235885   3.991   4.386   8.612
 4776TIP3   OH235886   2.107   5.443   7.615
 4776TIP3    H135887   2.137   5.485   7.695
 4776TIP3    H235888   2.036   5.385   7.644
 4777TIP3   OH235889   0.988   3.563   7.145
 4777TIP3    H135890   0.970   3.503   7.073
 4777TIP3    H235891   0.908   3.614   7.155
 4778TIP3   OH235892   3.920   6.768   8.417
 4778TIP3    H135893   3.974   0.038   8.464
 4778TIP3    H235894   3.890   6.706   8.484
 4779TIP3   OH235895   4.665   2.791   7.732
 4779TIP3    H135896   4.630   2.703   7.719
 4779TIP3    H235897   4.588   2.846   7.747
 4780TIP3   OH235898   1.416   4.847   8.375
 4780TIP3    H135899   1.478   4.794   8.425
 4780TIP3    H235900   1.440   4.832   8.283
 4781TIP3   OH235901   1.196   2.551   7.521
 4781TIP3    H135902   1.262   2.601   7.473
 4781TIP3    H235903   1.126   2.536   7.457
 4782TIP3   OH235904   5.510   4.603   7.871
 4782TIP3    H135905   5.589   4.563   7.836
 4782TIP3    H235906   5.490   4.552   7.950
 4783TIP3   OH235907   6.228   0.121   0.514
 4783TIP3    H135908   6.173   0.188   0.555
 4783TIP3    H235909   6.206   0.125   0.421
 4784TIP3   OH235910   1.474   6.059   6.937
 4784TIP3    H135911   1.486   5.964   6.934
 4784TIP3    H235912   1.380   6.071   6.946
 4785TIP3   OH235913   4.331   1.608   8.282
 4785TIP3    H135914   4.254   1.552   8.281
 4785TIP3    H235915   4.404   1.547   8.295
 4786TIP3   OH235916   0.547   3.494   6.424
 4786TIP3    H135917   0.633   3.491   6.381
 4786TIP3    H235918   0.559   3.442   6.504
 4787TIP3   OH235919   3.286   5.863   8.048
 4787TIP3    H135920   3.212   5.884   7.992
 4787TIP3    H235921   3.320   5.781   8.014
 4788TIP3   OH235922   2.531   3.811   7.811
 4788TIP3    H135923   2.608   3.768   7.847
 4788TIP3    H235924   2.552   3.904   7.813
 4789TIP3   OH235925   6.538   0.275   8.350
 4789TIP3    H135926   6.483   0.198   8.336
 4789TIP3    H235927   6.594   0.281   8.273
 4790TIP3   OH235928   6.726   6.143   6.859
 4790TIP3    H135929   6.699   6.225   6.900
 4790TIP3    H235930   6.792   6.168   6.795
 4791TIP3   OH235931   4.643   0.775   0.714
 4791TIP3    H135932   4.686   0.728   0.785
 4791TIP3    H235933   4.559   0.803   0.751
 4792TIP3   OH235934   0.931   6.239   8.751
 4792TIP3    H135935   0.875   6.236   8.674
 4792TIP3    H235936   1.019   6.252   8.717
 4793TIP3   OH235937   6.668   0.996   2.361
 4793TIP3    H135938   6.752   1.042   2.358
 4793TIP3    H235939   6.605   1.060   2.330
 4794TIP3   OH235940   4.305   5.718   8.862
 4794TIP3    H135941   4.262   5.642   0.032
 4794TIP3    H235942   4.306   5.701   8.768
 4795TIP3   OH235943   1.711   6.494   8.074
 4795TIP3    H135944   1.622   6.508   8.042
 4795TIP3    H235945   1.742   6.417   8.027
 4796TIP3   OH235946   6.529   4.677   1.038
 4796TIP3    H135947   6.577   4.619   0.979
 4796TIP3    H235948   6.437   4.649   1.030
 4797TIP3   OH235949   3.085   4.471   1.277
 4797TIP3    H135950   3.125   4.449   1.361
 4797TIP3    H235951   3.109   4.398   1.220
 4798TIP3   OH235952   0.787   5.852   0.484
 4798TIP3    H135953   0.716   5.800   0.522
 4798TIP3    H235954   0.753   5.880   0.399
 4799TIP3   OH235955   6.006   6.260   1.828
 4799TIP3    H135956   6.024   6.340   1.778
 4799TIP3    H235957   5.933   6.283   1.885
 4800TIP3   OH235958   2.544   2.417   7.916
 4800TIP3    H135959   2.605   2.348   7.889
 4800TIP3    H235960   2.517   2.458   7.834
 4801TIP3   OH235961   3.741   1.739   0.952
 4801TIP3    H135962   3.827   1.724   0.991
 4801TIP3    H235963   3.680   1.728   1.025
 4802TIP3   OH235964   4.657   1.402   0.513
 4802TIP3    H135965   4.747   1.377   0.536
 4802TIP3    H235966   4.623   1.446   0.591
 4803TIP3   OH235967   3.289   2.982   8.264
 4803TIP3    H135968   3.276   2.994   8.358
 4803TIP3    H235969   3.226   2.915   8.240
 4804TIP3   OH235970   0.598   0.928   1.839
 4804TIP3    H135971   0.641   1.008   1.873
 4804TIP3    H235972   0.636   0.857   1.891
 4805TIP3   OH235973   4.753   3.017   7.877
 4805TIP3    H135974   4.764   3.082   7.808
 4805TIP3    H235975   4.764   2.933   7.833
 4806TIP3   OH235976   6.221   6.203   1.614
 4806TIP3    H135977   6.165   6.280   1.600
 4806TIP3    H235978   6.170   6.147   1.673
 4807TIP3   OH235979   5.207   5.131   8.148
 4807TIP3    H135980   5.261   5.070   8.098
 4807TIP3    H235981   5.203   5.210   8.094
 4808TIP3   OH235982   4.305   6.042   8.720
 4808TIP3    H135983   4.392   6.064   8.752
 4808TIP3    H235984   4.247   6.056   8.796
 4809TIP3   OH235985   5.109   2.783   6.947
 4809TIP3    H135986   5.168   2.779   6.871
 4809TIP3    H235987   5.022   2.769   6.910
 4810TIP3   OH235988   4.300   0.232   0.690
 4810TIP3    H135989   4.238   0.252   0.620
 4810TIP3    H235990   4.315   0.316   0.734
 4811TIP3   OH235991   5.918   1.552   8.834
 4811TIP3    H135992   6.006   1.565   8.799
 4811TIP3    H235993   5.878   1.639   8.829
 4812TIP3   OH235994   2.329   2.950   7.991
 4812TIP3    H135995   2.424   2.939   8.000
 4812TIP3    H235996   2.318   3.043   7.974
 4813TIP3   OH235997   0.724   3.082   6.308
 4813TIP3    H135998   0.651   3.131   6.269
 4813TIP3    H235999   0.682   3.018   6.365
 4814TIP3   OH236000   1.136   4.409   7.394
 4814TIP3    H136001   1.043   4.430   7.392
 4814TIP3    H236002   1.155   4.379   7.305
 4815TIP3   OH236003   6.315   3.432   7.954
 4815TIP3    H136004   6.253   3.485   8.004
 4815TIP3    H236005   6.285   3.438   7.863
 4816TIP3   OH236006   3.352   5.475   8.245
 4816TIP3    H136007   3.371   5.403   8.306
 4816TIP3    H236008   3.402   5.453   8.166
 4817TIP3   OH236009   0.080   2.099   1.127
 4817TIP3    H136010   0.172   2.075   1.124
 4817TIP3    H236011   0.045   2.073   1.042
 4818TIP3   OH236012   3.720   3.035   7.783
 4818TIP3    H136013   3.730   3.066   7.873
 4818TIP3    H236014   3.808   3.044   7.746
 4819TIP3   OH236015   1.789   1.621   1.824
 4819TIP3    H136016   1.855   1.641   1.891
 4819TIP3    H236017   1.767   1.530   1.839
 4820TIP3   OH236018   4.847   6.069   2.109
 4820TIP3    H136019   4.851   6.158   2.145
 4820TIP3    H236020   4.936   6.035   2.121
 4821TIP3   OH236021   3.161   1.532   1.468
 4821TIP3    H136022   3.119   1.564   1.388
 4821TIP3    H236023   3.219   1.604   1.495
 4822TIP3   OH236024   1.880   4.347   8.023
 4822TIP3    H136025   1.940   4.394   7.965
 4822TIP3    H236026   1.937   4.287   8.071
 4823TIP3   OH236027   4.987   0.607   7.794
 4823TIP3    H136028   4.925   0.636   7.727
 4823TIP3    H236029   5.073   0.626   7.756
 4824TIP3   OH236030   6.582   6.443   0.396
 4824TIP3    H136031   6.498   6.397   0.399
 4824TIP3    H236032   6.576   6.498   0.317
 4825TIP3   OH236033   0.109   1.131   2.384
 4825TIP3    H136034   0.116   1.224   2.403
 4825TIP3    H236035   0.200   1.102   2.371
 4826TIP3   OH236036   2.868   4.861   8.425
 4826TIP3    H136037   2.841   4.919   8.496
 4826TIP3    H236038   2.798   4.796   8.419
 4827TIP3   OH236039   1.552   1.224   8.086
 4827TIP3    H136040   1.514   1.138   8.105
 4827TIP3    H236041   1.616   1.208   8.017
 4828TIP3   OH236042   4.552   6.104   8.508
 4828TIP3    H136043   4.475   6.161   8.502
 4828TIP3    H236044   4.579   6.110   8.599
 4829TIP3   OH236045   5.389   2.877   1.480
 4829TIP3    H136046   5.334   2.948   1.446
 4829TIP3    H236047   5.353   2.798   1.440
 4830TIP3   OH236048   3.205   1.107   0.825
 4830TIP3    H136049   3.259   1.153   0.761
 4830TIP3    H236050   3.248   1.022   0.837
 4831TIP3   OH236051   5.829   5.879   1.634
 4831TIP3    H136052   5.846   5.806   1.693
 4831TIP3    H236053   5.764   5.933   1.680
 4832TIP3   OH236054   1.041   4.319   6.843
 4832TIP3    H136055   0.990   4.378   6.788
 4832TIP3    H236056   1.123   4.307   6.796
 4833TIP3   OH236057   4.572   1.912   8.785
 4833TIP3    H136058   4.481   1.935   8.802
 4833TIP3    H236059   4.581   1.823   8.820
 4834TIP3   OH236060   4.566   3.447   0.253
 4834TIP3    H136061   4.494   3.495   0.293
 4834TIP3    H236062   4.563   3.473   0.160
 4835TIP3   OH236063   1.076   5.703   7.510
 4835TIP3    H136064   1.116   5.666   7.432
 4835TIP3    H236065   1.106   5.647   7.581
 4836TIP3   OH236066   0.770   0.769   8.753
 4836TIP3    H136067   0.738   0.728   8.834
 4836TIP3    H236068   0.787   0.696   8.694
 4837TIP3   OH236069   1.983   3.695   7.914
 4837TIP3    H136070   2.070   3.728   7.936
 4837TIP3    H236071   1.973   3.713   7.821
 4838TIP3   OH236072   3.091   4.253   1.087
 4838TIP3    H136073   3.078   4.277   0.995
 4838TIP3    H236074   3.005   4.221   1.115
 4839TIP3   OH236075   0.367   3.572   8.168
 4839TIP3    H136076   0.379   3.477   8.171
 4839TIP3    H236077   0.431   3.602   8.103
 4840TIP3   OH236078   5.865   4.961   0.856
 4840TIP3    H136079   5.852   5.016   0.933
 4840TIP3    H236080   5.829   5.013   0.784
 4841TIP3   OH236081   5.714   1.552   8.215
 4841TIP3    H136082   5.675   1.548   8.302
 4841TIP3    H236083   5.714   1.461   8.184
 4842TIP3   OH236084   1.768   4.754   1.225
 4842TIP3    H136085   1.817   4.734   1.145
 4842TIP3    H236086   1.703   4.819   1.197
 4843TIP3   OH236087   3.864   6.033   2.744
 4843TIP3    H136088   3.954   6.019   2.713
 4843TIP3    H236089   3.809   6.009   2.669
 4844TIP3   OH236090   6.646   2.179   0.477
 4844TIP3    H136091   6.565   2.211   0.436
 4844TIP3    H236092   6.642   2.084   0.467
 4845TIP3   OH236093   2.333   6.600   1.343
 4845TIP3    H136094   2.404   6.612   1.405
 4845TIP3    H236095   2.255   6.630   1.390
 4846TIP3   OH236096   0.695   2.563   7.334
 4846TIP3    H136097   0.603   2.589   7.341
 4846TIP3    H236098   0.727   2.605   7.254
 4847TIP3   OH236099   3.114   5.038   1.130
 4847TIP3    H136100   3.083   5.124   1.157
 4847TIP3    H236101   3.067   4.977   1.186
 4848TIP3   OH236102   4.599   3.171   7.668
 4848TIP3    H136103   4.556   3.087   7.689
 4848TIP3    H236104   4.530   3.236   7.680
 4849TIP3   OH236105   3.953   0.048   8.150
 4849TIP3    H136106   4.010   6.771   8.119
 4849TIP3    H236107   3.928   0.021   8.239
 4850TIP3   OH236108   0.742   1.173   8.429
 4850TIP3    H136109   0.731   1.116   8.505
 4850TIP3    H236110   0.739   1.262   8.464
 4851TIP3   OH236111   0.445   1.390   7.808
 4851TIP3    H136112   0.485   1.418   7.727
 4851TIP3    H236113   0.441   1.294   7.801
 4852TIP3   OH236114   1.121   1.801   1.195
 4852TIP3    H136115   1.122   1.737   1.123
 4852TIP3    H236116   1.163   1.878   1.158
 4853TIP3   OH236117   1.895   6.396   1.031
 4853TIP3    H136118   1.948   6.476   1.030
 4853TIP3    H236119   1.912   6.355   0.946
 4854TIP3   OH236120   4.203   3.671   1.597
 4854TIP3    H136121   4.146   3.702   1.527
 4854TIP3    H236122   4.201   3.575   1.589
 4855TIP3   OH236123   1.767   5.935   7.231
 4855TIP3    H136124   1.778   5.856   7.284
 4855TIP3    H236125   1.856   5.964   7.212
 4856TIP3   OH236126   0.329   4.221   2.265
 4856TIP3    H136127   0.309   4.179   2.348
 4856TIP3    H236128   0.315   4.152   2.199
 4857TIP3   OH236129   5.512   6.577   1.434
 4857TIP3    H136130   5.428   6.589   1.391
 4857TIP3    H236131   5.521   6.482   1.442
 4858TIP3   OH236132   1.661   6.682   0.259
 4858TIP3    H136133   1.736   6.740   0.266
 4858TIP3    H236134   1.636   6.664   0.350
 4859TIP3   OH236135   3.289   1.559   8.464
 4859TIP3    H136136   3.327   1.644   8.441
 4859TIP3    H236137   3.364   1.506   8.492
 4860TIP3   OH236138   0.705   5.786   6.633
 4860TIP3    H136139   0.658   5.863   6.664
 4860TIP3    H236140   0.663   5.712   6.677
 4861TIP3   OH236141   1.448   5.722   1.418
 4861TIP3    H136142   1.466   5.735   1.511
 4861TIP3    H236143   1.353   5.715   1.412
 4862TIP3   OH236144   2.882   3.993   8.288
 4862TIP3    H136145   2.858   3.901   8.278
 4862TIP3    H236146   2.812   4.041   8.243
 4863TIP3   OH236147   4.682   0.496   1.742
 4863TIP3    H136148   4.691   0.571   1.684
 4863TIP3    H236149   4.703   0.529   1.829
 4864TIP3   OH236150   2.169   6.759   1.534
 4864TIP3    H136151   2.155   6.673   1.573
 4864TIP3    H236152   2.199   0.020   1.608
 4865TIP3   OH236153   6.296   5.815   7.868
 4865TIP3    H136154   6.235   5.760   7.916
 4865TIP3    H236155   6.248   5.896   7.851
 4866TIP3   OH236156   5.918   1.882   7.249
 4866TIP3    H136157   5.896   1.926   7.331
 4866TIP3    H236158   5.869   1.930   7.182
 4867TIP3   OH236159   5.381   0.660   1.231
 4867TIP3    H136160   5.374   0.752   1.253
 4867TIP3    H236161   5.455   0.656   1.170
 4868TIP3   OH236162   2.096   6.355   0.041
 4868TIP3    H136163   2.046   6.401   8.842
 4868TIP3    H236164   2.073   6.263   0.029
 4869TIP3   OH236165   5.843   5.623   1.196
 4869TIP3    H136166   5.753   5.595   1.178
 4869TIP3    H236167   5.843   5.717   1.182
 4870TIP3   OH236168   2.604   1.025   7.982
 4870TIP3    H136169   2.615   1.049   7.890
 4870TIP3    H236170   2.687   1.049   8.023
 4871TIP3   OH236171   5.563   1.072   0.305
 4871TIP3    H136172   5.519   1.050   0.387
 4871TIP3    H236173   5.495   1.113   0.252
 4872TIP3   OH236174   4.527   1.161   0.467
 4872TIP3    H136175   4.566   1.248   0.473
 4872TIP3    H236176   4.506   1.151   0.374
 4873TIP3   OH236177   1.019   2.345   7.613
 4873TIP3    H136178   1.080   2.419   7.624
 4873TIP3    H236179   0.933   2.386   7.611
 4874TIP3   OH236180   2.873   0.127   0.916
 4874TIP3    H136181   2.944   0.170   0.868
 4874TIP3    H236182   2.801   0.121   0.854
 4875TIP3   OH236183   4.857   0.078   1.473
 4875TIP3    H136184   4.882   6.779   1.472
 4875TIP3    H236185   4.851   0.102   1.380
 4876TIP3   OH236186   1.856   6.734   7.487
 4876TIP3    H136187   1.846   6.754   7.394
 4876TIP3    H236188   1.767   6.741   7.522
 4877TIP3   OH236189   0.298   4.564   0.837
 4877TIP3    H136190   0.281   4.507   0.912
 4877TIP3    H236191   0.275   4.652   0.869
 4878TIP3   OH236192   5.414   3.471   8.435
 4878TIP3    H136193   5.407   3.412   8.510
 4878TIP3    H236194   5.410   3.559   8.474
 4879TIP3   OH236195   6.573   5.043   7.588
 4879TIP3    H136196   6.558   5.059   7.681
 4879TIP3    H236197   6.485   5.044   7.549
 4880TIP3   OH236198   5.300   6.330   0.858
 4880TIP3    H136199   5.377   6.379   0.886
 4880TIP3    H236200   5.334   6.267   0.794
 4881TIP3   OH236201   3.998   4.440   2.217
 4881TIP3    H136202   4.036   4.523   2.187
 4881TIP3    H236203   3.922   4.426   2.161
 4882TIP3   OH236204   3.178   5.414   1.225
 4882TIP3    H136205   3.191   5.468   1.303
 4882TIP3    H236206   3.085   5.426   1.203
 4883TIP3   OH236207   4.348   2.807   7.930
 4883TIP3    H136208   4.268   2.761   7.904
 4883TIP3    H236209   4.412   2.737   7.943
 4884TIP3   OH236210   3.441   5.406   0.005
 4884TIP3    H136211   3.489   5.324   0.013
 4884TIP3    H236212   3.349   5.381   0.014
 4885TIP3   OH236213   1.870   1.097   1.548
 4885TIP3    H136214   1.803   1.131   1.608
 4885TIP3    H236215   1.844   1.129   1.462
 4886TIP3   OH236216   3.320   2.775   8.742
 4886TIP3    H136217   3.319   2.688   8.781
 4886TIP3    H236218   3.289   2.834   8.810
 4887TIP3   OH236219   5.031   1.472   8.379
 4887TIP3    H136220   5.059   1.458   8.289
 4887TIP3    H236221   5.001   1.562   8.381
 4888TIP3   OH236222   2.683   6.461   0.377
 4888TIP3    H136223   2.648   6.403   0.309
 4888TIP3    H236224   2.776   6.471   0.354
 4889TIP3   OH236225   1.148   2.823   1.282
 4889TIP3    H136226   1.129   2.761   1.212
 4889TIP3    H236227   1.066   2.830   1.331
 4890TIP3   OH236228   5.682   0.343   0.046
 4890TIP3    H136229   5.736   0.358   0.124
 4890TIP3    H236230   5.593   0.332   0.080
 4891TIP3   OH236231   3.561   2.191   8.394
 4891TIP3    H136232   3.578   2.215   8.485
 4891TIP3    H236233   3.474   2.227   8.375
 4892TIP3   OH236234   1.761   4.307   0.429
 4892TIP3    H136235   1.677   4.268   0.408
 4892TIP3    H236236   1.749   4.401   0.415
 4893TIP3   OH236237   6.397   5.562   2.244
 4893TIP3    H136238   6.370   5.629   2.306
 4893TIP3    H236239   6.411   5.610   2.162
 4894TIP3   OH236240   1.045   2.849   7.986
 4894TIP3    H136241   1.083   2.766   8.014
 4894TIP3    H236242   0.951   2.834   7.988
 4895TIP3   OH236243   3.746   3.280   0.978
 4895TIP3    H136244   3.808   3.280   0.904
 4895TIP3    H236245   3.790   3.231   1.047
 4896TIP3   OH236246   2.980   0.871   1.129
 4896TIP3    H136247   3.064   0.832   1.154
 4896TIP3    H236248   2.949   0.817   1.056
 4897TIP3   OH236249   0.083   0.095   0.663
 4897TIP3    H136250   0.025   0.110   0.589
 4897TIP3    H236251   0.099   0.182   0.699
 4898TIP3   OH236252   2.739   6.429   0.625
 4898TIP3    H136253   2.664   6.371   0.638
 4898TIP3    H236254   2.749   6.435   0.530
 4899TIP3   OH236255   3.792   6.473   7.693
 4899TIP3    H136256   3.765   6.384   7.673
 4899TIP3    H236257   3.839   6.502   7.614
 4900TIP3   OH236258   4.652   3.933   0.360
 4900TIP3    H136259   4.697   4.010   0.326
 4900TIP3    H236260   4.603   3.966   0.436
 4901TIP3   OH236261   3.697   1.810   8.822
 4901TIP3    H136262   3.625   1.753   8.798
 4901TIP3    H236263   3.741   1.766   0.026
 4902TIP3   OH236264   2.439   3.328   1.598
 4902TIP3    H136265   2.496   3.326   1.675
 4902TIP3    H236266   2.350   3.334   1.635
 4903TIP3   OH236267   3.337   0.188   1.666
 4903TIP3    H136268   3.377   0.224   1.745
 4903TIP3    H236269   3.337   0.093   1.680
 4904TIP3   OH236270   0.176   4.760   0.214
 4904TIP3    H136271   0.239   4.750   0.286
 4904TIP3    H236272   0.216   4.825   0.156
 4905TIP3   OH236273   4.951   2.167   7.997
 4905TIP3    H136274   4.863   2.196   7.972
 4905TIP3    H236275   5.005   2.246   7.992
 4906TIP3   OH236276   0.404   4.875   1.310
 4906TIP3    H136277   0.479   4.823   1.340
 4906TIP3    H236278   0.379   4.927   1.386
 4907TIP3   OH236279   0.231   6.033   1.372
 4907TIP3    H136280   0.323   6.059   1.380
 4907TIP3    H236281   0.195   6.093   1.306
 4908TIP3   OH236282   2.468   2.606   2.118
 4908TIP3    H136283   2.381   2.639   2.142
 4908TIP3    H236284   2.517   2.685   2.095
 4909TIP3   OH236285   3.145   0.143   6.519
 4909TIP3    H136286   3.187   0.182   6.596
 4909TIP3    H236287   3.172   0.052   6.520
 4910TIP3   OH236288   1.103   5.918   0.139
 4910TIP3    H136289   1.098   5.941   0.231
 4910TIP3    H236290   1.040   5.846   0.129
 4911TIP3   OH236291   1.084   4.254   1.798
 4911TIP3    H136292   0.993   4.231   1.816
 4911TIP3    H236293   1.134   4.207   1.865
 4912TIP3   OH236294   6.699   0.809   2.553
 4912TIP3    H136295   6.691   0.895   2.512
 4912TIP3    H236296   6.612   0.771   2.545
 4913TIP3   OH236297   1.534   6.329   1.124
 4913TIP3    H136298   1.581   6.385   1.185
 4913TIP3    H236299   1.453   6.305   1.171
 4914TIP3   OH236300   6.581   2.996   6.699
 4914TIP3    H136301   6.489   3.020   6.706
 4914TIP3    H236302   6.583   2.902   6.720
 4915TIP3   OH236303   4.130   1.874   0.204
 4915TIP3    H136304   4.072   1.933   0.155
 4915TIP3    H236305   4.103   1.885   0.296
 4916TIP3   OH236306   5.751   2.291   8.397
 4916TIP3    H136307   5.824   2.239   8.431
 4916TIP3    H236308   5.699   2.229   8.346
 4917TIP3   OH236309   6.284   1.309   7.326
 4917TIP3    H136310   6.270   1.287   7.233
 4917TIP3    H236311   6.334   1.236   7.361
 4918TIP3   OH236312   3.989   3.915   2.609
 4918TIP3    H136313   4.056   3.983   2.609
 4918TIP3    H236314   4.016   3.854   2.540
 4919TIP3   OH236315   4.043   3.691   2.366
 4919TIP3    H136316   4.122   3.640   2.348
 4919TIP3    H236317   3.994   3.639   2.430
 4920TIP3   OH236318   3.278   2.256   7.559
 4920TIP3    H136319   3.259   2.349   7.548
 4920TIP3    H236320   3.236   2.214   7.485
 4921TIP3   OH236321   4.208   5.558   0.266
 4921TIP3    H136322   4.132   5.572   0.210
 4921TIP3    H236323   4.217   5.463   0.271
 4922TIP3   OH236324   3.809   4.272   0.136
 4922TIP3    H136325   3.895   4.312   0.144
 4922TIP3    H236326   3.816   4.213   0.061
 4923TIP3   OH236327   6.673   1.364   7.117
 4923TIP3    H136328   6.608   1.294   7.116
 4923TIP3    H236329   6.693   1.378   7.210
 4924TIP3   OH236330   0.318   3.035   7.535
 4924TIP3    H136331   0.311   2.943   7.560
 4924TIP3    H236332   0.401   3.064   7.572
 4925TIP3   OH236333   4.701   5.335   7.612
 4925TIP3    H136334   4.793   5.311   7.606
 4925TIP3    H236335   4.689   5.402   7.545
 4926TIP3   OH236336   1.645   4.027   0.911
 4926TIP3    H136337   1.677   3.940   0.934
 4926TIP3    H236338   1.590   4.013   0.834
 4927TIP3   OH236339   2.706   4.751   0.489
 4927TIP3    H136340   2.729   4.826   0.433
 4927TIP3    H236341   2.789   4.724   0.528
 4928TIP3   OH236342   2.411   1.040   6.333
 4928TIP3    H136343   2.440   1.121   6.374
 4928TIP3    H236344   2.492   0.995   6.309
 4929TIP3   OH236345   0.719   3.951   7.240
 4929TIP3    H136346   0.645   3.934   7.181
 4929TIP3    H236347   0.718   4.046   7.253
 4930TIP3   OH236348   1.366   5.075   0.925
 4930TIP3    H136349   1.447   5.039   0.890
 4930TIP3    H236350   1.311   5.089   0.848
 4931TIP3   OH236351   5.908   6.759   1.347
 4931TIP3    H136352   5.861   6.752   1.263
 4931TIP3    H236353   5.909   0.060   1.365
 4932TIP3   OH236354   0.925   0.481   0.844
 4932TIP3    H136355   0.914   0.576   0.843
 4932TIP3    H236356   1.020   0.468   0.849
 4933TIP3   OH236357   2.672   2.211   0.583
 4933TIP3    H136358   2.584   2.174   0.594
 4933TIP3    H236359   2.723   2.141   0.542
 4934TIP3   OH236360   4.068   1.900   0.902
 4934TIP3    H136361   4.008   1.870   0.971
 4934TIP3    H236362   4.123   1.825   0.883
 4935TIP3   OH236363   2.006   4.362   1.650
 4935TIP3    H136364   1.991   4.355   1.556
 4935TIP3    H236365   2.010   4.271   1.680
 4936TIP3   OH236366   3.331   4.923   0.987
 4936TIP3    H136367   3.392   4.996   0.997
 4936TIP3    H236368   3.257   4.945   1.043
 4937TIP3   OH236369   1.932   3.989   1.057
 4937TIP3    H136370   1.877   3.932   1.003
 4937TIP3    H236371   2.017   3.987   1.015
 4938TIP3   OH236372   2.331   6.346   0.940
 4938TIP3    H136373   2.397   6.407   0.908
 4938TIP3    H236374   2.346   6.342   1.035
 4939TIP3   OH236375   4.354   4.717   7.308
 4939TIP3    H136376   4.371   4.808   7.333
 4939TIP3    H236377   4.383   4.711   7.217
 4940TIP3   OH236378   1.697   2.535   7.139
 4940TIP3    H136379   1.676   2.475   7.210
 4940TIP3    H236380   1.632   2.516   7.071
 4941TIP3   OH236381   1.949   5.145   7.456
 4941TIP3    H136382   1.917   5.064   7.495
 4941TIP3    H236383   2.043   5.144   7.471
 4942TIP3   OH236384   0.695   3.531   0.302
 4942TIP3    H136385   0.603   3.505   0.295
 4942TIP3    H236386   0.709   3.547   0.396
 4943TIP3   OH236387   4.040   2.326   2.353
 4943TIP3    H136388   4.133   2.346   2.356
 4943TIP3    H236389   4.009   2.368   2.272
 4944TIP3   OH236390   2.739   1.339   2.219
 4944TIP3    H136391   2.730   1.304   2.131
 4944TIP3    H236392   2.807   1.406   2.212
 4945TIP3   OH236393   3.954   0.177   7.048
 4945TIP3    H136394   4.019   0.109   7.066
 4945TIP3    H236395   3.872   0.129   7.037
 4946TIP3   OH236396   5.790   1.484   0.762
 4946TIP3    H136397   5.849   1.536   0.707
 4946TIP3    H236398   5.725   1.449   0.700
 4947TIP3   OH236399   5.802   2.045   0.392
 4947TIP3    H136400   5.817   1.954   0.420
 4947TIP3    H236401   5.821   2.097   0.470
 4948TIP3   OH236402   3.206   3.736   0.765
 4948TIP3    H136403   3.240   3.814   0.721
 4948TIP3    H236404   3.173   3.769   0.849
 4949TIP3   OH236405   1.196   1.096   8.246
 4949TIP3    H136406   1.129   1.149   8.288
 4949TIP3    H236407   1.170   1.005   8.264
 4950TIP3   OH236408   6.380   5.418   1.083
 4950TIP3    H136409   6.470   5.424   1.051
 4950TIP3    H236410   6.349   5.509   1.086
 4951TIP3   OH236411   2.834   6.788   1.161
 4951TIP3    H136412   2.857   0.043   1.081
 4951TIP3    H236413   2.906   0.014   1.221
 4952TIP3   OH236414   1.582   6.613   7.481
 4952TIP3    H136415   1.548   6.569   7.558
 4952TIP3    H236416   1.619   6.543   7.427
 4953TIP3   OH236417   2.674   4.666   1.469
 4953TIP3    H136418   2.747   4.607   1.484
 4953TIP3    H236419   2.689   4.739   1.529
 4954TIP3   OH236420   5.126   4.211   8.747
 4954TIP3    H136421   5.043   4.176   8.714
 4954TIP3    H236422   5.102   4.296   8.784
 4955TIP3   OH236423   5.887   5.525   0.597
 4955TIP3    H136424   5.904   5.451   0.655
 4955TIP3    H236425   5.843   5.487   0.522
 4956TIP3   OH236426   3.923   1.767   7.424
 4956TIP3    H136427   3.839   1.808   7.403
 4956TIP3    H236428   3.899   1.679   7.454
 4957TIP3   OH236429   0.553   0.586   7.272
 4957TIP3    H136430   0.471   0.537   7.270
 4957TIP3    H236431   0.614   0.529   7.320
 4958TIP3   OH236432   2.885   0.713   0.181
 4958TIP3    H136433   2.873   0.620   0.162
 4958TIP3    H236434   2.864   0.758   0.099
 4959TIP3   OH236435   6.103   6.562   8.435
 4959TIP3    H136436   6.018   6.570   8.479
 4959TIP3    H236437   6.100   6.625   8.363
 4960TIP3   OH236438   6.038   3.149   7.341
 4960TIP3    H136439   6.088   3.230   7.335
 4960TIP3    H236440   5.983   3.149   7.262
 4961TIP3   OH236441   4.611   1.387   7.021
 4961TIP3    H136442   4.580   1.428   6.940
 4961TIP3    H236443   4.689   1.339   6.995
 4962TIP3   OH236444   4.724   4.041   1.812
 4962TIP3    H136445   4.768   4.126   1.821
 4962TIP3    H236446   4.680   4.047   1.727
 4963TIP3   OH236447   5.001   2.968   8.425
 4963TIP3    H136448   5.023   3.001   8.338
 4963TIP3    H236449   5.015   2.874   8.419
 4964TIP3   OH236450   0.098   5.903   0.281
 4964TIP3    H136451   0.169   5.961   0.254
 4964TIP3    H236452   0.136   5.816   0.278
 4965TIP3   OH236453   2.291   5.291   7.807
 4965TIP3    H136454   2.203   5.265   7.779
 4965TIP3    H236455   2.314   5.227   7.874
 4966TIP3   OH236456   1.568   6.662   1.419
 4966TIP3    H136457   1.477   6.659   1.388
 4966TIP3    H236458   1.579   6.751   1.453
 4967TIP3   OH236459   2.044   6.127   2.138
 4967TIP3    H136460   1.960   6.100   2.175
 4967TIP3    H236461   2.063   6.211   2.181
 4968TIP3   OH236462   5.386   3.235   1.209
 4968TIP3    H136463   5.405   3.297   1.279
 4968TIP3    H236464   5.309   3.272   1.165
 4969TIP3   OH236465   3.499   2.702   0.298
 4969TIP3    H136466   3.505   2.609   0.321
 4969TIP3    H236467   3.431   2.737   0.356
 4970TIP3   OH236468   4.422   5.265   7.501
 4970TIP3    H136469   4.435   5.349   7.457
 4970TIP3    H236470   4.490   5.208   7.467
 4971TIP3   OH236471   0.207   2.163   1.717
 4971TIP3    H136472   0.258   2.152   1.637
 4971TIP3    H236473   0.272   2.177   1.786
 4972TIP3   OH236474   1.784   1.268   2.194
 4972TIP3    H136475   1.737   1.185   2.188
 4972TIP3    H236476   1.716   1.333   2.209
 4973TIP3   OH236477   1.804   4.829   0.210
 4973TIP3    H136478   1.846   4.888   0.273
 4973TIP3    H236479   1.865   4.826   0.136
 4974TIP3   OH236480   5.426   4.031   0.032
 4974TIP3    H136481   5.345   3.984   0.050
 4974TIP3    H236482   5.489   3.995   0.095
 4975TIP3   OH236483   2.739   3.237   1.039
 4975TIP3    H136484   2.714   3.312   0.985
 4975TIP3    H236485   2.808   3.193   0.990
 4976TIP3   OH236486   0.530   5.843   0.698
 4976TIP3    H136487   0.495   5.932   0.690
 4976TIP3    H236488   0.597   5.849   0.766
 4977TIP3   OH236489   3.738   5.299   1.010
 4977TIP3    H136490   3.805   5.294   1.078
 4977TIP3    H236491   3.778   5.352   0.941
 4978TIP3   OH236492   5.249   0.026   2.342
 4978TIP3    H136493   5.204   6.770   2.273
 4978TIP3    H236494   5.217   0.116   2.333
 4979TIP3   OH236495   5.965   0.246   1.693
 4979TIP3    H136496   5.910   0.307   1.743
 4979TIP3    H236497   5.903   0.197   1.639
 4980TIP3   OH236498   3.296   5.272   0.821
 4980TIP3    H136499   3.276   5.363   0.842
 4980TIP3    H236500   3.213   5.235   0.792
 4981TIP3   OH236501   4.132   0.299   8.233
 4981TIP3    H136502   4.090   0.216   8.212
 4981TIP3    H236503   4.214   0.297   8.184
 4982TIP3   OH236504   4.323   0.295   2.550
 4982TIP3    H136505   4.246   0.246   2.578
 4982TIP3    H236506   4.395   0.259   2.602
 4983TIP3   OH236507   6.680   3.989   8.343
 4983TIP3    H136508   6.643   3.932   8.275
 4983TIP3    H236509   6.768   3.955   8.357
 4984TIP3   OH236510   4.798   2.025   1.375
 4984TIP3    H136511   4.747   1.960   1.424
 4984TIP3    H236512   4.808   2.099   1.435
 4985TIP3   OH236513   5.280   3.979   7.940
 4985TIP3    H136514   5.330   4.053   7.974
 4985TIP3    H236515   5.270   3.921   8.015
 4986TIP3   OH236516   3.325   3.832   2.011
 4986TIP3    H136517   3.365   3.746   2.020
 4986TIP3    H236518   3.394   3.894   2.034
 4987TIP3   OH236519   2.269   3.332   7.078
 4987TIP3    H136520   2.356   3.292   7.089
 4987TIP3    H236521   2.208   3.259   7.085
 4988TIP3   OH236522   1.208   6.300   2.274
 4988TIP3    H136523   1.300   6.314   2.251
 4988TIP3    H236524   1.187   6.372   2.333
 4989TIP3   OH236525   3.726   4.218   2.112
 4989TIP3    H136526   3.657   4.190   2.051
 4989TIP3    H236527   3.740   4.141   2.168
 4990TIP3   OH236528   3.357   3.073   6.863
 4990TIP3    H136529   3.373   3.163   6.833
 4990TIP3    H236530   3.277   3.047   6.817
 4991TIP3   OH236531   2.504   6.095   1.152
 4991TIP3    H136532   2.482   6.183   1.183
 4991TIP3    H236533   2.435   6.039   1.187
 4992TIP3   OH236534   4.125   0.651   1.766
 4992TIP3    H136535   4.162   0.569   1.800
 4992TIP3    H236536   4.131   0.643   1.671
 4993TIP3   OH236537   0.958   0.767   1.948
 4993TIP3    H136538   0.896   0.818   2.000
 4993TIP3    H236539   0.911   0.746   1.867
 4994TIP3   OH236540   1.637   3.763   0.564
 4994TIP3    H136541   1.690   3.768   0.484
 4994TIP3    H236542   1.675   3.689   0.612
 4995TIP3   OH236543   3.823   3.326   8.030
 4995TIP3    H136544   3.906   3.342   7.987
 4995TIP3    H236545   3.845   3.323   8.124
 4996TIP3   OH236546   3.603   3.451   0.736
 4996TIP3    H136547   3.648   3.376   0.697
 4996TIP3    H236548   3.671   3.517   0.747
 4997TIP3   OH236549   1.899   6.622   7.803
 4997TIP3    H136550   1.875   6.540   7.847
 4997TIP3    H236551   1.971   6.598   7.745
 4998TIP3   OH236552   5.488   4.698   1.203
 4998TIP3    H136553   5.479   4.607   1.230
 4998TIP3    H236554   5.455   4.748   1.278
 4999TIP3   OH236555   4.347   3.270   8.009
 4999TIP3    H136556   4.326   3.337   7.945
 4999TIP3    H236557   4.438   3.288   8.034
 5000TIP3   OH236558   4.810   1.077   0.343
 5000TIP3    H136559   4.715   1.084   0.351
 5000TIP3    H236560   4.844   1.128   0.417
 5001TIP3   OH236561   3.611   1.749   0.607
 5001TIP3    H136562   3.580   1.823   0.659
 5001TIP3    H236563   3.570   1.762   0.521
 5002TIP3   OH236564   4.025   4.273   7.227
 5002TIP3    H136565   4.000   4.364   7.239
 5002TIP3    H236566   4.063   4.269   7.139
 5003TIP3   OH236567   4.486   2.718   8.845
 5003TIP3    H136568   4.540   2.700   0.054
 5003TIP3    H236569   4.398   2.734   0.012
 5004TIP3   OH236570   2.039   0.650   1.391
 5004TIP3    H136571   2.043   0.737   1.350
 5004TIP3    H236572   1.954   0.648   1.434
 5005TIP3   OH236573   4.923   1.195   1.289
 5005TIP3    H136574   4.910   1.184   1.195
 5005TIP3    H236575   4.836   1.214   1.324
 5006TIP3   OH236576   1.419   5.108   2.077
 5006TIP3    H136577   1.511   5.082   2.074
 5006TIP3    H236578   1.373   5.033   2.115
 5007TIP3   OH236579   3.868   2.312   0.849
 5007TIP3    H136580   3.941   2.252   0.866
 5007TIP3    H236581   3.812   2.264   0.788
 5008TIP3   OH236582   2.941   5.466   8.082
 5008TIP3    H136583   2.917   5.510   8.000
 5008TIP3    H236584   3.019   5.513   8.112
 5009TIP3   OH236585   5.468   4.102   7.542
 5009TIP3    H136586   5.524   4.025   7.535
 5009TIP3    H236587   5.525   4.176   7.519
 5010TIP3   OH236588   3.272   5.483   7.607
 5010TIP3    H136589   3.257   5.543   7.533
 5010TIP3    H236590   3.255   5.536   7.685
 5011TIP3   OH236591   6.769   6.620   1.403
 5011TIP3    H136592   0.001   6.660   1.319
 5011TIP3    H236593   0.005   6.529   1.396
 5012TIP3   OH236594   1.143   3.168   0.160
 5012TIP3    H136595   1.202   3.219   0.215
 5012TIP3    H236596   1.069   3.147   0.217
 5013TIP3   OH236597   3.035   3.044   6.983
 5013TIP3    H136598   2.983   3.121   7.006
 5013TIP3    H236599   3.123   3.065   7.016
 5014TIP3   OH236600   0.079   1.403   2.018
 5014TIP3    H136601   0.033   1.352   1.952
 5014TIP3    H236602   0.027   1.391   2.098
 5015TIP3   OH236603   6.377   1.418   0.653
 5015TIP3    H136604   6.336   1.435   0.738
 5015TIP3    H236605   6.355   1.494   0.599
 5016TIP3   OH236606   1.391   2.587   8.653
 5016TIP3    H136607   1.320   2.635   8.695
 5016TIP3    H236608   1.349   2.538   8.582
 5017TIP3   OH236609   0.417   3.098   8.405
 5017TIP3    H136610   0.480   3.169   8.416
 5017TIP3    H236611   0.407   3.090   8.310
 5018TIP3   OH236612   1.255   3.424   8.808
 5018TIP3    H136613   1.271   3.330   8.802
 5018TIP3    H236614   1.325   3.456   8.865
 5019TIP3   OH236615   3.507   6.359   8.509
 5019TIP3    H136616   3.460   6.288   8.465
 5019TIP3    H236617   3.593   6.359   8.468
 5020TIP3   OH236618   0.305   3.464   0.572
 5020TIP3    H136619   0.334   3.549   0.539
 5020TIP3    H236620   0.258   3.425   0.498
 5021TIP3   OH236621   3.199   0.858   1.294
 5021TIP3    H136622   3.166   0.798   1.361
 5021TIP3    H236623   3.227   0.935   1.344
 5022TIP3   OH236624   4.122   3.901   1.780
 5022TIP3    H136625   4.057   3.949   1.729
 5022TIP3    H236626   4.202   3.954   1.774
 5023TIP3   OH236627   1.335   1.846   0.307
 5023TIP3    H136628   1.306   1.842   0.398
 5023TIP3    H236629   1.369   1.935   0.296
 5024TIP3   OH236630   4.677   0.694   8.254
 5024TIP3    H136631   4.669   0.601   8.236
 5024TIP3    H236632   4.760   0.719   8.214
 5025TIP3   OH236633   1.062   1.717   8.118
 5025TIP3    H136634   1.013   1.640   8.092
 5025TIP3    H236635   1.000   1.768   8.170
 5026TIP3   OH236636   0.937   6.733   7.539
 5026TIP3    H136637   0.947   6.714   7.445
 5026TIP3    H236638   0.877   6.666   7.571
 5027TIP3   OH236639   5.330   5.350   0.391
 5027TIP3    H136640   5.330   5.279   0.455
 5027TIP3    H236641   5.240   5.355   0.359
 5028TIP3   OH236642   0.879   3.219   1.939
 5028TIP3    H136643   0.834   3.174   1.868
 5028TIP3    H236644   0.930   3.288   1.895
 5029TIP3   OH236645   1.088   4.196   0.710
 5029TIP3    H136646   1.153   4.225   0.647
 5029TIP3    H236647   1.108   4.244   0.790
 5030TIP3   OH236648   6.621   4.080   6.315
 5030TIP3    H136649   6.617   4.175   6.319
 5030TIP3    H236650   6.697   4.056   6.368
 5031TIP3   OH236651   4.585   1.685   1.158
 5031TIP3    H136652   4.640   1.757   1.127
 5031TIP3    H236653   4.636   1.642   1.227
 5032TIP3   OH236654   3.856   6.209   0.119
 5032TIP3    H136655   3.839   6.147   0.190
 5032TIP3    H236656   3.776   6.261   0.113
 5033TIP3   OH236657   4.323   3.918   7.645
 5033TIP3    H136658   4.405   3.870   7.636
 5033TIP3    H236659   4.318   3.972   7.566
 5034TIP3   OH236660   2.133   2.354   7.245
 5034TIP3    H136661   2.077   2.278   7.256
 5034TIP3    H236662   2.175   2.341   7.160
 5035TIP3   OH236663   3.710   1.044   7.795
 5035TIP3    H136664   3.726   1.074   7.884
 5035TIP3    H236665   3.620   1.011   7.797
 5036TIP3   OH236666   2.885   2.509   7.614
 5036TIP3    H136667   2.954   2.557   7.659
 5036TIP3    H236668   2.932   2.444   7.561
 5037TIP3   OH236669   5.354   3.512   2.072
 5037TIP3    H136670   5.365   3.425   2.032
 5037TIP3    H236671   5.371   3.573   2.001
 5038TIP3   OH236672   5.194   2.286   8.293
 5038TIP3    H136673   5.130   2.349   8.258
 5038TIP3    H236674   5.263   2.340   8.331
 5039TIP3   OH236675   2.050   2.767   1.196
 5039TIP3    H136676   2.096   2.694   1.239
 5039TIP3    H236677   1.974   2.783   1.252
 5040TIP3   OH236678   0.741   2.866   8.018
 5040TIP3    H136679   0.667   2.840   7.963
 5040TIP3    H236680   0.701   2.911   8.092
 5041TIP3   OH236681   4.389   3.481   7.855
 5041TIP3    H136682   4.375   3.574   7.868
 5041TIP3    H236683   4.482   3.472   7.835
 5042TIP3   OH236684   3.397   4.953   7.778
 5042TIP3    H136685   3.408   5.047   7.763
 5042TIP3    H236686   3.317   4.946   7.830
 5043TIP3   OH236687   2.297   2.286   0.181
 5043TIP3    H136688   2.340   2.221   0.125
 5043TIP3    H236689   2.276   2.238   0.262
 5044TIP3   OH236690   2.187   5.053   6.681
 5044TIP3    H136691   2.279   5.048   6.659
 5044TIP3    H236692   2.163   5.145   6.670
 5045TIP3   OH236693   4.560   2.189   8.082
 5045TIP3    H136694   4.466   2.178   8.099
 5045TIP3    H236695   4.601   2.175   8.166
 5046TIP3   OH236696   4.921   5.788   1.933
 5046TIP3    H136697   4.972   5.832   2.001
 5046TIP3    H236698   4.985   5.769   1.864
 5047TIP3   OH236699   3.184   5.064   8.191
 5047TIP3    H136700   3.212   5.062   8.282
 5047TIP3    H236701   3.089   5.061   8.194
 5048TIP3   OH236702   0.835   0.164   8.199
 5048TIP3    H136703   0.747   0.192   8.225
 5048TIP3    H236704   0.826   0.070   8.181
 5049TIP3   OH236705   2.481   0.577   7.516
 5049TIP3    H136706   2.458   0.659   7.473
 5049TIP3    H236707   2.552   0.601   7.576
 5050TIP3   OH236708   5.326   2.311   7.946
 5050TIP3    H136709   5.236   2.327   7.918
 5050TIP3    H236710   5.379   2.340   7.872
 5051TIP3   OH236711   1.159   3.088   1.216
 5051TIP3    H136712   1.158   3.134   1.300
 5051TIP3    H236713   1.175   2.996   1.239
 5052TIP3   OH236714   1.173   5.952   0.805
 5052TIP3    H136715   1.092   5.962   0.756
 5052TIP3    H236716   1.152   5.886   0.872
 5053TIP3   OH236717   5.426   1.450   0.345
 5053TIP3    H136718   5.354   1.403   0.387
 5053TIP3    H236719   5.383   1.519   0.294
 5054TIP3   OH236720   4.631   1.834   8.498
 5054TIP3    H136721   4.622   1.739   8.506
 5054TIP3    H236722   4.570   1.869   8.562
 5055TIP3   OH236723   0.359   4.647   7.221
 5055TIP3    H136724   0.317   4.720   7.175
 5055TIP3    H236725   0.286   4.598   7.259
 5056TIP3   OH236726   4.118   4.659   1.647
 5056TIP3    H136727   4.047   4.625   1.594
 5056TIP3    H236728   4.082   4.738   1.688
 5057TIP3   OH236729   4.928   2.393   0.889
 5057TIP3    H136730   4.995   2.325   0.888
 5057TIP3    H236731   4.867   2.366   0.958
 5058TIP3   OH236732   5.296   3.678   7.109
 5058TIP3    H136733   5.327   3.600   7.064
 5058TIP3    H236734   5.327   3.751   7.054
 5059TIP3   OH236735   2.201   1.946   2.105
 5059TIP3    H136736   2.276   1.975   2.158
 5059TIP3    H236737   2.139   1.912   2.169
 5060TIP3   OH236738   1.241   2.079   1.990
 5060TIP3    H136739   1.207   2.075   2.080
 5060TIP3    H236740   1.226   1.991   1.955
 5061TIP3   OH236741   1.063   5.395   8.529
 5061TIP3    H136742   1.003   5.431   8.464
 5061TIP3    H236743   1.036   5.435   8.611
 5062TIP3   OH236744   0.057   0.753   6.839
 5062TIP3    H136745   0.012   0.703   6.771
 5062TIP3    H236746   0.150   0.736   6.825
 5063TIP3   OH236747   5.165   3.471   0.606
 5063TIP3    H136748   5.207   3.472   0.692
 5063TIP3    H236749   5.238   3.481   0.544
 5064TIP3   OH236750   6.506   2.641   8.043
 5064TIP3    H136751   6.500   2.682   8.130
 5064TIP3    H236752   6.429   2.585   8.037
 5065TIP3   OH236753   3.834   4.763   7.550
 5065TIP3    H136754   3.883   4.839   7.582
 5065TIP3    H236755   3.896   4.717   7.493
 5066TIP3   OH236756   2.306   6.497   7.086
 5066TIP3    H136757   2.282   6.419   7.037
 5066TIP3    H236758   2.226   6.551   7.085
 5067TIP3   OH236759   3.010   3.350   7.573
 5067TIP3    H136760   2.964   3.430   7.548
 5067TIP3    H236761   2.944   3.281   7.565
 5068TIP3   OH236762   2.290   0.804   0.680
 5068TIP3    H136763   2.245   0.868   0.625
 5068TIP3    H236764   2.225   0.737   0.698
 5069TIP3   OH236765   2.240   1.614   1.215
 5069TIP3    H136766   2.308   1.681   1.225
 5069TIP3    H236767   2.181   1.628   1.289
 5070TIP3   OH236768   5.391   5.446   7.457
 5070TIP3    H136769   5.329   5.512   7.490
 5070TIP3    H236770   5.476   5.476   7.489
 5071TIP3   OH236771   5.809   2.002   7.002
 5071TIP3    H136772   5.853   1.925   6.968
 5071TIP3    H236773   5.772   2.045   6.925
 5072TIP3   OH236774   5.954   6.170   0.773
 5072TIP3    H136775   5.905   6.204   0.847
 5072TIP3    H236776   5.960   6.075   0.789
 5073TIP3   OH236777   1.313   1.281   8.457
 5073TIP3    H136778   1.295   1.374   8.476
 5073TIP3    H236779   1.294   1.272   8.364
 5074TIP3   OH236780   1.588   1.505   1.547
 5074TIP3    H136781   1.541   1.508   1.631
 5074TIP3    H236782   1.653   1.576   1.553
 5075TIP3   OH236783   1.493   5.400   8.530
 5075TIP3    H136784   1.445   5.337   8.585
 5075TIP3    H236785   1.428   5.429   8.466
 5076TIP3   OH236786   3.856   0.671   1.298
 5076TIP3    H136787   3.890   0.749   1.254
 5076TIP3    H236788   3.866   0.690   1.392
 5077TIP3   OH236789   4.917   5.442   0.476
 5077TIP3    H136790   4.901   5.534   0.499
 5077TIP3    H236791   4.980   5.412   0.541
 5078TIP3   OH236792   3.257   3.014   8.515
 5078TIP3    H136793   3.209   2.937   8.545
 5078TIP3    H236794   3.318   3.034   8.586
 5079TIP3   OH236795   2.735   0.682   1.720
 5079TIP3    H136796   2.821   0.654   1.752
 5079TIP3    H236797   2.738   0.664   1.626
 5080TIP3   OH236798   4.929   3.352   6.921
 5080TIP3    H136799   4.914   3.444   6.945
 5080TIP3    H236800   5.016   3.333   6.955
 5081TIP3   OH236801   5.461   0.764   6.847
 5081TIP3    H136802   5.390   0.822   6.875
 5081TIP3    H236803   5.540   0.800   6.888
 5082TIP3   OH236804   4.358   2.627   6.680
 5082TIP3    H136805   4.438   2.629   6.628
 5082TIP3    H236806   4.289   2.658   6.621
 5083TIP3   OH236807   3.206   2.130   2.570
 5083TIP3    H136808   3.248   2.215   2.584
 5083TIP3    H236809   3.114   2.151   2.552
 5084TIP3   OH236810   0.744   5.973   6.367
 5084TIP3    H136811   0.713   5.927   6.445
 5084TIP3    H236812   0.675   6.037   6.348
 5085TIP3   OH236813   0.970   4.464   0.603
 5085TIP3    H136814   0.945   4.471   0.511
 5085TIP3    H236815   0.889   4.479   0.652
 5086TIP3   OH236816   4.727   3.049   0.189
 5086TIP3    H136817   4.792   3.065   0.258
 5086TIP3    H236818   4.760   2.973   0.142
 5087TIP3   OH236819   6.675   6.404   8.100
 5087TIP3    H136820   6.714   6.470   8.157
 5087TIP3    H236821   6.641   6.338   8.161
 5088TIP3   OH236822   6.422   6.379   1.709
 5088TIP3    H136823   6.356   6.310   1.696
 5088TIP3    H236824   6.472   6.380   1.627
 5089TIP3   OH236825   0.942   6.362   0.743
 5089TIP3    H136826   0.914   6.324   0.659
 5089TIP3    H236827   0.862   6.395   0.782
 5090TIP3   OH236828   1.996   2.118   0.235
 5090TIP3    H136829   2.041   2.034   0.233
 5090TIP3    H236830   1.940   2.117   0.157
 5091TIP3   OH236831   4.031   3.428   1.410
 5091TIP3    H136832   4.021   3.523   1.400
 5091TIP3    H236833   4.078   3.400   1.331
 5092TIP3   OH236834   5.903   4.623   2.140
 5092TIP3    H136835   5.967   4.694   2.144
 5092TIP3    H236836   5.948   4.552   2.093
 5093TIP3   OH236837   4.504   0.268   0.158
 5093TIP3    H136838   4.550   0.341   0.201
 5093TIP3    H236839   4.500   0.293   0.066
 5094TIP3   OH236840   5.283   1.294   7.811
 5094TIP3    H136841   5.233   1.303   7.730
 5094TIP3    H236842   5.232   1.233   7.864
 5095TIP3   OH236843   2.699   5.723   0.834
 5095TIP3    H136844   2.788   5.757   0.843
 5095TIP3    H236845   2.691   5.660   0.905
 5096TIP3   OH236846   5.159   3.949   0.003
 5096TIP3    H136847   5.140   4.031   8.827
 5096TIP3    H236848   5.077   3.899   8.868
 5097TIP3   OH236849   6.270   3.078   0.568
 5097TIP3    H136850   6.182   3.046   0.584
 5097TIP3    H236851   6.320   3.000   0.545
 5098TIP3   OH236852   2.476   1.182   0.866
 5098TIP3    H136853   2.502   1.236   0.941
 5098TIP3    H236854   2.532   1.211   0.795
 5099TIP3   OH236855   6.405   1.773   7.635
 5099TIP3    H136856   6.365   1.730   7.710
 5099TIP3    H236857   6.366   1.860   7.633
 5100TIP3   OH236858   5.880   1.589   6.649
 5100TIP3    H136859   5.925   1.514   6.687
 5100TIP3    H236860   5.900   1.584   6.555
 5101TIP3   OH236861   5.103   6.595   0.456
 5101TIP3    H136862   5.187   6.624   0.492
 5101TIP3    H236863   5.060   6.676   0.429
 5102TIP3   OH236864   6.450   1.477   7.560
 5102TIP3    H136865   6.366   1.464   7.605
 5102TIP3    H236866   6.509   1.510   7.628
 5103TIP3   OH236867   2.498   1.251   1.915
 5103TIP3    H136868   2.466   1.314   1.979
 5103TIP3    H236869   2.588   1.280   1.895
 5104TIP3   OH236870   6.758   5.363   6.589
 5104TIP3    H136871   6.709   5.289   6.624
 5104TIP3    H236872   0.048   5.363   6.638
 5105TIP3   OH236873   5.467   4.202   7.094
 5105TIP3    H136874   5.462   4.204   6.999
 5105TIP3    H236875   5.379   4.226   7.123
 5106TIP3   OH236876   5.025   2.626   0.196
 5106TIP3    H136877   4.995   2.544   0.155
 5106TIP3    H236878   5.109   2.644   0.154
 5107TIP3   OH236879   6.567   5.708   8.850
 5107TIP3    H136880   6.587   5.775   0.047
 5107TIP3    H236881   6.482   5.734   8.814
 5108TIP3   OH236882   1.529   1.837   0.541
 5108TIP3    H136883   1.575   1.761   0.578
 5108TIP3    H236884   1.437   1.811   0.543
 5109TIP3   OH236885   2.982   0.318   2.128
 5109TIP3    H136886   2.946   0.406   2.114
 5109TIP3    H236887   3.070   0.334   2.162
 5110TIP3   OH236888   5.056   0.347   1.882
 5110TIP3    H136889   4.967   0.331   1.851
 5110TIP3    H236890   5.044   0.393   1.965
 5111TIP3   OH236891   3.388   0.756   1.109
 5111TIP3    H136892   3.321   0.758   1.177
 5111TIP3    H236893   3.350   0.703   1.039
 5112TIP3   OH236894   0.830   3.778   7.645
 5112TIP3    H136895   0.762   3.787   7.579
 5112TIP3    H236896   0.907   3.748   7.596
 5113TIP3   OH236897   1.689   2.443   0.708
 5113TIP3    H136898   1.654   2.505   0.773
 5113TIP3    H236899   1.712   2.498   0.633
 5114TIP3   OH236900   1.462   3.986   7.940
 5114TIP3    H136901   1.406   3.912   7.916
 5114TIP3    H236902   1.550   3.958   7.916
 5115TIP3   OH236903   2.745   4.378   0.694
 5115TIP3    H136904   2.792   4.322   0.632
 5115TIP3    H236905   2.799   4.458   0.699
 5116TIP3   OH236906   6.465   5.488   0.220
 5116TIP3    H136907   6.469   5.392   0.222
 5116TIP3    H236908   6.513   5.516   0.297
 5117TIP3   OH236909   2.998   1.544   0.083
 5117TIP3    H136910   3.030   1.634   0.095
 5117TIP3    H236911   3.005   1.504   0.169
 5118TIP3   OH236912   5.726   4.714   8.264
 5118TIP3    H136913   5.676   4.744   8.188
 5118TIP3    H236914   5.660   4.696   8.331
 5119TIP3   OH236915   4.515   3.508   7.415
 5119TIP3    H136916   4.530   3.414   7.429
 5119TIP3    H236917   4.548   3.524   7.327
 5120TIP3   OH236918   6.521   1.039   1.512
 5120TIP3    H136919   6.574   1.095   1.456
 5120TIP3    H236920   6.552   0.950   1.494
 5121TIP3   OH236921   4.179   5.102   0.902
 5121TIP3    H136922   4.248   5.124   0.840
 5121TIP3    H236923   4.226   5.072   0.980
 5122TIP3   OH236924   2.746   0.391   7.535
 5122TIP3    H136925   2.764   0.366   7.625
 5122TIP3    H236926   2.705   0.313   7.496
 5123TIP3   OH236927   5.425   5.539   7.164
 5123TIP3    H136928   5.422   5.469   7.229
 5123TIP3    H236929   5.375   5.610   7.203
 5124TIP3   OH236930   0.258   3.904   7.342
 5124TIP3    H136931   0.275   3.981   7.288
 5124TIP3    H236932   0.329   3.844   7.320
 5125TIP3   OH236933   4.618   6.057   7.700
 5125TIP3    H136934   4.620   5.985   7.637
 5125TIP3    H236935   4.564   6.124   7.659
 5126TIP3   OH236936   4.486   2.790   8.429
 5126TIP3    H136937   4.512   2.871   8.473
 5126TIP3    H236938   4.407   2.762   8.475
 5127TIP3   OH236939   0.169   3.664   7.133
 5127TIP3    H136940   0.169   3.740   7.074
 5127TIP3    H236941   0.105   3.604   7.095
 5128TIP3   OH236942   6.714   2.070   2.174
 5128TIP3    H136943   6.788   2.009   2.184
 5128TIP3    H236944   6.699   2.073   2.080
 5129TIP3   OH236945   6.272   6.626   1.084
 5129TIP3    H136946   6.212   6.666   1.022
 5129TIP3    H236947   6.350   6.681   1.081
 5130TIP3   OH236948   0.608   4.803   7.917
 5130TIP3    H136949   0.637   4.713   7.930
 5130TIP3    H236950   0.543   4.818   7.985
 5131TIP3   OH236951   3.651   1.094   8.803
 5131TIP3    H136952   3.681   1.003   8.803
 5131TIP3    H236953   3.560   1.090   8.772
 5132TIP3   OH236954   5.140   2.953   2.034
 5132TIP3    H136955   5.120   2.967   1.941
 5132TIP3    H236956   5.055   2.965   2.078
 5133TIP3   OH236957   1.527   5.079   8.121
 5133TIP3    H136958   1.609   5.037   8.148
 5133TIP3    H236959   1.548   5.173   8.119
 5134TIP3   OH236960   3.933   0.239   1.407
 5134TIP3    H136961   3.964   0.187   1.332
 5134TIP3    H236962   4.014   0.268   1.450
 5135TIP3   OH236963   3.797   3.654   8.133
 5135TIP3    H136964   3.754   3.649   8.048
 5135TIP3    H236965   3.761   3.582   8.183
 5136TIP3   OH236966   3.948   5.302   0.436
 5136TIP3    H136967   3.937   5.380   0.383
 5136TIP3    H236968   3.892   5.236   0.395
 5137TIP3   OH236969   4.630   2.678   1.926
 5137TIP3    H136970   4.576   2.747   1.966
 5137TIP3    H236971   4.694   2.656   1.994
 5138TIP3   OH236972   0.029   4.792   1.861
 5138TIP3    H136973   0.004   4.807   1.952
 5138TIP3    H236974   0.100   4.854   1.844
 5139TIP3   OH236975   2.952   5.627   2.455
 5139TIP3    H136976   2.888   5.559   2.436
 5139TIP3    H236977   2.911   5.683   2.520
 5140TIP3   OH236978   1.372   1.604   8.743
 5140TIP3    H136979   1.445   1.647   8.699
 5140TIP3    H236980   1.400   1.597   8.834
 5141TIP3   OH236981   1.556   6.049   1.180
 5141TIP3    H136982   1.551   6.132   1.132
 5141TIP3    H236983   1.470   6.010   1.169
 5142TIP3   OH236984   5.105   1.170   8.199
 5142TIP3    H136985   5.024   1.219   8.211
 5142TIP3    H236986   5.100   1.100   8.264
 5143TIP3   OH236987   1.563   2.963   7.208
 5143TIP3    H136988   1.659   2.960   7.207
 5143TIP3    H236989   1.539   3.003   7.125
 5144TIP3   OH236990   4.721   0.295   8.770
 5144TIP3    H136991   4.754   0.308   8.681
 5144TIP3    H236992   4.626   0.285   8.759
 5145TIP3   OH236993   3.407   0.985   7.403
 5145TIP3    H136994   3.451   0.944   7.477
 5145TIP3    H236995   3.336   1.036   7.442
 5146TIP3   OH236996   0.399   6.436   0.422
 5146TIP3    H136997   0.475   6.490   0.399
 5146TIP3    H236998   0.387   6.450   0.516
 5147TIP3   OH236999   1.839   5.310   1.758
 5147TIP3    H137000   1.860   5.305   1.665
 5147TIP3    H237001   1.763   5.368   1.763
 5148TIP3   OH237002   4.815   1.742   1.474
 5148TIP3    H137003   4.781   1.717   1.561
 5148TIP3    H237004   4.783   1.673   1.416
 5149TIP3   OH237005   0.220   4.454   1.065
 5149TIP3    H137006   0.151   4.419   1.121
 5149TIP3    H237007   0.243   4.538   1.106
 5150TIP3   OH237008   1.183   0.222   6.555
 5150TIP3    H137009   1.272   0.258   6.564
 5150TIP3    H237010   1.157   0.200   6.644
 5151TIP3   OH237011   6.138   3.337   0.844
 5151TIP3    H137012   6.059   3.390   0.827
 5151TIP3    H237013   6.104   3.249   0.861
 5152TIP3   OH237014   2.934   0.887   6.921
 5152TIP3    H137015   2.860   0.877   6.981
 5152TIP3    H237016   2.898   0.937   6.847
 5153TIP3   OH237017   1.906   0.344   2.729
 5153TIP3    H137018   1.980   0.331   2.669
 5153TIP3    H237019   1.903   0.265   2.783
 5154TIP3   OH237020   2.806   1.903   0.696
 5154TIP3    H137021   2.803   1.989   0.739
 5154TIP3    H237022   2.715   1.884   0.673
 5155TIP3   OH237023   3.580   1.513   8.269
 5155TIP3    H137024   3.545   1.574   8.334
 5155TIP3    H237025   3.653   1.560   8.229
 5156TIP3   OH237026   6.494   0.243   1.474
 5156TIP3    H137027   6.569   0.196   1.439
 5156TIP3    H237028   6.484   0.320   1.417
 5157TIP3   OH237029   1.697   4.498   1.626
 5157TIP3    H137030   1.717   4.405   1.617
 5157TIP3    H237031   1.695   4.512   1.721
 5158TIP3   OH237032   0.551   4.371   0.469
 5158TIP3    H137033   0.493   4.406   0.537
 5158TIP3    H237034   0.604   4.306   0.515
 5159TIP3   OH237035   3.947   5.966   1.816
 5159TIP3    H137036   3.913   5.947   1.729
 5159TIP3    H237037   4.042   5.973   1.804
 5160TIP3   OH237038   4.931   5.063   7.164
 5160TIP3    H137039   5.017   5.105   7.159
 5160TIP3    H237040   4.941   4.983   7.113
 5161TIP3   OH237041   4.785   2.700   7.433
 5161TIP3    H137042   4.750   2.774   7.483
 5161TIP3    H237043   4.709   2.658   7.394
 5162TIP3   OH237044   5.614   6.081   7.010
 5162TIP3    H137045   5.570   5.999   6.989
 5162TIP3    H237046   5.582   6.104   7.097
 5163TIP3   OH237047   0.741   3.316   0.500
 5163TIP3    H137048   0.663   3.281   0.543
 5163TIP3    H237049   0.737   3.410   0.516
 5164TIP3   OH237050   2.204   4.945   6.318
 5164TIP3    H137051   2.143   4.879   6.285
 5164TIP3    H237052   2.270   4.895   6.365
 5165TIP3   OH237053   0.994   3.203   6.275
 5165TIP3    H137054   0.906   3.171   6.255
 5165TIP3    H237055   0.982   3.297   6.291
 5166TIP3   OH237056   5.832   6.461   7.114
 5166TIP3    H137057   5.799   6.451   7.024
 5166TIP3    H237058   5.899   6.529   7.107
 5167TIP3   OH237059   0.202   1.002   2.034
 5167TIP3    H137060   0.109   0.983   2.026
 5167TIP3    H237061   0.218   1.002   2.129
 5168TIP3   OH237062   2.097   4.194   7.875
 5168TIP3    H137063   2.180   4.153   7.855
 5168TIP3    H237064   2.050   4.129   7.927
 5169TIP3   OH237065   5.098   3.208   2.487
 5169TIP3    H137066   5.084   3.297   2.455
 5169TIP3    H237067   5.034   3.196   2.557
 5170TIP3   OH237068   6.184   0.397   7.581
 5170TIP3    H137069   6.141   0.334   7.638
 5170TIP3    H237070   6.269   0.358   7.560
 5171TIP3   OH237071   5.250   0.997   0.034
 5171TIP3    H137072   5.331   1.045   0.047
 5171TIP3    H237073   5.205   1.001   0.119
 5172TIP3   OH237074   4.649   3.610   0.972
 5172TIP3    H137075   4.639   3.604   0.877
 5172TIP3    H237076   4.735   3.572   0.990
 5173TIP3   OH237077   2.509   5.824   1.535
 5173TIP3    H137078   2.464   5.775   1.466
 5173TIP3    H237079   2.585   5.863   1.492
 5174TIP3   OH237080   2.717   2.977   8.285
 5174TIP3    H137081   2.787   3.029   8.247
 5174TIP3    H237082   2.714   3.003   8.377
 5175TIP3   OH237083   2.544   5.309   8.005
 5175TIP3    H137084   2.586   5.361   7.936
 5175TIP3    H237085   2.579   5.221   7.994
 5176TIP3   OH237086   2.949   5.070   8.825
 5176TIP3    H137087   2.987   4.982   8.825
 5176TIP3    H237088   2.915   5.081   8.736
 5177TIP3   OH237089   2.341   2.298   1.536
 5177TIP3    H137090   2.306   2.244   1.606
 5177TIP3    H237091   2.329   2.388   1.566
 5178TIP3   OH237092   2.402   1.733   0.762
 5178TIP3    H137093   2.464   1.669   0.797
 5178TIP3    H237094   2.434   1.818   0.793
 5179TIP3   OH237095   6.353   6.158   7.902
 5179TIP3    H137096   6.375   6.251   7.893
 5179TIP3    H237097   6.438   6.114   7.914
 5180TIP3   OH237098   3.051   0.461   0.430
 5180TIP3    H137099   3.097   0.397   0.484
 5180TIP3    H237100   3.103   0.541   0.439
 5181TIP3   OH237101   3.333   0.664   7.878
 5181TIP3    H137102   3.238   0.666   7.871
 5181TIP3    H237103   3.355   0.571   7.880
 5182TIP3   OH237104   4.297   3.755   8.167
 5182TIP3    H137105   4.316   3.751   8.073
 5182TIP3    H237106   4.274   3.846   8.183
 5183TIP3   OH237107   5.090   3.425   7.419
 5183TIP3    H137108   5.120   3.405   7.507
 5183TIP3    H237109   5.020   3.489   7.431
 5184TIP3   OH237110   4.689   2.060   7.707
 5184TIP3    H137111   4.599   2.038   7.687
 5184TIP3    H237112   4.737   2.043   7.626
 5185TIP3   OH237113   6.319   5.353   1.660
 5185TIP3    H137114   6.384   5.391   1.719
 5185TIP3    H237115   6.343   5.387   1.574
 5186TIP3   OH237116   6.493   5.478   7.283
 5186TIP3    H137117   6.461   5.410   7.342
 5186TIP3    H237118   6.427   5.547   7.288
 5187TIP3   OH237119   5.560   3.854   6.960
 5187TIP3    H137120   5.612   3.773   6.953
 5187TIP3    H237121   5.514   3.860   6.877
 5188TIP3   OH237122   3.897   6.246   1.097
 5188TIP3    H137123   3.961   6.176   1.082
 5188TIP3    H237124   3.889   6.250   1.193
 5189TIP3   OH237125   0.769   1.970   7.416
 5189TIP3    H137126   0.816   2.053   7.418
 5189TIP3    H237127   0.833   1.906   7.448
 5190TIP3   OH237128   2.066   3.193   8.653
 5190TIP3    H137129   2.030   3.107   8.634
 5190TIP3    H237130   2.000   3.236   8.707
 5191TIP3   OH237131   4.069   5.199   0.020
 5191TIP3    H137132   4.004   5.236   8.828
 5191TIP3    H237133   4.109   5.275   0.061
 5192TIP3   OH237134   2.158   3.441   6.848
 5192TIP3    H137135   2.187   3.416   6.936
 5192TIP3    H237136   2.093   3.376   6.824
 5193TIP3   OH237137   0.778   4.541   1.794
 5193TIP3    H137138   0.715   4.614   1.790
 5193TIP3    H237139   0.750   4.482   1.724
 5194TIP3   OH237140   3.495   5.480   2.105
 5194TIP3    H137141   3.576   5.489   2.155
 5194TIP3    H237142   3.504   5.395   2.061
 5195TIP3   OH237143   2.890   1.898   7.572
 5195TIP3    H137144   2.877   1.980   7.524
 5195TIP3    H237145   2.875   1.830   7.506
 5196TIP3   OH237146   3.590   1.496   1.096
 5196TIP3    H137147   3.572   1.579   1.141
 5196TIP3    H237148   3.636   1.443   1.161
 5197TIP3   OH237149   5.272   5.202   1.463
 5197TIP3    H137150   5.231   5.134   1.516
 5197TIP3    H237151   5.366   5.186   1.472
 5198TIP3   OH237152   0.972   6.544   8.362
 5198TIP3    H137153   1.012   6.457   8.363
 5198TIP3    H237154   1.046   6.604   8.357
 5199TIP3   OH237155   3.937   3.610   1.777
 5199TIP3    H137156   3.881   3.660   1.717
 5199TIP3    H237157   3.920   3.518   1.754
 5200TIP3   OH237158   5.704   0.072   1.992
 5200TIP3    H137159   5.697   0.166   2.007
 5200TIP3    H237160   5.656   0.032   2.064
 5201TIP3   OH237161   0.997   5.251   7.401
 5201TIP3    H137162   0.954   5.227   7.483
 5201TIP3    H237163   0.926   5.276   7.343
 5202TIP3   OH237164   2.660   3.341   8.583
 5202TIP3    H137165   2.716   3.264   8.593
 5202TIP3    H237166   2.608   3.322   8.505
 5203TIP3   OH237167   2.446   3.059   1.562
 5203TIP3    H137168   2.535   3.024   1.561
 5203TIP3    H237169   2.457   3.154   1.563
 5204TIP3   OH237170   0.482   2.012   7.369
 5204TIP3    H137171   0.465   1.938   7.311
 5204TIP3    H237172   0.576   2.010   7.384
 5205TIP3   OH237173   6.213   2.463   0.359
 5205TIP3    H137174   6.272   2.414   0.302
 5205TIP3    H237175   6.223   2.421   0.445
 5206TIP3   OH237176   4.619   2.306   7.554
 5206TIP3    H137177   4.697   2.330   7.504
 5206TIP3    H237178   4.650   2.241   7.617
 5207TIP3   OH237179   2.959   0.172   1.802
 5207TIP3    H137180   2.970   0.090   1.849
 5207TIP3    H237181   2.934   0.146   1.713
 5208TIP3   OH237182   1.944   2.266   1.022
 5208TIP3    H137183   2.033   2.251   0.990
 5208TIP3    H237184   1.914   2.179   1.050
 5209TIP3   OH237185   4.456   1.975   7.541
 5209TIP3    H137186   4.373   2.007   7.506
 5209TIP3    H237187   4.439   1.963   7.635
 5210TIP3   OH237188   4.883   4.855   6.707
 5210TIP3    H137189   4.970   4.894   6.719
 5210TIP3    H237190   4.881   4.782   6.768
 5211TIP3   OH237191   3.267   6.463   6.836
 5211TIP3    H137192   3.255   6.401   6.908
 5211TIP3    H237193   3.348   6.509   6.858
 5212TIP3   OH237194   0.327   6.603   7.040
 5212TIP3    H137195   0.274   6.555   6.976
 5212TIP3    H237196   0.280   6.686   7.052
 5213TIP3   OH237197   1.422   2.776   1.280
 5213TIP3    H137198   1.329   2.786   1.300
 5213TIP3    H237199   1.450   2.700   1.332
 5214TIP3   OH237200   5.807   5.295   1.053
 5214TIP3    H137201   5.737   5.288   1.119
 5214TIP3    H237202   5.862   5.218   1.069
 5215TIP3   OH237203   3.878   6.232   6.431
 5215TIP3    H137204   3.858   6.326   6.427
 5215TIP3    H237205   3.800   6.189   6.395
 5216TIP3   OH237206   1.774   1.155   6.452
 5216TIP3    H137207   1.799   1.153   6.359
 5216TIP3    H237208   1.779   1.063   6.479
 5217TIP3   OH237209   2.208   6.256   1.755
 5217TIP3    H137210   2.201   6.194   1.827
 5217TIP3    H237211   2.248   6.205   1.684
 5218TIP3   OH237212   2.655   5.713   0.556
 5218TIP3    H137213   2.667   5.721   0.650
 5218TIP3    H237214   2.613   5.795   0.530
 5219TIP3   OH237215   3.398   6.556   7.171
 5219TIP3    H137216   3.309   6.585   7.151
 5219TIP3    H237217   3.442   6.549   7.086
 5220TIP3   OH237218   6.715   5.258   8.019
 5220TIP3    H137219   6.777   5.226   8.085
 5220TIP3    H237220   6.642   5.294   8.070
 5221TIP3   OH237221   3.034   5.737   7.158
 5221TIP3    H137222   2.997   5.677   7.093
 5221TIP3    H237223   2.964   5.800   7.176
 5222TIP3   OH237224   0.517   2.119   1.350
 5222TIP3    H137225   0.538   2.119   1.257
 5222TIP3    H237226   0.539   2.208   1.379
 5223TIP3   OH237227   6.543   4.447   7.305
 5223TIP3    H137228   6.499   4.522   7.264
 5223TIP3    H237229   6.487   4.424   7.379
 5224TIP3   OH237230   1.598   4.741   0.647
 5224TIP3    H137231   1.567   4.666   0.595
 5224TIP3    H237232   1.682   4.712   0.683
 5225TIP3   OH237233   1.741   3.776   1.453
 5225TIP3    H137234   1.791   3.695   1.443
 5225TIP3    H237235   1.806   3.846   1.441
 5226TIP3   OH237236   0.079   1.694   7.752
 5226TIP3    H137237   0.150   1.683   7.688
 5226TIP3    H237238   0.001   1.712   7.699
 5227TIP3   OH237239   2.424   2.690   1.091
 5227TIP3    H137240   2.363   2.622   1.061
 5227TIP3    H237241   2.393   2.713   1.179
 5228TIP3   OH237242   1.801   1.855   8.757
 5228TIP3    H137243   1.784   1.945   8.785
 5228TIP3    H237244   1.860   1.864   8.682
 5229TIP3   OH237245   5.262   6.790   0.840
 5229TIP3    H137246   5.174   0.010   0.804
 5229TIP3    H237247   5.311   0.075   0.811
 5230TIP3   OH237248   0.476   1.908   0.791
 5230TIP3    H137249   0.555   1.898   0.737
 5230TIP3    H237250   0.409   1.937   0.729
 5231TIP3   OH237251   2.998   6.586   6.912
 5231TIP3    H137252   3.034   6.618   6.829
 5231TIP3    H237253   3.006   6.491   6.907
 5232TIP3   OH237254   3.880   3.574   1.164
 5232TIP3    H137255   3.876   3.668   1.148
 5232TIP3    H237256   3.823   3.560   1.240
 5233TIP3   OH237257   6.033   1.433   1.249
 5233TIP3    H137258   5.952   1.469   1.214
 5233TIP3    H237259   6.085   1.510   1.274
 5234TIP3   OH237260   1.266   6.447   1.482
 5234TIP3    H137261   1.339   6.442   1.543
 5234TIP3    H237262   1.279   6.374   1.422
 5235TIP3   OH237263   6.300   0.609   6.820
 5235TIP3    H137264   6.271   0.574   6.736
 5235TIP3    H237265   6.380   0.561   6.841
 5236TIP3   OH237266   5.905   2.496   6.539
 5236TIP3    H137267   5.810   2.480   6.534
 5236TIP3    H237268   5.913   2.591   6.529
 5237TIP3   OH237269   2.431   5.634   0.296
 5237TIP3    H137270   2.393   5.614   0.211
 5237TIP3    H237271   2.452   5.727   0.291
 5238TIP3   OH237272   3.139   4.582   8.522
 5238TIP3    H137273   3.129   4.496   8.562
 5238TIP3    H237274   3.118   4.643   8.593
 5239TIP3   OH237275   1.241   5.074   2.370
 5239TIP3    H137276   1.202   5.041   2.289
 5239TIP3    H237277   1.197   5.157   2.386
 5240TIP3   OH237278   1.037   2.893   8.292
 5240TIP3    H137279   1.010   2.914   8.202
 5240TIP3    H237280   1.020   2.973   8.341
 5241TIP3   OH237281   2.696   1.246   7.601
 5241TIP3    H137282   2.653   1.180   7.655
 5241TIP3    H237283   2.753   1.197   7.543
 5242TIP3   OH237284   3.029   2.601   1.455
 5242TIP3    H137285   3.045   2.682   1.407
 5242TIP3    H237286   3.070   2.616   1.541
 5243TIP3   OH237287   2.567   1.902   2.146
 5243TIP3    H137288   2.542   1.938   2.060
 5243TIP3    H237289   2.509   1.946   2.208
 5244TIP3   OH237290   3.878   5.171   8.452
 5244TIP3    H137291   3.964   5.183   8.490
 5244TIP3    H237292   3.818   5.174   8.526
 5245TIP3   OH237293   2.750   5.650   1.119
 5245TIP3    H137294   2.719   5.727   1.167
 5245TIP3    H237295   2.821   5.615   1.172
 5246TIP3   OH237296   0.624   2.854   8.730
 5246TIP3    H137297   0.602   2.941   8.763
 5246TIP3    H237298   0.649   2.869   8.638
 5247TIP3   OH237299   1.723   5.613   0.937
 5247TIP3    H137300   1.667   5.547   0.977
 5247TIP3    H237301   1.797   5.621   0.997
 5248TIP3   OH237302   3.113   4.190   6.682
 5248TIP3    H137303   3.119   4.126   6.753
 5248TIP3    H237304   3.025   4.176   6.645
 5249TIP3   OH237305   1.891   2.945   0.154
 5249TIP3    H137306   1.986   2.945   0.164
 5249TIP3    H237307   1.875   2.881   0.085
 5250TIP3   OH237308   3.005   6.389   0.673
 5250TIP3    H137309   2.911   6.398   0.660
 5250TIP3    H237310   3.018   6.297   0.696
 5251TIP3   OH237311   1.705   1.112   8.699
 5251TIP3    H137312   1.669   1.200   8.702
 5251TIP3    H237313   1.699   1.088   8.606
 5252TIP3   OH237314   4.678   0.053   8.117
 5252TIP3    H137315   4.606   0.007   8.160
 5252TIP3    H237316   4.740   6.777   8.094
 5253TIP3   OH237317   6.594   3.787   6.550
 5253TIP3    H137318   6.671   3.797   6.606
 5253TIP3    H237319   6.521   3.815   6.604
 5254TIP3   OH237320   4.690   5.542   1.734
 5254TIP3    H137321   4.765   5.514   1.787
 5254TIP3    H237322   4.720   5.533   1.644
 5255TIP3   OH237323   0.019   3.677   0.143
 5255TIP3    H137324   6.759   3.734   0.200
 5255TIP3    H237325   0.025   3.726   0.061
 5256TIP3   OH237326   6.467   1.503   8.288
 5256TIP3    H137327   6.437   1.479   8.201
 5256TIP3    H237328   6.559   1.528   8.275
 5257TIP3   OH237329   6.433   5.998   1.827
 5257TIP3    H137330   6.409   6.007   1.735
 5257TIP3    H237331   6.382   5.924   1.859
 5258TIP3   OH237332   3.841   5.055   0.089
 5258TIP3    H137333   3.864   4.979   0.035
 5258TIP3    H237334   3.924   5.099   0.106
 5259TIP3   OH237335   5.893   5.496   8.203
 5259TIP3    H137336   5.816   5.481   8.149
 5259TIP3    H237337   5.912   5.589   8.193
 5260TIP3   OH237338   4.464   1.703   0.527
 5260TIP3    H137339   4.519   1.737   0.457
 5260TIP3    H237340   4.389   1.664   0.482
 5261TIP3   OH237341   3.206   5.633   7.819
 5261TIP3    H137342   3.128   5.660   7.869
 5261TIP3    H237343   3.280   5.660   7.874
 5262TIP3   OH237344   6.720   4.005   8.015
 5262TIP3    H137345   6.634   4.035   7.986
 5262TIP3    H237346   6.740   3.930   7.959
 5263TIP3   OH237347   1.273   0.405   1.501
 5263TIP3    H137348   1.256   0.332   1.443
 5263TIP3    H237349   1.368   0.407   1.511
 5264TIP3   OH237350   6.167   1.451   0.850
 5264TIP3    H137351   6.128   1.535   0.876
 5264TIP3    H237352   6.099   1.386   0.871
 5265TIP3   OH237353   5.641   3.166   8.677
 5265TIP3    H137354   5.681   3.096   8.730
 5265TIP3    H237355   5.674   3.247   8.715
 5266TIP3   OH237356   3.746   5.292   8.026
 5266TIP3    H137357   3.749   5.225   8.095
 5266TIP3    H237358   3.833   5.333   8.030
 5267TIP3   OH237359   6.636   0.378   8.605
 5267TIP3    H137360   6.586   0.400   8.526
 5267TIP3    H237361   6.658   0.286   8.595
 5268TIP3   OH237362   0.120   0.559   7.460
 5268TIP3    H137363   0.113   0.478   7.409
 5268TIP3    H237364   0.031   0.594   7.462
 5269TIP3   OH237365   3.084   4.926   6.547
 5269TIP3    H137366   3.084   4.858   6.480
 5269TIP3    H237367   3.170   4.967   6.540
 5270TIP3   OH237368   5.065   2.693   8.536
 5270TIP3    H137369   5.103   2.606   8.520
 5270TIP3    H237370   5.136   2.744   8.573
 5271TIP3   OH237371   1.578   4.354   0.036
 5271TIP3    H137372   1.483   4.365   0.032
 5271TIP3    H237373   1.610   4.438   0.070
 5272TIP3   OH237374   2.911   4.210   6.942
 5272TIP3    H137375   2.961   4.131   6.963
 5272TIP3    H237376   2.901   4.207   6.847
 5273TIP3   OH237377   4.817   0.746   0.146
 5273TIP3    H137378   4.834   0.837   0.172
 5273TIP3    H237379   4.832   0.745   0.051
 5274TIP3   OH237380   5.722   4.937   7.433
 5274TIP3    H137381   5.681   4.907   7.352
 5274TIP3    H237382   5.650   4.979   7.481
 5275TIP3   OH237383   3.507   0.108   7.166
 5275TIP3    H137384   3.480   0.101   7.258
 5275TIP3    H237385   3.506   0.202   7.148
 5276TIP3   OH237386   3.585   2.282   7.509
 5276TIP3    H137387   3.504   2.333   7.513
 5276TIP3    H237388   3.563   2.198   7.549
 5277TIP3   OH237389   2.828   1.821   8.328
 5277TIP3    H137390   2.855   1.817   8.420
 5277TIP3    H237391   2.749   1.874   8.328
 5278TIP3   OH237392   6.460   2.601   0.576
 5278TIP3    H137393   6.545   2.610   0.620
 5278TIP3    H237394   6.483   2.567   0.489
 5279TIP3   OH237395   0.847   4.445   1.086
 5279TIP3    H137396   0.887   4.477   1.166
 5279TIP3    H237397   0.917   4.398   1.040
 5280TIP3   OH237398   3.206   0.530   6.575
 5280TIP3    H137399   3.130   0.525   6.634
 5280TIP3    H237400   3.169   0.560   6.492
 5281TIP3   OH237401   1.573   1.827   0.140
 5281TIP3    H137402   1.645   1.766   0.121
 5281TIP3    H237403   1.506   1.772   0.180
 5282TIP3   OH237404   1.249   2.817   0.548
 5282TIP3    H137405   1.230   2.725   0.569
 5282TIP3    H237406   1.253   2.860   0.634
 5283TIP3   OH237407   3.522   5.401   0.696
 5283TIP3    H137408   3.553   5.489   0.717
 5283TIP3    H237409   3.442   5.391   0.748
 5284TIP3   OH237410   5.842   2.505   2.078
 5284TIP3    H137411   5.913   2.488   2.140
 5284TIP3    H237412   5.762   2.479   2.124
 5285TIP3   OH237413   5.981   5.606   7.019
 5285TIP3    H137414   6.075   5.622   7.027
 5285TIP3    H237415   5.946   5.687   6.982
 5286TIP3   OH237416   1.415   6.371   6.593
 5286TIP3    H137417   1.365   6.416   6.662
 5286TIP3    H237418   1.352   6.358   6.522
 5287TIP3   OH237419   0.848   1.694   0.451
 5287TIP3    H137420   0.879   1.684   0.361
 5287TIP3    H237421   0.774   1.634   0.458
 5288TIP3   OH237422   0.696   3.904   1.267
 5288TIP3    H137423   0.602   3.918   1.258
 5288TIP3    H237424   0.734   3.992   1.267
 5289TIP3   OH237425   2.444   5.362   8.435
 5289TIP3    H137426   2.499   5.307   8.379
 5289TIP3    H237427   2.378   5.302   8.469
 5290TIP3   OH237428   0.993   0.636   1.168
 5290TIP3    H137429   0.969   0.704   1.231
 5290TIP3    H237430   0.975   0.676   1.082
 5291TIP3   OH237431   5.163   5.601   8.275
 5291TIP3    H137432   5.146   5.508   8.290
 5291TIP3    H237433   5.103   5.625   8.205
 5292TIP3   OH237434   3.647   5.747   7.832
 5292TIP3    H137435   3.700   5.678   7.790
 5292TIP3    H237436   3.669   5.827   7.785
 5293TIP3   OH237437   6.182   0.511   1.691
 5293TIP3    H137438   6.214   0.439   1.746
 5293TIP3    H237439   6.142   0.468   1.616
 5294TIP3   OH237440   0.782   1.514   1.046
 5294TIP3    H137441   0.798   1.474   0.961
 5294TIP3    H237442   0.801   1.607   1.033
 5295TIP3   OH237443   4.516   1.541   0.729
 5295TIP3    H137444   4.494   1.616   0.674
 5295TIP3    H237445   4.565   1.578   0.803
 5296TIP3   OH237446   1.813   4.804   8.488
 5296TIP3    H137447   1.763   4.845   8.559
 5296TIP3    H237448   1.823   4.713   8.515
 5297TIP3   OH237449   5.244   3.595   0.845
 5297TIP3    H137450   5.177   3.661   0.866
 5297TIP3    H237451   5.205   3.512   0.871
 5298TIP3   OH237452   4.691   1.962   7.983
 5298TIP3    H137453   4.726   1.987   7.897
 5298TIP3    H237454   4.630   2.032   8.005
 5299TIP3   OH237455   6.158   2.000   1.543
 5299TIP3    H137456   6.127   1.911   1.560
 5299TIP3    H237457   6.087   2.057   1.573
 5300TIP3   OH237458   0.844   4.886   7.305
 5300TIP3    H137459   0.931   4.905   7.339
 5300TIP3    H237460   0.856   4.811   7.247
 5301TIP3   OH237461   3.564   2.714   7.513
 5301TIP3    H137462   3.505   2.642   7.536
 5301TIP3    H237463   3.568   2.767   7.593
 5302TIP3   OH237464   4.354   1.990   0.075
 5302TIP3    H137465   4.281   1.929   0.069
 5302TIP3    H237466   4.362   2.010   0.168
 5303TIP3   OH237467   2.680   5.611   8.543
 5303TIP3    H137468   2.754   5.660   8.507
 5303TIP3    H237469   2.641   5.567   8.468
 5304TIP3   OH237470   1.230   1.024   6.306
 5304TIP3    H137471   1.261   1.104   6.263
 5304TIP3    H237472   1.162   1.054   6.367
 5305TIP3   OH237473   6.181   4.405   8.571
 5305TIP3    H137474   6.225   4.421   8.654
 5305TIP3    H237475   6.119   4.478   8.562
 5306TIP3   OH237476   4.563   2.933   7.380
 5306TIP3    H137477   4.504   2.952   7.454
 5306TIP3    H237478   4.650   2.953   7.414
 5307TIP3   OH237479   4.674   1.546   8.519
 5307TIP3    H137480   4.654   1.466   8.568
 5307TIP3    H237481   4.677   1.519   8.428
 5308TIP3   OH237482   5.958   6.578   1.093
 5308TIP3    H137483   5.944   6.673   1.097
 5308TIP3    H237484   5.903   6.549   1.021
 5309TIP3   OH237485   6.576   0.370   0.919
 5309TIP3    H137486   6.536   0.363   0.833
 5309TIP3    H237487   6.548   0.456   0.952
 5310TIP3   OH237488   6.231   5.140   1.775
 5310TIP3    H137489   6.171   5.165   1.845
 5310TIP3    H237490   6.258   5.223   1.736
 5311TIP3   OH237491   5.031   6.605   7.551
 5311TIP3    H137492   5.089   6.581   7.623
 5311TIP3    H237493   5.072   6.682   7.511
 5312TIP3   OH237494   2.312   5.734   0.746
 5312TIP3    H137495   2.397   5.709   0.781
 5312TIP3    H237496   2.316   5.829   0.737
 5313TIP3   OH237497   0.464   5.684   1.885
 5313TIP3    H137498   0.509   5.659   1.966
 5313TIP3    H237499   0.425   5.602   1.854
 5314TIP3   OH237500   2.294   1.200   7.818
 5314TIP3    H137501   2.312   1.219   7.910
 5314TIP3    H237502   2.355   1.255   7.770
 5315TIP3   OH237503   2.221   4.790   7.526
 5315TIP3    H137504   2.193   4.869   7.572
 5315TIP3    H237505   2.297   4.759   7.575
 5316TIP3   OH237506   1.961   4.006   8.027
 5316TIP3    H137507   1.996   3.921   8.052
 5316TIP3    H237508   1.910   4.034   8.103
 5317TIP3   OH237509   4.074   1.496   0.387
 5317TIP3    H137510   4.133   1.460   0.453
 5317TIP3    H237511   3.997   1.440   0.390
 5318TIP3   OH237512   3.237   6.615   2.629
 5318TIP3    H137513   3.206   6.620   2.719
 5318TIP3    H237514   3.158   6.624   2.576
 5319TIP3   OH237515   1.306   3.289   0.363
 5319TIP3    H137516   1.248   3.364   0.350
 5319TIP3    H237517   1.296   3.267   0.456
 5320TIP3   OH237518   6.007   2.597   7.159
 5320TIP3    H137519   6.008   2.544   7.239
 5320TIP3    H237520   5.921   2.639   7.159
 5321TIP3   OH237521   2.304   3.886   1.515
 5321TIP3    H137522   2.376   3.923   1.567
 5321TIP3    H237523   2.306   3.793   1.534
 5322TIP3   OH237524   3.564   6.289   2.304
 5322TIP3    H137525   3.488   6.244   2.342
 5322TIP3    H237526   3.587   6.237   2.227
 5323TIP3   OH237527   2.721   1.768   8.683
 5323TIP3    H137528   2.807   1.764   8.641
 5323TIP3    H237529   2.734   1.823   8.760
 5324TIP3   OH237530   6.583   4.920   1.148
 5324TIP3    H137531   6.501   4.954   1.184
 5324TIP3    H237532   6.560   4.834   1.112
 5325TIP3   OH237533   5.480   0.012   2.172
 5325TIP3    H137534   5.549   0.040   2.231
 5325TIP3    H237535   5.399   0.037   2.216
 5326TIP3   OH237536   1.629   6.167   6.690
 5326TIP3    H137537   1.559   6.212   6.642
 5326TIP3    H237538   1.593   6.157   6.778
 5327TIP3   OH237539   4.613   3.851   7.909
 5327TIP3    H137540   4.630   3.854   8.003
 5327TIP3    H237541   4.666   3.922   7.872
 5328TIP3   OH237542   3.678   0.679   8.175
 5328TIP3    H137543   3.602   0.730   8.148
 5328TIP3    H237544   3.701   0.627   8.098
 5329TIP3   OH237545   6.575   3.149   0.101
 5329TIP3    H137546   6.513   3.111   0.039
 5329TIP3    H237547   6.598   3.234   0.064
 5330TIP3   OH237548   1.261   4.068   2.209
 5330TIP3    H137549   1.335   4.087   2.267
 5330TIP3    H237550   1.193   4.033   2.267
 5331TIP3   OH237551   3.338   5.163   0.412
 5331TIP3    H137552   3.378   5.087   0.371
 5331TIP3    H237553   3.257   5.130   0.451
 5332TIP3   OH237554   4.329   6.721   8.545
 5332TIP3    H137555   4.421   6.719   8.572
 5332TIP3    H237556   4.324   0.002   8.484
 5333TIP3   OH237557   1.054   3.655   6.005
 5333TIP3    H137558   1.088   3.744   6.003
 5333TIP3    H237559   1.072   3.624   6.094
 5334TIP3   OH237560   2.148   2.431   7.552
 5334TIP3    H137561   2.183   2.518   7.572
 5334TIP3    H237562   2.147   2.428   7.456
 5335TIP3   OH237563   1.742   5.676   7.346
 5335TIP3    H137564   1.701   5.640   7.424
 5335TIP3    H237565   1.826   5.631   7.340
 5336TIP3   OH237566   6.633   3.701   7.418
 5336TIP3    H137567   6.717   3.663   7.390
 5336TIP3    H237568   6.620   3.666   7.506
 5337TIP3   OH237569   1.612   5.633   1.861
 5337TIP3    H137570   1.634   5.659   1.950
 5337TIP3    H237571   1.517   5.624   1.861
 5338TIP3   OH237572   0.354   1.362   7.241
 5338TIP3    H137573   0.424   1.345   7.305
 5338TIP3    H237574   0.388   1.326   7.159
 5339TIP3   OH237575   6.548   3.028   7.962
 5339TIP3    H137576   6.544   3.059   8.052
 5339TIP3    H237577   6.608   3.088   7.918
 5340TIP3   OH237578   6.169   3.242   1.535
 5340TIP3    H137579   6.093   3.221   1.481
 5340TIP3    H237580   6.138   3.310   1.595
 5341TIP3   OH237581   3.806   4.563   2.509
 5341TIP3    H137582   3.720   4.603   2.509
 5341TIP3    H237583   3.865   4.631   2.541
 5342TIP3   OH237584   3.099   1.111   7.246
 5342TIP3    H137585   3.154   1.188   7.259
 5342TIP3    H237586   3.016   1.134   7.289
 5343TIP3   OH237587   4.057   2.374   0.517
 5343TIP3    H137588   4.131   2.336   0.564
 5343TIP3    H237589   4.057   2.466   0.543
 5344TIP3   OH237590   0.331   1.593   1.396
 5344TIP3    H137591   0.422   1.611   1.369
 5344TIP3    H237592   0.314   1.505   1.362
 5345TIP3   OH237593   1.867   5.597   8.197
 5345TIP3    H137594   1.843   5.545   8.274
 5345TIP3    H237595   1.962   5.599   8.198
 5346TIP3   OH237596   1.030   1.572   1.380
 5346TIP3    H137597   1.031   1.647   1.320
 5346TIP3    H237598   1.122   1.550   1.391
 5347TIP3   OH237599   2.033   1.432   1.115
 5347TIP3    H137600   2.101   1.490   1.151
 5347TIP3    H237601   2.080   1.353   1.089
 5348TIP3   OH237602   4.200   4.973   8.821
 5348TIP3    H137603   4.153   5.054   8.840
 5348TIP3    H237604   4.169   4.911   0.018
 5349TIP3   OH237605   4.032   3.604   8.517
 5349TIP3    H137606   4.088   3.673   8.551
 5349TIP3    H237607   4.090   3.530   8.502
 5350TIP3   OH237608   2.337   6.643   2.562
 5350TIP3    H137609   2.314   6.554   2.536
 5350TIP3    H237610   2.388   6.677   2.488
 5351TIP3   OH237611   3.452   1.424   7.798
 5351TIP3    H137612   3.485   1.512   7.819
 5351TIP3    H237613   3.428   1.387   7.883
 5352TIP3   OH237614   3.551   4.679   0.849
 5352TIP3    H137615   3.467   4.721   0.826
 5352TIP3    H237616   3.615   4.749   0.841
 5353TIP3   OH237617   6.725   5.833   7.220
 5353TIP3    H137618   6.731   5.756   7.277
 5353TIP3    H237619   6.668   5.894   7.268
 5354TIP3   OH237620   1.087   5.170   8.363
 5354TIP3    H137621   1.049   5.113   8.430
 5354TIP3    H237622   1.109   5.250   8.410
 5355TIP3   OH237623   0.391   0.735   7.839
 5355TIP3    H137624   0.329   0.689   7.784
 5355TIP3    H237625   0.348   0.818   7.861
 5356TIP3   OH237626   3.419   2.419   2.806
 5356TIP3    H137627   3.504   2.460   2.795
 5356TIP3    H237628   3.430   2.359   2.880
 5357TIP3   OH237629   1.023   6.334   7.570
 5357TIP3    H137630   1.074   6.276   7.514
 5357TIP3    H237631   1.086   6.369   7.632
 5358TIP3   OH237632   1.690   2.577   6.717
 5358TIP3    H137633   1.614   2.525   6.691
 5358TIP3    H237634   1.757   2.512   6.737
 5359TIP3   OH237635   6.684   6.169   8.602
 5359TIP3    H137636   6.709   6.258   8.579
 5359TIP3    H237637   6.751   6.140   8.664
 5360TIP3   OH237638   3.117   6.594   1.682
 5360TIP3    H137639   3.080   6.506   1.674
 5360TIP3    H237640   3.066   6.648   1.621
 5361TIP3   OH237641   2.152   0.997   8.865
 5361TIP3    H137642   2.108   1.013   0.080
 5361TIP3    H237643   2.177   1.084   8.834
 5362TIP3   OH237644   5.680   4.726   0.204
 5362TIP3    H137645   5.760   4.684   0.233
 5362TIP3    H237646   5.708   4.789   0.138
 5363TIP3   OH237647   6.260   1.907   2.039
 5363TIP3    H137648   6.272   1.814   2.055
 5363TIP3    H237649   6.324   1.949   2.098
 5364TIP3   OH237650   0.940   6.750   1.260
 5364TIP3    H137651   0.924   6.660   1.289
 5364TIP3    H237652   0.854   6.791   1.259
 5365TIP3   OH237653   2.302   1.337   1.356
 5365TIP3    H137654   2.269   1.293   1.435
 5365TIP3    H237655   2.293   1.430   1.376
 5366TIP3   OH237656   4.759   1.466   7.275
 5366TIP3    H137657   4.733   1.400   7.340
 5366TIP3    H237658   4.696   1.456   7.204
 5367TIP3   OH237659   0.138   1.930   8.191
 5367TIP3    H137660   0.113   2.023   8.189
 5367TIP3    H237661   0.190   1.918   8.112
 5368TIP3   OH237662   4.285   1.033   0.097
 5368TIP3    H137663   4.321   1.039   0.186
 5368TIP3    H237664   4.218   1.101   0.094
 5369TIP3   OH237665   2.656   2.061   7.684
 5369TIP3    H137666   2.667   2.120   7.610
 5369TIP3    H237667   2.694   1.978   7.654
 5370TIP3   OH237668   3.631   6.302   7.447
 5370TIP3    H137669   3.691   6.267   7.381
 5370TIP3    H237670   3.544   6.272   7.418
 5371TIP3   OH237671   5.890   1.024   1.754
 5371TIP3    H137672   5.823   0.956   1.769
 5371TIP3    H237673   5.842   1.107   1.762
 5372TIP3   OH237674   0.555   2.178   7.021
 5372TIP3    H137675   0.506   2.199   7.101
 5372TIP3    H237676   0.489   2.139   6.963
 5373TIP3   OH237677   3.638   4.137   7.387
 5373TIP3    H137678   3.698   4.117   7.459
 5373TIP3    H237679   3.685   4.107   7.308
 5374TIP3   OH237680   2.968   3.306   1.479
 5374TIP3    H137681   2.932   3.390   1.510
 5374TIP3    H237682   2.934   3.297   1.391
 5375TIP3   OH237683   2.101   1.575   7.678
 5375TIP3    H137684   2.185   1.598   7.717
 5375TIP3    H237685   2.108   1.481   7.661
 5376TIP3   OH237686   5.257   6.720   7.398
 5376TIP3    H137687   5.293   6.634   7.417
 5376TIP3    H237688   5.303   6.779   7.458
 5377TIP3   OH237689   5.518   4.809   8.109
 5377TIP3    H137690   5.435   4.763   8.093
 5377TIP3    H237691   5.498   4.872   8.178
 5378TIP3   OH237692   2.635   1.982   6.532
 5378TIP3    H137693   2.673   1.916   6.590
 5378TIP3    H237694   2.710   2.029   6.496
 5379TIP3   OH237695   6.406   0.516   6.492
 5379TIP3    H137696   6.403   0.466   6.574
 5379TIP3    H237697   6.460   0.592   6.513
 5380TIP3   OH237698   0.584   3.108   7.158
 5380TIP3    H137699   0.539   3.027   7.133
 5380TIP3    H237700   0.643   3.081   7.229
 5381TIP3   OH237701   1.644   0.405   7.039
 5381TIP3    H137702   1.738   0.413   7.054
 5381TIP3    H237703   1.631   0.312   7.020
 5382TIP3   OH237704   4.323   2.213   2.634
 5382TIP3    H137705   4.244   2.192   2.583
 5382TIP3    H237706   4.310   2.303   2.661
 5383TIP3   OH237707   2.429   5.518   8.217
 5383TIP3    H137708   2.513   5.472   8.212
 5383TIP3    H237709   2.378   5.468   8.281
 5384TIP3   OH237710   0.225   5.003   1.874
 5384TIP3    H137711   0.184   5.088   1.857
 5384TIP3    H237712   0.285   5.020   1.947
 5385TIP3   OH237713   1.110   3.494   2.179
 5385TIP3    H137714   1.020   3.487   2.149
 5385TIP3    H237715   1.132   3.587   2.167
 5386TIP3   OH237716   6.575   1.494   6.893
 5386TIP3    H137717   6.648   1.542   6.853
 5386TIP3    H237718   6.612   1.456   6.973
 5387TIP3   OH237719   4.377   1.968   8.597
 5387TIP3    H137720   4.283   1.962   8.613
 5387TIP3    H237721   4.394   2.062   8.589
 5388TIP3   OH237722   3.353   0.040   0.442
 5388TIP3    H137723   3.263   0.019   0.470
 5388TIP3    H237724   3.355   0.012   0.350
 5389TIP3   OH237725   6.708   5.479   1.113
 5389TIP3    H137726   6.739   5.464   1.024
 5389TIP3    H237727   6.704   5.574   1.121
 5390TIP3   OH237728   0.007   5.856   2.008
 5390TIP3    H137729   0.070   5.823   1.944
 5390TIP3    H237730   0.031   5.948   2.019
 5391TIP3   OH237731   0.599   5.570   0.565
 5391TIP3    H137732   0.550   5.495   0.531
 5391TIP3    H237733   0.533   5.639   0.576
 5392TIP3   OH237734   2.451   0.351   7.694
 5392TIP3    H137735   2.447   0.421   7.628
 5392TIP3    H237736   2.531   0.370   7.743
 5393TIP3   OH237737   3.810   1.854   7.935
 5393TIP3    H137738   3.742   1.913   7.966
 5393TIP3    H237739   3.892   1.896   7.962
 5394TIP3   OH237740   4.610   4.737   1.254
 5394TIP3    H137741   4.628   4.728   1.160
 5394TIP3    H237742   4.676   4.682   1.296
 5395TIP3   OH237743   4.132   6.514   8.532
 5395TIP3    H137744   4.050   6.552   8.565
 5395TIP3    H237745   4.193   6.588   8.528
 5396TIP3   OH237746   0.637   0.723   1.536
 5396TIP3    H137747   0.578   0.797   1.545
 5396TIP3    H237748   0.681   0.715   1.620
 5397TIP3   OH237749   1.432   4.462   7.621
 5397TIP3    H137750   1.432   4.429   7.531
 5397TIP3    H237751   1.343   4.495   7.635
 5398TIP3   OH237752   3.300   4.163   2.305
 5398TIP3    H137753   3.225   4.222   2.318
 5398TIP3    H237754   3.370   4.202   2.357
 5399TIP3   OH237755   1.015   2.775   2.337
 5399TIP3    H137756   0.996   2.868   2.345
 5399TIP3    H237757   1.071   2.769   2.259
 5400TIP3   OH237758   3.403   2.013   1.789
 5400TIP3    H137759   3.406   1.967   1.705
 5400TIP3    H237760   3.355   2.094   1.771
 5401TIP3   OH237761   0.515   2.399   2.067
 5401TIP3    H137762   0.447   2.337   2.042
 5401TIP3    H237763   0.473   2.485   2.061
 5402TIP3   OH237764   4.736   1.495   2.020
 5402TIP3    H137765   4.759   1.406   1.994
 5402TIP3    H237766   4.819   1.543   2.022
 5403TIP3   OH237767   5.347   4.778   8.616
 5403TIP3    H137768   5.262   4.733   8.622
 5403TIP3    H237769   5.391   4.757   8.698
 5404TIP3   OH237770   4.923   0.031   0.413
 5404TIP3    H137771   4.921   0.126   0.405
 5404TIP3    H237772   4.832   0.007   0.434
 5405TIP3   OH237773   6.215   6.300   7.063
 5405TIP3    H137774   6.310   6.284   7.066
 5405TIP3    H237775   6.178   6.235   7.122
 5406TIP3   OH237776   3.112   0.847   7.602
 5406TIP3    H137777   3.111   0.784   7.675
 5406TIP3    H237778   3.161   0.922   7.636
 5407TIP3   OH237779   5.730   0.892   0.177
 5407TIP3    H137780   5.673   0.943   0.235
 5407TIP3    H237781   5.755   0.816   0.229
 5408TIP3   OH237782   3.387   0.057   6.929
 5408TIP3    H137783   3.431   0.091   7.007
 5408TIP3    H237784   3.401   6.755   6.934
 5409TIP3   OH237785   3.561   4.767   7.565
 5409TIP3    H137786   3.539   4.859   7.577
 5409TIP3    H237787   3.655   4.766   7.549
 5410TIP3   OH237788   5.733   1.337   7.631
 5410TIP3    H137789   5.784   1.284   7.692
 5410TIP3    H237790   5.764   1.310   7.544
 5411TIP3   OH237791   2.733   3.866   1.679
 5411TIP3    H137792   2.825   3.881   1.700
 5411TIP3    H237793   2.733   3.850   1.585
 5412TIP3   OH237794   1.582   1.387   8.665
 5412TIP3    H137795   1.556   1.377   8.756
 5412TIP3    H237796   1.544   1.471   8.638
 5413TIP3   OH237797   2.026   0.479   1.193
 5413TIP3    H137798   2.026   0.517   1.281
 5413TIP3    H237799   2.117   0.486   1.165
 5414TIP3   OH237800   2.987   3.640   1.134
 5414TIP3    H137801   3.075   3.642   1.172
 5414TIP3    H237802   2.951   3.555   1.160
 5415TIP3   OH237803   2.938   4.586   0.655
 5415TIP3    H137804   2.965   4.649   0.721
 5415TIP3    H237805   2.991   4.607   0.578
 5416TIP3   OH237806   5.202   6.234   1.470
 5416TIP3    H137807   5.176   6.204   1.382
 5416TIP3    H237808   5.195   6.156   1.525
 5417TIP3   OH237809   0.607   0.361   0.384
 5417TIP3    H137810   0.631   0.388   0.472
 5417TIP3    H237811   0.590   0.267   0.391
 5418TIP3   OH237812   5.266   1.622   7.816
 5418TIP3    H137813   5.192   1.682   7.818
 5418TIP3    H237814   5.320   1.652   7.743
 5419TIP3   OH237815   0.053   2.060   1.409
 5419TIP3    H137816   0.137   2.070   1.454
 5419TIP3    H237817   0.074   2.008   1.332
 5420TIP3   OH237818   6.633   5.972   0.082
 5420TIP3    H137819   6.720   5.944   0.055
 5420TIP3    H237820   6.647   6.019   0.164
 5421TIP3   OH237821   6.268   4.790   1.566
 5421TIP3    H137822   6.280   4.885   1.564
 5421TIP3    H237823   6.175   4.776   1.548
 5422TIP3   OH237824   2.950   1.176   0.429
 5422TIP3    H137825   2.987   1.126   0.502
 5422TIP3    H237826   2.857   1.153   0.428
 5423TIP3   OH237827   0.618   3.785   7.445
 5423TIP3    H137828   0.631   3.867   7.398
 5423TIP3    H237829   0.529   3.758   7.422
 5424TIP3   OH237830   3.309   3.087   7.783
 5424TIP3    H137831   3.322   3.131   7.867
 5424TIP3    H237832   3.217   3.060   7.784
 5425TIP3   OH237833   1.986   5.568   1.368
 5425TIP3    H137834   1.961   5.623   1.442
 5425TIP3    H237835   2.059   5.515   1.401
 5426TIP3   OH237836   0.566   2.610   0.517
 5426TIP3    H137837   0.557   2.536   0.577
 5426TIP3    H237838   0.482   2.656   0.522
 5427TIP3   OH237839   2.455   6.600   8.497
 5427TIP3    H137840   2.526   6.594   8.433
 5427TIP3    H237841   2.466   6.687   8.536
 5428TIP3   OH237842   5.137   1.056   7.595
 5428TIP3    H137843   5.168   1.025   7.681
 5428TIP3    H237844   5.202   1.023   7.533
 5429TIP3   OH237845   1.051   3.400   0.939
 5429TIP3    H137846   1.072   3.319   0.891
 5429TIP3    H237847   1.077   3.470   0.880
 5430TIP3   OH237848   0.905   1.377   7.857
 5430TIP3    H137849   0.966   1.308   7.884
 5430TIP3    H237850   0.897   1.432   7.935
 5431TIP3   OH237851   6.702   5.712   6.440
 5431TIP3    H137852   6.640   5.780   6.412
 5431TIP3    H237853   6.648   5.633   6.450
 5432TIP3   OH237854   3.799   2.997   8.079
 5432TIP3    H137855   3.719   2.957   8.114
 5432TIP3    H237856   3.831   3.052   8.151
 5433TIP3   OH237857   1.179   4.092   6.220
 5433TIP3    H137858   1.102   4.101   6.276
 5433TIP3    H237859   1.153   4.027   6.154
 5434TIP3   OH237860   3.827   4.149   8.028
 5434TIP3    H137861   3.920   4.145   8.005
 5434TIP3    H237862   3.818   4.092   8.104
 5435TIP3   OH237863   5.587   3.290   1.962
 5435TIP3    H137864   5.494   3.266   1.956
 5435TIP3    H237865   5.618   3.289   1.872
 5436TIP3   OH237866   4.857   1.470   7.804
 5436TIP3    H137867   4.763   1.452   7.791
 5436TIP3    H237868   4.892   1.474   7.715
 5437TIP3   OH237869   0.201   5.311   8.835
 5437TIP3    H137870   0.113   5.341   8.859
 5437TIP3    H237871   0.207   5.224   0.006
 5438TIP3   OH237872   0.802   1.796   1.067
 5438TIP3    H137873   0.892   1.814   1.094
 5438TIP3    H237874   0.754   1.876   1.088
 5439TIP3   OH237875   3.018   2.501   7.900
 5439TIP3    H137876   3.111   2.498   7.924
 5439TIP3    H237877   2.974   2.448   7.967
 5440TIP3   OH237878   1.125   0.882   0.741
 5440TIP3    H137879   1.220   0.877   0.726
 5440TIP3    H237880   1.096   0.954   0.684
 5441TIP3   OH237881   5.401   1.046   1.914
 5441TIP3    H137882   5.319   1.088   1.941
 5441TIP3    H237883   5.394   1.040   1.818
 5442TIP3   OH237884   5.160   1.699   7.390
 5442TIP3    H137885   5.154   1.694   7.295
 5442TIP3    H237886   5.147   1.609   7.420
 5443TIP3   OH237887   6.581   2.495   1.952
 5443TIP3    H137888   6.675   2.476   1.951
 5443TIP3    H237889   6.554   2.478   2.043
 5444TIP3   OH237890   4.908   1.833   0.518
 5444TIP3    H137891   4.969   1.870   0.455
 5444TIP3    H237892   4.955   1.758   0.555
 5445TIP3   OH237893   2.747   6.610   6.380
 5445TIP3    H137894   2.654   6.590   6.364
 5445TIP3    H237895   2.769   6.675   6.313
 5446TIP3   OH237896   6.262   3.362   1.088
 5446TIP3    H137897   6.206   3.429   1.127
 5446TIP3    H237898   6.223   3.346   1.001
 5447TIP3   OH237899   2.777   5.111   1.061
 5447TIP3    H137900   2.739   5.024   1.077
 5447TIP3    H237901   2.701   5.166   1.041
 5448TIP3   OH237902   4.265   4.004   8.235
 5448TIP3    H137903   4.328   3.980   8.303
 5448TIP3    H237904   4.289   4.093   8.210
 5449TIP3   OH237905   6.577   3.081   8.233
 5449TIP3    H137906   6.523   3.154   8.260
 5449TIP3    H237907   6.646   3.076   8.300
 5450TIP3   OH237908   4.725   4.810   0.998
 5450TIP3    H137909   4.812   4.817   1.038
 5450TIP3    H237910   4.736   4.848   0.911
 5451TIP3   OH237911   4.745   5.959   0.203
 5451TIP3    H137912   4.704   5.893   0.147
 5451TIP3    H237913   4.773   6.028   0.143
 5452TIP3   OH237914   2.600   4.689   7.020
 5452TIP3    H137915   2.544   4.731   6.955
 5452TIP3    H237916   2.547   4.618   7.055
 5453TIP3   OH237917   1.851   4.453   7.466
 5453TIP3    H137918   1.865   4.479   7.557
 5453TIP3    H237919   1.762   4.480   7.447
 5454TIP3   OH237920   5.322   1.342   8.096
 5454TIP3    H137921   5.350   1.352   8.187
 5454TIP3    H237922   5.237   1.297   8.102
 5455TIP3   OH237923   1.991   1.705   7.456
 5455TIP3    H137924   2.029   1.670   7.536
 5455TIP3    H237925   1.964   1.628   7.405
 5456TIP3   OH237926   1.451   2.643   7.870
 5456TIP3    H137927   1.368   2.679   7.838
 5456TIP3    H237928   1.487   2.596   7.796
 5457TIP3   OH237929   6.728   2.868   7.015
 5457TIP3    H137930   6.676   2.880   7.095
 5457TIP3    H237931   6.742   2.957   6.983
 5458TIP3   OH237932   2.571   1.032   7.692
 5458TIP3    H137933   2.638   0.979   7.650
 5458TIP3    H237934   2.489   1.007   7.649
 5459TIP3   OH237935   2.758   4.943   0.305
 5459TIP3    H137936   2.696   5.014   0.289
 5459TIP3    H237937   2.839   4.972   0.263
 5460TIP3   OH237938   1.066   1.839   7.447
 5460TIP3    H137939   1.053   1.933   7.459
 5460TIP3    H237940   1.160   1.826   7.460
 5461TIP3   OH237941   3.251   2.478   0.380
 5461TIP3    H137942   3.274   2.520   0.463
 5461TIP3    H237943   3.335   2.450   0.344
 5462TIP3   OH237944   3.874   2.120   8.488
 5462TIP3    H137945   3.872   2.070   8.406
 5462TIP3    H237946   3.801   2.085   8.539
 5463TIP3   OH237947   1.491   6.379   2.209
 5463TIP3    H137948   1.478   6.463   2.253
 5463TIP3    H237949   1.581   6.354   2.230
 5464TIP3   OH237950   5.375   0.613   6.622
 5464TIP3    H137951   5.333   0.587   6.704
 5464TIP3    H237952   5.425   0.691   6.644
 5465TIP3   OH237953   0.356   4.722   6.131
 5465TIP3    H137954   0.290   4.745   6.197
 5465TIP3    H237955   0.438   4.715   6.180
 5466TIP3   OH237956   0.203   1.798   8.582
 5466TIP3    H137957   0.181   1.746   8.504
 5466TIP3    H237958   0.274   1.855   8.553
 5467TIP3   OH237959   5.309   0.669   7.172
 5467TIP3    H137960   5.236   0.688   7.114
 5467TIP3    H237961   5.360   0.750   7.175
 5468TIP3   OH237962   6.619   0.136   7.584
 5468TIP3    H137963   6.708   0.120   7.553
 5468TIP3    H237964   6.563   0.114   7.509
 5469TIP3   OH237965   2.115   3.044   7.028
 5469TIP3    H137966   2.041   3.075   6.975
 5469TIP3    H237967   2.077   3.028   7.114
 5470TIP3   OH237968   5.072   2.861   1.336
 5470TIP3    H137969   5.029   2.929   1.387
 5470TIP3    H237970   5.153   2.901   1.305
 5471TIP3   OH237971   4.673   2.319   1.435
 5471TIP3    H137972   4.742   2.280   1.487
 5471TIP3    H237973   4.600   2.331   1.496
 5472TIP3   OH237974   5.528   5.167   7.314
 5472TIP3    H137975   5.508   5.161   7.221
 5472TIP3    H237976   5.622   5.184   7.317
 5473TIP3   OH237977   1.137   2.196   1.049
 5473TIP3    H137978   1.066   2.132   1.050
 5473TIP3    H237979   1.193   2.172   1.122
 5474TIP3   OH237980   6.671   1.477   7.916
 5474TIP3    H137981   6.676   1.395   7.866
 5474TIP3    H237982   6.722   1.540   7.866
 5475TIP3   OH237983   5.403   2.448   8.419
 5475TIP3    H137984   5.448   2.419   8.498
 5475TIP3    H237985   5.434   2.538   8.406
 5476TIP3   OH237986   0.392   3.287   8.633
 5476TIP3    H137987   0.361   3.207   8.591
 5476TIP3    H237988   0.464   3.259   8.689
 5477TIP3   OH237989   6.345   3.024   7.054
 5477TIP3    H137990   6.378   2.949   7.103
 5477TIP3    H237991   6.423   3.066   7.019
 5478TIP3   OH237992   5.343   0.677   1.557
 5478TIP3    H137993   5.379   0.753   1.512
 5478TIP3    H237994   5.367   0.602   1.502
 5479TIP3   OH237995   3.678   3.867   7.809
 5479TIP3    H137996   3.662   3.961   7.806
 5479TIP3    H237997   3.767   3.858   7.842
 5480TIP3   OH237998   3.295   0.468   0.575
 5480TIP3    H137999   3.337   0.550   0.598
 5480TIP3    H238000   3.343   0.436   0.499
 5481TIP3   OH238001   3.981   1.194   0.111
 5481TIP3    H138002   4.027   1.271   0.079
 5481TIP3    H238003   3.889   1.211   0.092
 5482TIP3   OH238004   5.082   6.176   8.633
 5482TIP3    H138005   5.077   6.103   8.695
 5482TIP3    H238006   5.018   6.154   8.565
 5483TIP3   OH238007   0.606   4.837   0.100
 5483TIP3    H138008   0.563   4.837   0.014
 5483TIP3    H238009   0.684   4.783   0.088
 5484TIP3   OH238010   4.621   2.789   8.184
 5484TIP3    H138011   4.563   2.802   8.258
 5484TIP3    H238012   4.696   2.847   8.201
 5485TIP3   OH238013   3.518   4.921   0.337
 5485TIP3    H138014   3.542   4.833   0.367
 5485TIP3    H238015   3.512   4.913   0.242
 5486TIP3   OH238016   0.962   4.671   1.375
 5486TIP3    H138017   1.016   4.617   1.318
 5486TIP3    H238018   0.904   4.610   1.420
 5487TIP3   OH238019   0.876   4.497   8.329
 5487TIP3    H138020   0.786   4.473   8.353
 5487TIP3    H238021   0.898   4.439   8.256
 5488TIP3   OH238022   0.803   1.132   1.177
 5488TIP3    H138023   0.764   1.209   1.218
 5488TIP3    H238024   0.732   1.068   1.172
 5489TIP3   OH238025   4.834   3.948   0.978
 5489TIP3    H138026   4.779   3.911   1.047
 5489TIP3    H238027   4.798   4.035   0.962
 5490TIP3   OH238028   3.511   6.031   8.066
 5490TIP3    H138029   3.420   6.006   8.048
 5490TIP3    H238030   3.551   5.952   8.101
 5491TIP3   OH238031   2.924   0.458   8.330
 5491TIP3    H138032   3.018   0.462   8.347
 5491TIP3    H238033   2.887   0.422   8.411
 5492TIP3   OH238034   5.606   1.677   1.552
 5492TIP3    H138035   5.626   1.758   1.504
 5492TIP3    H238036   5.526   1.644   1.512
 5493TIP3   OH238037   4.107   2.736   7.812
 5493TIP3    H138038   4.133   2.678   7.740
 5493TIP3    H238039   4.048   2.682   7.865
 5494TIP3   OH238040   3.894   0.811   7.804
 5494TIP3    H138041   3.944   0.809   7.723
 5494TIP3    H238042   3.837   0.887   7.796
 5495TIP3   OH238043   4.499   3.129   0.080
 5495TIP3    H138044   4.486   3.222   0.100
 5495TIP3    H238045   4.581   3.107   0.125
 5496TIP3   OH238046   2.923   4.222   7.307
 5496TIP3    H138047   2.861   4.180   7.366
 5496TIP3    H238048   2.991   4.258   7.364
 5497TIP3   OH238049   5.848   2.390   2.323
 5497TIP3    H138050   5.912   2.320   2.333
 5497TIP3    H238051   5.764   2.350   2.347
 5498TIP3   OH238052   1.287   2.234   0.136
 5498TIP3    H138053   1.218   2.253   0.200
 5498TIP3    H238054   1.267   2.146   0.104
 5499TIP3   OH238055   5.974   5.911   6.197
 5499TIP3    H138056   5.904   5.860   6.236
 5499TIP3    H238057   5.986   5.872   6.110
 5500TIP3   OH238058   2.432   2.920   7.578
 5500TIP3    H138059   2.340   2.940   7.561
 5500TIP3    H238060   2.435   2.824   7.582
 5501TIP3   OH238061   3.286   0.241   6.726
 5501TIP3    H138062   3.322   0.171   6.779
 5501TIP3    H238063   3.303   0.321   6.775
 5502TIP3   OH238064   6.446   4.673   7.117
 5502TIP3    H138065   6.535   4.708   7.121
 5502TIP3    H238066   6.424   4.675   7.024
 5503TIP3   OH238067   0.481   1.817   7.152
 5503TIP3    H138068   0.527   1.885   7.104
 5503TIP3    H238069   0.548   1.752   7.174
 5504TIP3   OH238070   2.326   0.895   6.563
 5504TIP3    H138071   2.316   0.928   6.474
 5504TIP3    H238072   2.418   0.907   6.584
 5505TIP3   OH238073   3.088   6.308   1.976
 5505TIP3    H138074   3.080   6.270   1.889
 5505TIP3    H238075   3.178   6.340   1.980
 5506TIP3   OH238076   4.507   4.166   7.868
 5506TIP3    H138077   4.440   4.191   7.805
 5506TIP3    H238078   4.583   4.142   7.815
 5507TIP3   OH238079   5.366   5.867   1.515
 5507TIP3    H138080   5.301   5.913   1.568
 5507TIP3    H238081   5.350   5.898   1.425
 5508TIP3   OH238082   4.183   6.790   7.033
 5508TIP3    H138083   4.275   0.019   7.047
 5508TIP3    H238084   4.183   6.698   7.006
 5509TIP3   OH238085   4.038   6.259   8.134
 5509TIP3    H138086   3.967   6.276   8.072
 5509TIP3    H238087   4.043   6.339   8.187
 5510TIP3   OH238088   4.102   0.753   0.584
 5510TIP3    H138089   4.024   0.733   0.531
 5510TIP3    H238090   4.158   0.805   0.526
 5511TIP3   OH238091   0.598   3.845   0.964
 5511TIP3    H138092   0.681   3.893   0.964
 5511TIP3    H238093   0.550   3.879   0.889
 5512TIP3   OH238094   4.929   1.756   8.466
 5512TIP3    H138095   4.958   1.836   8.422
 5512TIP3    H238096   4.837   1.772   8.487
 5513TIP3   OH238097   2.372   2.970   1.110
 5513TIP3    H138098   2.376   2.908   1.038
 5513TIP3    H238099   2.364   2.916   1.188
 5514TIP3   OH238100   6.715   6.601   1.919
 5514TIP3    H138101   6.785   6.659   1.946
 5514TIP3    H238102   6.739   6.572   1.831
 5515TIP3   OH238103   0.758   3.563   0.847
 5515TIP3    H138104   0.761   3.597   0.937
 5515TIP3    H238105   0.666   3.569   0.822
 5516TIP3   OH238106   3.432   3.020   8.746
 5516TIP3    H138107   3.483   3.034   8.826
 5516TIP3    H238108   3.433   2.925   8.733
 5517TIP3   OH238109   4.013   1.665   0.031
 5517TIP3    H138110   3.992   1.708   0.113
 5517TIP3    H238111   4.004   1.734   8.833
 5518TIP3   OH238112   6.331   3.311   0.245
 5518TIP3    H138113   6.278   3.242   0.285
 5518TIP3    H238114   6.339   3.285   0.154
 5519TIP3   OH238115   5.244   0.265   0.207
 5519TIP3    H138116   5.336   0.254   0.181
 5519TIP3    H238117   5.195   0.211   0.146
 5520TIP3   OH238118   5.855   5.963   8.683
 5520TIP3    H138119   5.915   5.893   8.712
 5520TIP3    H238120   5.902   6.044   8.702
 5521TIP3   OH238121   6.300   3.674   6.466
 5521TIP3    H138122   6.242   3.710   6.399
 5521TIP3    H238123   6.317   3.748   6.525
 5522TIP3   OH238124   6.331   2.630   1.064
 5522TIP3    H138125   6.318   2.536   1.058
 5522TIP3    H238126   6.251   2.668   1.028
 5523TIP3   OH238127   3.189   0.471   8.381
 5523TIP3    H138128   3.249   0.410   8.425
 5523TIP3    H238129   3.218   0.473   8.290
 5524TIP3   OH238130   2.033   3.011   1.063
 5524TIP3    H138131   1.972   3.019   0.990
 5524TIP3    H238132   2.026   2.920   1.091
 5525TIP3   OH238133   2.598   5.303   2.117
 5525TIP3    H138134   2.545   5.336   2.189
 5525TIP3    H238135   2.618   5.380   2.064
 5526TIP3   OH238136   6.315   0.774   8.321
 5526TIP3    H138137   6.297   0.774   8.415
 5526TIP3    H238138   6.367   0.853   8.307
 5527TIP3   OH238139   1.235   5.644   1.653
 5527TIP3    H138140   1.301   5.707   1.682
 5527TIP3    H238141   1.237   5.574   1.718
 5528TIP3   OH238142   1.284   4.438   2.131
 5528TIP3    H138143   1.338   4.416   2.055
 5528TIP3    H238144   1.346   4.469   2.196
 5529TIP3   OH238145   4.166   1.962   1.731
 5529TIP3    H138146   4.090   1.904   1.736
 5529TIP3    H238147   4.232   1.920   1.786
 5530TIP3   OH238148   6.584   0.363   0.105
 5530TIP3    H138149   6.516   0.354   0.038
 5530TIP3    H238150   6.591   0.276   0.144
 5531TIP3   OH238151   1.909   4.864   1.431
 5531TIP3    H138152   1.931   4.772   1.447
 5531TIP3    H238153   1.846   4.861   1.358
 5532TIP3   OH238154   0.648   4.548   7.925
 5532TIP3    H138155   0.693   4.482   7.978
 5532TIP3    H238156   0.590   4.497   7.868
 5533TIP3   OH238157   6.049   3.953   7.378
 5533TIP3    H138158   6.059   3.993   7.464
 5533TIP3    H238159   6.120   3.990   7.325
 5534TIP3   OH238160   2.119   1.067   6.611
 5534TIP3    H138161   2.048   1.029   6.558
 5534TIP3    H238162   2.194   1.009   6.596
 5535TIP3   OH238163   4.648   1.121   0.716
 5535TIP3    H138164   4.601   1.111   0.633
 5535TIP3    H238165   4.740   1.126   0.691
 5536TIP3   OH238166   2.976   5.983   8.575
 5536TIP3    H138167   2.933   6.054   8.527
 5536TIP3    H238168   2.908   5.948   8.632
 5537TIP3   OH238169   6.549   3.597   7.655
 5537TIP3    H138170   6.558   3.502   7.662
 5537TIP3    H238171   6.455   3.613   7.661
 5538TIP3   OH238172   6.304   2.011   1.785
 5538TIP3    H138173   6.247   1.996   1.710
 5538TIP3    H238174   6.247   2.000   1.861
 5539TIP3   OH238175   5.053   0.743   7.402
 5539TIP3    H138176   5.128   0.685   7.383
 5539TIP3    H238177   5.089   0.831   7.395
 5540TIP3   OH238178   3.354   4.290   6.636
 5540TIP3    H138179   3.356   4.385   6.625
 5540TIP3    H238180   3.264   4.270   6.659
 5541TIP3   OH238181   5.666   6.596   7.975
 5541TIP3    H138182   5.606   6.550   8.034
 5541TIP3    H238183   5.746   6.607   8.025
 5542TIP3   OH238184   3.355   3.071   1.550
 5542TIP3    H138185   3.360   3.075   1.645
 5542TIP3    H238186   3.446   3.063   1.521
 5543TIP3   OH238187   5.233   3.824   8.547
 5543TIP3    H138188   5.182   3.759   8.594
 5543TIP3    H238189   5.176   3.854   8.477
 5544TIP3   OH238190   0.882   5.955   2.179
 5544TIP3    H138191   0.897   5.886   2.114
 5544TIP3    H238192   0.969   5.974   2.215
 5545TIP3   OH238193   0.513   6.623   0.982
 5545TIP3    H138194   0.496   6.704   1.028
 5545TIP3    H238195   0.569   6.572   1.041
 5546TIP3   OH238196   3.797   2.439   0.451
 5546TIP3    H138197   3.876   2.411   0.498
 5546TIP3    H238198   3.816   2.422   0.359
 5547TIP3   OH238199   2.474   0.157   1.408
 5547TIP3    H138200   2.401   0.212   1.436
 5547TIP3    H238201   2.455   0.071   1.444
 5548TIP3   OH238202   6.681   2.403   1.702
 5548TIP3    H138203   6.600   2.382   1.749
 5548TIP3    H238204   6.678   2.348   1.624
 5549TIP3   OH238205   4.589   6.445   0.914
 5549TIP3    H138206   4.625   6.360   0.941
 5549TIP3    H238207   4.665   6.501   0.901
 5550TIP3   OH238208   1.346   5.350   7.256
 5550TIP3    H138209   1.349   5.373   7.163
 5550TIP3    H238210   1.312   5.260   7.257
 5551TIP3   OH238211   1.773   3.734   6.520
 5551TIP3    H138212   1.734   3.801   6.464
 5551TIP3    H238213   1.844   3.697   6.468
 5552TIP3   OH238214   0.717   3.578   7.798
 5552TIP3    H138215   0.770   3.636   7.744
 5552TIP3    H238216   0.702   3.501   7.744
 5553TIP3   OH238217   2.169   4.705   0.943
 5553TIP3    H138218   2.212   4.621   0.926
 5553TIP3    H238219   2.236   4.770   0.922
 5554TIP3   OH238220   2.390   3.919   8.675
 5554TIP3    H138221   2.295   3.925   8.685
 5554TIP3    H238222   2.407   3.825   8.662
 5555TIP3   OH238223   3.830   4.598   6.684
 5555TIP3    H138224   3.883   4.534   6.637
 5555TIP3    H238225   3.876   4.682   6.671
 5556TIP3   OH238226   2.496   5.785   8.174
 5556TIP3    H138227   2.467   5.697   8.196
 5556TIP3    H238228   2.458   5.801   8.087
 5557TIP3   OH238229   3.574   1.162   1.352
 5557TIP3    H138230   3.618   1.191   1.272
 5557TIP3    H238231   3.534   1.241   1.387
 5558TIP3   OH238232   1.277   4.882   2.143
 5558TIP3    H138233   1.206   4.945   2.136
 5558TIP3    H238234   1.242   4.801   2.105
 5559TIP3   OH238235   1.152   1.573   0.253
 5559TIP3    H138236   1.106   1.543   0.175
 5559TIP3    H238237   1.165   1.494   0.305
 5560TIP3   OH238238   4.417   1.737   1.798
 5560TIP3    H138239   4.428   1.816   1.850
 5560TIP3    H238240   4.390   1.670   1.862
 5561TIP3   OH238241   2.990   0.285   7.377
 5561TIP3    H138242   2.905   0.313   7.344
 5561TIP3    H238243   3.039   0.260   7.299
 5562TIP3   OH238244   5.528   4.590   7.153
 5562TIP3    H138245   5.567   4.520   7.101
 5562TIP3    H238246   5.465   4.545   7.209
 5563TIP3   OH238247   6.387   1.159   8.005
 5563TIP3    H138248   6.475   1.161   8.042
 5563TIP3    H238249   6.334   1.113   8.071
 5564TIP3   OH238250   2.924   6.736   0.429
 5564TIP3    H138251   2.841   6.728   0.382
 5564TIP3    H238252   2.969   0.015   0.387
 5565TIP3   OH238253   2.310   1.725   8.132
 5565TIP3    H138254   2.281   1.635   8.146
 5565TIP3    H238255   2.404   1.717   8.115
 5566TIP3   OH238256   4.307   2.202   2.256
 5566TIP3    H138257   4.245   2.142   2.298
 5566TIP3    H238258   4.302   2.282   2.308
 5567TIP3   OH238259   6.744   3.683   6.014
 5567TIP3    H138260   6.649   3.676   6.025
 5567TIP3    H238261   6.770   3.602   5.970
 5568TIP3   OH238262   2.156   6.429   7.903
 5568TIP3    H138263   2.223   6.412   7.837
 5568TIP3    H238264   2.173   6.519   7.932
 5569TIP3   OH238265   5.746   6.382   0.504
 5569TIP3    H138266   5.813   6.418   0.562
 5569TIP3    H238267   5.784   6.388   0.416
 5570TIP3   OH238268   4.781   3.744   8.775
 5570TIP3    H138269   4.809   3.734   8.684
 5570TIP3    H238270   4.716   3.814   8.772
 5571TIP3   OH238271   6.646   0.044   0.920
 5571TIP3    H138272   6.716   0.109   0.928
 5571TIP3    H238273   6.574   0.092   0.880
 5572TIP3   OH238274   2.087   0.319   0.261
 5572TIP3    H138275   2.138   0.294   0.184
 5572TIP3    H238276   2.079   0.238   0.312
 5573TIP3   OH238277   5.246   0.531   0.292
 5573TIP3    H138278   5.222   0.578   0.212
 5573TIP3    H238279   5.217   0.441   0.276
 5574TIP3   OH238280   1.300   3.552   0.680
 5574TIP3    H138281   1.317   3.582   0.769
 5574TIP3    H238282   1.297   3.632   0.628
 5575TIP3   OH238283   2.273   2.721   6.628
 5575TIP3    H138284   2.215   2.797   6.630
 5575TIP3    H238285   2.217   2.650   6.596
 5576TIP3   OH238286   0.204   6.714   7.645
 5576TIP3    H138287   0.175   6.761   7.567
 5576TIP3    H238288   0.174   6.624   7.630
 5577TIP3   OH238289   4.086   1.415   7.325
 5577TIP3    H138290   4.026   1.349   7.289
 5577TIP3    H238291   4.169   1.398   7.281
 5578TIP3   OH238292   2.201   5.401   1.222
 5578TIP3    H138293   2.121   5.426   1.178
 5578TIP3    H238294   2.259   5.476   1.212
 5579TIP3   OH238295   5.248   1.604   8.221
 5579TIP3    H138296   5.160   1.609   8.184
 5579TIP3    H238297   5.306   1.609   8.146
 5580TIP3   OH238298   1.907   1.324   7.873
 5580TIP3    H138299   1.988   1.308   7.825
 5580TIP3    H238300   1.854   1.377   7.814
 5581TIP3   OH238301   2.739   2.705   1.969
 5581TIP3    H138302   2.807   2.661   1.918
 5581TIP3    H238303   2.786   2.749   2.040
 5582TIP3   OH238304   6.723   4.734   7.082
 5582TIP3    H138305   0.001   4.693   7.032
 5582TIP3    H238306   6.741   4.711   7.173
 5583TIP3   OH238307   4.334   2.608   8.617
 5583TIP3    H138308   4.310   2.554   8.692
 5583TIP3    H238309   4.250   2.639   8.582
 5584TIP3   OH238310   6.010   1.398   7.136
 5584TIP3    H138311   5.974   1.390   7.048
 5584TIP3    H238312   6.104   1.383   7.125
 5585TIP3   OH238313   6.169   2.934   8.515
 5585TIP3    H138314   6.138   2.869   8.452
 5585TIP3    H238315   6.111   3.009   8.504
 5586TIP3   OH238316   5.787   1.765   0.356
 5586TIP3    H138317   5.757   1.748   0.445
 5586TIP3    H238318   5.819   1.680   0.324
 5587TIP3   OH238319   5.947   4.714   6.991
 5587TIP3    H138320   5.859   4.709   6.953
 5587TIP3    H238321   5.967   4.624   7.017
 5588TIP3   OH238322   6.517   1.137   7.079
 5588TIP3    H138323   6.534   1.049   7.113
 5588TIP3    H238324   6.559   1.138   6.993
 5589TIP3   OH238325   0.301   3.237   7.034
 5589TIP3    H138326   0.394   3.224   7.054
 5589TIP3    H238327   0.296   3.232   6.938
 5590TIP3   OH238328   0.758   0.313   1.012
 5590TIP3    H138329   0.819   0.288   1.081
 5590TIP3    H238330   0.810   0.365   0.951
 5591TIP3   OH238331   1.270   0.904   6.837
 5591TIP3    H138332   1.242   0.822   6.797
 5591TIP3    H238333   1.291   0.961   6.763
 5592TIP3   OH238334   0.245   4.869   7.128
 5592TIP3    H138335   0.213   4.954   7.156
 5592TIP3    H238336   0.188   4.844   7.055
 5593TIP3   OH238337   5.386   5.857   2.747
 5593TIP3    H138338   5.370   5.822   2.660
 5593TIP3    H238339   5.480   5.876   2.748
 5594TIP3   OH238340   2.395   1.224   1.631
 5594TIP3    H138341   2.439   1.250   1.712
 5594TIP3    H238342   2.305   1.257   1.642
 5595TIP3   OH238343   3.067   0.681   7.823
 5595TIP3    H138344   3.046   0.662   7.915
 5595TIP3    H238345   3.050   0.598   7.778
 5596TIP3   OH238346   6.308   5.025   7.495
 5596TIP3    H138347   6.222   5.019   7.536
 5596TIP3    H238348   6.297   4.985   7.409
 5597TIP3   OH238349   0.804   2.111   6.975
 5597TIP3    H138350   0.713   2.141   6.980
 5597TIP3    H238351   0.841   2.156   6.900
 5598TIP3   OH238352   4.110   4.524   0.022
 5598TIP3    H138353   4.041   4.510   8.825
 5598TIP3    H238354   4.191   4.503   8.845
 5599TIP3   OH238355   0.222   0.804   1.030
 5599TIP3    H138356   0.275   0.852   0.967
 5599TIP3    H238357   0.137   0.792   0.988
 5600TIP3   OH238358   5.955   0.672   0.723
 5600TIP3    H138359   6.009   0.718   0.788
 5600TIP3    H238360   5.880   0.639   0.773
 5601TIP3   OH238361   2.493   4.549   8.273
 5601TIP3    H138362   2.474   4.490   8.346
 5601TIP3    H238363   2.462   4.635   8.302
 5602TIP3   OH238364   3.424   2.710   8.501
 5602TIP3    H138365   3.507   2.756   8.513
 5602TIP3    H238366   3.377   2.725   8.583
 5603TIP3   OH238367   2.567   3.255   7.034
 5603TIP3    H138368   2.568   3.228   6.942
 5603TIP3    H238369   2.586   3.175   7.083
 5604TIP3   OH238370   5.035   2.727   7.350
 5604TIP3    H138371   5.082   2.810   7.349
 5604TIP3    H238372   4.949   2.748   7.385
 5605TIP3   OH238373   0.224   1.017   0.541
 5605TIP3    H138374   0.167   1.094   0.535
 5605TIP3    H238375   0.273   1.030   0.623
 5606TIP3   OH238376   2.804   1.845   1.843
 5606TIP3    H138377   2.816   1.933   1.808
 5606TIP3    H238378   2.840   1.849   1.931
 5607TIP3   OH238379   5.544   3.657   8.288
 5607TIP3    H138380   5.502   3.574   8.309
 5607TIP3    H238381   5.609   3.670   8.356
 5608TIP3   OH238382   0.666   2.530   8.793
 5608TIP3    H138383   0.649   2.507   0.016
 5608TIP3    H238384   0.719   2.609   8.798
 5609TIP3   OH238385   1.711   5.511   8.764
 5609TIP3    H138386   1.633   5.560   8.740
 5609TIP3    H238387   1.769   5.575   8.805
 5610TIP3   OH238388   0.918   1.012   8.842
 5610TIP3    H138389   0.907   0.917   8.840
 5610TIP3    H238390   0.937   1.036   8.752
 5611TIP3   OH238391   3.305   2.310   6.961
 5611TIP3    H138392   3.379   2.250   6.960
 5611TIP3    H238393   3.293   2.336   6.870
 5612TIP3   OH238394   3.200   1.747   2.234
 5612TIP3    H138395   3.285   1.734   2.277
 5612TIP3    H238396   3.211   1.829   2.185
 5613TIP3   OH238397   5.215   1.689   7.024
 5613TIP3    H138398   5.120   1.693   7.017
 5613TIP3    H238399   5.246   1.756   6.964
 5614TIP3   OH238400   3.471   1.539   0.771
 5614TIP3    H138401   3.391   1.590   0.765
 5614TIP3    H238402   3.534   1.586   0.715
 5615TIP3   OH238403   6.171   6.646   6.772
 5615TIP3    H138404   6.249   6.682   6.815
 5615TIP3    H238405   6.108   6.717   6.772
 5616TIP3   OH238406   5.188   0.445   8.606
 5616TIP3    H138407   5.120   0.493   8.557
 5616TIP3    H238408   5.255   0.426   8.540
 5617TIP3   OH238409   4.194   5.621   7.792
 5617TIP3    H138410   4.258   5.566   7.838
 5617TIP3    H238411   4.183   5.579   7.707
 5618TIP3   OH238412   1.490   3.975   8.670
 5618TIP3    H138413   1.506   4.022   8.752
 5618TIP3    H238414   1.395   3.976   8.660
 5619TIP3   OH238415   3.359   4.184   8.695
 5619TIP3    H138416   3.407   4.227   8.766
 5619TIP3    H238417   3.338   4.097   8.730
 5620TIP3   OH238418   1.051   2.034   0.204
 5620TIP3    H138419   1.084   1.965   0.261
 5620TIP3    H238420   0.989   1.990   0.146
 5621TIP3   OH238421   2.256   1.449   8.254
 5621TIP3    H138422   2.326   1.389   8.229
 5621TIP3    H238423   2.185   1.393   8.284
 5622TIP3   OH238424   1.224   4.672   2.001
 5622TIP3    H138425   1.234   4.585   2.039
 5622TIP3    H238426   1.176   4.657   1.920
 5623TIP3   OH238427   5.475   5.643   7.823
 5623TIP3    H138428   5.559   5.688   7.811
 5623TIP3    H238429   5.498   5.562   7.868
 5624TIP3   OH238430   0.843   6.235   1.275
 5624TIP3    H138431   0.910   6.215   1.341
 5624TIP3    H238432   0.837   6.156   1.222
 5625TIP3   OH238433   3.109   0.327   1.611
 5625TIP3    H138434   3.191   0.291   1.644
 5625TIP3    H238435   3.041   0.277   1.656
 5626TIP3   OH238436   4.659   5.065   7.793
 5626TIP3    H138437   4.684   5.153   7.820
 5626TIP3    H238438   4.584   5.043   7.848
 5627TIP3   OH238439   6.662   3.884   0.247
 5627TIP3    H138440   6.568   3.873   0.233
 5627TIP3    H238441   6.672   3.977   0.267
 5628TIP3   OH238442   5.066   2.400   8.542
 5628TIP3    H138443   4.984   2.396   8.590
 5628TIP3    H238444   5.051   2.345   8.465
 5629TIP3   OH238445   5.163   3.801   0.358
 5629TIP3    H138446   5.128   3.855   0.287
 5629TIP3    H238447   5.130   3.842   0.438
 5630TIP3   OH238448   0.945   2.705   0.737
 5630TIP3    H138449   1.001   2.642   0.691
 5630TIP3    H238450   0.875   2.651   0.774
 5631TIP3   OH238451   1.343   2.747   1.017
 5631TIP3    H138452   1.254   2.712   1.021
 5631TIP3    H238453   1.359   2.780   1.106
 5632TIP3   OH238454   5.889   3.649   0.509
 5632TIP3    H138455   5.935   3.720   0.463
 5632TIP3    H238456   5.803   3.686   0.529
 5633TIP3   OH238457   0.234   1.127   8.539
 5633TIP3    H138458   0.329   1.140   8.536
 5633TIP3    H238459   0.199   1.216   8.543
 5634TIP3   OH238460   3.987   4.669   7.077
 5634TIP3    H138461   4.039   4.715   7.011
 5634TIP3    H238462   3.949   4.594   7.030
 5635TIP3   OH238463   3.349   6.238   2.512
 5635TIP3    H138464   3.351   6.151   2.471
 5635TIP3    H238465   3.262   6.272   2.492
 5636TIP3   OH238466   0.648   4.809   1.426
 5636TIP3    H138467   0.709   4.772   1.362
 5636TIP3    H238468   0.702   4.824   1.504
 5637TIP3   OH238469   3.484   0.350   1.833
 5637TIP3    H138470   3.478   0.361   1.928
 5637TIP3    H238471   3.562   0.297   1.819
 5638TIP3   OH238472   4.348   2.214   0.973
 5638TIP3    H138473   4.393   2.179   0.895
 5638TIP3    H238474   4.419   2.245   1.029
 5639TIP3   OH238475   2.795   1.518   0.728
 5639TIP3    H138476   2.805   1.551   0.639
 5639TIP3    H238477   2.866   1.557   0.777
 5640TIP3   OH238478   2.129   5.121   0.802
 5640TIP3    H138479   2.078   5.199   0.782
 5640TIP3    H238480   2.158   5.134   0.892
 5641TIP3   OH238481   5.127   2.556   7.700
 5641TIP3    H138482   5.196   2.597   7.752
 5641TIP3    H238483   5.170   2.530   7.619
 5642TIP3   OH238484   5.775   3.494   1.530
 5642TIP3    H138485   5.704   3.501   1.467
 5642TIP3    H238486   5.827   3.420   1.499
 5643TIP3   OH238487   5.906   0.969   8.101
 5643TIP3    H138488   5.877   0.931   8.184
 5643TIP3    H238489   5.827   1.007   8.062
 5644TIP3   OH238490   5.055   6.503   0.736
 5644TIP3    H138491   5.068   6.482   0.644
 5644TIP3    H238492   5.137   6.477   0.779
 5645TIP3   OH238493   0.361   2.756   0.949
 5645TIP3    H138494   0.341   2.685   1.009
 5645TIP3    H238495   0.395   2.826   1.005
 5646TIP3   OH238496   0.083   3.743   7.998
 5646TIP3    H138497   0.021   3.681   8.035
 5646TIP3    H238498   0.109   3.798   8.072
 5647TIP3   OH238499   6.084   4.812   2.099
 5647TIP3    H138500   6.018   4.875   2.070
 5647TIP3    H238501   6.123   4.778   2.019
 5648TIP3   OH238502   0.848   5.104   7.609
 5648TIP3    H138503   0.758   5.098   7.641
 5648TIP3    H238504   0.864   5.020   7.567
 5649TIP3   OH238505   5.860   6.547   0.819
 5649TIP3    H138506   5.845   6.638   0.795
 5649TIP3    H238507   5.954   6.540   0.831
 5650TIP3   OH238508   0.734   2.128   0.839
 5650TIP3    H138509   0.725   2.193   0.769
 5650TIP3    H238510   0.766   2.050   0.794
 5651TIP3   OH238511   1.917   1.927   1.199
 5651TIP3    H138512   1.885   1.885   1.119
 5651TIP3    H238513   2.008   1.949   1.180
 5652TIP3   OH238514   0.960   0.360   1.284
 5652TIP3    H138515   1.039   0.312   1.260
 5652TIP3    H238516   0.970   0.446   1.242
 5653TIP3   OH238517   2.615   4.302   0.070
 5653TIP3    H138518   2.639   4.346   8.857
 5653TIP3    H238519   2.666   4.221   0.070
 5654TIP3   OH238520   2.408   4.343   6.812
 5654TIP3    H138521   2.406   4.285   6.736
 5654TIP3    H238522   2.342   4.410   6.794
 5655TIP3   OH238523   3.895   3.066   8.868
 5655TIP3    H138524   3.981   3.107   0.009
 5655TIP3    H238525   3.856   3.071   0.087
 5656TIP3   OH238526   4.006   5.443   8.007
 5656TIP3    H138527   4.012   5.399   8.092
 5656TIP3    H238528   4.075   5.510   8.009
 5657TIP3   OH238529   3.976   2.022   7.129
 5657TIP3    H138530   3.933   2.062   7.054
 5657TIP3    H238531   3.905   1.981   7.178
 5658TIP3   OH238532   3.606   0.569   8.421
 5658TIP3    H138533   3.594   0.632   8.350
 5658TIP3    H238534   3.675   0.606   8.475
 5659TIP3   OH238535   0.429   0.152   0.270
 5659TIP3    H138536   0.380   0.107   0.201
 5659TIP3    H238537   0.504   0.095   0.288
 5660TIP3   OH238538   0.793   1.085   2.000
 5660TIP3    H138539   0.865   1.070   1.939
 5660TIP3    H238540   0.817   1.165   2.047
 5661TIP3   OH238541   5.018   1.516   1.362
 5661TIP3    H138542   5.052   1.552   1.443
 5661TIP3    H238543   5.088   1.461   1.327
 5662TIP3   OH238544   1.264   1.435   1.173
 5662TIP3    H138545   1.339   1.469   1.125
 5662TIP3    H238546   1.291   1.437   1.265
 5663TIP3   OH238547   2.083   1.311   7.676
 5663TIP3    H138548   2.162   1.278   7.717
 5663TIP3    H238549   2.060   1.245   7.610
 5664TIP3   OH238550   2.819   2.384   8.363
 5664TIP3    H138551   2.832   2.337   8.445
 5664TIP3    H238552   2.750   2.447   8.383
 5665TIP3   OH238553   2.202   0.853   1.015
 5665TIP3    H138554   2.130   0.880   0.959
 5665TIP3    H238555   2.238   0.934   1.050
 5666TIP3   OH238556   0.047   5.448   7.535
 5666TIP3    H138557   0.139   5.440   7.510
 5666TIP3    H238558   0.048   5.445   7.631
 5667TIP3   OH238559   6.372   1.448   8.046
 5667TIP3    H138560   6.281   1.418   8.050
 5667TIP3    H238561   6.419   1.377   8.002
 5668TIP3   OH238562   5.596   5.494   1.194
 5668TIP3    H138563   5.538   5.560   1.232
 5668TIP3    H238564   5.536   5.433   1.150
 5669TIP3   OH238565   1.618   0.526   8.025
 5669TIP3    H138566   1.625   0.620   8.041
 5669TIP3    H238567   1.525   0.507   8.032
 5670TIP3   OH238568   5.820   3.048   7.132
 5670TIP3    H138569   5.910   3.044   7.099
 5670TIP3    H238570   5.785   3.129   7.097
 5671TIP3   OH238571   4.090   0.965   1.184
 5671TIP3    H138572   4.088   0.873   1.210
 5671TIP3    H238573   4.168   0.973   1.129
 5672TIP3   OH238574   2.005   1.063   7.096
 5672TIP3    H138575   1.982   1.030   7.009
 5672TIP3    H238576   2.001   1.158   7.088
 5673TIP3   OH238577   1.555   3.593   1.315
 5673TIP3    H138578   1.599   3.674   1.287
 5673TIP3    H238579   1.602   3.523   1.269
 5674TIP3   OH238580   0.011   2.959   0.358
 5674TIP3    H138581   6.744   2.986   0.428
 5674TIP3    H238582   0.087   2.923   0.403
 5675TIP3   OH238583   0.892   2.538   6.689
 5675TIP3    H138584   0.917   2.548   6.781
 5675TIP3    H238585   0.930   2.614   6.646
 5676TIP3   OH238586   3.128   5.783   0.320
 5676TIP3    H138587   3.184   5.802   0.395
 5676TIP3    H238588   3.127   5.688   0.314
 5677TIP3   OH238589   0.258   5.392   1.179
 5677TIP3    H138590   0.222   5.343   1.104
 5677TIP3    H238591   0.254   5.483   1.151
 5678TIP3   OH238592   3.218   1.389   8.274
 5678TIP3    H138593   3.144   1.446   8.256
 5678TIP3    H238594   3.267   1.434   8.343
 5679TIP3   OH238595   5.611   0.468   7.863
 5679TIP3    H138596   5.540   0.458   7.926
 5679TIP3    H238597   5.633   0.562   7.867
 5680TIP3   OH238598   5.546   6.665   1.733
 5680TIP3    H138599   5.602   6.739   1.709
 5680TIP3    H238600   5.552   6.606   1.658
 5681TIP3   OH238601   0.346   4.037   7.869
 5681TIP3    H138602   0.306   4.117   7.836
 5681TIP3    H238603   0.272   3.978   7.885
 5682TIP3   OH238604   4.605   3.954   0.677
 5682TIP3    H138605   4.582   4.029   0.731
 5682TIP3    H238606   4.697   3.968   0.656
 5683TIP3   OH238607   5.889   4.732   8.814
 5683TIP3    H138608   5.907   4.648   8.772
 5683TIP3    H238609   5.833   4.778   8.751
 5684TIP3   OH238610   1.895   5.701   1.130
 5684TIP3    H138611   1.812   5.715   1.175
 5684TIP3    H238612   1.957   5.681   1.200
 5685TIP3   OH238613   0.385   5.415   7.023
 5685TIP3    H138614   0.428   5.394   6.941
 5685TIP3    H238615   0.313   5.352   7.030
 5686TIP3   OH238616   1.122   4.148   7.507
 5686TIP3    H138617   1.135   4.225   7.451
 5686TIP3    H238618   1.069   4.181   7.580
 5687TIP3   OH238619   1.147   1.036   1.079
 5687TIP3    H138620   1.153   1.108   1.142
 5687TIP3    H238621   1.089   1.069   1.010
 5688TIP3   OH238622   6.112   4.678   0.078
 5688TIP3    H138623   6.028   4.716   0.053
 5688TIP3    H238624   6.102   4.584   0.061
 5689TIP3   OH238625   0.735   0.477   7.102
 5689TIP3    H138626   0.672   0.543   7.129
 5689TIP3    H238627   0.784   0.456   7.181
 5690TIP3   OH238628   4.499   2.572   6.944
 5690TIP3    H138629   4.457   2.590   6.860
 5690TIP3    H238630   4.545   2.653   6.966
 5691TIP3   OH238631   5.526   4.967   0.636
 5691TIP3    H138632   5.479   4.890   0.667
 5691TIP3    H238633   5.568   4.939   0.555
 5692TIP3   OH238634   3.844   5.316   1.259
 5692TIP3    H138635   3.874   5.225   1.269
 5692TIP3    H238636   3.910   5.368   1.304
 5693TIP3   OH238637   3.761   1.689   2.272
 5693TIP3    H138638   3.717   1.740   2.340
 5693TIP3    H238639   3.778   1.604   2.313
 5694TIP3   OH238640   1.065   4.396   2.279
 5694TIP3    H138641   1.147   4.431   2.244
 5694TIP3    H238642   1.091   4.315   2.322
 5695TIP3   OH238643   4.088   2.189   0.933
 5695TIP3    H138644   4.181   2.207   0.950
 5695TIP3    H238645   4.085   2.095   0.915
 5696TIP3   OH238646   0.917   3.177   1.139
 5696TIP3    H138647   0.870   3.220   1.211
 5696TIP3    H238648   1.006   3.169   1.171
 5697TIP3   OH238649   3.805   4.451   7.859
 5697TIP3    H138650   3.833   4.361   7.877
 5697TIP3    H238651   3.887   4.500   7.852
 5698TIP3   OH238652   5.584   0.738   2.262
 5698TIP3    H138653   5.580   0.772   2.172
 5698TIP3    H238654   5.628   0.808   2.311
 5699TIP3   OH238655   6.110   3.582   8.059
 5699TIP3    H138656   6.020   3.611   8.044
 5699TIP3    H238657   6.127   3.600   8.151
 5700TIP3   OH238658   5.485   0.801   1.994
 5700TIP3    H138659   5.462   0.894   1.992
 5700TIP3    H238660   5.402   0.756   2.012
 5701TIP3   OH238661   5.923   2.849   2.101
 5701TIP3    H138662   5.924   2.898   2.183
 5701TIP3    H238663   5.954   2.762   2.126
 5702TIP3   OH238664   5.773   2.786   7.521
 5702TIP3    H138665   5.738   2.838   7.449
 5702TIP3    H238666   5.759   2.695   7.494
 5703TIP3   OH238667   1.262   5.684   0.120
 5703TIP3    H138668   1.294   5.677   0.210
 5703TIP3    H238669   1.221   5.770   0.116
 5704TIP3   OH238670   2.629   3.657   0.018
 5704TIP3    H138671   2.662   3.679   8.799
 5704TIP3    H238672   2.673   3.720   0.076
 5705TIP3   OH238673   1.527   0.620   7.221
 5705TIP3    H138674   1.588   0.694   7.216
 5705TIP3    H238675   1.583   0.543   7.209
 5706TIP3   OH238676   3.926   4.826   1.136
 5706TIP3    H138677   3.857   4.787   1.190
 5706TIP3    H238678   3.987   4.754   1.120
 5707TIP3   OH238679   0.972   2.465   8.348
 5707TIP3    H138680   0.995   2.450   8.257
 5707TIP3    H238681   0.895   2.410   8.363
 5708TIP3   OH238682   6.714   2.652   0.686
 5708TIP3    H138683   6.768   2.726   0.658
 5708TIP3    H238684   6.695   2.669   0.778
 5709TIP3   OH238685   6.527   5.082   7.854
 5709TIP3    H138686   6.535   5.017   7.924
 5709TIP3    H238687   6.579   5.156   7.884
 5710TIP3   OH238688   1.241   3.822   7.829
 5710TIP3    H138689   1.256   3.876   7.751
 5710TIP3    H238690   1.150   3.842   7.854
 5711TIP3   OH238691   1.899   3.532   8.691
 5711TIP3    H138692   1.869   3.454   8.738
 5711TIP3    H238693   1.883   3.512   8.599
 5712TIP3   OH238694   6.519   0.059   1.880
 5712TIP3    H138695   6.543   0.130   1.821
 5712TIP3    H238696   6.596   0.045   1.934
 5713TIP3   OH238697   0.661   1.052   0.057
 5713TIP3    H138698   0.750   1.020   0.042
 5713TIP3    H238699   0.632   1.006   0.136
 5714TIP3   OH238700   5.032   4.107   1.721
 5714TIP3    H138701   5.008   4.059   1.800
 5714TIP3    H238702   5.066   4.190   1.753
 5715TIP3   OH238703   1.182   5.218   0.334
 5715TIP3    H138704   1.207   5.278   0.405
 5715TIP3    H238705   1.098   5.181   0.361
 5716TIP3   OH238706   5.316   5.324   6.646
 5716TIP3    H138707   5.231   5.311   6.603
 5716TIP3    H238708   5.352   5.402   6.604
 5717TIP3   OH238709   3.149   0.825   7.338
 5717TIP3    H138710   3.061   0.857   7.318
 5717TIP3    H238711   3.157   0.834   7.433
 5718TIP3   OH238712   3.784   3.094   8.590
 5718TIP3    H138713   3.833   3.101   8.672
 5718TIP3    H238714   3.708   3.151   8.602
 5719TIP3   OH238715   5.700   6.109   2.179
 5719TIP3    H138716   5.724   6.024   2.218
 5719TIP3    H238717   5.781   6.142   2.141
 5720TIP3   OH238718   5.768   0.240   7.470
 5720TIP3    H138719   5.768   0.335   7.462
 5720TIP3    H238720   5.839   0.221   7.533
 5721TIP3   OH238721   1.904   5.158   2.027
 5721TIP3    H138722   1.925   5.180   1.936
 5721TIP3    H238723   1.981   5.111   2.059
 5722TIP3   OH238724   0.630   6.066   6.904
 5722TIP3    H138725   0.600   6.081   6.814
 5722TIP3    H238726   0.603   5.976   6.924
 5723TIP3   OH238727   2.931   1.132   1.513
 5723TIP3    H138728   3.012   1.170   1.548
 5723TIP3    H238729   2.886   1.097   1.589
 5724TIP3   OH238730   6.119   6.462   1.676
 5724TIP3    H138731   6.096   6.537   1.621
 5724TIP3    H238732   6.144   6.501   1.760
 5725TIP3   OH238733   2.948   6.085   2.085
 5725TIP3    H138734   2.967   6.099   2.178
 5725TIP3    H238735   3.022   6.126   2.039
 5726TIP3   OH238736   6.719   5.750   1.165
 5726TIP3    H138737   6.690   5.824   1.112
 5726TIP3    H238738   6.737   5.788   1.251
 5727TIP3   OH238739   6.151   6.748   7.687
 5727TIP3    H138740   6.208   6.769   7.760
 5727TIP3    H238741   6.201   6.687   7.634
 5728TIP3   OH238742   0.509   4.811   0.570
 5728TIP3    H138743   0.419   4.810   0.602
 5728TIP3    H238744   0.562   4.839   0.645
 5729TIP3   OH238745   2.322   3.755   6.712
 5729TIP3    H138746   2.237   3.746   6.668
 5729TIP3    H238747   2.386   3.742   6.642
 5730TIP3   OH238748   1.803   4.131   8.263
 5730TIP3    H138749   1.737   4.125   8.333
 5730TIP3    H238750   1.765   4.193   8.200
 5731TIP3   OH238751   5.695   0.195   0.830
 5731TIP3    H138752   5.752   0.123   0.805
 5731TIP3    H238753   5.630   0.156   0.889
 5732TIP3   OH238754   4.041   3.357   1.140
 5732TIP3    H138755   4.104   3.383   1.072
 5732TIP3    H238756   3.966   3.414   1.125
 5733TIP3   OH238757   4.132   1.898   8.355
 5733TIP3    H138758   4.224   1.906   8.329
 5733TIP3    H238759   4.130   1.930   8.445
 5734TIP3   OH238760   6.014   0.219   7.704
 5734TIP3    H138761   6.061   0.139   7.682
 5734TIP3    H238762   5.932   0.190   7.744
 5735TIP3   OH238763   1.734   4.726   6.924
 5735TIP3    H138764   1.695   4.661   6.866
 5735TIP3    H238765   1.694   4.809   6.897
 5736TIP3   OH238766   3.350   6.755   7.563
 5736TIP3    H138767   3.363   6.743   7.657
 5736TIP3    H238768   3.431   0.005   7.534
 5737TIP3   OH238769   2.247   3.801   7.861
 5737TIP3    H138770   2.336   3.821   7.830
 5737TIP3    H238771   2.196   3.786   7.782
 5738TIP3   OH238772   1.369   0.349   8.674
 5738TIP3    H138773   1.302   0.373   8.610
 5738TIP3    H238774   1.357   0.411   8.746
 5739TIP3   OH238775   0.215   0.790   8.471
 5739TIP3    H138776   0.158   0.729   8.519
 5739TIP3    H238777   0.302   0.776   8.509
 5740TIP3   OH238778   1.865   1.747   6.915
 5740TIP3    H138779   1.808   1.803   6.862
 5740TIP3    H238780   1.925   1.707   6.852
 5741TIP3   OH238781   4.508   1.025   7.328
 5741TIP3    H138782   4.471   1.070   7.252
 5741TIP3    H238783   4.599   1.010   7.305
 5742TIP3   OH238784   3.763   2.610   2.493
 5742TIP3    H138785   3.675   2.646   2.483
 5742TIP3    H238786   3.822   2.677   2.459
 5743TIP3   OH238787   5.308   0.319   2.510
 5743TIP3    H138788   5.244   0.315   2.439
 5743TIP3    H238789   5.367   0.245   2.493
 5744TIP3   OH238790   6.183   1.675   1.323
 5744TIP3    H138791   6.155   1.700   1.411
 5744TIP3    H238792   6.142   1.740   1.266
 5745TIP3   OH238793   6.058   1.452   7.413
 5745TIP3    H138794   6.138   1.412   7.379
 5745TIP3    H238795   5.988   1.410   7.364
 5746TIP3   OH238796   3.930   2.008   2.797
 5746TIP3    H138797   3.836   2.025   2.802
 5746TIP3    H238798   3.958   2.054   2.719
 5747TIP3   OH238799   4.367   4.564   1.228
 5747TIP3    H138800   4.347   4.486   1.280
 5747TIP3    H238801   4.459   4.554   1.204
 5748TIP3   OH238802   2.381   2.426   8.181
 5748TIP3    H138803   2.345   2.515   8.178
 5748TIP3    H238804   2.467   2.434   8.139
 5749TIP3   OH238805   2.443   2.193   7.272
 5749TIP3    H138806   2.497   2.150   7.205
 5749TIP3    H238807   2.355   2.157   7.258
 5750TIP3   OH238808   1.837   4.752   7.189
 5750TIP3    H138809   1.819   4.694   7.114
 5750TIP3    H238810   1.862   4.692   7.259
 5751TIP3   OH238811   0.983   2.084   8.187
 5751TIP3    H138812   0.988   2.159   8.246
 5751TIP3    H238813   1.072   2.073   8.154
 5752TIP3   OH238814   6.606   1.367   7.383
 5752TIP3    H138815   6.543   1.399   7.448
 5752TIP3    H238816   6.568   1.284   7.353
 5753TIP3   OH238817   3.540   6.516   0.286
 5753TIP3    H138818   3.597   6.440   0.303
 5753TIP3    H238819   3.491   6.528   0.367
 5754TIP3   OH238820   6.063   0.197   8.835
 5754TIP3    H138821   5.976   0.162   8.815
 5754TIP3    H238822   6.123   0.141   8.785
 5755TIP3   OH238823   0.317   4.747   8.477
 5755TIP3    H138824   0.326   4.670   8.421
 5755TIP3    H238825   0.377   4.812   8.439
 5756TIP3   OH238826   5.497   6.132   0.132
 5756TIP3    H138827   5.431   6.201   0.128
 5756TIP3    H238828   5.481   6.087   0.214
 5757TIP3   OH238829   6.211   2.281   0.592
 5757TIP3    H138830   6.170   2.340   0.656
 5757TIP3    H238831   6.233   2.203   0.643
 5758TIP3   OH238832   4.497   0.644   7.883
 5758TIP3    H138833   4.471   0.696   7.959
 5758TIP3    H238834   4.422   0.648   7.824
 5759TIP3   OH238835   0.420   2.782   8.470
 5759TIP3    H138836   0.500   2.825   8.440
 5759TIP3    H238837   0.350   2.844   8.448
 5760TIP3   OH238838   2.197   0.762   7.328
 5760TIP3    H138839   2.104   0.754   7.305
 5760TIP3    H238840   2.199   0.825   7.401
 5761TIP3   OH238841   3.873   3.113   8.310
 5761TIP3    H138842   3.959   3.105   8.351
 5761TIP3    H238843   3.811   3.113   8.383
 5762TIP3   OH238844   0.998   1.486   1.908
 5762TIP3    H138845   0.920   1.542   1.908
 5762TIP3    H238846   1.069   1.545   1.882
 5763TIP3   OH238847   5.079   1.071   8.506
 5763TIP3    H138848   5.015   1.140   8.522
 5763TIP3    H238849   5.155   1.096   8.558
 5764TIP3   OH238850   4.574   5.930   0.442
 5764TIP3    H138851   4.579   6.024   0.426
 5764TIP3    H238852   4.618   5.889   0.368
 5765TIP3   OH238853   0.469   2.321   1.665
 5765TIP3    H138854   0.419   2.384   1.717
 5765TIP3    H238855   0.470   2.358   1.577
 5766TIP3   OH238856   0.104   6.358   7.360
 5766TIP3    H138857   0.187   6.350   7.313
 5766TIP3    H238858   0.091   6.273   7.401
 5767TIP3   OH238859   5.010   5.205   1.618
 5767TIP3    H138860   5.074   5.214   1.689
 5767TIP3    H238861   4.931   5.172   1.662
 5768TIP3   OH238862   0.069   5.859   0.773
 5768TIP3    H138863   0.013   5.798   0.724
 5768TIP3    H238864   0.157   5.822   0.763
 5769TIP3   OH238865   4.588   0.166   0.612
 5769TIP3    H138866   4.530   0.156   0.537
 5769TIP3    H238867   4.556   0.244   0.657
 5770TIP3   OH238868   4.223   2.057   7.431
 5770TIP3    H138869   4.213   2.108   7.350
 5770TIP3    H238870   4.149   2.084   7.485
 5771TIP3   OH238871   2.748   1.474   7.812
 5771TIP3    H138872   2.755   1.399   7.753
 5771TIP3    H238873   2.686   1.533   7.769
 5772TIP3   OH238874   2.494   5.050   6.626
 5772TIP3    H138875   2.464   4.971   6.672
 5772TIP3    H238876   2.546   5.017   6.553
 5773TIP3   OH238877   5.986   2.793   7.700
 5773TIP3    H138878   5.922   2.765   7.765
 5773TIP3    H238879   5.935   2.837   7.632
 5774TIP3   OH238880   4.261   0.928   2.363
 5774TIP3    H138881   4.323   0.964   2.299
 5774TIP3    H238882   4.181   0.913   2.313
 5775TIP3   OH238883   3.763   3.823   7.525
 5775TIP3    H138884   3.722   3.804   7.441
 5775TIP3    H238885   3.746   3.916   7.540
 5776TIP3   OH238886   2.757   3.590   6.782
 5776TIP3    H138887   2.725   3.514   6.830
 5776TIP3    H238888   2.852   3.579   6.779
 5777TIP3   OH238889   4.750   3.757   8.181
 5777TIP3    H138890   4.747   3.727   8.272
 5777TIP3    H238891   4.735   3.677   8.129
 5778TIP3   OH238892   5.284   2.427   8.758
 5778TIP3    H138893   5.226   2.385   8.822
 5778TIP3    H238894   5.247   2.402   8.673
 5779TIP3   OH238895   0.814   5.068   1.336
 5779TIP3    H138896   0.855   5.001   1.281
 5779TIP3    H238897   0.813   5.030   1.424
 5780TIP3   OH238898   6.669   2.533   1.137
 5780TIP3    H138899   6.634   2.488   1.060
 5780TIP3    H238900   6.737   2.474   1.170
 5781TIP3   OH238901   2.249   1.845   0.548
 5781TIP3    H138902   2.309   1.800   0.608
 5781TIP3    H238903   2.199   1.774   0.507
 5782TIP3   OH238904   2.289   6.144   7.956
 5782TIP3    H138905   2.228   6.101   7.896
 5782TIP3    H238906   2.280   6.096   8.038
 5783TIP3   OH238907   4.154   3.033   8.334
 5783TIP3    H138908   4.201   3.104   8.378
 5783TIP3    H238909   4.177   3.042   8.242
 5784TIP3   OH238910   3.787   1.030   0.634
 5784TIP3    H138911   3.794   1.002   0.725
 5784TIP3    H238912   3.866   0.995   0.592
 5785TIP3   OH238913   1.208   2.785   2.155
 5785TIP3    H138914   1.262   2.738   2.091
 5785TIP3    H238915   1.239   2.752   2.239
 5786TIP3   OH238916   4.826   4.114   0.614
 5786TIP3    H138917   4.826   4.192   0.670
 5786TIP3    H238918   4.796   4.147   0.529
 5787TIP3   OH238919   2.013   1.634   1.416
 5787TIP3    H138920   1.949   1.700   1.442
 5787TIP3    H238921   2.021   1.577   1.493
 5788TIP3   OH238922   0.898   1.540   2.276
 5788TIP3    H138923   0.864   1.570   2.360
 5788TIP3    H238924   0.896   1.618   2.220
 5789TIP3   OH238925   4.668   1.660   2.486
 5789TIP3    H138926   4.718   1.727   2.533
 5789TIP3    H238927   4.586   1.704   2.464
 5790TIP3   OH238928   6.215   4.832   0.653
 5790TIP3    H138929   6.266   4.868   0.580
 5790TIP3    H238930   6.125   4.837   0.623
 5791TIP3   OH238931   1.859   0.435   6.805
 5791TIP3    H138932   1.777   0.468   6.768
 5791TIP3    H238933   1.868   0.347   6.768
 5792TIP3   OH238934   1.686   1.993   7.295
 5792TIP3    H138935   1.656   1.920   7.240
 5792TIP3    H238936   1.694   1.955   7.382
 5793TIP3   OH238937   3.830   1.340   7.813
 5793TIP3    H138938   3.753   1.292   7.784
 5793TIP3    H238939   3.888   1.342   7.737
 5794TIP3   OH238940   5.846   2.708   7.959
 5794TIP3    H138941   5.812   2.619   7.968
 5794TIP3    H238942   5.802   2.757   8.028
 5795TIP3   OH238943   1.129   3.494   1.576
 5795TIP3    H138944   1.188   3.516   1.504
 5795TIP3    H238945   1.170   3.419   1.619
 5796TIP3   OH238946   4.379   5.411   0.981
 5796TIP3    H138947   4.293   5.435   1.016
 5796TIP3    H238948   4.440   5.433   1.051
 5797TIP3   OH238949   4.952   2.882   0.580
 5797TIP3    H138950   5.020   2.859   0.518
 5797TIP3    H238951   4.972   2.831   0.659
 5798TIP3   OH238952   5.641   5.003   8.006
 5798TIP3    H138953   5.570   5.057   7.972
 5798TIP3    H238954   5.598   4.924   8.040
 5799TIP3   OH238955   0.376   4.126   8.140
 5799TIP3    H138956   0.350   4.136   8.048
 5799TIP3    H238957   0.441   4.195   8.154
 5800TIP3   OH238958   4.362   5.452   2.215
 5800TIP3    H138959   4.356   5.357   2.221
 5800TIP3    H238960   4.456   5.470   2.207
 5801TIP3   OH238961   6.448   5.837   7.507
 5801TIP3    H138962   6.417   5.915   7.554
 5801TIP3    H238963   6.534   5.819   7.545
 5802TIP3   OH238964   3.285   1.737   0.523
 5802TIP3    H138965   3.307   1.829   0.529
 5802TIP3    H238966   3.195   1.731   0.557
 5803TIP3   OH238967   2.195   3.754   0.829
 5803TIP3    H138968   2.193   3.774   0.735
 5803TIP3    H238969   2.160   3.833   0.871
 5804TIP3   OH238970   5.651   2.186   1.331
 5804TIP3    H138971   5.598   2.261   1.360
 5804TIP3    H238972   5.733   2.225   1.299
 5805TIP3   OH238973   0.999   3.457   7.523
 5805TIP3    H138974   0.925   3.489   7.471
 5805TIP3    H238975   0.963   3.383   7.572
 5806TIP3   OH238976   4.220   1.906   2.595
 5806TIP3    H138977   4.139   1.950   2.618
 5806TIP3    H238978   4.263   1.889   2.680
 5807TIP3   OH238979   4.360   2.356   6.758
 5807TIP3    H138980   4.440   2.356   6.811
 5807TIP3    H238981   4.352   2.446   6.727
 5808TIP3   OH238982   2.709   5.937   0.342
 5808TIP3    H138983   2.632   5.938   0.286
 5808TIP3    H238984   2.676   5.955   0.430
 5809TIP3   OH238985   1.719   6.445   1.321
 5809TIP3    H138986   1.669   6.515   1.361
 5809TIP3    H238987   1.745   6.480   1.235
 5810TIP3   OH238988   6.529   3.377   7.381
 5810TIP3    H138989   6.502   3.334   7.462
 5810TIP3    H238990   6.489   3.324   7.312
 5811TIP3   OH238991   0.681   5.812   1.796
 5811TIP3    H138992   0.614   5.750   1.823
 5811TIP3    H238993   0.636   5.871   1.736
 5812TIP3   OH238994   4.874   3.314   8.470
 5812TIP3    H138995   4.965   3.344   8.477
 5812TIP3    H238996   4.860   3.262   8.549
 5813TIP3   OH238997   0.322   2.030   0.997
 5813TIP3    H138998   0.382   1.986   0.938
 5813TIP3    H238999   0.287   2.104   0.947
 5814TIP3   OH239000   6.606   4.205   8.514
 5814TIP3    H139001   6.648   4.174   8.433
 5814TIP3    H239002   6.565   4.128   8.551
 5815TIP3   OH239003   1.073   0.658   8.148
 5815TIP3    H139004   0.991   0.693   8.114
 5815TIP3    H239005   1.059   0.563   8.153
 5816TIP3   OH239006   5.236   5.812   6.965
 5816TIP3    H139007   5.145   5.843   6.967
 5816TIP3    H239008   5.261   5.815   6.873
 5817TIP3   OH239009   5.163   1.421   0.643
 5817TIP3    H139010   5.139   1.495   0.698
 5817TIP3    H239011   5.088   1.361   0.650
 5818TIP3   OH239012   2.220   5.772   1.041
 5818TIP3    H139013   2.183   5.699   0.992
 5818TIP3    H239014   2.304   5.790   0.997
 5819TIP3   OH239015   0.875   5.713   0.144
 5819TIP3    H139016   0.816   5.663   0.201
 5819TIP3    H239017   0.953   5.658   0.137
 5820TIP3   OH239018   2.315   1.740   7.761
 5820TIP3    H139019   2.377   1.759   7.832
 5820TIP3    H239020   2.229   1.754   7.801
 5821TIP3   OH239021   2.337   6.440   0.137
 5821TIP3    H139022   2.253   6.423   0.094
 5821TIP3    H239023   2.321   6.516   0.192
 5822TIP3   OH239024   0.085   6.129   1.165
 5822TIP3    H139025   6.790   6.161   1.144
 5822TIP3    H239026   0.124   6.107   1.081
 5823TIP3   OH239027   0.494   5.857   8.777
 5823TIP3    H139028   0.585   5.831   8.765
 5823TIP3    H239029   0.445   5.775   8.773
 5824TIP3   OH239030   4.272   3.135   1.413
 5824TIP3    H139031   4.299   3.182   1.492
 5824TIP3    H239032   4.335   3.063   1.406
 5825TIP3   OH239033   0.512   1.193   7.451
 5825TIP3    H139034   0.535   1.155   7.536
 5825TIP3    H239035   0.589   1.177   7.396
 5826TIP3   OH239036   0.586   4.197   0.844
 5826TIP3    H139037   0.613   4.137   0.774
 5826TIP3    H239038   0.572   4.280   0.799
 5827TIP3   OH239039   6.494   3.593   6.144
 5827TIP3    H139040   6.518   3.669   6.197
 5827TIP3    H239041   6.558   3.526   6.167
 5828TIP3   OH239042   0.205   3.419   1.146
 5828TIP3    H139043   0.188   3.512   1.161
 5828TIP3    H239044   0.146   3.373   1.206
 5829TIP3   OH239045   6.136   2.543   7.985
 5829TIP3    H139046   6.063   2.512   8.039
 5829TIP3    H239047   6.119   2.637   7.974
 5830TIP3   OH239048   3.726   3.271   0.609
 5830TIP3    H139049   3.812   3.230   0.607
 5830TIP3    H239050   3.670   3.214   0.556
 5831TIP3   OH239051   3.012   3.099   7.787
 5831TIP3    H139052   2.922   3.089   7.754
 5831TIP3    H239053   3.028   3.193   7.785
 5832TIP3   OH239054   0.614   2.396   2.329
 5832TIP3    H139055   0.659   2.480   2.338
 5832TIP3    H239056   0.585   2.395   2.238
 5833TIP3   OH239057   1.598   3.787   7.568
 5833TIP3    H139058   1.542   3.744   7.503
 5833TIP3    H239059   1.554   3.870   7.585
 5834TIP3   OH239060   0.978   2.779   7.410
 5834TIP3    H139061   0.907   2.778   7.475
 5834TIP3    H239062   0.933   2.767   7.326
 5835TIP3   OH239063   3.173   3.413   2.398
 5835TIP3    H139064   3.212   3.464   2.468
 5835TIP3    H239065   3.117   3.475   2.351
 5836TIP3   OH239066   2.131   2.082   7.866
 5836TIP3    H139067   2.198   2.014   7.872
 5836TIP3    H239068   2.088   2.065   7.782
 5837TIP3   OH239069   2.274   0.988   2.649
 5837TIP3    H139070   2.242   0.994   2.739
 5837TIP3    H239071   2.233   0.909   2.614
 5838TIP3   OH239072   5.665   1.839   6.655
 5838TIP3    H139073   5.699   1.760   6.613
 5838TIP3    H239074   5.741   1.896   6.665
 5839TIP3   OH239075   2.020   0.511   8.839
 5839TIP3    H139076   2.011   0.511   0.065
 5839TIP3    H239077   2.064   0.429   8.818
 5840TIP3   OH239078   1.155   5.498   7.707
 5840TIP3    H139079   1.225   5.493   7.771
 5840TIP3    H239080   1.158   5.415   7.660
 5841TIP3   OH239081   6.075   2.481   1.326
 5841TIP3    H139082   6.112   2.537   1.395
 5841TIP3    H239083   6.138   2.410   1.316
 5842TIP3   OH239084   4.211   6.368   1.185
 5842TIP3    H139085   4.248   6.455   1.202
 5842TIP3    H239086   4.187   6.370   1.092
 5843TIP3   OH239087   3.385   3.044   1.935
 5843TIP3    H139088   3.467   3.029   1.887
 5843TIP3    H239089   3.346   2.957   1.943
 5844TIP3   OH239090   0.814   6.070   1.649
 5844TIP3    H139091   0.725   6.086   1.617
 5844TIP3    H239092   0.870   6.121   1.591
 5845TIP3   OH239093   1.111   3.974   6.918
 5845TIP3    H139094   1.125   3.919   6.995
 5845TIP3    H239095   1.132   3.917   6.843
 5846TIP3   OH239096   5.884   3.990   7.885
 5846TIP3    H139097   5.915   4.029   7.966
 5846TIP3    H239098   5.790   3.976   7.899
 5847TIP3   OH239099   6.123   6.594   1.915
 5847TIP3    H139100   6.175   6.565   1.990
 5847TIP3    H239101   6.061   6.657   1.952
 5848TIP3   OH239102   1.975   5.248   8.376
 5848TIP3    H139103   2.021   5.252   8.460
 5848TIP3    H239104   1.885   5.271   8.397
 5849TIP3   OH239105   2.853   0.862   7.311
 5849TIP3    H139106   2.872   0.780   7.355
 5849TIP3    H239107   2.790   0.839   7.243
 5850TIP3   OH239108   6.456   6.211   6.371
 5850TIP3    H139109   6.361   6.211   6.382
 5850TIP3    H239110   6.490   6.172   6.452
 5851TIP3   OH239111   4.464   2.515   1.307
 5851TIP3    H139112   4.495   2.587   1.252
 5851TIP3    H239113   4.469   2.549   1.396
 5852TIP3   OH239114   4.934   0.284   8.073
 5852TIP3    H139115   4.847   0.281   8.034
 5852TIP3    H239116   4.985   0.221   8.022
 5853TIP3   OH239117   4.264   3.865   0.439
 5853TIP3    H139118   4.256   3.888   0.346
 5853TIP3    H239119   4.358   3.868   0.457
 5854TIP3   OH239120   6.454   4.015   8.636
 5854TIP3    H139121   6.383   4.072   8.609
 5854TIP3    H239122   6.443   4.006   8.731
 5855TIP3   OH239123   0.153   0.760   0.488
 5855TIP3    H139124   0.060   0.745   0.469
 5855TIP3    H239125   0.156   0.850   0.522
 5856TIP3   OH239126   6.193   3.680   0.804
 5856TIP3    H139127   6.148   3.657   0.885
 5856TIP3    H239128   6.193   3.776   0.802
 5857TIP3   OH239129   2.604   2.494   7.651
 5857TIP3    H139130   2.584   2.438   7.576
 5857TIP3    H239131   2.699   2.504   7.649
 5858TIP3   OH239132   2.381   2.113   8.429
 5858TIP3    H139133   2.347   2.078   8.347
 5858TIP3    H239134   2.476   2.112   8.418
 5859TIP3   OH239135   3.558   5.610   7.384
 5859TIP3    H139136   3.647   5.600   7.419
 5859TIP3    H239137   3.548   5.538   7.322
 5860TIP3   OH239138   0.441   5.497   0.180
 5860TIP3    H139139   0.533   5.488   0.204
 5860TIP3    H239140   0.407   5.408   0.177
 5861TIP3   OH239141   6.596   0.789   1.475
 5861TIP3    H139142   6.571   0.718   1.533
 5861TIP3    H239143   6.686   0.769   1.451
 5862TIP3   OH239144   4.944   6.670   0.143
 5862TIP3    H139145   4.944   6.715   0.228
 5862TIP3    H239146   4.870   6.708   0.096
 5863TIP3   OH239147   2.074   6.191   2.464
 5863TIP3    H139148   2.009   6.261   2.473
 5863TIP3    H239149   2.036   6.117   2.511
 5864TIP3   OH239150   0.150   6.141   0.905
 5864TIP3    H139151   0.189   6.165   0.821
 5864TIP3    H239152   0.100   6.219   0.931
 5865TIP3   OH239153   1.733   2.426   8.232
 5865TIP3    H139154   1.673   2.399   8.162
 5865TIP3    H239155   1.676   2.443   8.307
 5866TIP3   OH239156   6.389   4.980   8.865
 5866TIP3    H139157   6.320   5.026   0.044
 5866TIP3    H239158   6.468   5.030   0.015
 5867TIP3   OH239159   5.543   2.661   2.028
 5867TIP3    H139160   5.534   2.592   2.093
 5867TIP3    H239161   5.633   2.692   2.037
 5868TIP3   OH239162   4.533   1.870   1.407
 5868TIP3    H139163   4.530   1.778   1.381
 5868TIP3    H239164   4.492   1.917   1.335
 5869TIP3   OH239165   6.323   1.136   1.718
 5869TIP3    H139166   6.261   1.067   1.741
 5869TIP3    H239167   6.382   1.095   1.655
 5870TIP3   OH239168   2.771   5.439   7.328
 5870TIP3    H139169   2.853   5.398   7.300
 5870TIP3    H239170   2.703   5.376   7.304
 5871TIP3   OH239171   5.351   5.615   1.681
 5871TIP3    H139172   5.409   5.654   1.747
 5871TIP3    H239173   5.393   5.634   1.597
 5872TIP3   OH239174   0.972   2.862   1.648
 5872TIP3    H139175   1.046   2.855   1.709
 5872TIP3    H239176   0.942   2.771   1.637
 5873TIP3   OH239177   4.119   0.104   8.531
 5873TIP3    H139178   4.134   0.190   8.571
 5873TIP3    H239179   4.185   0.047   8.570
 5874TIP3   OH239180   3.815   3.851   6.738
 5874TIP3    H139181   3.885   3.880   6.678
 5874TIP3    H239182   3.857   3.784   6.792
 5875TIP3   OH239183   5.976   4.159   0.378
 5875TIP3    H139184   5.910   4.172   0.310
 5875TIP3    H239185   6.000   4.248   0.405
 5876TIP3   OH239186   3.260   1.854   2.623
 5876TIP3    H139187   3.234   1.943   2.648
 5876TIP3    H239188   3.179   1.814   2.591
 5877TIP3   OH239189   6.559   4.801   1.609
 5877TIP3    H139190   6.492   4.863   1.578
 5877TIP3    H239191   6.585   4.754   1.529
 5878TIP3   OH239192   5.690   1.813   0.621
 5878TIP3    H139193   5.766   1.780   0.669
 5878TIP3    H239194   5.629   1.840   0.689
 5879TIP3   OH239195   3.678   4.562   1.123
 5879TIP3    H139196   3.638   4.601   1.046
 5879TIP3    H239197   3.611   4.567   1.191
 5880TIP3   OH239198   4.843   1.294   0.101
 5880TIP3    H139199   4.902   1.312   0.174
 5880TIP3    H239200   4.901   1.276   0.027
 5881TIP3   OH239201   2.722   0.122   0.687
 5881TIP3    H139202   2.789   0.137   0.621
 5881TIP3    H239203   2.644   0.168   0.655
 5882TIP3   OH239204   3.114   1.629   1.208
 5882TIP3    H139205   3.194   1.603   1.164
 5882TIP3    H239206   3.070   1.687   1.146
 5883TIP3   OH239207   2.601   5.412   0.120
 5883TIP3    H139208   2.665   5.483   0.124
 5883TIP3    H239209   2.531   5.445   0.065
 5884TIP3   OH239210   3.859   6.244   7.299
 5884TIP3    H139211   3.925   6.240   7.230
 5884TIP3    H239212   3.890   6.313   7.357
 5885TIP3   OH239213   2.872   2.135   0.858
 5885TIP3    H139214   2.884   2.145   0.953
 5885TIP3    H239215   2.852   2.223   0.827
 5886TIP3   OH239216   3.786   0.952   7.045
 5886TIP3    H139217   3.772   0.942   6.950
 5886TIP3    H239218   3.767   1.044   7.063
 5887TIP3   OH239219   3.464   5.767   7.594
 5887TIP3    H139220   3.473   5.703   7.665
 5887TIP3    H239221   3.506   5.725   7.518
 5888TIP3   OH239222   5.118   1.995   8.697
 5888TIP3    H139223   5.106   1.999   8.602
 5888TIP3    H239224   5.033   1.970   8.732
 5889TIP3   OH239225   2.809   3.739   0.924
 5889TIP3    H139226   2.846   3.699   1.002
 5889TIP3    H239227   2.767   3.819   0.956
 5890TIP3   OH239228   2.075   5.919   0.370
 5890TIP3    H139229   2.142   5.985   0.352
 5890TIP3    H239230   2.122   5.846   0.411
 5891TIP3   OH239231   3.503   5.622   8.712
 5891TIP3    H139232   3.565   5.583   8.650
 5891TIP3    H239233   3.461   5.548   8.755
 5892TIP3   OH239234   2.682   0.134   7.411
 5892TIP3    H139235   2.605   0.095   7.369
 5892TIP3    H239236   2.705   0.072   7.481
 5893TIP3   OH239237   2.549   1.730   0.258
 5893TIP3    H139238   2.613   1.662   0.280
 5893TIP3    H239239   2.487   1.687   0.199
 5894TIP3   OH239240   5.376   1.194   0.159
 5894TIP3    H139241   5.314   1.230   0.222
 5894TIP3    H239242   5.431   1.269   0.135
 5895TIP3   OH239243   0.076   3.608   8.721
 5895TIP3    H139244   0.079   3.536   8.659
 5895TIP3    H239245   0.146   3.588   8.784
 5896TIP3   OH239246   2.892   2.038   8.864
 5896TIP3    H139247   2.887   2.085   0.079
 5896TIP3    H239248   2.980   2.057   8.831
 5897TIP3   OH239249   2.044   3.506   1.989
 5897TIP3    H139250   1.997   3.425   1.973
 5897TIP3    H239251   2.136   3.480   2.000
 5898TIP3   OH239252   0.570   3.640   8.006
 5898TIP3    H139253   0.629   3.619   7.933
 5898TIP3    H239254   0.493   3.679   7.965
 5899TIP3   OH239255   6.576   2.011   7.899
 5899TIP3    H139256   6.554   1.920   7.916
 5899TIP3    H239257   6.641   2.008   7.829
 5900TIP3   OH239258   2.891   3.598   7.808
 5900TIP3    H139259   2.813   3.543   7.821
 5900TIP3    H239260   2.964   3.537   7.808
 5901TIP3   OH239261   4.644   5.844   7.278
 5901TIP3    H139262   4.695   5.811   7.351
 5901TIP3    H239263   4.582   5.774   7.258
 5902TIP3   OH239264   4.349   2.437   0.152
 5902TIP3    H139265   4.389   2.425   0.238
 5902TIP3    H239266   4.326   2.530   0.150
 5903TIP3   OH239267   2.749   5.410   6.944
 5903TIP3    H139268   2.816   5.474   6.919
 5903TIP3    H239269   2.798   5.330   6.961
 5904TIP3   OH239270   1.070   5.523   7.276
 5904TIP3    H139271   1.071   5.435   7.313
 5904TIP3    H239272   1.162   5.546   7.264
 5905TIP3   OH239273   2.225   1.902   6.790
 5905TIP3    H139274   2.153   1.843   6.770
 5905TIP3    H239275   2.183   1.982   6.822
 5906TIP3   OH239276   1.087   3.823   8.826
 5906TIP3    H139277   1.138   3.752   8.865
 5906TIP3    H239278   1.000   3.785   8.812
 5907TIP3   OH239279   4.436   5.959   1.516
 5907TIP3    H139280   4.437   5.901   1.592
 5907TIP3    H239281   4.517   5.939   1.469
 5908TIP3   OH239282   0.700   0.884   0.932
 5908TIP3    H139283   0.709   0.845   1.019
 5908TIP3    H239284   0.634   0.953   0.943
 5909TIP3   OH239285   6.673   1.689   7.563
 5909TIP3    H139286   6.644   1.604   7.529
 5909TIP3    H239287   6.592   1.734   7.586
 5910TIP3   OH239288   6.351   2.040   0.042
 5910TIP3    H139289   6.424   2.062   0.100
 5910TIP3    H239290   6.376   2.076   8.825
 5911TIP3   OH239291   1.801   0.570   1.528
 5911TIP3    H139292   1.878   0.522   1.559
 5911TIP3    H239293   1.774   0.623   1.604
 5912TIP3   OH239294   1.395   0.974   7.430
 5912TIP3    H139295   1.362   0.885   7.442
 5912TIP3    H239296   1.460   0.965   7.360
 5913TIP3   OH239297   6.039   0.763   7.212
 5913TIP3    H139298   6.054   0.790   7.121
 5913TIP3    H239299   5.950   0.793   7.231
 5914TIP3   OH239300   0.963   1.237   0.637
 5914TIP3    H139301   1.049   1.214   0.672
 5914TIP3    H239302   0.949   1.175   0.566
 5915TIP3   OH239303   5.423   6.104   2.387
 5915TIP3    H139304   5.333   6.110   2.420
 5915TIP3    H239305   5.477   6.096   2.466
 5916TIP3   OH239306   2.066   1.142   1.862
 5916TIP3    H139307   2.094   1.076   1.798
 5916TIP3    H239308   1.997   1.099   1.913
 5917TIP3   OH239309   3.046   1.591   7.843
 5917TIP3    H139310   3.089   1.513   7.808
 5917TIP3    H239311   2.953   1.571   7.840
 5918TIP3   OH239312   4.082   2.346   8.465
 5918TIP3    H139313   4.083   2.394   8.548
 5918TIP3    H239314   4.016   2.278   8.478
 5919TIP3   OH239315   6.787   0.833   1.806
 5919TIP3    H139316   6.790   0.790   1.891
 5919TIP3    H239317   6.754   0.921   1.825
 5920TIP3   OH239318   6.711   0.135   8.717
 5920TIP3    H139319   6.696   0.108   8.808
 5920TIP3    H239320   0.012   0.125   8.704
 5921TIP3   OH239321   5.346   0.638   2.455
 5921TIP3    H139322   5.348   0.701   2.527
 5921TIP3    H239323   5.260   0.597   2.461
 5922TIP3   OH239324   1.712   4.244   7.684
 5922TIP3    H139325   1.663   4.249   7.765
 5922TIP3    H239326   1.754   4.330   7.675
 5923TIP3   OH239327   1.717   2.074   1.298
 5923TIP3    H139328   1.801   2.033   1.281
 5923TIP3    H239329   1.708   2.072   1.393
 5924TIP3   OH239330   1.596   3.528   7.376
 5924TIP3    H139331   1.646   3.446   7.374
 5924TIP3    H239332   1.507   3.501   7.400
 5925TIP3   OH239333   5.006   4.159   0.211
 5925TIP3    H139334   4.962   4.205   0.282
 5925TIP3    H239335   4.955   4.079   0.199
 5926TIP3   OH239336   2.280   0.151   1.730
 5926TIP3    H139337   2.226   0.214   1.683
 5926TIP3    H239338   2.369   0.186   1.725
 5927TIP3   OH239339   1.232   2.001   7.731
 5927TIP3    H139340   1.226   1.982   7.637
 5927TIP3    H239341   1.227   1.915   7.773
 5928TIP3   OH239342   0.459   5.522   8.529
 5928TIP3    H139343   0.378   5.504   8.483
 5928TIP3    H239344   0.431   5.548   8.617
 5929TIP3   OH239345   4.413   3.014   0.556
 5929TIP3    H139346   4.478   2.960   0.601
 5929TIP3    H239347   4.458   3.096   0.537
 5930TIP3   OH239348   1.342   3.132   8.225
 5930TIP3    H139349   1.334   3.108   8.133
 5930TIP3    H239350   1.252   3.149   8.254
 5931TIP3   OH239351   1.807   0.953   1.186
 5931TIP3    H139352   1.817   0.883   1.121
 5931TIP3    H239353   1.886   0.947   1.240
 5932TIP3   OH239354   4.893   5.651   7.675
 5932TIP3    H139355   4.906   5.655   7.580
 5932TIP3    H239356   4.800   5.667   7.687
 5933TIP3   OH239357   1.151   6.048   2.206
 5933TIP3    H139358   1.177   6.135   2.238
 5933TIP3    H239359   1.234   6.003   2.192
 5934TIP3   OH239360   0.370   0.883   8.774
 5934TIP3    H139361   0.409   0.824   8.839
 5934TIP3    H239362   0.386   0.839   8.690
 5935TIP3   OH239363   3.829   6.275   1.369
 5935TIP3    H139364   3.734   6.261   1.368
 5935TIP3    H239365   3.854   6.261   1.460
 5936TIP3   OH239366   6.428   0.344   6.701
 5936TIP3    H139367   6.502   0.303   6.747
 5936TIP3    H239368   6.354   0.286   6.720
 5937TIP3   OH239369   4.439   5.474   2.519
 5937TIP3    H139370   4.490   5.393   2.522
 5937TIP3    H239371   4.397   5.479   2.605
 5938TIP3   OH239372   5.452   0.156   8.729
 5938TIP3    H139373   5.457   0.241   8.772
 5938TIP3    H239374   5.363   0.125   8.749
 5939TIP3   OH239375   2.108   5.978   0.908
 5939TIP3    H139376   2.026   6.004   0.951
 5939TIP3    H239377   2.143   5.908   0.963
 5940TIP3   OH239378   1.922   0.519   0.244
 5940TIP3    H139379   1.992   0.454   0.244
 5940TIP3    H239380   1.868   0.496   0.320
 5941TIP3   OH239381   5.377   0.373   7.089
 5941TIP3    H139382   5.354   0.452   7.139
 5941TIP3    H239383   5.400   0.308   7.155
 5942TIP3   OH239384   3.679   1.299   1.925
 5942TIP3    H139385   3.651   1.329   1.838
 5942TIP3    H239386   3.617   1.340   1.985
 5943TIP3   OH239387   6.781   3.774   0.474
 5943TIP3    H139388   6.718   3.802   0.540
 5943TIP3    H239389   6.731   3.770   0.393
 5944TIP3   OH239390   5.177   2.214   0.009
 5944TIP3    H139391   5.085   2.241   0.007
 5944TIP3    H239392   5.186   2.153   8.805
 5945TIP3   OH239393   4.723   0.767   1.235
 5945TIP3    H139394   4.785   0.778   1.163
 5945TIP3    H239395   4.738   0.677   1.266
 5946TIP3   OH239396   6.313   4.482   6.722
 5946TIP3    H139397   6.374   4.542   6.764
 5946TIP3    H239398   6.231   4.532   6.716
 5947TIP3   OH239399   0.332   0.975   2.292
 5947TIP3    H139400   0.321   0.883   2.269
 5947TIP3    H239401   0.424   0.994   2.275
 5948TIP3   OH239402   4.202   0.214   1.319
 5948TIP3    H139403   4.272   0.247   1.374
 5948TIP3    H239404   4.241   0.206   1.232
 5949TIP3   OH239405   4.461   4.200   8.836
 5949TIP3    H139406   4.388   4.222   0.025
 5949TIP3    H239407   4.521   4.273   8.844
 5950TIP3   OH239408   2.993   3.216   2.175
 5950TIP3    H139409   2.926   3.284   2.188
 5950TIP3    H239410   3.056   3.256   2.116
 5951TIP3   OH239411   5.951   5.454   0.196
 5951TIP3    H139412   5.934   5.363   0.174
 5951TIP3    H239413   6.042   5.469   0.168
 5952TIP3   OH239414   4.522   1.503   2.638
 5952TIP3    H139415   4.567   1.455   2.707
 5952TIP3    H239416   4.587   1.565   2.604
 5953TIP3   OH239417   4.090   2.008   8.613
 5953TIP3    H139418   4.026   2.066   8.574
 5953TIP3    H239419   4.102   2.040   8.702
 5954TIP3   OH239420   5.761   5.817   0.318
 5954TIP3    H139421   5.752   5.782   0.229
 5954TIP3    H239422   5.806   5.900   0.306
 5955TIP3   OH239423   5.911   2.266   1.062
 5955TIP3    H139424   6.003   2.243   1.044
 5955TIP3    H239425   5.894   2.228   1.148
 5956TIP3   OH239426   4.545   1.710   7.439
 5956TIP3    H139427   4.507   1.788   7.479
 5956TIP3    H239428   4.481   1.641   7.455
 5957TIP3   OH239429   2.231   6.648   0.267
 5957TIP3    H139430   2.274   6.733   0.254
 5957TIP3    H239431   2.217   6.642   0.361
 5958TIP3   OH239432   1.585   0.183   8.558
 5958TIP3    H139433   1.509   0.223   8.601
 5958TIP3    H239434   1.654   0.250   8.565
 5959TIP3   OH239435   3.868   3.600   0.747
 5959TIP3    H139436   3.941   3.662   0.743
 5959TIP3    H239437   3.910   3.515   0.763
 5960TIP3   OH239438   4.426   4.247   0.276
 5960TIP3    H139439   4.520   4.237   0.289
 5960TIP3    H239440   4.405   4.331   0.317
 5961TIP3   OH239441   4.657   4.410   8.387
 5961TIP3    H139442   4.746   4.444   8.378
 5961TIP3    H239443   4.601   4.483   8.360
 5962TIP3   OH239444   6.148   3.609   8.659
 5962TIP3    H139445   6.055   3.615   8.678
 5962TIP3    H239446   6.175   3.700   8.642
 5963TIP3   OH239447   2.836   1.821   7.910
 5963TIP3    H139448   2.881   1.738   7.928
 5963TIP3    H239449   2.870   1.848   7.824
 5964TIP3   OH239450   5.807   6.643   6.704
 5964TIP3    H139451   5.872   6.703   6.740
 5964TIP3    H239452   5.822   6.560   6.749
 5965TIP3   OH239453   5.237   6.350   0.459
 5965TIP3    H139454   5.200   6.436   0.436
 5965TIP3    H239455   5.304   6.369   0.524
 5966TIP3   OH239456   5.529   2.437   0.551
 5966TIP3    H139457   5.436   2.416   0.566
 5966TIP3    H239458   5.536   2.529   0.575
 5967TIP3   OH239459   4.752   5.145   0.961
 5967TIP3    H139460   4.667   5.146   1.005
 5967TIP3    H239461   4.816   5.160   1.030
 5968TIP3   OH239462   1.411   6.325   6.994
 5968TIP3    H139463   1.356   6.368   6.929
 5968TIP3    H239464   1.419   6.235   6.963
 5969TIP3   OH239465   0.049   0.364   7.268
 5969TIP3    H139466   0.057   0.281   7.315
 5969TIP3    H239467   0.083   0.345   7.180
 5970TIP3   OH239468   2.847   4.441   1.697
 5970TIP3    H139469   2.818   4.485   1.778
 5970TIP3    H239470   2.845   4.348   1.718
 5971TIP3   OH239471   3.963   2.666   0.114
 5971TIP3    H139472   3.972   2.736   0.049
 5971TIP3    H239473   3.954   2.712   0.198
 5972TIP3   OH239474   6.468   0.607   1.937
 5972TIP3    H139475   6.400   0.568   1.991
 5972TIP3    H239476   6.542   0.548   1.943
 5973TIP3   OH239477   2.226   5.747   8.395
 5973TIP3    H139478   2.240   5.703   8.478
 5973TIP3    H239479   2.161   5.815   8.414
 5974TIP3   OH239480   3.779   1.002   2.180
 5974TIP3    H139481   3.696   0.995   2.133
 5974TIP3    H239482   3.780   1.092   2.213
 5975TIP3   OH239483   6.364   6.071   7.641
 5975TIP3    H139484   6.354   6.104   7.730
 5975TIP3    H239485   6.353   6.147   7.585
 5976TIP3   OH239486   5.296   2.560   1.396
 5976TIP3    H139487   5.270   2.624   1.330
 5976TIP3    H239488   5.250   2.480   1.372
 5977TIP3   OH239489   4.224   3.367   8.510
 5977TIP3    H139490   4.256   3.283   8.543
 5977TIP3    H239491   4.239   3.363   8.416
 5978TIP3   OH239492   6.228   4.391   1.877
 5978TIP3    H139493   6.270   4.455   1.818
 5978TIP3    H239494   6.265   4.307   1.850
 5979TIP3   OH239495   2.413   2.185   0.648
 5979TIP3    H139496   2.368   2.198   0.565
 5979TIP3    H239497   2.418   2.272   0.687
 5980TIP3   OH239498   1.118   6.713   7.085
 5980TIP3    H139499   1.209   6.699   7.113
 5980TIP3    H239500   1.111   6.666   7.002
 5981TIP3   OH239501   4.684   4.181   6.895
 5981TIP3    H139502   4.590   4.190   6.911
 5981TIP3    H239503   4.713   4.268   6.868
 5982TIP3   OH239504   3.234   0.869   1.686
 5982TIP3    H139505   3.255   0.941   1.626
 5982TIP3    H239506   3.191   0.910   1.760
 5983TIP3   OH239507   1.002   0.195   7.160
 5983TIP3    H139508   1.055   0.195   7.241
 5983TIP3    H239509   1.046   0.133   7.103
 5984TIP3   OH239510   5.464   3.760   6.699
 5984TIP3    H139511   5.436   3.675   6.663
 5984TIP3    H239512   5.535   3.787   6.642
 5985TIP3   OH239513   1.219   6.174   7.844
 5985TIP3    H139514   1.201   6.268   7.831
 5985TIP3    H239515   1.313   6.170   7.861
 5986TIP3   OH239516   5.838   6.381   6.737
 5986TIP3    H139517   5.890   6.384   6.657
 5986TIP3    H239518   5.884   6.319   6.794
 5987TIP3   OH239519   1.267   1.873   8.366
 5987TIP3    H139520   1.263   1.910   8.278
 5987TIP3    H239521   1.345   1.817   8.365
 5988TIP3   OH239522   3.571   4.610   1.938
 5988TIP3    H139523   3.538   4.618   2.027
 5988TIP3    H239524   3.539   4.525   1.907
 5989TIP3   OH239525   6.438   5.076   1.549
 5989TIP3    H139526   6.497   5.140   1.589
 5989TIP3    H239527   6.441   5.095   1.455
 5990TIP3   OH239528   1.866   4.073   0.045
 5990TIP3    H139529   1.911   4.070   8.830
 5990TIP3    H239530   1.936   4.071   0.110
 5991TIP3   OH239531   0.860   6.375   0.279
 5991TIP3    H139532   0.889   6.434   0.209
 5991TIP3    H239533   0.796   6.318   0.237
 5992TIP3   OH239534   4.994   5.310   1.365
 5992TIP3    H139535   5.036   5.254   1.430
 5992TIP3    H239536   4.965   5.250   1.297
 5993TIP3   OH239537   0.190   2.955   8.486
 5993TIP3    H139538   0.253   3.021   8.456
 5993TIP3    H239539   0.225   2.925   8.569
 5994TIP3   OH239540   4.305   0.700   7.701
 5994TIP3    H139541   4.215   0.733   7.699
 5994TIP3    H239542   4.349   0.746   7.630
 5995TIP3   OH239543   3.691   2.013   8.642
 5995TIP3    H139544   3.722   1.934   8.685
 5995TIP3    H239545   3.678   2.076   8.713
 5996TIP3   OH239546   3.540   5.789   0.322
 5996TIP3    H139547   3.629   5.758   0.303
 5996TIP3    H239548   3.487   5.710   0.326
 5997TIP3   OH239549   3.177   2.982   3.221
 5997TIP3    H139550   3.111   3.004   3.156
 5997TIP3    H239551   3.247   2.939   3.171
 5998TIP3   OH239552   0.509   4.095   8.782
 5998TIP3    H139553   0.569   4.169   8.769
 5998TIP3    H239554   0.464   4.115   8.864
 5999TIP3   OH239555   6.000   4.927   6.841
 5999TIP3    H139556   5.957   4.857   6.891
 5999TIP3    H239557   5.933   4.956   6.779
 6000TIP3   OH239558   6.731   0.323   0.541
 6000TIP3    H139559   6.733   0.404   0.592
 6000TIP3    H239560   6.764   0.348   0.454
 6001TIP3   OH239561   2.623   0.699   1.042
 6001TIP3    H139562   2.557   0.666   0.981
 6001TIP3    H239563   2.635   0.790   1.017
 6002TIP3   OH239564   3.288   6.402   2.235
 6002TIP3    H139565   3.205   6.373   2.272
 6002TIP3    H239566   3.279   6.387   2.141
 6003TIP3   OH239567   1.147   0.186   0.637
 6003TIP3    H139568   1.127   0.277   0.659
 6003TIP3    H239569   1.104   0.172   0.552
 6004TIP3   OH239570   5.192   3.317   1.053
 6004TIP3    H139571   5.113   3.372   1.054
 6004TIP3    H239572   5.158   3.227   1.061
 6005TIP3   OH239573   2.975   5.151   1.990
 6005TIP3    H139574   3.036   5.078   2.004
 6005TIP3    H239575   3.030   5.229   2.000
 6006TIP3   OH239576   3.415   5.803   7.227
 6006TIP3    H139577   3.445   5.734   7.286
 6006TIP3    H239578   3.479   5.874   7.239
 6007TIP3   OH239579   6.015   4.907   8.078
 6007TIP3    H139580   6.007   4.972   8.148
 6007TIP3    H239581   6.029   4.824   8.125
 6008TIP3   OH239582   2.220   4.788   0.547
 6008TIP3    H139583   2.315   4.793   0.563
 6008TIP3    H239584   2.207   4.834   0.464
 6009TIP3   OH239585   1.645   3.514   6.786
 6009TIP3    H139586   1.651   3.457   6.862
 6009TIP3    H239587   1.578   3.474   6.731
 6010TIP3   OH239588   3.731   5.952   6.654
 6010TIP3    H139589   3.773   5.930   6.737
 6010TIP3    H239590   3.796   5.929   6.587
 6011TIP3   OH239591   5.689   4.111   8.670
 6011TIP3    H139592   5.647   4.074   8.748
 6011TIP3    H239593   5.618   4.116   8.605
 6012TIP3   OH239594   1.107   1.072   0.393
 6012TIP3    H139595   1.012   1.066   0.391
 6012TIP3    H239596   1.136   1.032   0.311
 6013TIP3   OH239597   5.668   6.053   0.719
 6013TIP3    H139598   5.751   6.034   0.675
 6013TIP3    H239599   5.662   5.987   0.788
 6014TIP3   OH239600   4.492   4.591   0.948
 6014TIP3    H139601   4.417   4.609   1.005
 6014TIP3    H239602   4.523   4.505   0.976
 6015TIP3   OH239603   4.166   4.391   8.535
 6015TIP3    H139604   4.207   4.442   8.604
 6015TIP3    H239605   4.210   4.418   8.454
 6016TIP3   OH239606   0.292   5.037   1.496
 6016TIP3    H139607   0.223   4.982   1.532
 6016TIP3    H239608   0.274   5.124   1.530
 6017TIP3   OH239609   6.711   1.984   7.653
 6017TIP3    H139610   0.011   1.979   7.630
 6017TIP3    H239611   6.666   1.961   7.571
 6018TIP3   OH239612   4.878   2.282   7.697
 6018TIP3    H139613   4.861   2.191   7.722
 6018TIP3    H239614   4.845   2.333   7.771
 6019TIP3   OH239615   0.347   6.741   1.358
 6019TIP3    H139616   0.384   0.030   1.323
 6019TIP3    H239617   0.284   6.770   1.424
 6020TIP3   OH239618   2.018   4.311   7.304
 6020TIP3    H139619   2.103   4.304   7.347
 6020TIP3    H239620   1.964   4.361   7.366
 6021TIP3   OH239621   6.508   0.220   1.142
 6021TIP3    H139622   6.555   0.248   1.064
 6021TIP3    H239623   6.428   0.181   1.109
 6022TIP3   OH239624   3.113   3.380   7.816
 6022TIP3    H139625   3.189   3.331   7.845
 6022TIP3    H239626   3.104   3.360   7.723
 6023TIP3   OH239627   2.756   4.485   7.288
 6023TIP3    H139628   2.667   4.514   7.307
 6023TIP3    H239629   2.781   4.432   7.363
 6024TIP3   OH239630   5.508   3.024   1.740
 6024TIP3    H139631   5.552   3.032   1.824
 6024TIP3    H239632   5.511   2.930   1.720
 6025TIP3   OH239633   5.622   1.646   1.848
 6025TIP3    H139634   5.645   1.553   1.855
 6025TIP3    H239635   5.622   1.663   1.754
 6026TIP3   OH239636   2.953   3.857   7.703
 6026TIP3    H139637   2.994   3.883   7.786
 6026TIP3    H239638   2.946   3.762   7.709
 6027TIP3   OH239639   0.260   2.452   8.780
 6027TIP3    H139640   0.345   2.491   8.761
 6027TIP3    H239641   0.238   2.404   8.700
 6028TIP3   OH239642   0.889   3.997   8.270
 6028TIP3    H139643   0.951   3.949   8.216
 6028TIP3    H239644   0.804   3.978   8.233
 6029TIP3   OH239645   1.976   6.022   8.468
 6029TIP3    H139646   1.950   5.952   8.407
 6029TIP3    H239647   1.992   5.976   8.551
 6030TIP3   OH239648   3.657   2.021   1.202
 6030TIP3    H139649   3.633   2.085   1.270
 6030TIP3    H239650   3.753   2.022   1.202
 6031TIP3   OH239651   2.862   3.100   1.724
 6031TIP3    H139652   2.926   3.082   1.793
 6031TIP3    H239653   2.904   3.165   1.668
 6032TIP3   OH239654   3.202   4.799   2.602
 6032TIP3    H139655   3.207   4.729   2.537
 6032TIP3    H239656   3.260   4.867   2.568
 6033TIP3   OH239657   5.924   2.779   6.565
 6033TIP3    H139658   6.012   2.810   6.586
 6033TIP3    H239659   5.906   2.817   6.478
 6034TIP3   OH239660   2.173   2.056   1.129
 6034TIP3    H139661   2.227   2.076   1.205
 6034TIP3    H239662   2.188   2.129   1.069
 6035TIP3   OH239663   1.321   4.291   8.810
 6035TIP3    H139664   1.350   4.285   8.719
 6035TIP3    H239665   1.235   4.331   8.805
 6036TIP3   OH239666   5.099   1.152   2.317
 6036TIP3    H139667   5.159   1.077   2.310
 6036TIP3    H239668   5.012   1.112   2.321
 6037TIP3   OH239669   3.715   6.215   0.896
 6037TIP3    H139670   3.786   6.251   0.950
 6037TIP3    H239671   3.643   6.278   0.905
 6038TIP3   OH239672   2.280   4.149   1.201
 6038TIP3    H139673   2.275   4.216   1.133
 6038TIP3    H239674   2.373   4.136   1.216
 6039TIP3   OH239675   5.184   2.994   7.644
 6039TIP3    H139676   5.117   2.934   7.678
 6039TIP3    H239677   5.234   2.942   7.581
 6040TIP3   OH239678   6.323   3.849   0.434
 6040TIP3    H139679   6.237   3.810   0.450
 6040TIP3    H239680   6.305   3.942   0.421
 6041TIP3   OH239681   4.579   0.453   8.178
 6041TIP3    H139682   4.492   0.431   8.142
 6041TIP3    H239683   4.640   0.406   8.121
 6042TIP3   OH239684   1.266   6.102   1.374
 6042TIP3    H139685   1.264   6.163   1.301
 6042TIP3    H239686   1.252   6.016   1.334
 6043TIP3   OH239687   1.101   0.848   7.838
 6043TIP3    H139688   1.021   0.839   7.889
 6043TIP3    H239689   1.140   0.760   7.840
 6044TIP3   OH239690   6.096   2.578   1.838
 6044TIP3    H139691   6.141   2.631   1.903
 6044TIP3    H239692   6.167   2.534   1.790
 6045TIP3   OH239693   0.751   2.403   6.483
 6045TIP3    H139694   0.659   2.401   6.511
 6045TIP3    H239695   0.794   2.460   6.547
 6046TIP3   OH239696   3.862   5.605   1.653
 6046TIP3    H139697   3.905   5.606   1.738
 6046TIP3    H239698   3.906   5.534   1.605
 6047TIP3   OH239699   3.327   0.389   7.857
 6047TIP3    H139700   3.233   0.376   7.866
 6047TIP3    H239701   3.361   0.303   7.834
 6048TIP3   OH239702   6.316   5.700   7.326
 6048TIP3    H139703   6.263   5.661   7.396
 6048TIP3    H239704   6.376   5.759   7.372
 6049TIP3   OH239705   6.531   3.996   7.624
 6049TIP3    H139706   6.539   3.943   7.703
 6049TIP3    H239707   6.608   3.974   7.572
 6050TIP3   OH239708   0.017   3.904   8.801
 6050TIP3    H139709   6.734   3.891   8.745
 6050TIP3    H239710   0.086   3.852   8.760
 6051TIP3   OH239711   3.400   1.180   7.064
 6051TIP3    H139712   3.436   1.250   7.119
 6051TIP3    H239713   3.460   1.176   6.990
 6052TIP3   OH239714   2.985   6.018   0.344
 6052TIP3    H139715   3.042   5.948   0.313
 6052TIP3    H239716   2.897   5.981   0.339
 6053TIP3   OH239717   6.229   0.459   0.883
 6053TIP3    H139718   6.190   0.543   0.909
 6053TIP3    H239719   6.323   0.473   0.892
 6054TIP3   OH239720   4.835   0.758   7.056
 6054TIP3    H139721   4.789   0.840   7.037
 6054TIP3    H239722   4.786   0.719   7.129
 6055TIP3   OH239723   5.636   2.687   2.322
 6055TIP3    H139724   5.603   2.598   2.305
 6055TIP3    H239725   5.731   2.679   2.320
 6056TIP3   OH239726   5.949   5.391   6.397
 6056TIP3    H139727   6.034   5.432   6.386
 6056TIP3    H239728   5.957   5.306   6.355
 6057TIP3   OH239729   1.202   2.949   0.018
 6057TIP3    H139730   1.235   3.000   8.813
 6057TIP3    H239731   1.195   3.012   0.090
 6058TIP3   OH239732   1.554   4.988   1.382
 6058TIP3    H139733   1.593   4.995   1.295
 6058TIP3    H239734   1.624   5.010   1.442
 6059TIP3   OH239735   0.910   2.696   0.250
 6059TIP3    H139736   0.924   2.627   0.186
 6059TIP3    H239737   0.851   2.758   0.207
 6060TIP3   OH239738   3.249   5.235   2.242
 6060TIP3    H139739   3.312   5.180   2.195
 6060TIP3    H239740   3.209   5.177   2.306
 6061TIP3   OH239741   4.737   3.967   7.449
 6061TIP3    H139742   4.684   3.888   7.457
 6061TIP3    H239743   4.675   4.034   7.418
 6062TIP3   OH239744   4.985   0.886   7.913
 6062TIP3    H139745   5.025   0.814   7.865
 6062TIP3    H239746   4.891   0.871   7.907
 6063TIP3   OH239747   0.526   5.975   7.986
 6063TIP3    H139748   0.609   6.004   8.024
 6063TIP3    H239749   0.551   5.911   7.920
 6064TIP3   OH239750   2.493   6.568   6.316
 6064TIP3    H139751   2.437   6.644   6.335
 6064TIP3    H239752   2.443   6.493   6.345
 6065TIP3   OH239753   0.628   3.337   7.392
 6065TIP3    H139754   0.635   3.242   7.396
 6065TIP3    H239755   0.540   3.353   7.357
 6066TIP3   OH239756   4.326   2.980   0.213
 6066TIP3    H139757   4.385   3.031   0.157
 6066TIP3    H239758   4.380   2.954   0.287
 6067TIP3   OH239759   4.171   5.235   8.483
 6067TIP3    H139760   4.265   5.217   8.492
 6067TIP3    H239761   4.165   5.329   8.468
 6068TIP3   OH239762   2.924   6.261   7.398
 6068TIP3    H139763   3.016   6.234   7.388
 6068TIP3    H239764   2.899   6.293   7.312
 6069TIP3   OH239765   2.877   0.266   8.823
 6069TIP3    H139766   2.911   0.323   0.023
 6069TIP3    H239767   2.853   0.185   8.868
 6070TIP3   OH239768   6.711   1.042   1.997
 6070TIP3    H139769   6.702   1.107   2.067
 6070TIP3    H239770   6.641   0.979   2.015
 6071TIP3   OH239771   3.110   1.833   1.563
 6071TIP3    H139772   3.021   1.868   1.566
 6071TIP3    H239773   3.159   1.895   1.508
 6072TIP3   OH239774   5.871   4.185   6.785
 6072TIP3    H139775   5.965   4.202   6.792
 6072TIP3    H239776   5.860   4.097   6.820
 6073TIP3   OH239777   1.017   0.373   8.180
 6073TIP3    H139778   1.077   0.317   8.229
 6073TIP3    H239779   0.941   0.317   8.162
 6074TIP3   OH239780   5.776   0.899   0.821
 6074TIP3    H139781   5.729   0.834   0.873
 6074TIP3    H239782   5.714   0.926   0.754
 6075TIP3   OH239783   5.510   5.425   8.027
 6075TIP3    H139784   5.499   5.339   7.987
 6075TIP3    H239785   5.513   5.407   8.121
 6076TIP3   OH239786   2.077   2.600   8.206
 6076TIP3    H139787   2.113   2.596   8.294
 6076TIP3    H239788   2.144   2.645   8.154
 6077TIP3   OH239789   0.819   4.125   7.990
 6077TIP3    H139790   0.898   4.072   8.003
 6077TIP3    H239791   0.769   4.077   7.924
 6078TIP3   OH239792   4.284   6.101   1.860
 6078TIP3    H139793   4.226   6.124   1.788
 6078TIP3    H239794   4.314   6.185   1.894
 6079TIP3   OH239795   2.240   1.183   0.438
 6079TIP3    H139796   2.192   1.210   0.360
 6079TIP3    H239797   2.332   1.196   0.415
 6080TIP3   OH239798   0.192   5.676   7.263
 6080TIP3    H139799   0.109   5.629   7.274
 6080TIP3    H239800   0.205   5.722   7.346
 6081TIP3   OH239801   1.254   5.471   8.819
 6081TIP3    H139802   1.266   5.541   0.014
 6081TIP3    H239803   1.338   5.425   8.818
 6082TIP3   OH239804   5.284   2.067   0.208
 6082TIP3    H139805   5.232   2.125   0.152
 6082TIP3    H239806   5.369   2.110   0.213
 6083TIP3   OH239807   3.265   3.626   2.558
 6083TIP3    H139808   3.236   3.699   2.612
 6083TIP3    H239809   3.360   3.626   2.569
 6084TIP3   OH239810   5.613   5.411   8.290
 6084TIP3    H139811   5.687   5.372   8.338
 6084TIP3    H239812   5.607   5.500   8.324
 6085TIP3   OH239813   3.392   0.012   8.248
 6085TIP3    H139814   3.345   6.738   8.298
 6085TIP3    H239815   3.409   0.082   8.311
 6086TIP3   OH239816   0.663   4.077   1.515
 6086TIP3    H139817   0.657   4.149   1.577
 6086TIP3    H239818   0.644   4.116   1.430
 6087TIP3   OH239819   0.574   1.960   8.306
 6087TIP3    H139820   0.647   2.019   8.325
 6087TIP3    H239821   0.535   1.995   8.226
 6088TIP3   OH239822   1.880   3.986   1.324
 6088TIP3    H139823   1.968   3.991   1.361
 6088TIP3    H239824   1.890   4.011   1.233
 6089TIP3   OH239825   2.043   0.695   1.747
 6089TIP3    H139826   2.123   0.744   1.767
 6089TIP3    H239827   2.074   0.614   1.707
 6090TIP3   OH239828   1.093   5.287   1.293
 6090TIP3    H139829   1.020   5.247   1.246
 6090TIP3    H239830   1.107   5.230   1.368
 6091TIP3   OH239831   6.608   3.307   0.371
 6091TIP3    H139832   6.613   3.280   0.279
 6091TIP3    H239833   6.515   3.318   0.388
 6092TIP3   OH239834   6.263   4.896   7.266
 6092TIP3    H139835   6.298   4.838   7.199
 6092TIP3    H239836   6.172   4.913   7.238
 6093TIP3   OH239837   3.999   5.349   1.592
 6093TIP3    H139838   4.088   5.343   1.627
 6093TIP3    H239839   4.005   5.308   1.505
 6094TIP3   OH239840   5.977   1.657   0.599
 6094TIP3    H139841   6.040   1.717   0.639
 6094TIP3    H239842   5.997   1.660   0.505
 6095TIP3   OH239843   3.309   5.695   1.655
 6095TIP3    H139844   3.226   5.736   1.680
 6095TIP3    H239845   3.376   5.753   1.691
 6096TIP3   OH239846   0.961   0.210   6.842
 6096TIP3    H139847   0.910   0.278   6.886
 6096TIP3    H239848   0.898   0.139   6.826
 6097TIP3   OH239849   6.383   4.750   6.570
 6097TIP3    H139850   6.423   4.834   6.548
 6097TIP3    H239851   6.290   4.762   6.553
 6098TIP3   OH239852   0.876   4.137   6.970
 6098TIP3    H139853   0.949   4.077   6.956
 6098TIP3    H239854   0.887   4.206   6.904
 6099TIP3   OH239855   5.208   5.077   7.406
 6099TIP3    H139856   5.202   5.017   7.331
 6099TIP3    H239857   5.143   5.045   7.468
 6100TIP3   OH239858   4.411   0.196   1.886
 6100TIP3    H139859   4.364   0.139   1.947
 6100TIP3    H239860   4.458   0.135   1.828
 6101TIP3   OH239861   2.570   3.074   8.825
 6101TIP3    H139862   2.480   3.106   8.818
 6101TIP3    H239863   2.561   2.978   8.821
 6102TIP3   OH239864   1.211   4.601   6.688
 6102TIP3    H139865   1.121   4.575   6.706
 6102TIP3    H239866   1.203   4.685   6.642
 6103TIP3   OH239867   0.698   3.593   0.554
 6103TIP3    H139868   0.711   3.608   0.648
 6103TIP3    H239869   0.654   3.672   0.523
 6104TIP3   OH239870   6.241   2.793   7.595
 6104TIP3    H139871   6.296   2.832   7.663
 6104TIP3    H239872   6.157   2.778   7.638
 6105TIP3   OH239873   3.932   6.320   8.628
 6105TIP3    H139874   4.004   6.292   8.684
 6105TIP3    H239875   3.971   6.328   8.541
 6106TIP3   OH239876   2.189   4.440   0.994
 6106TIP3    H139877   2.224   4.487   1.070
 6106TIP3    H239878   2.102   4.410   1.022
 6107TIP3   OH239879   0.600   3.589   1.379
 6107TIP3    H139880   0.564   3.619   1.295
 6107TIP3    H239881   0.529   3.539   1.419
 6108TIP3   OH239882   2.265   5.264   8.858
 6108TIP3    H139883   2.262   5.222   0.076
 6108TIP3    H239884   2.263   5.358   0.009
 6109TIP3   OH239885   2.698   1.061   7.119
 6109TIP3    H139886   2.718   0.973   7.086
 6109TIP3    H239887   2.603   1.068   7.110
 6110TIP3   OH239888   3.736   5.463   7.551
 6110TIP3    H139889   3.797   5.517   7.602
 6110TIP3    H239890   3.792   5.398   7.508
 6111TIP3   OH239891   6.080   4.961   7.821
 6111TIP3    H139892   6.050   4.929   7.906
 6111TIP3    H239893   6.155   4.906   7.800
 6112TIP3   OH239894   4.565   2.536   7.338
 6112TIP3    H139895   4.535   2.481   7.265
 6112TIP3    H239896   4.492   2.535   7.400
 6113TIP3   OH239897   0.014   5.737   0.528
 6113TIP3    H139898   6.791   5.798   0.456
 6113TIP3    H239899   0.109   5.739   0.541
 6114TIP3   OH239900   2.830   2.668   8.289
 6114TIP3    H139901   2.825   2.591   8.233
 6114TIP3    H239902   2.740   2.681   8.321
 6115TIP3   OH239903   3.234   1.852   8.754
 6115TIP3    H139904   3.164   1.806   8.800
 6115TIP3    H239905   3.312   1.800   8.772
 6116TIP3   OH239906   0.395   4.009   0.361
 6116TIP3    H139907   0.311   3.999   0.407
 6116TIP3    H239908   0.405   4.103   0.350
 6117TIP3   OH239909   4.872   1.840   6.663
 6117TIP3    H139910   4.958   1.872   6.689
 6117TIP3    H239911   4.885   1.748   6.642
 6118TIP3   OH239912   0.030   4.590   1.671
 6118TIP3    H139913   0.029   4.650   1.745
 6118TIP3    H239914   0.109   4.612   1.622
 6119TIP3   OH239915   2.407   4.479   0.208
 6119TIP3    H139916   2.439   4.565   0.233
 6119TIP3    H239917   2.469   4.449   0.141
 6120TIP3   OH239918   1.002   4.151   6.397
 6120TIP3    H139919   0.928   4.164   6.457
 6120TIP3    H239920   1.079   4.177   6.448
 6121TIP3   OH239921   3.481   3.561   2.048
 6121TIP3    H139922   3.573   3.585   2.045
 6121TIP3    H239923   3.461   3.552   2.141
 6122TIP3   OH239924   5.250   6.402   7.199
 6122TIP3    H139925   5.329   6.395   7.254
 6122TIP3    H239926   5.276   6.365   7.115
 6123TIP3   OH239927   1.724   3.892   7.932
 6123TIP3    H139928   1.793   3.957   7.941
 6123TIP3    H239929   1.762   3.823   7.877
 6124TIP3   OH239930   4.659   6.403   8.109
 6124TIP3    H139931   4.697   6.471   8.165
 6124TIP3    H239932   4.730   6.378   8.050
 6125TIP3   OH239933   3.358   2.035   8.576
 6125TIP3    H139934   3.322   1.978   8.644
 6125TIP3    H239935   3.443   1.996   8.555
 6126TIP3   OH239936   6.291   6.704   1.637
 6126TIP3    H139937   6.330   6.627   1.596
 6126TIP3    H239938   6.236   6.742   1.569
 6127TIP3   OH239939   5.463   5.178   0.231
 6127TIP3    H139940   5.415   5.157   0.151
 6127TIP3    H239941   5.428   5.263   0.259
 6128TIP3   OH239942   2.710   5.654   0.124
 6128TIP3    H139943   2.633   5.690   0.082
 6128TIP3    H239944   2.781   5.714   0.101
 6129TIP3   OH239945   3.932   2.570   1.648
 6129TIP3    H139946   3.948   2.504   1.715
 6129TIP3    H239947   3.897   2.522   1.573
 6130TIP3   OH239948   0.385   1.024   8.260
 6130TIP3    H139949   0.464   1.020   8.314
 6130TIP3    H239950   0.355   1.114   8.269
 6131TIP3   OH239951   6.092   3.522   1.180
 6131TIP3    H139952   6.034   3.537   1.255
 6131TIP3    H239953   6.080   3.600   1.125
 6132TIP3   OH239954   2.213   3.529   7.692
 6132TIP3    H139955   2.170   3.593   7.635
 6132TIP3    H239956   2.166   3.447   7.675
 6133TIP3   OH239957   5.763   5.111   0.643
 6133TIP3    H139958   5.695   5.044   0.632
 6133TIP3    H239959   5.718   5.194   0.625
 6134TIP3   OH239960   3.264   5.708   8.594
 6134TIP3    H139961   3.213   5.750   8.664
 6134TIP3    H239962   3.349   5.690   8.634
 6135TIP3   OH239963   4.726   4.179   0.022
 6135TIP3    H139964   4.680   4.095   0.016
 6135TIP3    H239965   4.727   4.199   0.116
 6136TIP3   OH239966   1.130   5.163   1.541
 6136TIP3    H139967   1.106   5.130   1.628
 6136TIP3    H239968   1.223   5.184   1.549
 6137TIP3   OH239969   5.156   3.754   1.807
 6137TIP3    H139970   5.097   3.765   1.881
 6137TIP3    H239971   5.242   3.741   1.847
 6138TIP3   OH239972   4.405   0.424   6.776
 6138TIP3    H139973   4.342   0.360   6.807
 6138TIP3    H239974   4.482   0.410   6.831
 6139TIP3   OH239975   5.845   3.201   0.798
 6139TIP3    H139976   5.794   3.221   0.719
 6139TIP3    H239977   5.785   3.218   0.870
 6140TIP3   OH239978   2.492   2.916   1.803
 6140TIP3    H139979   2.422   2.903   1.738
 6140TIP3    H239980   2.573   2.909   1.752
 6141TIP3   OH239981   3.562   5.501   2.450
 6141TIP3    H139982   3.584   5.530   2.539
 6141TIP3    H239983   3.472   5.531   2.436
 6142TIP3   OH239984   0.015   4.349   6.545
 6142TIP3    H139985   0.063   4.304   6.475
 6142TIP3    H239986   0.084   4.388   6.599
 6143TIP3   OH239987   4.751   3.820   6.614
 6143TIP3    H139988   4.711   3.733   6.602
 6143TIP3    H239989   4.843   3.807   6.591
 6144TIP3   OH239990   6.111   6.404   0.818
 6144TIP3    H139991   6.050   6.331   0.806
 6144TIP3    H239992   6.170   6.400   0.743
 6145TIP3   OH239993   0.673   4.242   7.620
 6145TIP3    H139994   0.584   4.215   7.600
 6145TIP3    H239995   0.691   4.202   7.706
 6146TIP3   OH239996   0.337   6.780   8.158
 6146TIP3    H139997   0.358   0.046   8.086
 6146TIP3    H239998   0.420   6.735   8.177
 6147TIP3   OH239999   1.632   2.243   6.395
 6147TIP3    H140000   1.569   2.171   6.402
 6147TIP3    H240001   1.682   2.239   6.477
 6148TIP3   OH240002   4.978   5.789   7.891
 6148TIP3    H140003   4.958   5.760   7.802
 6148TIP3    H240004   5.074   5.791   7.895
 6149TIP3   OH240005   3.320   1.032   1.480
 6149TIP3    H140006   3.408   1.027   1.443
 6149TIP3    H240007   3.298   1.125   1.477
 6150TIP3   OH240008   6.090   1.420   8.349
 6150TIP3    H140009   6.104   1.371   8.430
 6150TIP3    H240010   6.145   1.498   8.359
 6151TIP3   OH240011   2.846   0.366   8.572
 6151TIP3    H140012   2.880   0.322   8.650
 6151TIP3    H240013   2.758   0.330   8.561
 6152TIP3   OH240014   3.297   2.031   2.318
 6152TIP3    H140015   3.249   2.047   2.399
 6152TIP3    H240016   3.389   2.040   2.342
 6153TIP3   OH240017   2.927   2.938   2.632
 6153TIP3    H140018   2.997   2.876   2.614
 6153TIP3    H240019   2.854   2.883   2.661
 6154TIP3   OH240020   4.679   6.610   7.800
 6154TIP3    H140021   4.701   6.566   7.882
 6154TIP3    H240022   4.610   6.556   7.761
 6155TIP3   OH240023   1.334   4.933   7.583
 6155TIP3    H140024   1.405   4.887   7.626
 6155TIP3    H240025   1.378   4.991   7.520
 6156TIP3   OH240026   2.928   2.035   8.090
 6156TIP3    H140027   2.878   1.982   8.028
 6156TIP3    H240028   2.949   1.975   8.161
 6157TIP3   OH240029   4.802   0.645   8.728
 6157TIP3    H140030   4.792   0.577   8.661
 6157TIP3    H240031   4.721   0.696   8.722
 6158TIP3   OH240032   0.900   6.688   0.317
 6158TIP3    H140033   0.912   6.630   0.392
 6158TIP3    H240034   0.948   6.646   0.246
 6159TIP3   OH240035   4.964   0.393   1.097
 6159TIP3    H140036   5.011   0.321   1.056
 6159TIP3    H240037   5.032   0.451   1.130
 6160TIP3   OH240038   0.012   4.921   8.829
 6160TIP3    H140039   0.073   4.848   8.837
 6160TIP3    H240040   6.718   4.881   8.839
 6161TIP3   OH240041   6.087   1.970   6.695
 6161TIP3    H140042   6.132   1.919   6.762
 6161TIP3    H240043   6.152   2.035   6.666
 6162TIP3   OH240044   6.147   6.650   1.376
 6162TIP3    H140045   6.061   6.686   1.397
 6162TIP3    H240046   6.197   6.724   1.342
 6163TIP3   OH240047   2.119   4.221   7.051
 6163TIP3    H140048   2.097   4.233   7.143
 6163TIP3    H240049   2.050   4.266   7.003
 6164TIP3   OH240050   1.209   2.268   8.276
 6164TIP3    H140051   1.282   2.216   8.241
 6164TIP3    H240052   1.181   2.322   8.202
 6165TIP3   OH240053   3.455   4.692   7.890
 6165TIP3    H140054   3.464   4.620   7.828
 6165TIP3    H240055   3.446   4.770   7.834
 6166TIP3   OH240056   4.208   0.994   7.915
 6166TIP3    H140057   4.215   1.066   7.978
 6166TIP3    H240058   4.229   1.034   7.831
 6167TIP3   OH240059   0.191   3.282   0.723
 6167TIP3    H140060   0.101   3.269   0.691
 6167TIP3    H240061   0.226   3.352   0.668
 6168TIP3   OH240062   3.465   6.032   0.768
 6168TIP3    H140063   3.551   6.071   0.753
 6168TIP3    H240064   3.437   6.002   0.681
 6169TIP3   OH240065   2.851   3.225   2.831
 6169TIP3    H140066   2.816   3.137   2.844
 6169TIP3    H240067   2.893   3.222   2.745
 6170TIP3   OH240068   4.724   0.743   2.167
 6170TIP3    H140069   4.737   0.825   2.119
 6170TIP3    H240070   4.642   0.757   2.215
 6171TIP3   OH240071   3.274   1.977   2.064
 6171TIP3    H140072   3.285   2.024   2.146
 6171TIP3    H240073   3.204   2.024   2.018
 6172TIP3   OH240074   1.168   0.149   0.188
 6172TIP3    H140075   1.234   0.079   0.180
 6172TIP3    H240076   1.100   0.111   0.243
 6173TIP3   OH240077   4.662   5.262   0.709
 6173TIP3    H140078   4.688   5.193   0.648
 6173TIP3    H240079   4.721   5.252   0.784
 6174TIP3   OH240080   5.986   4.567   7.543
 6174TIP3    H140081   5.922   4.630   7.574
 6174TIP3    H240082   5.935   4.502   7.495
 6175TIP3   OH240083   4.304   2.541   2.138
 6175TIP3    H140084   4.280   2.508   2.051
 6175TIP3    H240085   4.255   2.484   2.198
 6176TIP3   OH240086   4.656   6.003   6.865
 6176TIP3    H140087   4.638   5.921   6.818
 6176TIP3    H240088   4.714   6.051   6.806
 6177TIP3   OH240089   0.827   1.411   0.796
 6177TIP3    H140090   0.737   1.379   0.799
 6177TIP3    H240091   0.866   1.365   0.722
 6178TIP3   OH240092   2.109   2.859   8.060
 6178TIP3    H140093   2.043   2.925   8.042
 6178TIP3    H240094   2.193   2.904   8.051
 6179TIP3   OH240095   2.219   6.495   8.385
 6179TIP3    H140096   2.215   6.548   8.306
 6179TIP3    H240097   2.289   6.535   8.437
 6180TIP3   OH240098   5.797   5.317   1.542
 6180TIP3    H140099   5.835   5.229   1.533
 6180TIP3    H240100   5.868   5.376   1.517
 6181TIP3   OH240101   5.930   6.678   7.492
 6181TIP3    H140102   6.009   6.627   7.505
 6181TIP3    H240103   5.956   6.769   7.509
 6182TIP3   OH240104   1.567   0.470   1.042
 6182TIP3    H140105   1.634   0.417   0.997
 6182TIP3    H240106   1.606   0.490   1.127
 6183TIP3   OH240107   5.991   5.055   8.288
 6183TIP3    H140108   6.048   5.014   8.353
 6183TIP3    H240109   5.919   5.091   8.339
 6184TIP3   OH240110   0.456   3.447   0.164
 6184TIP3    H140111   0.449   3.475   0.073
 6184TIP3    H240112   0.388   3.495   0.210
 6185TIP3   OH240113   6.693   5.020   2.046
 6185TIP3    H140114   6.771   5.057   2.088
 6185TIP3    H240115   6.641   4.985   2.119
 6186TIP3   OH240116   6.074   0.273   0.724
 6186TIP3    H140117   6.013   0.317   0.665
 6186TIP3    H240118   6.136   0.341   0.750
 6187TIP3   OH240119   6.038   3.734   1.691
 6187TIP3    H140120   6.044   3.665   1.757
 6187TIP3    H240121   6.075   3.811   1.734
 6188TIP3   OH240122   4.996   6.207   0.492
 6188TIP3    H140123   4.934   6.265   0.535
 6188TIP3    H240124   5.076   6.260   0.483
 6189TIP3   OH240125   1.936   1.587   0.875
 6189TIP3    H140126   1.868   1.523   0.897
 6189TIP3    H240127   2.008   1.568   0.936
 6190TIP3   OH240128   3.412   0.781   8.142
 6190TIP3    H140129   3.357   0.737   8.078
 6190TIP3    H240130   3.382   0.872   8.141
 6191TIP3   OH240131   3.129   2.253   1.554
 6191TIP3    H140132   3.146   2.186   1.487
 6191TIP3    H240133   3.161   2.214   1.635
 6192TIP3   OH240134   1.485   4.693   8.834
 6192TIP3    H140135   1.544   4.654   0.029
 6192TIP3    H240136   1.400   4.695   0.009
 6193TIP3   OH240137   4.175   5.164   1.788
 6193TIP3    H140138   4.098   5.109   1.781
 6193TIP3    H240139   4.213   5.143   1.873
 6194TIP3   OH240140   3.280   6.231   1.515
 6194TIP3    H140141   3.302   6.251   1.424
 6194TIP3    H240142   3.311   6.307   1.564
 6195TIP3   OH240143   5.550   1.994   1.467
 6195TIP3    H140144   5.461   2.031   1.469
 6195TIP3    H240145   5.598   2.050   1.407
 6196TIP3   OH240146   6.508   5.125   7.271
 6196TIP3    H140147   6.564   5.103   7.197
 6196TIP3    H240148   6.446   5.052   7.277
 6197TIP3   OH240149   6.365   2.968   0.162
 6197TIP3    H140150   6.431   3.034   0.181
 6197TIP3    H240151   6.350   2.924   0.246
 6198TIP3   OH240152   3.239   1.460   8.814
 6198TIP3    H140153   3.154   1.497   8.792
 6198TIP3    H240154   3.226   1.421   0.033
 6199TIP3   OH240155   5.789   0.272   0.490
 6199TIP3    H140156   5.863   0.328   0.468
 6199TIP3    H240157   5.715   0.332   0.498
 6200TIP3   OH240158   0.202   1.940   7.570
 6200TIP3    H140159   0.192   2.005   7.500
 6200TIP3    H240160   0.225   1.859   7.525
 6201TIP3   OH240161   0.049   4.982   1.171
 6201TIP3    H140162   6.748   4.970   1.157
 6201TIP3    H240163   0.078   4.901   1.211
 6202TIP3   OH240164   2.156   5.048   8.344
 6202TIP3    H140165   2.147   5.016   8.254
 6202TIP3    H240166   2.106   5.129   8.346
 6203TIP3   OH240167   4.602   4.208   0.797
 6203TIP3    H140168   4.527   4.224   0.854
 6203TIP3    H240169   4.675   4.193   0.857
 6204TIP3   OH240170   2.680   5.887   2.194
 6204TIP3    H140171   2.638   5.802   2.183
 6204TIP3    H240172   2.774   5.868   2.188
 6205TIP3   OH240173   3.386   6.382   7.850
 6205TIP3    H140174   3.293   6.364   7.865
 6205TIP3    H240175   3.422   6.298   7.821
 6206TIP3   OH240176   5.944   0.277   0.961
 6206TIP3    H140177   5.996   0.257   0.883
 6206TIP3    H240178   5.907   0.364   0.943
 6207TIP3   OH240179   2.760   3.440   8.011
 6207TIP3    H140180   2.729   3.352   8.034
 6207TIP3    H240181   2.774   3.482   8.096
 6208TIP3   OH240182   4.807   2.116   0.938
 6208TIP3    H140183   4.853   2.098   0.856
 6208TIP3    H240184   4.739   2.178   0.913
 6209TIP3   OH240185   5.862   1.631   1.507
 6209TIP3    H140186   5.860   1.635   1.411
 6209TIP3    H240187   5.771   1.639   1.533
 6210TIP3   OH240188   5.087   4.033   6.999
 6210TIP3    H140189   5.178   4.005   7.000
 6210TIP3    H240190   5.037   3.953   6.982
 6211TIP3   OH240191   5.987   0.233   1.329
 6211TIP3    H140192   6.006   0.211   1.238
 6211TIP3    H240193   6.072   0.230   1.373
 6212TIP3   OH240194   2.120   3.365   8.459
 6212TIP3    H140195   2.104   3.346   8.551
 6212TIP3    H240196   2.177   3.294   8.429
 6213TIP3   OH240197   3.003   1.404   8.052
 6213TIP3    H140198   3.022   1.464   8.125
 6213TIP3    H240199   3.034   1.450   7.975
 6214TIP3   OH240200   0.882   6.497   1.398
 6214TIP3    H140201   0.885   6.402   1.382
 6214TIP3    H240202   0.917   6.508   1.487
 6215TIP3   OH240203   0.049   1.681   7.291
 6215TIP3    H140204   0.046   1.760   7.345
 6215TIP3    H240205   0.029   1.711   7.202
 6216TIP3   OH240206   6.650   3.580   7.133
 6216TIP3    H140207   6.632   3.673   7.145
 6216TIP3    H240208   6.694   3.554   7.214
 6217TIP3   OH240209   6.354   5.904   1.279
 6217TIP3    H140210   6.310   5.976   1.233
 6217TIP3    H240211   6.422   5.947   1.331
 6218TIP3   OH240212   1.652   2.744   8.051
 6218TIP3    H140213   1.620   2.669   8.002
 6218TIP3    H240214   1.687   2.707   8.132
 6219TIP3   OH240215   0.992   0.728   7.262
 6219TIP3    H140216   1.000   0.702   7.354
 6219TIP3    H240217   1.064   0.683   7.218
 6220TIP3   OH240218   1.169   6.237   8.626
 6220TIP3    H140219   1.219   6.303   8.674
 6220TIP3    H240220   1.192   6.252   8.534
 6221TIP3   OH240221   2.305   1.053   1.153
 6221TIP3    H140222   2.400   1.040   1.146
 6221TIP3    H240223   2.292   1.077   1.245
 6222TIP3   OH240224   1.773   3.600   5.991
 6222TIP3    H140225   1.695   3.611   5.937
 6222TIP3    H240226   1.770   3.508   6.018
 6223TIP3   OH240227   2.679   2.817   0.215
 6223TIP3    H140228   2.604   2.757   0.221
 6223TIP3    H240229   2.652   2.884   0.153
 6224TIP3   OH240230   0.566   1.614   6.965
 6224TIP3    H140231   0.644   1.630   6.913
 6224TIP3    H240232   0.596   1.557   7.036
 6225TIP3   OH240233   2.925   2.180   8.499
 6225TIP3    H140234   2.990   2.225   8.553
 6225TIP3    H240235   2.974   2.111   8.456
 6226TIP3   OH240236   5.036   4.387   0.757
 6226TIP3    H140237   4.969   4.446   0.725
 6226TIP3    H240238   5.068   4.342   0.678
 6227TIP3   OH240239   5.260   5.157   1.177
 6227TIP3    H140240   5.249   5.174   1.271
 6227TIP3    H240241   5.355   5.152   1.165
 6228TIP3   OH240242   3.184   4.675   2.136
 6228TIP3    H140243   3.237   4.747   2.170
 6228TIP3    H240244   3.149   4.707   2.053
 6229TIP3   OH240245   3.523   2.804   1.545
 6229TIP3    H140246   3.559   2.874   1.600
 6229TIP3    H240247   3.483   2.849   1.471
 6230TIP3   OH240248   4.326   3.371   7.187
 6230TIP3    H140249   4.294   3.281   7.198
 6230TIP3    H240250   4.418   3.367   7.214
 6231TIP3   OH240251   4.905   6.429   6.823
 6231TIP3    H140252   4.974   6.461   6.765
 6231TIP3    H240253   4.831   6.411   6.765
 6232TIP3   OH240254   1.193   0.397   1.768
 6232TIP3    H140255   1.106   0.401   1.729
 6232TIP3    H240256   1.248   0.359   1.699
 6233TIP3   OH240257   0.310   3.890   8.655
 6233TIP3    H140258   0.340   3.978   8.679
 6233TIP3    H240259   0.319   3.887   8.560
 6234TIP3   OH240260   2.947   5.133   0.220
 6234TIP3    H140261   3.039   5.158   0.229
 6234TIP3    H240262   2.933   5.126   0.126
 6235TIP3   OH240263   3.844   2.108   0.442
 6235TIP3    H140264   3.773   2.053   0.474
 6235TIP3    H240265   3.802   2.190   0.415
 6236TIP3   OH240266   1.956   6.552   8.722
 6236TIP3    H140267   1.942   6.527   8.631
 6236TIP3    H240268   2.044   6.588   8.724
 6237TIP3   OH240269   1.782   5.048   0.871
 6237TIP3    H140270   1.726   5.062   0.795
 6237TIP3    H240271   1.836   5.127   0.876
 6238TIP3   OH240272   1.191   5.045   7.182
 6238TIP3    H140273   1.155   4.974   7.130
 6238TIP3    H240274   1.157   5.125   7.141
 6239TIP3   OH240275   1.082   4.951   7.453
 6239TIP3    H140276   1.163   4.916   7.489
 6239TIP3    H240277   1.108   5.032   7.408
 6240TIP3   OH240278   1.245   4.318   1.188
 6240TIP3    H140279   1.322   4.367   1.160
 6240TIP3    H240280   1.277   4.228   1.202
 6241TIP3   OH240281   0.635   5.084   0.429
 6241TIP3    H140282   0.620   5.054   0.518
 6241TIP3    H240283   0.730   5.078   0.417
 6242TIP3   OH240284   1.336   1.200   7.740
 6242TIP3    H140285   1.422   1.242   7.746
 6242TIP3    H240286   1.322   1.163   7.827
 6243TIP3   OH240287   1.971   4.132   0.355
 6243TIP3    H140288   1.910   4.059   0.342
 6243TIP3    H240289   1.915   4.204   0.384
 6244TIP3   OH240290   5.397   0.661   7.470
 6244TIP3    H140291   5.441   0.590   7.518
 6244TIP3    H240292   5.363   0.618   7.392
 6245TIP3   OH240293   0.593   4.668   6.236
 6245TIP3    H140294   0.590   4.745   6.292
 6245TIP3    H240295   0.687   4.649   6.227
 6246TIP3   OH240296   1.675   5.809   1.253
 6246TIP3    H140297   1.609   5.777   1.314
 6246TIP3    H240298   1.635   5.886   1.213
 6247TIP3   OH240299   5.255   4.546   8.370
 6247TIP3    H140300   5.240   4.452   8.376
 6247TIP3    H240301   5.185   4.585   8.422
 6248TIP3   OH240302   4.380   4.970   7.403
 6248TIP3    H140303   4.445   4.992   7.470
 6248TIP3    H240304   4.389   5.039   7.337
 6249TIP3   OH240305   1.466   0.466   6.679
 6249TIP3    H140306   1.428   0.475   6.766
 6249TIP3    H240307   1.491   0.374   6.673
 6250TIP3   OH240308   5.255   2.552   7.320
 6250TIP3    H140309   5.251   2.483   7.386
 6250TIP3    H240310   5.175   2.603   7.334
 6251TIP3   OH240311   6.383   5.921   7.038
 6251TIP3    H140312   6.288   5.926   7.026
 6251TIP3    H240313   6.395   5.846   7.097
 6252TIP3   OH240314   1.444   6.156   8.060
 6252TIP3    H140315   1.489   6.187   8.138
 6252TIP3    H240316   1.355   6.192   8.067
 6253TIP3   OH240317   3.058   4.709   6.358
 6253TIP3    H140318   3.037   4.634   6.412
 6253TIP3    H240319   3.004   4.698   6.279
 6254TIP3   OH240320   6.420   0.076   0.728
 6254TIP3    H140321   6.349   0.107   0.672
 6254TIP3    H240322   6.492   0.058   0.668
 6255TIP3   OH240323   2.989   4.693   1.119
 6255TIP3    H140324   2.949   4.766   1.167
 6255TIP3    H240325   3.034   4.643   1.186
 6256TIP3   OH240326   5.009   0.021   7.969
 6256TIP3    H140327   5.086   0.059   8.011
 6256TIP3    H240328   5.021   6.719   7.979
 6257TIP3   OH240329   5.311   4.932   7.069
 6257TIP3    H140330   5.320   5.015   7.022
 6257TIP3    H240331   5.297   4.958   7.160
 6258TIP3   OH240332   6.164   2.707   0.474
 6258TIP3    H140333   6.184   2.621   0.436
 6258TIP3    H240334   6.205   2.705   0.560
 6259TIP3   OH240335   5.798   3.405   8.149
 6259TIP3    H140336   5.766   3.416   8.059
 6259TIP3    H240337   5.875   3.461   8.155
 6260TIP3   OH240338   3.281   0.171   2.368
 6260TIP3    H140339   3.203   0.123   2.337
 6260TIP3    H240340   3.280   0.252   2.319
 6261TIP3   OH240341   1.250   6.712   8.328
 6261TIP3    H140342   1.326   6.769   8.339
 6261TIP3    H240343   1.285   6.624   8.337
 6262TIP3   OH240344   4.271   1.586   7.912
 6262TIP3    H140345   4.177   1.583   7.930
 6262TIP3    H240346   4.311   1.582   7.999
 6263TIP3   OH240347   1.984   0.132   0.436
 6263TIP3    H140348   1.976   0.077   0.358
 6263TIP3    H240349   1.958   0.075   0.508
 6264TIP3   OH240350   2.901   6.001   7.753
 6264TIP3    H140351   2.859   5.995   7.839
 6264TIP3    H240352   2.837   6.044   7.697
 6265TIP3   OH240353   1.331   6.027   0.008
 6265TIP3    H140354   1.258   5.976   0.042
 6265TIP3    H240355   1.322   6.113   0.051
 6266TIP3   OH240356   0.003   6.752   0.378
 6266TIP3    H140357   0.001   6.703   0.296
 6266TIP3    H240358   0.087   0.005   0.376
 6267TIP3   OH240359   4.121   0.537   7.433
 6267TIP3    H140360   4.100   0.469   7.369
 6267TIP3    H240361   4.214   0.555   7.418
 6268TIP3   OH240362   5.674   6.518   2.787
 6268TIP3    H140363   5.579   6.531   2.783
 6268TIP3    H240364   5.710   6.607   2.777
 6269TIP3   OH240365   4.794   1.581   1.761
 6269TIP3    H140366   4.760   1.632   1.835
 6269TIP3    H240367   4.866   1.530   1.798
 6270TIP3   OH240368   4.354   5.196   2.324
 6270TIP3    H140369   4.377   5.108   2.295
 6270TIP3    H240370   4.436   5.234   2.356
 6271TIP3   OH240371   5.019   5.621   0.007
 6271TIP3    H140372   4.944   5.577   0.048
 6271TIP3    H240373   5.068   5.657   0.080
 6272TIP3   OH240374   2.289   2.699   1.818
 6272TIP3    H140375   2.251   2.707   1.905
 6272TIP3    H240376   2.287   2.788   1.782
 6273TIP3   OH240377   0.624   2.771   1.752
 6273TIP3    H140378   0.586   2.726   1.676
 6273TIP3    H240379   0.634   2.702   1.817
 6274TIP3   OH240380   3.536   3.859   0.829
 6274TIP3    H140381   3.560   3.809   0.751
 6274TIP3    H240382   3.449   3.825   0.853
 6275TIP3   OH240383   5.156   3.445   8.361
 6275TIP3    H140384   5.248   3.467   8.351
 6275TIP3    H240385   5.125   3.426   8.272
 6276TIP3   OH240386   5.655   2.996   1.943
 6276TIP3    H140387   5.655   3.081   1.987
 6276TIP3    H240388   5.691   2.935   2.007
 6277TIP3   OH240389   4.425   0.102   7.013
 6277TIP3    H140390   4.476   0.179   6.990
 6277TIP3    H240391   4.488   0.030   7.014
 6278TIP3   OH240392   6.485   5.683   1.979
 6278TIP3    H140393   6.506   5.751   2.042
 6278TIP3    H240394   6.413   5.720   1.927
 6279TIP3   OH240395   0.407   6.035   7.727
 6279TIP3    H140396   0.378   5.969   7.664
 6279TIP3    H240397   0.427   5.984   7.806
 6280TIP3   OH240398   5.462   4.422   1.261
 6280TIP3    H140399   5.409   4.376   1.325
 6280TIP3    H240400   5.553   4.401   1.284
 6281TIP3   OH240401   0.042   2.201   8.231
 6281TIP3    H140402   6.786   2.222   8.152
 6281TIP3    H240403   6.771   2.210   8.302
 6282TIP3   OH240404   5.794   4.737   7.642
 6282TIP3    H140405   5.815   4.760   7.732
 6282TIP3    H240406   5.740   4.810   7.610
 6283TIP3   OH240407   4.953   4.847   1.132
 6283TIP3    H140408   5.027   4.810   1.083
 6283TIP3    H240409   4.949   4.794   1.212
 6284TIP3   OH240410   4.032   5.639   1.872
 6284TIP3    H140411   4.090   5.715   1.878
 6284TIP3    H240412   4.082   5.567   1.911
 6285TIP3   OH240413   3.436   5.005   8.417
 6285TIP3    H140414   3.518   4.958   8.398
 6285TIP3    H240415   3.367   4.945   8.388
 6286TIP3   OH240416   2.807   5.171   2.277
 6286TIP3    H140417   2.814   5.172   2.181
 6286TIP3    H240418   2.719   5.136   2.293
 6287TIP3   OH240419   0.989   4.903   0.904
 6287TIP3    H140420   1.035   4.838   0.850
 6287TIP3    H240421   1.054   4.929   0.970
 6288TIP3   OH240422   2.884   2.103   1.504
 6288TIP3    H140423   2.867   2.017   1.542
 6288TIP3    H240424   2.799   2.147   1.505
 6289TIP3   OH240425   0.623   3.321   6.992
 6289TIP3    H140426   0.719   3.316   6.990
 6289TIP3    H240427   0.597   3.252   7.053
 6290TIP3   OH240428   5.013   4.766   0.716
 6290TIP3    H140429   4.948   4.832   0.739
 6290TIP3    H240430   4.963   4.685   0.709
 6291TIP3   OH240431   0.669   0.519   1.769
 6291TIP3    H140432   0.684   0.491   1.860
 6291TIP3    H240433   0.665   0.437   1.720
 6292TIP3   OH240434   0.384   1.491   8.167
 6292TIP3    H140435   0.330   1.555   8.119
 6292TIP3    H240436   0.472   1.528   8.166
 6293TIP3   OH240437   5.173   6.165   7.340
 6293TIP3    H140438   5.226   6.134   7.266
 6293TIP3    H240439   5.161   6.258   7.323
 6294TIP3   OH240440   2.519   6.271   0.254
 6294TIP3    H140441   2.471   6.189   0.270
 6294TIP3    H240442   2.457   6.326   0.205
 6295TIP3   OH240443   5.549   2.836   7.066
 6295TIP3    H140444   5.526   2.843   6.973
 6295TIP3    H240445   5.471   2.867   7.112
 6296TIP3   OH240446   3.151   5.660   2.076
 6296TIP3    H140447   3.201   5.716   2.016
 6296TIP3    H240448   3.215   5.634   2.142
 6297TIP3   OH240449   4.847   1.311   6.904
 6297TIP3    H140450   4.931   1.323   6.860
 6297TIP3    H240451   4.794   1.385   6.875
 6298TIP3   OH240452   2.194   5.157   0.247
 6298TIP3    H140453   2.170   5.065   0.260
 6298TIP3    H240454   2.154   5.203   0.321
 6299TIP3   OH240455   2.840   5.905   6.732
 6299TIP3    H140456   2.902   5.977   6.725
 6299TIP3    H240457   2.762   5.945   6.770
 6300TIP3   OH240458   4.818   0.177   7.340
 6300TIP3    H140459   4.790   0.223   7.261
 6300TIP3    H240460   4.737   0.150   7.382
 6301TIP3   OH240461   1.570   2.314   1.578
 6301TIP3    H140462   1.575   2.319   1.674
 6301TIP3    H240463   1.575   2.220   1.560
 6302TIP3   OH240464   4.645   6.597   0.635
 6302TIP3    H140465   4.664   6.641   0.552
 6302TIP3    H240466   4.655   6.665   0.702
 6303TIP3   OH240467   0.175   2.825   1.311
 6303TIP3    H140468   0.096   2.808   1.363
 6303TIP3    H240469   0.197   2.740   1.272
 6304TIP3   OH240470   4.837   3.534   6.663
 6304TIP3    H140471   4.752   3.534   6.620
 6304TIP3    H240472   4.890   3.474   6.610
 6305TIP3   OH240473   2.180   4.477   8.863
 6305TIP3    H140474   2.239   4.500   8.792
 6305TIP3    H240475   2.233   4.485   0.074
 6306TIP3   OH240476   3.759   0.683   1.001
 6306TIP3    H140477   3.728   0.625   1.071
 6306TIP3    H240478   3.756   0.629   0.922
 6307TIP3   OH240479   6.353   6.065   2.474
 6307TIP3    H140480   6.296   5.990   2.458
 6307TIP3    H240481   6.315   6.109   2.550
 6308TIP3   OH240482   3.385   2.520   8.792
 6308TIP3    H140483   3.447   2.529   8.864
 6308TIP3    H240484   3.324   2.452   8.821
 6309TIP3   OH240485   0.019   2.170   0.257
 6309TIP3    H140486   0.026   2.080   0.225
 6309TIP3    H240487   6.731   2.171   0.308
 6310TIP3   OH240488   5.460   3.204   8.102
 6310TIP3    H140489   5.480   3.113   8.123
 6310TIP3    H240490   5.531   3.255   8.142
 6311TIP3   OH240491   6.653   5.992   0.979
 6311TIP3    H140492   6.731   5.983   0.923
 6311TIP3    H240493   6.581   5.961   0.923
 6312TIP3   OH240494   1.756   1.827   8.263
 6312TIP3    H140495   1.724   1.737   8.266
 6312TIP3    H240496   1.678   1.880   8.247
 6313TIP3   OH240497   1.005   1.849   6.786
 6313TIP3    H140498   1.039   1.841   6.697
 6313TIP3    H240499   1.081   1.874   6.839
 6314TIP3   OH240500   1.471   0.092   8.308
 6314TIP3    H140501   1.529   0.087   8.232
 6314TIP3    H240502   1.523   0.133   8.376
 6315TIP3   OH240503   0.539   1.028   0.496
 6315TIP3    H140504   0.498   1.094   0.439
 6315TIP3    H240505   0.507   0.945   0.462
 6316TIP3   OH240506   5.655   0.166   1.369
 6316TIP3    H140507   5.580   0.211   1.330
 6316TIP3    H240508   5.731   0.206   1.326
 6317TIP3   OH240509   1.478   5.393   0.044
 6317TIP3    H140510   1.569   5.413   0.020
 6317TIP3    H240511   1.483   5.367   0.136
 6318TIP3   OH240512   6.417   1.281   1.289
 6318TIP3    H140513   6.368   1.362   1.275
 6318TIP3    H240514   6.504   1.309   1.319
 6319TIP3   OH240515   6.015   4.424   0.015
 6319TIP3    H140516   6.062   4.399   8.803
 6319TIP3    H240517   5.925   4.395   0.001
 6320TIP3   OH240518   3.681   0.186   8.189
 6320TIP3    H140519   3.711   0.225   8.270
 6320TIP3    H240520   3.756   0.134   8.158
 6321TIP3   OH240521   1.079   0.377   7.703
 6321TIP3    H140522   0.989   0.363   7.733
 6321TIP3    H240523   1.072   0.385   7.608
 6322TIP3   OH240524   3.745   4.232   1.543
 6322TIP3    H140525   3.833   4.266   1.529
 6322TIP3    H240526   3.716   4.206   1.455
 6323TIP3   OH240527   1.767   1.398   0.919
 6323TIP3    H140528   1.830   1.327   0.914
 6323TIP3    H240529   1.722   1.383   1.003
 6324TIP3   OH240530   6.202   2.091   8.133
 6324TIP3    H140531   6.190   2.078   8.039
 6324TIP3    H240532   6.149   2.023   8.175
 6325TIP3   OH240533   4.442   6.247   8.107
 6325TIP3    H140534   4.507   6.316   8.119
 6325TIP3    H240535   4.475   6.194   8.034
 6326TIP3   OH240536   6.692   0.454   1.982
 6326TIP3    H140537   6.711   0.441   1.889
 6326TIP3    H240538   6.759   0.403   2.028
 6327TIP3   OH240539   3.501   0.553   0.798
 6327TIP3    H140540   3.449   0.477   0.771
 6327TIP3    H240541   3.467   0.576   0.884
 6328TIP3   OH240542   4.013   1.927   7.659
 6328TIP3    H140543   4.021   2.009   7.610
 6328TIP3    H240544   3.994   1.861   7.592
 6329TIP3   OH240545   0.254   1.614   7.962
 6329TIP3    H140546   0.187   1.626   7.895
 6329TIP3    H240547   0.324   1.565   7.918
 6330TIP3   OH240548   5.931   1.866   7.739
 6330TIP3    H140549   5.965   1.791   7.786
 6330TIP3    H240550   5.980   1.867   7.656
 6331TIP3   OH240551   1.850   5.007   7.703
 6331TIP3    H140552   1.811   4.974   7.784
 6331TIP3    H240553   1.871   4.929   7.653
 6332TIP3   OH240554   0.843   2.757   1.064
 6332TIP3    H140555   0.849   2.821   1.135
 6332TIP3    H240556   0.754   2.721   1.072
 6333TIP3   OH240557   6.217   5.494   0.075
 6333TIP3    H140558   6.296   5.479   0.127
 6333TIP3    H240559   6.249   5.533   8.862
 6334TIP3   OH240560   4.423   1.386   1.377
 6334TIP3    H140561   4.353   1.445   1.406
 6334TIP3    H240562   4.378   1.304   1.354
 6335TIP3   OH240563   3.175   0.171   0.086
 6335TIP3    H140564   3.172   0.235   0.015
 6335TIP3    H240565   3.268   0.149   0.094
 6336TIP3   OH240566   1.968   4.589   8.727
 6336TIP3    H140567   2.040   4.555   8.781
 6336TIP3    H240568   1.952   4.677   8.761
 6337TIP3   OH240569   1.962   4.796   6.578
 6337TIP3    H140570   1.991   4.804   6.487
 6337TIP3    H240571   2.000   4.713   6.608
 6338TIP3   OH240572   1.437   3.788   1.526
 6338TIP3    H140573   1.448   3.803   1.620
 6338TIP3    H240574   1.526   3.773   1.494
 6339TIP3   OH240575   2.527   6.306   1.889
 6339TIP3    H140576   2.482   6.375   1.938
 6339TIP3    H240577   2.457   6.249   1.859
 6340TIP3   OH240578   3.298   1.876   8.226
 6340TIP3    H140579   3.389   1.905   8.229
 6340TIP3    H240580   3.299   1.799   8.169
 6341TIP3   OH240581   3.537   5.076   0.633
 6341TIP3    H140582   3.500   5.061   0.546
 6341TIP3    H240583   3.501   5.160   0.660
 6342TIP3   OH240584   0.314   6.274   7.148
 6342TIP3    H140585   0.288   6.187   7.177
 6342TIP3    H240586   0.338   6.262   7.056
 6343TIP3   OH240587   4.206   6.592   0.623
 6343TIP3    H140588   4.283   6.542   0.651
 6343TIP3    H240589   4.194   6.568   0.531
 6344TIP3   OH240590   5.470   0.267   1.186
 6344TIP3    H140591   5.432   0.304   1.106
 6344TIP3    H240592   5.413   0.297   1.256
 6345TIP3   OH240593   3.990   6.610   8.852
 6345TIP3    H140594   4.036   6.688   0.014
 6345TIP3    H240595   3.931   6.643   8.784
 6346TIP3   OH240596   2.951   0.016   1.544
 6346TIP3    H140597   2.867   0.022   1.498
 6346TIP3    H240598   3.016   0.018   1.475
 6347TIP3   OH240599   3.536   6.536   0.683
 6347TIP3    H140600   3.448   6.514   0.653
 6347TIP3    H240601   3.542   6.495   0.769
 6348TIP3   OH240602   5.785   0.490   0.821
 6348TIP3    H140603   5.702   0.534   0.840
 6348TIP3    H240604   5.761   0.397   0.814
 6349TIP3   OH240605   1.407   4.291   8.544
 6349TIP3    H140606   1.418   4.362   8.480
 6349TIP3    H240607   1.402   4.212   8.491
 6350TIP3   OH240608   1.159   1.121   7.944
 6350TIP3    H140609   1.154   1.154   8.034
 6350TIP3    H240610   1.146   1.026   7.953
 6351TIP3   OH240611   3.519   2.858   7.822
 6351TIP3    H140612   3.602   2.906   7.812
 6351TIP3    H240613   3.506   2.851   7.916
 6352TIP3   OH240614   6.396   3.522   7.051
 6352TIP3    H140615   6.380   3.615   7.036
 6352TIP3    H240616   6.479   3.518   7.097
 6353TIP3   OH240617   5.090   2.048   8.396
 6353TIP3    H140618   5.144   2.101   8.337
 6353TIP3    H240619   5.024   2.008   8.340
 6354TIP3   OH240620   3.016   0.070   2.323
 6354TIP3    H140621   2.921   0.057   2.324
 6354TIP3    H240622   3.049   0.005   2.385
 6355TIP3   OH240623   2.622   4.011   6.558
 6355TIP3    H140624   2.625   3.957   6.637
 6355TIP3    H240625   2.532   4.042   6.553
 6356TIP3   OH240626   5.205   6.375   8.239
 6356TIP3    H140627   5.235   6.298   8.286
 6356TIP3    H240628   5.111   6.362   8.228
 6357TIP3   OH240629   5.400   0.853   0.849
 6357TIP3    H140630   5.424   0.946   0.849
 6357TIP3    H240631   5.305   0.853   0.837
 6358TIP3   OH240632   1.015   3.628   0.803
 6358TIP3    H140633   0.931   3.589   0.827
 6358TIP3    H240634   1.001   3.662   0.715
 6359TIP3   OH240635   2.482   1.354   1.108
 6359TIP3    H140636   2.395   1.328   1.137
 6359TIP3    H240637   2.512   1.416   1.175
 6360TIP3   OH240638   0.685   0.109   0.817
 6360TIP3    H140639   0.697   0.181   0.878
 6360TIP3    H240640   0.744   0.041   0.848
 6361TIP3   OH240641   1.487   5.795   7.139
 6361TIP3    H140642   1.496   5.795   7.044
 6361TIP3    H240643   1.566   5.840   7.171
 6362TIP3   OH240644   0.085   1.355   7.380
 6362TIP3    H140645   6.784   1.364   7.396
 6362TIP3    H240646   0.103   1.418   7.310
 6363TIP3   OH240647   3.192   3.490   0.436
 6363TIP3    H140648   3.259   3.489   0.505
 6363TIP3    H240649   3.227   3.552   0.371
 6364TIP3   OH240650   4.828   6.613   8.199
 6364TIP3    H140651   4.878   6.533   8.182
 6364TIP3    H240652   4.891   6.672   8.240
 6365TIP3   OH240653   1.482   3.316   2.041
 6365TIP3    H140654   1.464   3.228   2.074
 6365TIP3    H240655   1.397   3.350   2.016
 6366TIP3   OH240656   6.376   4.493   0.191
 6366TIP3    H140657   6.462   4.452   0.201
 6366TIP3    H240658   6.360   4.494   0.097
 6367TIP3   OH240659   1.333   2.031   1.470
 6367TIP3    H140660   1.284   2.013   1.550
 6367TIP3    H240661   1.417   2.065   1.501
 6368TIP3   OH240662   5.344   1.046   8.074
 6368TIP3    H140663   5.263   1.089   8.101
 6368TIP3    H240664   5.404   1.059   8.148
 6369TIP3   OH240665   6.087   2.016   0.329
 6369TIP3    H140666   6.103   2.002   0.236
 6369TIP3    H240667   6.075   2.111   0.337
 6370TIP3   OH240668   0.340   0.381   7.295
 6370TIP3    H140669   0.370   0.295   7.266
 6370TIP3    H240670   0.317   0.368   7.387
 6371TIP3   OH240671   4.749   2.357   8.348
 6371TIP3    H140672   4.745   2.262   8.342
 6371TIP3    H240673   4.735   2.376   8.441
 6372TIP3   OH240674   5.296   1.926   7.158
 6372TIP3    H140675   5.214   1.952   7.199
 6372TIP3    H240676   5.278   1.930   7.064
 6373TIP3   OH240677   5.396   3.319   8.653
 6373TIP3    H140678   5.471   3.260   8.655
 6373TIP3    H240679   5.346   3.297   8.732
 6374TIP3   OH240680   1.542   1.700   6.877
 6374TIP3    H140681   1.576   1.769   6.819
 6374TIP3    H240682   1.583   1.717   6.961
 6375TIP3   OH240683   0.557   6.501   6.929
 6375TIP3    H140684   0.576   6.576   6.985
 6375TIP3    H240685   0.480   6.460   6.968
 6376TIP3   OH240686   4.062   2.014   6.826
 6376TIP3    H140687   4.015   1.938   6.789
 6376TIP3    H240688   3.993   2.067   6.866
 6377TIP3   OH240689   3.708   1.596   8.621
 6377TIP3    H140690   3.800   1.580   8.602
 6377TIP3    H240691   3.684   1.525   8.682
 6378TIP3   OH240692   4.679   1.966   0.530
 6378TIP3    H140693   4.612   1.942   0.466
 6378TIP3    H240694   4.749   1.902   0.517
 6379TIP3   OH240695   1.037   5.700   6.303
 6379TIP3    H140696   1.028   5.605   6.292
 6379TIP3    H240697   1.124   5.720   6.268
 6380TIP3   OH240698   6.406   0.597   7.619
 6380TIP3    H140699   6.315   0.616   7.643
 6380TIP3    H240700   6.401   0.570   7.527
 6381TIP3   OH240701   4.487   3.829   2.042
 6381TIP3    H140702   4.582   3.822   2.045
 6381TIP3    H240703   4.470   3.923   2.033
 6382TIP3   OH240704   5.559   6.572   2.028
 6382TIP3    H140705   5.551   6.659   2.066
 6382TIP3    H240706   5.554   6.587   1.933
 6383TIP3   OH240707   3.388   3.305   6.775
 6383TIP3    H140708   3.483   3.299   6.765
 6383TIP3    H240709   3.371   3.395   6.801
 6384TIP3   OH240710   1.003   4.209   1.299
 6384TIP3    H140711   1.072   4.274   1.301
 6384TIP3    H240712   1.043   4.132   1.259
 6385TIP3   OH240713   2.680   0.706   6.439
 6385TIP3    H140714   2.664   0.768   6.368
 6385TIP3    H240715   2.594   0.667   6.456
 6386TIP3   OH240716   6.168   1.152   7.788
 6386TIP3    H140717   6.226   1.174   7.862
 6386TIP3    H240718   6.132   1.236   7.761
 6387TIP3   OH240719   0.030   6.680   2.178
 6387TIP3    H140720   0.125   6.697   2.174
 6387TIP3    H240721   0.013   6.621   2.104
 6388TIP3   OH240722   4.474   4.861   0.875
 6388TIP3    H140723   4.445   4.904   0.956
 6388TIP3    H240724   4.488   4.770   0.901
 6389TIP3   OH240725   4.788   2.682   1.168
 6389TIP3    H140726   4.719   2.745   1.148
 6389TIP3    H240727   4.800   2.688   1.262
 6390TIP3   OH240728   0.709   4.204   8.220
 6390TIP3    H140729   0.728   4.159   8.138
 6390TIP3    H240730   0.760   4.156   8.286
 6391TIP3   OH240731   5.355   3.166   0.429
 6391TIP3    H140732   5.415   3.118   0.372
 6391TIP3    H240733   5.411   3.209   0.494
 6392TIP3   OH240734   2.235   6.201   8.313
 6392TIP3    H140735   2.272   6.284   8.345
 6392TIP3    H240736   2.162   6.228   8.258
 6393TIP3   OH240737   5.706   3.406   8.762
 6393TIP3    H140738   5.738   3.364   8.842
 6393TIP3    H240739   5.626   3.451   8.788
 6394TIP3   OH240740   1.313   0.711   7.101
 6394TIP3    H140741   1.306   0.803   7.127
 6394TIP3    H240742   1.364   0.670   7.171
 6395TIP3   OH240743   6.388   3.802   8.033
 6395TIP3    H140744   6.300   3.812   7.996
 6395TIP3    H240745   6.383   3.719   8.081
 6396TIP3   OH240746   0.109   6.091   8.790
 6396TIP3    H140747   0.139   6.000   8.785
 6396TIP3    H240748   0.142   6.123   0.005
 6397TIP3   OH240749   1.337   6.061   1.715
 6397TIP3    H140750   1.242   6.072   1.715
 6397TIP3    H240751   1.367   6.114   1.788
 6398TIP3   OH240752   6.779   1.576   8.708
 6398TIP3    H140753   6.768   1.565   8.802
 6398TIP3    H240754   6.756   1.668   8.692
 6399TIP3   OH240755   3.983   3.700   7.421
 6399TIP3    H140756   3.995   3.782   7.373
 6399TIP3    H240757   3.898   3.709   7.463
 6400TIP3   OH240758   5.079   2.400   7.938
 6400TIP3    H140759   5.095   2.446   7.856
 6400TIP3    H240760   5.036   2.464   7.994
 6401TIP3   OH240761   0.724   2.875   0.155
 6401TIP3    H140762   0.787   2.928   0.106
 6401TIP3    H240763   0.647   2.870   0.098
 6402TIP3   OH240764   4.541   3.713   0.599
 6402TIP3    H140765   4.529   3.806   0.622
 6402TIP3    H240766   4.628   3.692   0.633
 6403TIP3   OH240767   4.974   1.702   8.131
 6403TIP3    H140768   4.897   1.718   8.185
 6403TIP3    H240769   4.965   1.611   8.103
 6404TIP3   OH240770   1.506   0.153   1.397
 6404TIP3    H140771   1.452   0.194   1.330
 6404TIP3    H240772   1.482   0.197   1.479
 6405TIP3   OH240773   3.854   4.866   6.460
 6405TIP3    H140774   3.897   4.928   6.402
 6405TIP3    H240775   3.920   4.844   6.526
 6406TIP3   OH240776   1.582   4.335   2.427
 6406TIP3    H140777   1.669   4.368   2.404
 6406TIP3    H240778   1.521   4.394   2.382
 6407TIP3   OH240779   3.442   2.741   1.833
 6407TIP3    H140780   3.387   2.671   1.868
 6407TIP3    H240781   3.440   2.727   1.738
 6408TIP3   OH240782   5.224   1.959   1.929
 6408TIP3    H140783   5.168   2.010   1.987
 6408TIP3    H240784   5.222   1.870   1.964
 6409TIP3   OH240785   1.066   1.886   8.572
 6409TIP3    H140786   1.127   1.888   8.498
 6409TIP3    H240787   1.119   1.857   8.646
 6410TIP3   OH240788   2.836   0.087   2.085
 6410TIP3    H140789   2.908   0.041   2.041
 6410TIP3    H240790   2.879   0.162   2.127
 6411TIP3   OH240791   4.818   2.493   6.710
 6411TIP3    H140792   4.764   2.418   6.736
 6411TIP3    H240793   4.775   2.569   6.749
 6412TIP3   OH240794   5.694   2.320   7.714
 6412TIP3    H140795   5.751   2.374   7.659
 6412TIP3    H240796   5.607   2.356   7.701
 6413TIP3   OH240797   2.653   5.175   8.833
 6413TIP3    H140798   2.718   5.134   0.022
 6413TIP3    H240799   2.644   5.264   8.867
 6414TIP3   OH240800   4.429   2.310   0.425
 6414TIP3    H140801   4.422   2.216   0.409
 6414TIP3    H240802   4.394   2.322   0.513
 6415TIP3   OH240803   3.752   1.423   0.867
 6415TIP3    H140804   3.798   1.375   0.936
 6415TIP3    H240805   3.687   1.476   0.914
 6416TIP3   OH240806   5.289   5.780   6.694
 6416TIP3    H140807   5.268   5.693   6.660
 6416TIP3    H240808   5.256   5.841   6.628
 6417TIP3   OH240809   1.966   5.108   1.325
 6417TIP3    H140810   2.055   5.114   1.292
 6417TIP3    H240811   1.960   5.020   1.363
 6418TIP3   OH240812   3.758   1.607   8.107
 6418TIP3    H140813   3.842   1.648   8.128
 6418TIP3    H240814   3.723   1.660   8.035
 6419TIP3   OH240815   2.869   5.372   0.908
 6419TIP3    H140816   2.952   5.417   0.922
 6419TIP3    H240817   2.890   5.279   0.920
 6420TIP3   OH240818   3.303   6.505   0.435
 6420TIP3    H140819   3.231   6.539   0.489
 6420TIP3    H240820   3.304   6.411   0.454
 6421TIP3   OH240821   5.681   1.870   2.015
 6421TIP3    H140822   5.665   1.798   1.953
 6421TIP3    H240823   5.713   1.942   1.960
 6422TIP3   OH240824   2.781   4.210   8.531
 6422TIP3    H140825   2.861   4.233   8.484
 6422TIP3    H240826   2.756   4.125   8.496
 6423TIP3   OH240827   4.172   1.409   0.045
 6423TIP3    H140828   4.249   1.397   0.101
 6423TIP3    H240829   4.131   1.489   0.076
 6424TIP3   OH240830   1.948   1.469   0.612
 6424TIP3    H140831   1.930   1.379   0.639
 6424TIP3    H240832   1.940   1.520   0.693
 6425TIP3   OH240833   6.633   5.540   1.400
 6425TIP3    H140834   6.659   5.471   1.461
 6425TIP3    H240835   6.700   5.539   1.332
 6426TIP3   OH240836   6.194   6.094   1.219
 6426TIP3    H140837   6.159   6.130   1.301
 6426TIP3    H240838   6.201   6.170   1.161
 6427TIP3   OH240839   6.650   4.206   0.019
 6427TIP3    H140840   6.628   4.257   8.810
 6427TIP3    H240841   6.571   4.209   0.073
 6428TIP3   OH240842   4.999   5.153   1.132
 6428TIP3    H140843   5.081   5.133   1.178
 6428TIP3    H240844   4.957   5.068   1.119
 6429TIP3   OH240845   5.410   1.488   0.756
 6429TIP3    H140846   5.457   1.559   0.799
 6429TIP3    H240847   5.318   1.507   0.769
 6430TIP3   OH240848   1.041   2.357   8.051
 6430TIP3    H140849   1.001   2.437   8.018
 6430TIP3    H240850   1.029   2.293   7.981
 6431TIP3   OH240851   4.941   5.726   0.539
 6431TIP3    H140852   4.914   5.803   0.489
 6431TIP3    H240853   5.024   5.699   0.499
 6432TIP3   OH240854   2.125   1.785   7.944
 6432TIP3    H140855   2.034   1.779   7.973
 6432TIP3    H240856   2.176   1.790   8.025
 6433TIP3   OH240857   3.552   1.546   0.413
 6433TIP3    H140858   3.476   1.553   0.471
 6433TIP3    H240859   3.609   1.482   0.456
 6434TIP3   OH240860   3.262   0.241   1.146
 6434TIP3    H140861   3.339   0.205   1.102
 6434TIP3    H240862   3.296   0.278   1.227
 6435TIP3   OH240863   2.666   3.855   6.774
 6435TIP3    H140864   2.678   3.760   6.776
 6435TIP3    H240865   2.578   3.869   6.809
 6436TIP3   OH240866   4.607   4.857   0.330
 6436TIP3    H140867   4.577   4.780   0.281
 6436TIP3    H240868   4.585   4.838   0.421
 6437TIP3   OH240869   4.025   4.569   1.285
 6437TIP3    H140870   4.107   4.531   1.315
 6437TIP3    H240871   3.982   4.599   1.365
 6438TIP3   OH240872   3.834   5.811   6.860
 6438TIP3    H140873   3.809   5.722   6.837
 6438TIP3    H240874   3.917   5.802   6.905
 6439TIP3   OH240875   5.764   5.464   7.076
 6439TIP3    H140876   5.707   5.483   7.002
 6439TIP3    H240877   5.845   5.512   7.057
 6440TIP3   OH240878   1.144   4.317   0.942
 6440TIP3    H140879   1.073   4.259   0.970
 6440TIP3    H240880   1.197   4.329   1.021
 6441TIP3   OH240881   4.769   1.290   2.617
 6441TIP3    H140882   4.721   1.263   2.539
 6441TIP3    H240883   4.859   1.300   2.587
 6442TIP3   OH240884   3.176   2.101   7.368
 6442TIP3    H140885   3.254   2.082   7.316
 6442TIP3    H240886   3.105   2.106   7.304
 6443TIP3   OH240887   3.959   0.914   7.367
 6443TIP3    H140888   4.016   0.960   7.307
 6443TIP3    H240889   3.921   0.983   7.422
 6444TIP3   OH240890   1.143   2.302   1.429
 6444TIP3    H140891   1.111   2.264   1.347
 6444TIP3    H240892   1.239   2.295   1.424
 6445TIP3   OH240893   6.372   4.194   0.059
 6445TIP3    H140894   6.371   4.193   0.154
 6445TIP3    H240895   6.347   4.105   0.033
 6446TIP3   OH240896   1.468   5.640   8.672
 6446TIP3    H140897   1.394   5.581   8.659
 6446TIP3    H240898   1.486   5.677   8.586
 6447TIP3   OH240899   3.608   0.891   1.088
 6447TIP3    H140900   3.662   0.819   1.054
 6447TIP3    H240901   3.518   0.859   1.079
 6448TIP3   OH240902   3.581   1.082   2.415
 6448TIP3    H140903   3.649   1.138   2.379
 6448TIP3    H240904   3.514   1.079   2.347
 6449TIP3   OH240905   3.327   4.590   0.241
 6449TIP3    H140906   3.421   4.576   0.246
 6449TIP3    H240907   3.297   4.586   0.332
 6450TIP3   OH240908   5.269   2.735   0.621
 6450TIP3    H140909   5.235   2.802   0.562
 6450TIP3    H240910   5.204   2.665   0.618
 6451TIP3   OH240911   1.343   2.588   1.703
 6451TIP3    H140912   1.397   2.587   1.625
 6451TIP3    H240913   1.261   2.546   1.676
 6452TIP3   OH240914   3.229   6.665   8.433
 6452TIP3    H140915   3.281   6.699   8.506
 6452TIP3    H240916   3.220   6.571   8.452
 6453TIP3   OH240917   2.714   6.574   7.233
 6453TIP3    H140918   2.729   6.579   7.327
 6453TIP3    H240919   2.624   6.541   7.225
 6454TIP3   OH240920   4.473   0.911   1.276
 6454TIP3    H140921   4.462   0.883   1.367
 6454TIP3    H240922   4.550   0.864   1.245
 6455TIP3   OH240923   0.173   0.868   7.350
 6455TIP3    H140924   0.203   0.942   7.402
 6455TIP3    H240925   0.115   0.819   7.409
 6456TIP3   OH240926   3.544   4.476   8.448
 6456TIP3    H140927   3.639   4.486   8.435
 6456TIP3    H240928   3.515   4.428   8.371
 6457TIP3   OH240929   0.623   1.524   0.465
 6457TIP3    H140930   0.674   1.446   0.484
 6457TIP3    H240931   0.532   1.493   0.463
 6458TIP3   OH240932   6.068   1.865   1.182
 6458TIP3    H140933   5.978   1.878   1.212
 6458TIP3    H240934   6.090   1.946   1.136
 6459TIP3   OH240935   2.111   4.040   7.403
 6459TIP3    H140936   2.071   4.087   7.476
 6459TIP3    H240937   2.203   4.064   7.407
 6460TIP3   OH240938   1.742   6.073   0.205
 6460TIP3    H140939   1.803   6.137   0.241
 6460TIP3    H240940   1.656   6.114   0.213
 6461TIP3   OH240941   5.510   4.378   8.537
 6461TIP3    H140942   5.571   4.320   8.492
 6461TIP3    H240943   5.451   4.318   8.584
 6462TIP3   OH240944   5.300   0.183   8.312
 6462TIP3    H140945   5.272   0.204   8.223
 6462TIP3    H240946   5.334   0.093   8.306
 6463TIP3   OH240947   5.564   4.851   7.776
 6463TIP3    H140948   5.549   4.764   7.815
 6463TIP3    H240949   5.610   4.900   7.844
 6464TIP3   OH240950   0.255   6.389   7.911
 6464TIP3    H140951   0.200   6.372   7.834
 6464TIP3    H240952   0.320   6.452   7.880
 6465TIP3   OH240953   2.156   3.672   8.433
 6465TIP3    H140954   2.111   3.590   8.414
 6465TIP3    H240955   2.171   3.669   8.528
 6466TIP3   OH240956   6.088   4.656   7.782
 6466TIP3    H140957   6.179   4.632   7.799
 6466TIP3    H240958   6.073   4.631   7.691
 6467TIP3   OH240959   3.438   0.401   8.285
 6467TIP3    H140960   3.466   0.322   8.330
 6467TIP3    H240961   3.489   0.471   8.326
 6468TIP3   OH240962   6.435   2.025   2.211
 6468TIP3    H140963   6.529   2.033   2.197
 6468TIP3    H240964   6.406   2.113   2.232
 6469TIP3   OH240965   5.856   3.230   1.080
 6469TIP3    H140966   5.920   3.297   1.106
 6469TIP3    H240967   5.797   3.223   1.154
 6470TIP3   OH240968   3.128   2.685   7.067
 6470TIP3    H140969   3.187   2.749   7.026
 6470TIP3    H240970   3.092   2.731   7.142
 6471TIP3   OH240971   1.025   2.461   7.334
 6471TIP3    H140972   0.940   2.503   7.351
 6471TIP3    H240973   1.014   2.419   7.249
 6472TIP3   OH240974   3.955   1.583   6.899
 6472TIP3    H140975   4.010   1.506   6.884
 6472TIP3    H240976   3.953   1.592   6.995
 6473TIP3   OH240977   5.394   6.536   2.802
 6473TIP3    H140978   5.382   6.593   2.878
 6473TIP3    H240979   5.338   6.575   2.734
 6474TIP3   OH240980   1.857   1.823   7.997
 6474TIP3    H140981   1.801   1.830   8.074
 6474TIP3    H240982   1.796   1.806   7.925
 6475TIP3   OH240983   4.817   3.290   7.558
 6475TIP3    H140984   4.839   3.328   7.473
 6475TIP3    H240985   4.744   3.231   7.539
 6476TIP3   OH240986   6.000   5.735   8.827
 6476TIP3    H140987   6.018   5.802   0.025
 6476TIP3    H240988   6.051   5.659   8.856
 6477TIP3   OH240989   5.273   3.792   8.141
 6477TIP3    H140990   5.303   3.742   8.065
 6477TIP3    H240991   5.352   3.810   8.191
 6478TIP3   OH240992   5.329   2.746   0.259
 6478TIP3    H140993   5.380   2.684   0.312
 6478TIP3    H240994   5.327   2.707   0.172
 6479TIP3   OH240995   6.015   3.670   7.709
 6479TIP3    H140996   6.040   3.579   7.690
 6479TIP3    H240997   5.929   3.680   7.668
 6480TIP3   OH240998   0.543   6.479   8.462
 6480TIP3    H140999   0.618   6.444   8.414
 6480TIP3    H241000   0.475   6.412   8.453
 6481TIP3   OH241001   5.571   0.519   1.739
 6481TIP3    H141002   5.480   0.546   1.727
 6481TIP3    H241003   5.568   0.453   1.808
 6482TIP3   OH241004   5.270   4.495   0.875
 6482TIP3    H141005   5.188   4.454   0.848
 6482TIP3    H241006   5.255   4.519   0.967
 6483TIP3   OH241007   5.520   1.486   7.722
 6483TIP3    H141008   5.604   1.442   7.708
 6483TIP3    H241009   5.524   1.564   7.666
 6484TIP3   OH241010   1.001   4.589   0.188
 6484TIP3    H141011   0.969   4.642   0.261
 6484TIP3    H241012   1.068   4.643   0.147
 6485TIP3   OH241013   0.058   1.058   8.340
 6485TIP3    H141014   0.010   1.140   8.331
 6485TIP3    H241015   0.103   1.066   8.424
 6486TIP3   OH241016   2.086   4.829   8.497
 6486TIP3    H141017   2.095   4.915   8.457
 6486TIP3    H241018   1.992   4.810   8.495
 6487TIP3   OH241019   1.808   3.297   8.813
 6487TIP3    H141020   1.854   3.281   0.027
 6487TIP3    H241021   1.742   3.228   8.808
 6488TIP3   OH241022   5.312   3.265   1.900
 6488TIP3    H141023   5.219   3.255   1.919
 6488TIP3    H241024   5.318   3.259   1.804
 6489TIP3   OH241025   0.084   3.104   1.031
 6489TIP3    H141026   6.789   3.090   0.997
 6489TIP3    H241027   0.071   3.140   1.118
 6490TIP3   OH241028   2.796   2.883   0.467
 6490TIP3    H141029   2.765   2.841   0.386
 6490TIP3    H241030   2.780   2.976   0.453
 6491TIP3   OH241031   6.790   4.437   8.433
 6491TIP3    H141032   0.025   4.396   8.351
 6491TIP3    H241033   6.723   4.378   8.467
 6492TIP3   OH241034   3.576   1.182   6.853
 6492TIP3    H141035   3.585   1.257   6.794
 6492TIP3    H241036   3.644   1.121   6.826
 6493TIP3   OH241037   3.585   0.061   7.452
 6493TIP3    H141038   3.582   6.759   7.449
 6493TIP3    H241039   3.677   0.083   7.435
 6494TIP3   OH241040   3.363   3.934   7.828
 6494TIP3    H141041   3.383   3.844   7.853
 6494TIP3    H241042   3.432   3.956   7.764
 6495TIP3   OH241043   2.910   6.531   1.247
 6495TIP3    H141044   2.884   6.610   1.198
 6495TIP3    H241045   2.973   6.487   1.190
 6496TIP3   OH241046   6.757   5.502   8.307
 6496TIP3    H141047   6.753   5.488   8.212
 6496TIP3    H241048   6.697   5.437   8.343
 6497TIP3   OH241049   4.785   0.634   0.908
 6497TIP3    H141050   4.854   0.679   0.957
 6497TIP3    H241051   4.820   0.546   0.893
 6498TIP3   OH241052   6.210   2.339   1.579
 6498TIP3    H141053   6.206   2.294   1.494
 6498TIP3    H241054   6.202   2.432   1.556
 6499TIP3   OH241055   3.728   5.563   2.239
 6499TIP3    H141056   3.797   5.498   2.224
 6499TIP3    H241057   3.682   5.531   2.317
 6500TIP3   OH241058   3.854   4.376   7.444
 6500TIP3    H141059   3.807   4.418   7.371
 6500TIP3    H241060   3.793   4.310   7.476
 6501TIP3   OH241061   1.918   5.230   2.298
 6501TIP3    H141062   1.824   5.243   2.308
 6501TIP3    H241063   1.934   5.238   2.204
 6502TIP3   OH241064   4.414   0.085   0.383
 6502TIP3    H141065   4.320   0.101   0.375
 6502TIP3    H241066   4.454   0.150   0.325
 6503TIP3   OH241067   4.793   4.586   0.696
 6503TIP3    H141068   4.739   4.597   0.774
 6503TIP3    H241069   4.746   4.523   0.642
 6504TIP3   OH241070   5.337   2.223   7.304
 6504TIP3    H141071   5.349   2.129   7.302
 6504TIP3    H241072   5.373   2.254   7.221
 6505TIP3   OH241073   3.151   2.829   7.369
 6505TIP3    H141074   3.056   2.820   7.375
 6505TIP3    H241075   3.167   2.921   7.390
 6506TIP3   OH241076   5.230   0.934   6.841
 6506TIP3    H141077   5.213   0.877   6.766
 6506TIP3    H241078   5.187   0.889   6.914
 6507TIP3   OH241079   6.202   1.057   2.138
 6507TIP3    H141080   6.235   1.088   2.054
 6507TIP3    H241081   6.108   1.044   2.124
 6508TIP3   OH241082   5.273   0.410   1.732
 6508TIP3    H141083   5.190   0.405   1.780
 6508TIP3    H241084   5.280   0.502   1.707
 6509TIP3   OH241085   1.083   0.652   1.560
 6509TIP3    H141086   1.152   0.592   1.534
 6509TIP3    H241087   1.077   0.716   1.489
 6510TIP3   OH241088   4.393   5.448   8.349
 6510TIP3    H141089   4.366   5.357   8.335
 6510TIP3    H241090   4.484   5.450   8.320
 6511TIP3   OH241091   5.234   1.071   1.645
 6511TIP3    H141092   5.227   1.117   1.561
 6511TIP3    H241093   5.175   0.996   1.636
 6512TIP3   OH241094   3.362   5.848   2.170
 6512TIP3    H141095   3.361   5.899   2.252
 6512TIP3    H241096   3.333   5.910   2.103
 6513TIP3   OH241097   0.424   1.611   8.809
 6513TIP3    H141098   0.404   1.589   8.718
 6513TIP3    H241099   0.518   1.633   8.808
 6514TIP3   OH241100   0.203   6.182   0.187
 6514TIP3    H141101   0.169   6.199   0.275
 6514TIP3    H241102   0.287   6.228   0.185
 6515TIP3   OH241103   5.318   1.981   2.209
 6515TIP3    H141104   5.372   2.059   2.199
 6515TIP3    H241105   5.311   1.945   2.121
 6516TIP3   OH241106   3.869   3.869   1.166
 6516TIP3    H141107   3.857   3.954   1.208
 6516TIP3    H241108   3.843   3.883   1.075
 6517TIP3   OH241109   1.374   2.112   8.646
 6517TIP3    H141110   1.323   2.191   8.666
 6517TIP3    H241111   1.376   2.064   8.729
 6518TIP3   OH241112   3.475   5.363   8.006
 6518TIP3    H141113   3.439   5.276   8.022
 6518TIP3    H241114   3.566   5.348   7.982
 6519TIP3   OH241115   6.029   2.336   7.835
 6519TIP3    H141116   6.013   2.376   7.749
 6519TIP3    H241117   6.072   2.405   7.886
 6520TIP3   OH241118   6.264   6.189   8.861
 6520TIP3    H141119   6.238   6.281   0.002
 6520TIP3    H241120   6.187   6.139   0.019
 6521TIP3   OH241121   5.847   1.631   7.387
 6521TIP3    H141122   5.863   1.719   7.354
 6521TIP3    H241123   5.930   1.604   7.425
 6522TIP3   OH241124   2.908   4.458   8.003
 6522TIP3    H141125   2.941   4.368   8.002
 6522TIP3    H241126   2.976   4.508   8.048
 6523TIP3   OH241127   0.586   2.655   1.505
 6523TIP3    H141128   0.669   2.608   1.517
 6523TIP3    H241129   0.520   2.587   1.496
 6524TIP3   OH241130   0.343   3.243   1.914
 6524TIP3    H141131   0.373   3.332   1.897
 6524TIP3    H241132   0.262   3.253   1.963
 6525TIP3   OH241133   6.612   3.156   0.808
 6525TIP3    H141134   6.623   3.131   0.899
 6525TIP3    H241135   6.570   3.242   0.812
 6526TIP3   OH241136   1.938   0.204   0.992
 6526TIP3    H141137   1.911   0.135   1.053
 6526TIP3    H241138   2.024   0.175   0.960
 6527TIP3   OH241139   3.708   2.494   0.967
 6527TIP3    H141140   3.750   2.580   0.959
 6527TIP3    H241141   3.775   2.432   0.938
 6528TIP3   OH241142   1.989   3.237   1.211
 6528TIP3    H141143   2.019   3.155   1.173
 6528TIP3    H241144   2.049   3.253   1.284
 6529TIP3   OH241145   2.794   5.100   8.585
 6529TIP3    H141146   2.818   5.183   8.544
 6529TIP3    H241147   2.737   5.125   8.658
 6530TIP3   OH241148   1.763   3.749   1.776
 6530TIP3    H141149   1.766   3.655   1.757
 6530TIP3    H241150   1.828   3.787   1.717
 6531TIP3   OH241151   0.040   6.202   8.310
 6531TIP3    H141152   6.737   6.208   8.309
 6531TIP3    H241153   0.063   6.174   8.222
 6532TIP3   OH241154   0.270   3.988   0.108
 6532TIP3    H141155   0.255   3.896   0.090
 6532TIP3    H241156   0.321   3.989   0.189
 6533TIP3   OH241157   6.397   4.752   8.331
 6533TIP3    H141158   6.352   4.713   8.256
 6533TIP3    H241159   6.454   4.683   8.364
 6534TIP3   OH241160   3.102   4.482   6.807
 6534TIP3    H141161   3.091   4.404   6.861
 6534TIP3    H241162   3.197   4.498   6.807
 6535TIP3   OH241163   4.831   3.727   0.347
 6535TIP3    H141164   4.756   3.780   0.322
 6535TIP3    H241165   4.822   3.716   0.442
 6536TIP3   OH241166   4.014   3.739   0.269
 6536TIP3    H141167   4.036   3.831   0.252
 6536TIP3    H241168   3.976   3.708   0.187
 6537TIP3   OH241169   4.050   3.703   1.352
 6537TIP3    H141170   3.978   3.764   1.334
 6537TIP3    H241171   4.070   3.664   1.267
 6538TIP3   OH241172   0.899   0.228   7.508
 6538TIP3    H141173   0.885   0.163   7.576
 6538TIP3    H241174   0.975   0.196   7.459
 6539TIP3   OH241175   0.530   1.363   0.765
 6539TIP3    H141176   0.569   1.280   0.740
 6539TIP3    H241177   0.506   1.353   0.857
 6540TIP3   OH241178   5.202   2.904   1.679
 6540TIP3    H141179   5.248   2.917   1.762
 6540TIP3    H241180   5.270   2.902   1.613
 6541TIP3   OH241181   3.948   5.004   7.597
 6541TIP3    H141182   4.032   5.029   7.635
 6541TIP3    H241183   3.891   5.079   7.612
 6542TIP3   OH241184   2.154   2.698   7.819
 6542TIP3    H141185   2.127   2.741   7.900
 6542TIP3    H241186   2.215   2.760   7.778
 6543TIP3   OH241187   4.380   3.138   8.485
 6543TIP3    H141188   4.427   3.089   8.553
 6543TIP3    H241189   4.449   3.168   8.426
 6544TIP3   OH241190   1.924   3.480   7.644
 6544TIP3    H141191   1.905   3.574   7.633
 6544TIP3    H241192   1.855   3.449   7.703
 6545TIP3   OH241193   5.720   0.401   8.644
 6545TIP3    H141194   5.802   0.430   8.684
 6545TIP3    H241195   5.661   0.387   8.719
 6546TIP3   OH241196   3.422   4.161   8.429
 6546TIP3    H141197   3.352   4.104   8.397
 6546TIP3    H241198   3.403   4.171   8.522
 6547TIP3   OH241199   4.399   0.278   7.382
 6547TIP3    H141200   4.473   0.226   7.414
 6547TIP3    H241201   4.321   0.227   7.405
 6548TIP3   OH241202   0.243   1.710   0.452
 6548TIP3    H141203   0.222   1.669   0.368
 6548TIP3    H241204   0.208   1.650   0.518
 6549TIP3   OH241205   2.773   3.166   7.677
 6549TIP3    H141206   2.715   3.236   7.648
 6549TIP3    H241207   2.715   3.100   7.714
 6550TIP3   OH241208   4.105   5.050   0.379
 6550TIP3    H141209   4.079   4.958   0.369
 6550TIP3    H241210   4.196   5.053   0.352
 6551TIP3   OH241211   1.099   1.849   1.921
 6551TIP3    H141212   1.069   1.869   1.832
 6551TIP3    H241213   1.159   1.775   1.910
 6552TIP3   OH241214   5.457   3.439   7.774
 6552TIP3    H141215   5.450   3.478   7.687
 6552TIP3    H241216   5.413   3.355   7.766
 6553TIP3   OH241217   5.292   3.695   0.030
 6553TIP3    H141218   5.218   3.637   0.048
 6553TIP3    H241219   5.252   3.781   0.016
 6554TIP3   OH241220   1.357   4.054   1.701
 6554TIP3    H141221   1.300   4.068   1.776
 6554TIP3    H241222   1.419   3.986   1.729
 6555TIP3   OH241223   3.728   2.152   1.701
 6555TIP3    H141224   3.729   2.084   1.768
 6555TIP3    H241225   3.656   2.128   1.643
 6556TIP3   OH241226   6.627   6.576   7.709
 6556TIP3    H141227   6.677   6.593   7.629
 6556TIP3    H241228   6.645   6.484   7.729
 6557TIP3   OH241229   5.404   0.449   8.055
 6557TIP3    H141230   5.364   0.502   8.124
 6557TIP3    H241231   5.335   0.389   8.027
 6558TIP3   OH241232   6.500   4.757   7.555
 6558TIP3    H141233   6.579   4.706   7.570
 6558TIP3    H241234   6.530   4.835   7.509
 6559TIP3   OH241235   3.353   4.865   0.722
 6559TIP3    H141236   3.412   4.930   0.683
 6559TIP3    H241237   3.352   4.887   0.815
 6560TIP3   OH241238   6.127   0.879   7.868
 6560TIP3    H141239   6.184   0.923   7.805
 6560TIP3    H241240   6.087   0.951   7.918
 6561TIP3   OH241241   2.905   3.745   0.655
 6561TIP3    H141242   2.867   3.742   0.743
 6561TIP3    H241243   2.997   3.723   0.668
 6562TIP3   OH241244   3.342   6.336   7.345
 6562TIP3    H141245   3.278   6.397   7.381
 6562TIP3    H241246   3.388   6.386   7.279
 6563TIP3   OH241247   2.060   1.179   2.241
 6563TIP3    H141248   2.125   1.249   2.243
 6563TIP3    H241249   1.982   1.221   2.204
 6564TIP3   OH241250   5.452   0.045   8.002
 6564TIP3    H141251   5.444   6.745   7.981
 6564TIP3    H241252   5.539   0.053   8.043
 6565TIP3   OH241253   5.208   5.630   7.563
 6565TIP3    H141254   5.135   5.682   7.529
 6565TIP3    H241255   5.283   5.690   7.559
 6566TIP3   OH241256   3.101   5.108   0.547
 6566TIP3    H141257   3.084   5.199   0.522
 6566TIP3    H241258   3.090   5.108   0.642
 6567TIP3   OH241259   2.779   6.040   1.507
 6567TIP3    H141260   2.719   6.099   1.552
 6567TIP3    H241261   2.854   6.094   1.482
 6568TIP3   OH241262   3.002   5.843   1.212
 6568TIP3    H141263   3.094   5.839   1.235
 6568TIP3    H241264   2.955   5.833   1.296
 6569TIP3   OH241265   1.454   4.479   6.572
 6569TIP3    H141266   1.389   4.484   6.642
 6569TIP3    H241267   1.515   4.551   6.590
 6570TIP3   OH241268   6.621   3.925   6.933
 6570TIP3    H141269   6.531   3.929   6.899
 6570TIP3    H241270   6.610   3.913   7.027
 6571TIP3   OH241271   3.967   3.220   0.790
 6571TIP3    H141272   4.000   3.294   0.738
 6571TIP3    H241273   4.040   3.197   0.847
 6572TIP3   OH241274   4.799   4.211   8.642
 6572TIP3    H141275   4.751   4.221   8.723
 6572TIP3    H241276   4.743   4.158   8.586
 6573TIP3   OH241277   6.189   1.118   2.401
 6573TIP3    H141278   6.109   1.085   2.441
 6573TIP3    H241279   6.169   1.126   2.308
 6574TIP3   OH241280   2.825   1.423   1.306
 6574TIP3    H141281   2.746   1.377   1.333
 6574TIP3    H241282   2.892   1.394   1.368
 6575TIP3   OH241283   0.985   1.046   1.787
 6575TIP3    H141284   0.925   0.990   1.739
 6575TIP3    H241285   1.015   1.111   1.723
 6576TIP3   OH241286   4.627   0.720   0.438
 6576TIP3    H141287   4.574   0.658   0.488
 6576TIP3    H241288   4.662   0.780   0.503
 6577TIP3   OH241289   4.198   3.352   8.236
 6577TIP3    H141290   4.140   3.420   8.201
 6577TIP3    H241291   4.249   3.323   8.160
 6578TIP3   OH241292   2.406   6.045   1.697
 6578TIP3    H141293   2.438   6.015   1.783
 6578TIP3    H241294   2.425   5.971   1.638
 6579TIP3   OH241295   3.868   2.804   1.487
 6579TIP3    H141296   3.896   2.744   1.557
 6579TIP3    H241297   3.891   2.891   1.519
 6580TIP3   OH241298   5.628   1.346   7.975
 6580TIP3    H141299   5.663   1.294   8.048
 6580TIP3    H241300   5.705   1.389   7.938
 6581TIP3   OH241301   0.139   5.819   1.757
 6581TIP3    H141302   0.213   5.761   1.736
 6581TIP3    H241303   0.064   5.778   1.714
 6582TIP3   OH241304   3.091   4.997   1.565
 6582TIP3    H141305   3.169   4.993   1.621
 6582TIP3    H241306   3.019   4.968   1.621
 6583TIP3   OH241307   5.636   0.540   1.354
 6583TIP3    H141308   5.644   0.499   1.440
 6583TIP3    H241309   5.546   0.521   1.327
 6584TIP3   OH241310   2.073   4.807   2.508
 6584TIP3    H141311   2.147   4.796   2.448
 6584TIP3    H241312   1.997   4.780   2.457
 6585TIP3   OH241313   5.274   6.444   2.315
 6585TIP3    H141314   5.181   6.450   2.294
 6585TIP3    H241315   5.277   6.388   2.393
 6586TIP3   OH241316   2.430   3.483   1.068
 6586TIP3    H141317   2.423   3.408   1.127
 6586TIP3    H241318   2.360   3.470   1.004
 6587TIP3   OH241319   3.259   3.596   1.226
 6587TIP3    H141320   3.279   3.531   1.159
 6587TIP3    H241321   3.338   3.650   1.232
 6588TIP3   OH241322   1.235   4.774   0.072
 6588TIP3    H141323   1.244   4.770   8.845
 6588TIP3    H241324   1.227   4.867   0.091
 6589TIP3   OH241325   5.413   2.972   8.828
 6589TIP3    H141326   5.333   2.956   0.008
 6589TIP3    H241327   5.386   3.024   8.752
 6590TIP3   OH241328   5.805   2.771   7.102
 6590TIP3    H141329   5.710   2.781   7.106
 6590TIP3    H241330   5.839   2.860   7.105
 6591TIP3   OH241331   4.573   5.694   8.652
 6591TIP3    H141332   4.651   5.733   8.691
 6591TIP3    H241333   4.553   5.751   8.577
 6592TIP3   OH241334   4.119   3.051   8.643
 6592TIP3    H141335   4.211   3.039   8.622
 6592TIP3    H241336   4.118   3.079   8.734
 6593TIP3   OH241337   1.288   5.495   8.401
 6593TIP3    H141338   1.222   5.453   8.455
 6593TIP3    H241339   1.247   5.576   8.370
 6594TIP3   OH241340   1.206   5.776   6.974
 6594TIP3    H141341   1.228   5.686   6.951
 6594TIP3    H241342   1.280   5.807   7.025
 6595TIP3   OH241343   4.351   2.030   0.344
 6595TIP3    H141344   4.387   1.943   0.358
 6595TIP3    H241345   4.262   2.025   0.381
 6596TIP3   OH241346   1.698   3.070   0.281
 6596TIP3    H141347   1.762   3.016   0.234
 6596TIP3    H241348   1.613   3.041   0.248
 6597TIP3   OH241349   4.589   2.279   1.724
 6597TIP3    H141350   4.596   2.229   1.805
 6597TIP3    H241351   4.529   2.229   1.669
 6598TIP3   OH241352   2.040   1.570   1.695
 6598TIP3    H141353   2.072   1.529   1.776
 6598TIP3    H241354   1.946   1.581   1.709
 6599TIP3   OH241355   5.085   4.304   8.310
 6599TIP3    H141356   5.106   4.211   8.322
 6599TIP3    H241357   5.042   4.309   8.225
 6600TIP3   OH241358   5.161   4.633   7.383
 6600TIP3    H141359   5.215   4.596   7.313
 6600TIP3    H241360   5.158   4.565   7.450
 6601TIP3   OH241361   5.663   6.205   1.692
 6601TIP3    H141362   5.666   6.290   1.736
 6601TIP3    H241363   5.746   6.199   1.645
 6602TIP3   OH241364   6.411   5.733   0.605
 6602TIP3    H141365   6.319   5.717   0.628
 6602TIP3    H241366   6.458   5.657   0.639
 6603TIP3   OH241367   4.347   6.606   1.292
 6603TIP3    H141368   4.366   6.630   1.202
 6603TIP3    H241369   4.433   6.606   1.335
 6604TIP3   OH241370   2.538   2.407   0.281
 6604TIP3    H141371   2.448   2.377   0.278
 6604TIP3    H241372   2.583   2.355   0.215
 6605TIP3   OH241373   2.942   0.119   6.757
 6605TIP3    H141374   3.007   0.184   6.729
 6605TIP3    H241375   2.932   0.062   6.681
 6606TIP3   OH241376   3.520   3.104   7.598
 6606TIP3    H141377   3.440   3.079   7.644
 6606TIP3    H241378   3.589   3.094   7.664
 6607TIP3   OH241379   6.275   2.884   1.422
 6607TIP3    H141380   6.314   2.955   1.372
 6607TIP3    H241381   6.191   2.868   1.379
 6608TIP3   OH241382   5.824   1.913   1.289
 6608TIP3    H141383   5.748   1.971   1.286
 6608TIP3    H241384   5.877   1.947   1.361
 6609TIP3   OH241385   5.631   1.976   8.497
 6609TIP3    H141386   5.642   2.049   8.437
 6609TIP3    H241387   5.640   2.015   8.584
 6610TIP3   OH241388   4.161   5.214   0.647
 6610TIP3    H141389   4.106   5.237   0.572
 6610TIP3    H241390   4.232   5.278   0.645
 6611TIP3   OH241391   4.588   4.976   8.396
 6611TIP3    H141392   4.659   4.916   8.375
 6611TIP3    H241393   4.508   4.927   8.375
 6612TIP3   OH241394   3.825   3.683   7.052
 6612TIP3    H141395   3.890   3.683   6.982
 6612TIP3    H241396   3.744   3.653   7.011
 6613TIP3   OH241397   1.382   0.493   6.938
 6613TIP3    H141398   1.344   0.572   6.976
 6613TIP3    H241399   1.448   0.466   7.001
 6614TIP3   OH241400   3.762   2.634   0.656
 6614TIP3    H141401   3.742   2.615   0.748
 6614TIP3    H241402   3.753   2.550   0.612
 6615TIP3   OH241403   2.152   5.506   0.705
 6615TIP3    H141404   2.211   5.578   0.728
 6615TIP3    H241405   2.079   5.548   0.660
 6616TIP3   OH241406   6.095   2.764   8.289
 6616TIP3    H141407   6.145   2.792   8.212
 6616TIP3    H241408   6.003   2.771   8.262
 6617TIP3   OH241409   3.711   1.290   0.614
 6617TIP3    H141410   3.699   1.311   0.707
 6617TIP3    H241411   3.736   1.198   0.613
 6618TIP3   OH241412   2.556   3.410   2.068
 6618TIP3    H141413   2.583   3.426   1.978
 6618TIP3    H241414   2.636   3.421   2.120
 6619TIP3   OH241415   3.622   4.578   0.204
 6619TIP3    H141416   3.714   4.574   0.228
 6619TIP3    H241417   3.618   4.641   0.132
 6620TIP3   OH241418   5.922   3.176   1.798
 6620TIP3    H141419   5.935   3.251   1.856
 6620TIP3    H241420   5.837   3.191   1.758
 6621TIP3   OH241421   2.676   4.011   0.958
 6621TIP3    H141422   2.641   4.043   0.875
 6621TIP3    H241423   2.756   4.063   0.972
 6622TIP3   OH241424   1.674   4.492   6.784
 6622TIP3    H141425   1.748   4.433   6.794
 6622TIP3    H241426   1.597   4.436   6.791
 6623TIP3   OH241427   3.647   0.944   8.498
 6623TIP3    H141428   3.557   0.930   8.469
 6623TIP3    H241429   3.643   0.932   8.593
 6624TIP3   OH241430   3.345   4.830   1.651
 6624TIP3    H141431   3.363   4.877   1.569
 6624TIP3    H241432   3.431   4.821   1.693
 6625TIP3   OH241433   1.951   0.187   8.557
 6625TIP3    H141434   1.875   0.232   8.519
 6625TIP3    H241435   2.018   0.255   8.564
 6626TIP3   OH241436   0.636   6.329   0.102
 6626TIP3    H141437   0.677   6.243   0.088
 6626TIP3    H241438   0.545   6.317   0.075
 6627TIP3   OH241439   4.563   2.091   2.297
 6627TIP3    H141440   4.485   2.136   2.263
 6627TIP3    H241441   4.598   2.043   2.222
 6628TIP3   OH241442   4.230   5.575   8.555
 6628TIP3    H141443   4.253   5.668   8.555
 6628TIP3    H241444   4.285   5.536   8.487
 6629TIP3   OH241445   0.184   6.764   6.471
 6629TIP3    H141446   0.204   6.700   6.403
 6629TIP3    H241447   0.205   6.720   6.553
 6630TIP3   OH241448   5.304   1.663   0.197
 6630TIP3    H141449   5.267   1.712   0.270
 6630TIP3    H241450   5.345   1.729   0.141
 6631TIP3   OH241451   4.708   5.927   1.421
 6631TIP3    H141452   4.795   5.902   1.391
 6631TIP3    H241453   4.692   5.872   1.498
 6632TIP3   OH241454   4.301   5.740   1.242
 6632TIP3    H141455   4.383   5.735   1.194
 6632TIP3    H241456   4.313   5.683   1.318
 6633TIP3   OH241457   0.794   5.808   8.767
 6633TIP3    H141458   0.824   5.736   8.822
 6633TIP3    H241459   0.874   5.848   8.733
 6634TIP3   OH241460   3.063   2.779   0.464
 6634TIP3    H141461   2.970   2.799   0.470
 6634TIP3    H241462   3.078   2.761   0.371
 6635TIP3   OH241463   1.833   0.831   0.386
 6635TIP3    H141464   1.868   0.764   0.445
 6635TIP3    H241465   1.765   0.875   0.437
 6636TIP3   OH241466   3.597   1.956   0.788
 6636TIP3    H141467   3.690   1.964   0.767
 6636TIP3    H241468   3.593   1.888   0.856
 6637TIP3   OH241469   1.360   3.735   0.481
 6637TIP3    H141470   1.395   3.716   0.394
 6637TIP3    H241471   1.435   3.729   0.540
 6638TIP3   OH241472   5.061   2.016   2.435
 6638TIP3    H141473   5.143   1.968   2.448
 6638TIP3    H241474   5.068   2.091   2.494
 6639TIP3   OH241475   6.578   4.926   2.257
 6639TIP3    H141476   6.500   4.941   2.311
 6639TIP3    H241477   6.600   4.834   2.272
 6640TIP3   OH241478   1.408   6.686   1.732
 6640TIP3    H141479   1.503   6.699   1.733
 6640TIP3    H241480   1.395   6.603   1.687
 6641TIP3   OH241481   2.659   0.160   0.376
 6641TIP3    H141482   2.655   0.240   0.324
 6641TIP3    H241483   2.733   0.173   0.435
 6642TIP3   OH241484   2.256   3.836   1.186
 6642TIP3    H141485   2.246   3.918   1.235
 6642TIP3    H241486   2.325   3.854   1.123
 6643TIP3   OH241487   4.684   2.980   1.293
 6643TIP3    H141488   4.592   2.967   1.313
 6643TIP3    H241489   4.704   3.068   1.327
 6644TIP3   OH241490   1.401   6.703   7.117
 6644TIP3    H141491   1.468   6.762   7.151
 6644TIP3    H241492   1.409   6.625   7.172
 6645TIP3   OH241493   5.762   5.390   8.751
 6645TIP3    H141494   5.769   5.327   8.823
 6645TIP3    H241495   5.702   5.347   8.689
 6646TIP3   OH241496   1.264   2.593   0.308
 6646TIP3    H141497   1.194   2.533   0.334
 6646TIP3    H241498   1.305   2.619   0.391
 6647TIP3   OH241499   2.349   4.520   1.211
 6647TIP3    H141500   2.409   4.448   1.229
 6647TIP3    H241501   2.319   4.548   1.298
 6648TIP3   OH241502   3.687   2.140   8.040
 6648TIP3    H141503   3.752   2.172   7.978
 6648TIP3    H241504   3.622   2.211   8.046
 6649TIP3   OH241505   4.561   0.056   7.472
 6649TIP3    H141506   4.503   0.080   7.545
 6649TIP3    H241507   4.636   0.014   7.513
 6650TIP3   OH241508   0.428   5.679   8.046
 6650TIP3    H141509   0.476   5.740   7.990
 6650TIP3    H241510   0.369   5.634   7.986
 6651TIP3   OH241511   6.486   1.727   1.023
 6651TIP3    H141512   6.504   1.800   1.083
 6651TIP3    H241513   6.476   1.769   0.937
 6652TIP3   OH241514   1.589   0.655   2.184
 6652TIP3    H141515   1.658   0.674   2.248
 6652TIP3    H241516   1.534   0.733   2.185
 6653TIP3   OH241517   5.114   5.002   8.795
 6653TIP3    H141518   5.173   5.058   8.744
 6653TIP3    H241519   5.169   4.967   8.865
 6654TIP3   OH241520   0.896   4.724   8.061
 6654TIP3    H141521   0.837   4.662   8.103
 6654TIP3    H241522   0.968   4.670   8.028
 6655TIP3   OH241523   2.793   2.264   7.865
 6655TIP3    H141524   2.771   2.179   7.827
 6655TIP3    H241525   2.855   2.304   7.805
 6656TIP3   OH241526   6.472   0.910   2.026
 6656TIP3    H141527   6.386   0.949   2.011
 6656TIP3    H241528   6.459   0.816   2.011
 6657TIP3   OH241529   6.748   1.859   0.786
 6657TIP3    H141530   0.006   1.831   0.863
 6657TIP3    H241531   6.737   1.779   0.735
 6658TIP3   OH241532   4.381   6.412   8.816
 6658TIP3    H141533   4.382   6.507   8.821
 6658TIP3    H241534   4.290   6.388   8.835
 6659TIP3   OH241535   3.992   0.717   2.027
 6659TIP3    H141536   4.010   0.716   1.933
 6659TIP3    H241537   3.992   0.624   2.052
 6660TIP3   OH241538   4.136   1.512   0.661
 6660TIP3    H141539   4.045   1.542   0.668
 6660TIP3    H241540   4.187   1.581   0.705
 6661TIP3   OH241541   1.895   2.237   0.485
 6661TIP3    H141542   1.814   2.285   0.470
 6661TIP3    H241543   1.930   2.221   0.397
 6662TIP3   OH241544   4.307   5.071   2.013
 6662TIP3    H141545   4.325   4.978   2.026
 6662TIP3    H241546   4.381   5.116   2.053
 6663TIP3   OH241547   6.459   3.611   0.869
 6663TIP3    H141548   6.366   3.616   0.846
 6663TIP3    H241549   6.468   3.525   0.911
 6664TIP3   OH241550   6.156   3.975   0.815
 6664TIP3    H141551   6.116   4.019   0.740
 6664TIP3    H241552   6.140   4.033   0.888
 6665TIP3   OH241553   0.948   0.763   0.909
 6665TIP3    H141554   0.866   0.812   0.906
 6665TIP3    H241555   1.011   0.819   0.863
 6666TIP3   OH241556   0.583   5.181   1.833
 6666TIP3    H141557   0.507   5.239   1.829
 6666TIP3    H241558   0.582   5.135   1.749
 6667TIP3   OH241559   4.958   2.411   0.010
 6667TIP3    H141560   4.932   2.425   8.787
 6667TIP3    H241561   4.875   2.401   0.056
 6668TIP3   OH241562   3.354   4.577   6.638
 6668TIP3    H141563   3.353   4.666   6.601
 6668TIP3    H241564   3.417   4.582   6.710
 6669TIP3   OH241565   4.367   4.825   8.372
 6669TIP3    H141566   4.382   4.747   8.424
 6669TIP3    H241567   4.298   4.872   8.418
 6670TIP3   OH241568   0.834   6.016   8.188
 6670TIP3    H141569   0.812   6.059   8.105
 6670TIP3    H241570   0.927   6.033   8.199
 6671TIP3   OH241571   3.405   6.469   8.217
 6671TIP3    H141572   3.449   6.553   8.232
 6671TIP3    H241573   3.464   6.422   8.157
 6672TIP3   OH241574   1.306   5.047   0.121
 6672TIP3    H141575   1.394   5.050   0.159
 6672TIP3    H241576   1.252   5.097   0.182
 6673TIP3   OH241577   5.749   3.681   8.486
 6673TIP3    H141578   5.805   3.692   8.563
 6673TIP3    H241579   5.660   3.695   8.520
 6674TIP3   OH241580   1.978   0.869   8.238
 6674TIP3    H141581   2.052   0.930   8.230
 6674TIP3    H241582   2.011   0.787   8.203
 6675TIP3   OH241583   5.090   0.829   7.068
 6675TIP3    H141584   5.074   0.895   7.135
 6675TIP3    H241585   5.003   0.797   7.045
 6676TIP3   OH241586   4.229   0.749   8.038
 6676TIP3    H141587   4.151   0.698   8.017
 6676TIP3    H241588   4.221   0.828   7.985
 6677TIP3   OH241589   0.247   6.299   0.716
 6677TIP3    H141590   0.259   6.394   0.717
 6677TIP3    H241591   0.167   6.286   0.665
 6678TIP3   OH241592   3.142   2.483   7.457
 6678TIP3    H141593   3.182   2.468   7.371
 6678TIP3    H241594   3.135   2.578   7.464
 6679TIP3   OH241595   5.760   6.485   1.781
 6679TIP3    H141596   5.741   6.578   1.786
 6679TIP3    H241597   5.820   6.476   1.707
 6680TIP3   OH241598   2.237   6.594   8.688
 6680TIP3    H141599   2.263   6.641   8.767
 6680TIP3    H241600   2.318   6.556   8.655
 6681TIP3   OH241601   1.968   2.375   8.366
 6681TIP3    H141602   2.036   2.405   8.306
 6681TIP3    H241603   1.886   2.398   8.323
 6682TIP3   OH241604   6.711   6.092   0.352
 6682TIP3    H141605   6.775   6.021   0.347
 6682TIP3    H241606   6.756   6.162   0.399
 6683TIP3   OH241607   2.937   0.582   6.776
 6683TIP3    H141608   2.906   0.569   6.687
 6683TIP3    H241609   2.943   0.677   6.786
 6684TIP3   OH241610   0.244   2.764   7.711
 6684TIP3    H141611   0.158   2.792   7.744
 6684TIP3    H241612   0.227   2.679   7.671
 6685TIP3   OH241613   3.353   3.833   8.588
 6685TIP3    H141614   3.354   3.841   8.493
 6685TIP3    H241615   3.439   3.798   8.611
 6686TIP3   OH241616   5.101   2.163   0.510
 6686TIP3    H141617   5.060   2.188   0.427
 6686TIP3    H241618   5.168   2.100   0.485
 6687TIP3   OH241619   1.609   1.270   8.382
 6687TIP3    H141620   1.536   1.256   8.443
 6687TIP3    H241621   1.569   1.267   8.295
 6688TIP3   OH241622   5.557   5.946   1.719
 6688TIP3    H141623   5.559   6.039   1.696
 6688TIP3    H241624   5.522   5.903   1.641
 6689TIP3   OH241625   1.402   1.571   0.143
 6689TIP3    H141626   1.316   1.587   0.182
 6689TIP3    H241627   1.444   1.510   0.203
 6690TIP3   OH241628   3.444   1.594   2.170
 6690TIP3    H141629   3.457   1.620   2.261
 6690TIP3    H241630   3.481   1.506   2.164
 6691TIP3   OH241631   4.179   0.159   1.048
 6691TIP3    H141632   4.177   0.103   0.970
 6691TIP3    H241633   4.096   0.142   1.092
 6692TIP3   OH241634   2.092   0.934   0.511
 6692TIP3    H141635   2.029   0.934   0.439
 6692TIP3    H241636   2.111   1.026   0.527
 6693TIP3   OH241637   0.331   5.013   7.434
 6693TIP3    H141638   0.396   5.073   7.396
 6693TIP3    H241639   0.369   4.926   7.424
 6694TIP3   OH241640   0.989   1.483   8.618
 6694TIP3    H141641   0.973   1.411   8.679
 6694TIP3    H241642   1.083   1.478   8.601
 6695TIP3   OH241643   6.694   0.591   0.675
 6695TIP3    H141644   6.713   0.642   0.754
 6695TIP3    H241645   6.601   0.570   0.682
 6696TIP3   OH241646   5.589   3.711   8.030
 6696TIP3    H141647   5.652   3.644   8.003
 6696TIP3    H241648   5.583   3.701   8.125
 6697TIP3   OH241649   2.104   4.494   7.934
 6697TIP3    H141650   2.138   4.502   8.023
 6697TIP3    H241651   2.123   4.405   7.907
 6698TIP3   OH241652   1.097   2.973   7.723
 6698TIP3    H141653   1.133   2.935   7.804
 6698TIP3    H241654   1.166   2.959   7.658
 6699TIP3   OH241655   0.747   2.135   8.065
 6699TIP3    H141656   0.704   2.200   8.119
 6699TIP3    H241657   0.827   2.113   8.112
 6700TIP3   OH241658   6.418   2.863   0.490
 6700TIP3    H141659   6.455   2.823   0.411
 6700TIP3    H241660   6.441   2.802   0.560
 6701TIP3   OH241661   1.728   5.566   1.622
 6701TIP3    H141662   1.698   5.584   1.711
 6701TIP3    H241663   1.779   5.643   1.598
 6702TIP3   OH241664   6.466   3.529   0.562
 6702TIP3    H141665   6.438   3.475   0.636
 6702TIP3    H241666   6.387   3.544   0.511
 6703TIP3   OH241667   2.780   5.815   2.548
 6703TIP3    H141668   2.738   5.804   2.633
 6703TIP3    H241669   2.742   5.895   2.512
 6704TIP3   OH241670   2.818   5.238   0.474
 6704TIP3    H141671   2.853   5.161   0.430
 6704TIP3    H241672   2.760   5.278   0.409
 6705TIP3   OH241673   5.172   1.621   0.450
 6705TIP3    H141674   5.222   1.697   0.481
 6705TIP3    H241675   5.188   1.554   0.517
 6706TIP3   OH241676   3.319   1.534   1.039
 6706TIP3    H141677   3.407   1.519   1.073
 6706TIP3    H241678   3.289   1.448   1.010
 6707TIP3   OH241679   2.413   0.110   6.989
 6707TIP3    H141680   2.441   0.147   6.905
 6707TIP3    H241681   2.380   0.185   7.038
 6708TIP3   OH241682   5.488   1.106   7.738
 6708TIP3    H141683   5.578   1.128   7.711
 6708TIP3    H241684   5.448   1.190   7.760
 6709TIP3   OH241685   3.732   2.430   8.312
 6709TIP3    H141686   3.757   2.369   8.242
 6709TIP3    H241687   3.684   2.376   8.375
 6710TIP3   OH241688   5.094   5.389   0.255
 6710TIP3    H141689   5.021   5.419   0.310
 6710TIP3    H241690   5.064   5.305   0.219
 6711TIP3   OH241691   6.338   5.893   8.597
 6711TIP3    H141692   6.420   5.849   8.573
 6711TIP3    H241693   6.344   5.903   8.692
 6712TIP3   OH241694   1.037   2.562   6.941
 6712TIP3    H141695   1.115   2.611   6.966
 6712TIP3    H241696   1.064   2.471   6.944
 6713TIP3   OH241697   4.060   1.278   6.862
 6713TIP3    H141698   4.108   1.195   6.871
 6713TIP3    H241699   4.123   1.345   6.889
 6714TIP3   OH241700   3.538   6.552   2.070
 6714TIP3    H141701   3.523   6.511   1.984
 6714TIP3    H241702   3.572   6.638   2.049
 6715TIP3   OH241703   5.919   2.740   1.589
 6715TIP3    H141704   5.874   2.718   1.508
 6715TIP3    H241705   6.012   2.745   1.565
 6716TIP3   OH241706   3.443   0.089   0.159
 6716TIP3    H141707   3.525   0.041   0.147
 6716TIP3    H241708   3.469   0.181   0.157
 6717TIP3   OH241709   1.610   0.992   0.918
 6717TIP3    H141710   1.589   0.905   0.952
 6717TIP3    H241711   1.683   1.022   0.972
 6718TIP3   OH241712   4.191   2.714   6.449
 6718TIP3    H141713   4.143   2.788   6.485
 6718TIP3    H241714   4.242   2.750   6.377
 6719TIP3   OH241715   3.912   3.088   1.121
 6719TIP3    H141716   3.982   3.032   1.155
 6719TIP3    H241717   3.862   3.113   1.199
 6720TIP3   OH241718   1.937   4.045   7.695
 6720TIP3    H141719   1.868   4.111   7.698
 6720TIP3    H241720   2.010   4.085   7.743
 6721TIP3   OH241721   6.604   3.810   6.278
 6721TIP3    H141722   6.603   3.796   6.372
 6721TIP3    H241723   6.609   3.905   6.267
 6722TIP3   OH241724   3.038   3.077   3.000
 6722TIP3    H141725   3.017   3.007   2.938
 6722TIP3    H241726   3.029   3.157   2.949
 6723TIP3   OH241727   4.459   4.704   8.630
 6723TIP3    H141728   4.454   4.799   8.643
 6723TIP3    H241729   4.551   4.682   8.638
 6724TIP3   OH241730   5.090   4.248   1.159
 6724TIP3    H141731   5.132   4.168   1.126
 6724TIP3    H241732   5.003   4.219   1.187
 6725TIP3   OH241733   5.791   6.313   1.998
 6725TIP3    H141734   5.779   6.386   1.937
 6725TIP3    H241735   5.702   6.294   2.029
 6726TIP3   OH241736   1.962   1.324   7.034
 6726TIP3    H141737   1.877   1.303   6.996
 6726TIP3    H241738   1.953   1.415   7.063
 6727TIP3   OH241739   1.348   0.589   8.053
 6727TIP3    H141740   1.293   0.628   8.121
 6727TIP3    H241741   1.298   0.598   7.972
 6728TIP3   OH241742   6.734   5.772   7.970
 6728TIP3    H141743   6.716   5.678   7.971
 6728TIP3    H241744   6.699   5.803   7.886
 6729TIP3   OH241745   4.944   1.348   1.777
 6729TIP3    H141746   4.898   1.285   1.723
 6729TIP3    H241747   4.985   1.295   1.846
 6730TIP3   OH241748   3.798   5.287   0.703
 6730TIP3    H141749   3.703   5.287   0.711
 6730TIP3    H241750   3.815   5.331   0.620
 6731TIP3   OH241751   1.831   1.515   8.537
 6731TIP3    H141752   1.822   1.561   8.454
 6731TIP3    H241753   1.753   1.461   8.544
 6732TIP3   OH241754   0.233   1.688   7.085
 6732TIP3    H141755   0.307   1.744   7.109
 6732TIP3    H241756   0.193   1.665   7.169
 6733TIP3   OH241757   2.265   1.372   7.037
 6733TIP3    H141758   2.239   1.328   6.956
 6733TIP3    H241759   2.234   1.313   7.107
 6734TIP3   OH241760   1.498   3.714   0.178
 6734TIP3    H141761   1.542   3.798   0.169
 6734TIP3    H241762   1.550   3.666   0.242
 6735TIP3   OH241763   4.623   2.171   0.234
 6735TIP3    H141764   4.529   2.156   0.234
 6735TIP3    H241765   4.660   2.095   0.190
 6736TIP3   OH241766   4.613   0.095   1.027
 6736TIP3    H141767   4.575   0.023   1.077
 6736TIP3    H241768   4.541   0.157   1.014
 6737TIP3   OH241769   3.472   5.759   8.397
 6737TIP3    H141770   3.416   5.800   8.463
 6737TIP3    H241771   3.425   5.680   8.371
 6738TIP3   OH241772   3.921   5.368   2.248
 6738TIP3    H141773   3.976   5.385   2.324
 6738TIP3    H241774   3.956   5.287   2.211
 6739TIP3   OH241775   3.023   2.710   7.713
 6739TIP3    H141776   3.108   2.749   7.732
 6739TIP3    H241777   3.004   2.656   7.789
 6740TIP3   OH241778   2.543   3.998   0.467
 6740TIP3    H141779   2.620   4.013   0.522
 6740TIP3    H241780   2.549   4.064   0.398
 6741TIP3   OH241781   4.966   6.392   8.752
 6741TIP3    H141782   4.925   6.443   8.682
 6741TIP3    H241783   4.997   6.312   8.708
 6742TIP3   OH241784   4.711   5.067   0.523
 6742TIP3    H141785   4.796   5.045   0.487
 6742TIP3    H241786   4.648   5.027   0.462
 6743TIP3   OH241787   2.019   1.628   8.796
 6743TIP3    H141788   2.031   1.599   8.705
 6743TIP3    H241789   1.952   1.696   8.791
 6744TIP3   OH241790   4.251   3.010   8.088
 6744TIP3    H141791   4.279   3.091   8.046
 6744TIP3    H241792   4.288   2.941   8.033
 6745TIP3   OH241793   1.278   0.458   2.050
 6745TIP3    H141794   1.371   0.438   2.044
 6745TIP3    H241795   1.243   0.433   1.965
 6746TIP3   OH241796   6.314   0.385   6.250
 6746TIP3    H141797   6.349   0.424   6.330
 6746TIP3    H241798   6.221   0.405   6.252
 6747TIP3   OH241799   0.130   0.322   8.346
 6747TIP3    H141800   0.093   0.398   8.301
 6747TIP3    H241801   0.200   0.358   8.401
 6748TIP3   OH241802   0.091   5.126   0.151
 6748TIP3    H141803   0.029   5.164   0.212
 6748TIP3    H241804   0.042   5.057   0.106
 6749TIP3   OH241805   2.320   4.163   1.814
 6749TIP3    H141806   2.378   4.090   1.795
 6749TIP3    H241807   2.374   4.241   1.801
 6750TIP3   OH241808   1.961   6.434   8.448
 6750TIP3    H141809   2.056   6.424   8.442
 6750TIP3    H241810   1.937   6.487   8.371
 6751TIP3   OH241811   0.048   5.424   7.821
 6751TIP3    H141812   0.010   5.357   7.878
 6751TIP3    H241813   0.079   5.492   7.882
 6752TIP3   OH241814   4.554   4.772   6.772
 6752TIP3    H141815   4.465   4.738   6.762
 6752TIP3    H241816   4.610   4.703   6.736
 6753TIP3   OH241817   2.572   1.693   8.191
 6753TIP3    H141818   2.541   1.696   8.281
 6753TIP3    H241819   2.664   1.720   8.196
 6754TIP3   OH241820   5.741   5.784   7.656
 6754TIP3    H141821   5.826   5.740   7.658
 6754TIP3    H241822   5.762   5.877   7.658
 6755TIP3   OH241823   1.701   5.547   7.984
 6755TIP3    H141824   1.747   5.538   7.900
 6755TIP3    H241825   1.772   5.560   8.048
 6756TIP3   OH241826   5.358   0.895   1.369
 6756TIP3    H141827   5.285   0.956   1.359
 6756TIP3    H241828   5.436   0.946   1.345
 6757TIP3   OH241829   1.138   4.715   0.781
 6757TIP3    H141830   1.162   4.624   0.765
 6757TIP3    H241831   1.220   4.757   0.808
 6758TIP3   OH241832   0.392   1.972   8.516
 6758TIP3    H141833   0.444   2.004   8.443
 6758TIP3    H241834   0.365   2.051   8.563
 6759TIP3   OH241835   0.065   5.125   8.213
 6759TIP3    H141836   0.112   5.152   8.292
 6759TIP3    H241837   0.134   5.108   8.149
 6760TIP3   OH241838   4.639   5.026   0.120
 6760TIP3    H141839   4.649   4.971   0.198
 6760TIP3    H241840   4.726   5.024   0.079
 6761TIP3   OH241841   4.781   4.012   7.163
 6761TIP3    H141842   4.715   3.943   7.166
 6761TIP3    H241843   4.738   4.089   7.199
 6762TIP3   OH241844   5.875   2.051   0.104
 6762TIP3    H141845   5.858   2.053   0.198
 6762TIP3    H241846   5.968   2.072   0.097
 6763TIP3   OH241847   0.278   3.969   0.797
 6763TIP3    H141848   0.299   4.011   0.880
 6763TIP3    H241849   0.286   4.038   0.732
 6764TIP3   OH241850   5.078   3.140   8.646
 6764TIP3    H141851   4.998   3.169   8.690
 6764TIP3    H241852   5.052   3.061   8.598
 6765TIP3   OH241853   0.993   5.949   6.474
 6765TIP3    H141854   0.920   5.984   6.422
 6765TIP3    H241855   1.029   5.878   6.421
 6766TIP3   OH241856   3.809   6.593   8.612
 6766TIP3    H141857   3.808   6.499   8.595
 6766TIP3    H241858   3.719   6.615   8.633
 6767TIP3   OH241859   4.481   5.702   0.588
 6767TIP3    H141860   4.506   5.747   0.507
 6767TIP3    H241861   4.540   5.627   0.592
 6768TIP3   OH241862   0.074   1.050   7.693
 6768TIP3    H141863   0.159   1.077   7.658
 6768TIP3    H241864   0.081   0.955   7.701
 6769TIP3   OH241865   4.811   3.014   7.469
 6769TIP3    H141866   4.883   3.040   7.412
 6769TIP3    H241867   4.843   3.034   7.557
 6770TIP3   OH241868   6.395   1.261   2.312
 6770TIP3    H141869   6.361   1.338   2.266
 6770TIP3    H241870   6.325   1.234   2.370
 6771TIP3   OH241871   5.774   5.825   2.119
 6771TIP3    H141872   5.776   5.811   2.025
 6771TIP3    H241873   5.858   5.793   2.150
 6772TIP3   OH241874   0.374   3.690   0.467
 6772TIP3    H141875   0.426   3.769   0.454
 6772TIP3    H241876   0.316   3.687   0.390
 6773TIP3   OH241877   1.668   2.703   0.509
 6773TIP3    H141878   1.758   2.734   0.512
 6773TIP3    H241879   1.649   2.694   0.415
 6774TIP3   OH241880   4.861   5.534   1.522
 6774TIP3    H141881   4.909   5.454   1.499
 6774TIP3    H241882   4.923   5.585   1.573
 6775TIP3   OH241883   2.295   3.404   2.062
 6775TIP3    H141884   2.300   3.406   2.158
 6775TIP3    H241885   2.385   3.417   2.033
 6776TIP3   OH241886   2.937   5.857   0.935
 6776TIP3    H141887   2.928   5.856   1.030
 6776TIP3    H241888   3.027   5.831   0.918
 6777TIP3   OH241889   2.633   3.183   1.281
 6777TIP3    H141890   2.692   3.128   1.333
 6777TIP3    H241891   2.682   3.200   1.200
 6778TIP3   OH241892   0.954   2.533   0.035
 6778TIP3    H141893   0.973   2.456   8.850
 6778TIP3    H241894   0.919   2.597   8.842
 6779TIP3   OH241895   5.056   1.023   7.285
 6779TIP3    H141896   5.078   1.116   7.272
 6779TIP3    H241897   5.138   0.984   7.317
 6780TIP3   OH241898   6.264   5.093   0.870
 6780TIP3    H141899   6.213   5.067   0.793
 6780TIP3    H241900   6.199   5.133   0.928
 6781TIP3   OH241901   0.528   5.653   2.177
 6781TIP3    H141902   0.538   5.748   2.171
 6781TIP3    H241903   0.555   5.632   2.267
 6782TIP3   OH241904   3.202   0.616   6.997
 6782TIP3    H141905   3.257   0.550   6.956
 6782TIP3    H241906   3.230   0.699   6.957
 6783TIP3   OH241907   5.501   1.664   0.939
 6783TIP3    H141908   5.441   1.663   1.014
 6783TIP3    H241909   5.568   1.727   0.963
 6784TIP3   OH241910   4.638   1.470   8.265
 6784TIP3    H141911   4.651   1.539   8.199
 6784TIP3    H241912   4.597   1.398   8.216
 6785TIP3   OH241913   2.409   6.465   0.484
 6785TIP3    H141914   2.476   6.465   0.416
 6785TIP3    H241915   2.443   6.406   0.552
 6786TIP3   OH241916   2.351   2.683   8.133
 6786TIP3    H141917   2.322   2.729   8.054
 6786TIP3    H241918   2.401   2.748   8.182
 6787TIP3   OH241919   5.147   1.465   7.576
 6787TIP3    H141920   5.059   1.453   7.541
 6787TIP3    H241921   5.134   1.506   7.662
 6788TIP3   OH241922   3.799   5.559   6.709
 6788TIP3    H141923   3.706   5.536   6.705
 6788TIP3    H241924   3.833   5.535   6.623
 6789TIP3   OH241925   5.002   0.578   0.636
 6789TIP3    H141926   5.059   0.502   0.630
 6789TIP3    H241927   4.954   0.580   0.553
 6790TIP3   OH241928   0.668   1.301   1.428
 6790TIP3    H141929   0.633   1.372   1.481
 6790TIP3    H241930   0.742   1.340   1.381
 6791TIP3   OH241931   1.384   5.789   7.583
 6791TIP3    H141932   1.295   5.809   7.613
 6791TIP3    H241933   1.376   5.781   7.488
 6792TIP3   OH241934   5.986   2.038   0.600
 6792TIP3    H141935   5.989   2.030   0.505
 6792TIP3    H241936   6.060   2.095   0.621
 6793TIP3   OH241937   4.635   0.685   2.699
 6793TIP3    H141938   4.699   0.757   2.701
 6793TIP3    H241939   4.550   0.729   2.691
 6794TIP3   OH241940   4.669   4.784   7.591
 6794TIP3    H141941   4.743   4.765   7.534
 6794TIP3    H241942   4.643   4.873   7.568
 6795TIP3   OH241943   1.097   2.515   0.524
 6795TIP3    H141944   1.009   2.536   0.492
 6795TIP3    H241945   1.083   2.445   0.588
 6796TIP3   OH241946   3.487   4.484   8.719
 6796TIP3    H141947   3.504   4.456   8.629
 6796TIP3    H241948   3.553   4.551   8.736
 6797TIP3   OH241949   2.618   2.847   8.062
 6797TIP3    H141950   2.678   2.783   8.026
 6797TIP3    H241951   2.659   2.876   8.143
 6798TIP3   OH241952   0.711   6.585   7.611
 6798TIP3    H141953   0.695   6.574   7.705
 6798TIP3    H241954   0.664   6.512   7.570
 6799TIP3   OH241955   4.421   3.973   7.322
 6799TIP3    H141956   4.474   3.922   7.261
 6799TIP3    H241957   4.331   3.947   7.305
 6800TIP3   OH241958   5.899   4.570   0.266
 6800TIP3    H141959   5.921   4.542   0.178
 6800TIP3    H241960   5.958   4.521   0.323
 6801TIP3   OH241961   6.676   5.225   1.229
 6801TIP3    H141962   6.757   5.199   1.272
 6801TIP3    H241963   6.679   5.321   1.228
 6802TIP3   OH241964   2.206   2.599   8.446
 6802TIP3    H141965   2.133   2.593   8.507
 6802TIP3    H241966   2.270   2.535   8.478
 6803TIP3   OH241967   1.671   2.958   1.575
 6803TIP3    H141968   1.676   3.011   1.654
 6803TIP3    H241969   1.656   3.021   1.504
 6804TIP3   OH241970   1.848   3.475   8.415
 6804TIP3    H141971   1.924   3.440   8.368
 6804TIP3    H241972   1.773   3.433   8.372
 6805TIP3   OH241973   4.338   4.280   8.182
 6805TIP3    H141974   4.330   4.286   8.087
 6805TIP3    H241975   4.294   4.359   8.215
 6806TIP3   OH241976   6.602   6.240   1.150
 6806TIP3    H141977   6.572   6.178   1.084
 6806TIP3    H241978   6.554   6.321   1.132
 6807TIP3   OH241979   4.328   1.593   1.089
 6807TIP3    H141980   4.421   1.607   1.106
 6807TIP3    H241981   4.291   1.576   1.176
 6808TIP3   OH241982   2.035   4.453   0.580
 6808TIP3    H141983   2.124   4.468   0.613
 6808TIP3    H241984   2.042   4.468   0.485
 6809TIP3   OH241985   5.024   3.584   7.053
 6809TIP3    H141986   5.117   3.604   7.048
 6809TIP3    H241987   4.998   3.610   7.141
 6810TIP3   OH241988   3.747   1.285   1.207
 6810TIP3    H141989   3.790   1.350   1.264
 6810TIP3    H241990   3.819   1.234   1.170
 6811TIP3   OH241991   0.688   0.847   1.195
 6811TIP3    H141992   0.739   0.773   1.229
 6811TIP3    H241993   0.623   0.864   1.263
 6812TIP3   OH241994   6.349   3.256   7.213
 6812TIP3    H141995   6.348   3.321   7.142
 6812TIP3    H241996   6.346   3.172   7.168
 6813TIP3   OH241997   1.539   3.001   7.539
 6813TIP3    H141998   1.451   2.965   7.534
 6813TIP3    H241999   1.593   2.927   7.566
 6814TIP3   OH242000   0.235   6.517   8.195
 6814TIP3    H142001   0.263   6.607   8.179
 6814TIP3    H242002   0.260   6.469   8.116
 6815TIP3   OH242003   3.025   6.100   8.160
 6815TIP3    H142004   3.062   6.057   8.083
 6815TIP3    H242005   2.933   6.073   8.160
 6816TIP3   OH242006   3.671   0.219   1.162
 6816TIP3    H142007   3.734   0.175   1.219
 6816TIP3    H242008   3.654   0.303   1.206
 6817TIP3   OH242009   3.257   2.038   7.895
 6817TIP3    H142010   3.193   2.083   7.841
 6817TIP3    H242011   3.242   2.071   7.983
 6818TIP3   OH242012   2.542   6.281   8.464
 6818TIP3    H142013   2.466   6.228   8.489
 6818TIP3    H242014   2.538   6.357   8.522
 6819TIP3   OH242015   4.631   6.365   2.303
 6819TIP3    H142016   4.715   6.320   2.308
 6819TIP3    H242017   4.632   6.427   2.376
 6820TIP3   OH242018   4.011   4.329   0.337
 6820TIP3    H142019   4.082   4.374   0.382
 6820TIP3    H242020   3.931   4.368   0.374
 6821TIP3   OH242021   6.226   1.554   2.288
 6821TIP3    H142022   6.279   1.558   2.367
 6821TIP3    H242023   6.281   1.592   2.219
 6822TIP3   OH242024   6.319   4.591   1.359
 6822TIP3    H142025   6.340   4.672   1.407
 6822TIP3    H242026   6.238   4.611   1.312
 6823TIP3   OH242027   1.952   5.685   7.834
 6823TIP3    H142028   1.964   5.744   7.909
 6823TIP3    H242029   2.038   5.643   7.823
 6824TIP3   OH242030   1.313   4.740   8.131
 6824TIP3    H142031   1.250   4.671   8.152
 6824TIP3    H242032   1.259   4.817   8.111
 6825TIP3   OH242033   3.048   2.256   6.992
 6825TIP3    H142034   3.140   2.280   6.980
 6825TIP3    H242035   3.002   2.340   6.995
 6826TIP3   OH242036   3.407   5.015   7.467
 6826TIP3    H142037   3.355   5.093   7.446
 6826TIP3    H242038   3.343   4.949   7.490
 6827TIP3   OH242039   5.599   6.387   1.198
 6827TIP3    H142040   5.588   6.482   1.207
 6827TIP3    H242041   5.532   6.350   1.256
 6828TIP3   OH242042   4.626   5.443   7.350
 6828TIP3    H142043   4.574   5.504   7.298
 6828TIP3    H242044   4.690   5.407   7.289
 6829TIP3   OH242045   3.583   0.847   7.582
 6829TIP3    H142046   3.624   0.762   7.596
 6829TIP3    H242047   3.654   0.904   7.554
 6830TIP3   OH242048   3.113   4.778   0.540
 6830TIP3    H142049   3.136   4.830   0.617
 6830TIP3    H242050   3.130   4.836   0.466
 6831TIP3   OH242051   6.544   1.320   1.776
 6831TIP3    H142052   6.459   1.277   1.762
 6831TIP3    H242053   6.528   1.380   1.848
 6832TIP3   OH242054   5.595   6.634   8.611
 6832TIP3    H142055   5.583   6.695   8.538
 6832TIP3    H242056   5.530   6.660   8.676
 6833TIP3   OH242057   5.821   0.007   0.698
 6833TIP3    H142058   5.853   6.742   0.628
 6833TIP3    H242059   5.770   0.074   0.652
 6834TIP3   OH242060   0.596   1.048   2.224
 6834TIP3    H142061   0.614   0.985   2.294
 6834TIP3    H242062   0.659   1.027   2.155
 6835TIP3   OH242063   1.802   5.349   7.626
 6835TIP3    H142064   1.848   5.294   7.562
 6835TIP3    H242065   1.738   5.398   7.574
 6836TIP3   OH242066   4.307   1.155   1.318
 6836TIP3    H142067   4.253   1.078   1.329
 6836TIP3    H242068   4.382   1.126   1.266
 6837TIP3   OH242069   1.094   6.069   8.209
 6837TIP3    H142070   1.143   6.150   8.222
 6837TIP3    H242071   1.093   6.028   8.296
 6838TIP3   OH242072   1.252   4.345   8.037
 6838TIP3    H142073   1.323   4.292   8.073
 6838TIP3    H242074   1.193   4.282   7.996
 6839TIP3   OH242075   1.914   2.480   8.026
 6839TIP3    H142076   1.981   2.518   8.084
 6839TIP3    H242077   1.844   2.453   8.085
 6840TIP3   OH242078   0.122   6.584   0.726
 6840TIP3    H142079   0.033   6.550   0.737
 6840TIP3    H242080   0.111   6.679   0.722
 6841TIP3   OH242081   5.837   3.921   6.920
 6841TIP3    H142082   5.744   3.942   6.933
 6841TIP3    H242083   5.839   3.826   6.919
 6842TIP3   OH242084   2.624   2.984   7.142
 6842TIP3    H142085   2.555   2.922   7.121
 6842TIP3    H242086   2.705   2.943   7.111
 6843TIP3   OH242087   0.762   3.279   2.197
 6843TIP3    H142088   0.759   3.371   2.224
 6843TIP3    H242089   0.804   3.280   2.111
 6844TIP3   OH242090   5.781   0.081   7.773
 6844TIP3    H142091   5.700   0.118   7.738
 6844TIP3    H242092   5.766   0.074   7.867
 6845TIP3   OH242093   2.580   0.125   1.723
 6845TIP3    H142094   2.559   0.177   1.801
 6845TIP3    H242095   2.671   0.148   1.704
 6846TIP3   OH242096   3.638   3.066   1.488
 6846TIP3    H142097   3.692   3.048   1.565
 6846TIP3    H242098   3.689   3.031   1.415
 6847TIP3   OH242099   5.855   0.365   8.000
 6847TIP3    H142100   5.908   0.445   8.002
 6847TIP3    H242101   5.778   0.390   7.949
 6848TIP3   OH242102   1.687   5.351   1.995
 6848TIP3    H142103   1.740   5.430   2.006
 6848TIP3    H242104   1.749   5.283   1.968
 6849TIP3   OH242105   5.180   6.468   1.577
 6849TIP3    H142106   5.231   6.450   1.656
 6849TIP3    H242107   5.183   6.385   1.528
 6850TIP3   OH242108   1.172   6.526   0.374
 6850TIP3    H142109   1.222   6.608   0.378
 6850TIP3    H242110   1.232   6.459   0.405
 6851TIP3   OH242111   5.309   0.915   7.836
 6851TIP3    H142112   5.378   0.964   7.790
 6851TIP3    H242113   5.306   0.954   7.923
 6852TIP3   OH242114   4.698   4.249   7.549
 6852TIP3    H142115   4.619   4.251   7.494
 6852TIP3    H242116   4.691   4.327   7.604
 6853TIP3   OH242117   3.924   0.884   1.473
 6853TIP3    H142118   3.844   0.922   1.437
 6853TIP3    H242119   3.994   0.938   1.436
 6854TIP3   OH242120   6.519   5.474   8.501
 6854TIP3    H142121   6.551   5.404   8.444
 6854TIP3    H242122   6.435   5.442   8.534
 6855TIP3   OH242123   5.922   3.153   1.382
 6855TIP3    H142124   5.841   3.152   1.332
 6855TIP3    H242125   5.900   3.111   1.465
 6856TIP3   OH242126   5.365   4.303   7.728
 6856TIP3    H142127   5.418   4.223   7.727
 6856TIP3    H242128   5.311   4.297   7.650
 6857TIP3   OH242129   5.535   2.542   7.149
 6857TIP3    H142130   5.494   2.628   7.143
 6857TIP3    H242131   5.516   2.500   7.065
 6858TIP3   OH242132   0.182   3.665   1.386
 6858TIP3    H142133   0.259   3.620   1.420
 6858TIP3    H242134   0.109   3.607   1.408
 6859TIP3   OH242135   6.080   3.164   7.697
 6859TIP3    H142136   6.022   3.129   7.630
 6859TIP3    H242137   6.036   3.145   7.780
 6860TIP3   OH242138   6.432   4.461   6.456
 6860TIP3    H142139   6.369   4.420   6.397
 6860TIP3    H242140   6.379   4.510   6.518
 6861TIP3   OH242141   0.991   3.338   8.815
 6861TIP3    H142142   1.043   3.417   8.801
 6861TIP3    H242143   1.044   3.285   0.006
 6862TIP3   OH242144   2.536   4.622   8.730
 6862TIP3    H142145   2.544   4.530   8.707
 6862TIP3    H242146   2.541   4.624   8.826
 6863TIP3   OH242147   5.720   3.904   1.363
 6863TIP3    H142148   5.771   3.954   1.299
 6863TIP3    H242149   5.634   3.946   1.364
 6864TIP3   OH242150   5.746   0.522   2.454
 6864TIP3    H142151   5.749   0.431   2.484
 6864TIP3    H242152   5.719   0.572   2.531
 6865TIP3   OH242153   5.672   1.039   8.007
 6865TIP3    H142154   5.615   1.015   8.080
 6865TIP3    H242155   5.616   1.036   7.930
 6866TIP3   OH242156   1.666   2.114   0.664
 6866TIP3    H142157   1.659   2.209   0.654
 6866TIP3    H242158   1.578   2.081   0.651
 6867TIP3   OH242159   0.545   2.289   8.213
 6867TIP3    H142160   0.535   2.226   8.284
 6867TIP3    H242161   0.456   2.308   8.184
 6868TIP3   OH242162   4.801   4.559   8.854
 6868TIP3    H142163   4.827   4.635   0.038
 6868TIP3    H242164   4.733   4.593   8.795
 6869TIP3   OH242165   4.914   1.188   7.484
 6869TIP3    H142166   4.992   1.183   7.539
 6869TIP3    H242167   4.915   1.108   7.432
 6870TIP3   OH242168   4.625   6.707   1.241
 6870TIP3    H142169   4.689   6.699   1.170
 6870TIP3    H242170   4.674   6.686   1.320
 6871TIP3   OH242171   6.118   1.335   8.097
 6871TIP3    H142172   6.082   1.364   8.181
 6871TIP3    H242173   6.146   1.245   8.113
 6872TIP3   OH242174   0.292   2.301   8.046
 6872TIP3    H142175   0.283   2.396   8.041
 6872TIP3    H242176   0.354   2.279   7.976
 6873TIP3   OH242177   1.874   3.968   0.585
 6873TIP3    H142178   1.964   3.999   0.576
 6873TIP3    H242179   1.857   3.920   0.504
 6874TIP3   OH242180   0.421   5.659   7.086
 6874TIP3    H142181   0.399   5.574   7.048
 6874TIP3    H242182   0.343   5.684   7.137
 6875TIP3   OH242183   2.414   2.114   0.012
 6875TIP3    H142184   2.349   2.091   8.814
 6875TIP3    H242185   2.466   2.035   0.023
 6876TIP3   OH242186   4.558   1.265   1.707
 6876TIP3    H142187   4.561   1.205   1.632
 6876TIP3    H242188   4.560   1.352   1.668
 6877TIP3   OH242189   3.421   0.230   1.398
 6877TIP3    H142190   3.368   0.231   1.478
 6877TIP3    H242191   3.500   0.278   1.420
 6878TIP3   OH242192   0.766   4.596   0.025
 6878TIP3    H142193   0.836   4.585   0.090
 6878TIP3    H242194   0.805   4.563   8.812
 6879TIP3   OH242195   1.040   5.949   8.467
 6879TIP3    H142196   0.947   5.970   8.467
 6879TIP3    H242197   1.061   5.932   8.558
 6880TIP3   OH242198   0.764   6.094   0.026
 6880TIP3    H142199   0.842   6.140   8.864
 6880TIP3    H242200   0.731   6.049   8.817
 6881TIP3   OH242201   1.729   6.668   2.271
 6881TIP3    H142202   1.811   6.636   2.307
 6881TIP3    H242203   1.716   6.754   2.312
 6882TIP3   OH242204   1.135   1.072   8.596
 6882TIP3    H142205   1.187   1.001   8.558
 6882TIP3    H242206   1.069   1.091   8.529
 6883TIP3   OH242207   4.081   6.072   0.999
 6883TIP3    H142208   4.119   5.986   0.985
 6883TIP3    H242209   4.029   6.088   0.920
 6884TIP3   OH242210   2.446   5.195   7.364
 6884TIP3    H142211   2.492   5.196   7.280
 6884TIP3    H242212   2.420   5.286   7.378
 6885TIP3   OH242213   5.491   0.205   6.606
 6885TIP3    H142214   5.420   0.259   6.571
 6885TIP3    H242215   5.488   0.219   6.700
 6886TIP3   OH242216   2.172   0.971   8.571
 6886TIP3    H142217   2.118   1.050   8.566
 6886TIP3    H242218   2.174   0.949   8.664
 6887TIP3   OH242219   0.410   4.173   7.523
 6887TIP3    H142220   0.419   4.260   7.483
 6887TIP3    H242221   0.315   4.160   7.530
 6888TIP3   OH242222   4.625   4.338   1.647
 6888TIP3    H142223   4.700   4.286   1.620
 6888TIP3    H242224   4.663   4.417   1.686
 6889TIP3   OH242225   5.752   2.843   0.783
 6889TIP3    H142226   5.792   2.846   0.696
 6889TIP3    H242227   5.818   2.883   0.841
 6890TIP3   OH242228   0.080   6.643   2.447
 6890TIP3    H142229   0.094   6.737   2.448
 6890TIP3    H242230   0.168   6.606   2.448
 6891TIP3   OH242231   3.325   1.703   0.243
 6891TIP3    H142232   3.371   1.620   0.238
 6891TIP3    H242233   3.320   1.722   0.336
 6892TIP3   OH242234   3.099   0.855   6.418
 6892TIP3    H142235   3.042   0.828   6.490
 6892TIP3    H242236   3.164   0.913   6.460
 6893TIP3   OH242237   3.388   4.280   1.620
 6893TIP3    H142238   3.424   4.205   1.572
 6893TIP3    H242239   3.309   4.247   1.662
 6894TIP3   OH242240   0.418   0.182   7.958
 6894TIP3    H142241   0.490   0.233   7.922
 6894TIP3    H242242   0.347   0.191   7.895
 6895TIP3   OH242243   2.992   1.516   0.940
 6895TIP3    H142244   3.039   1.438   0.969
 6895TIP3    H242245   2.905   1.506   0.979
 6896TIP3   OH242246   0.091   6.519   1.696
 6896TIP3    H142247   0.169   6.574   1.684
 6896TIP3    H242248   0.116   6.457   1.764
 6897TIP3   OH242249   0.822   0.464   6.844
 6897TIP3    H142250   0.903   0.514   6.834
 6897TIP3    H242251   0.785   0.496   6.926
 6898TIP3   OH242252   2.778   3.308   0.678
 6898TIP3    H142253   2.866   3.344   0.667
 6898TIP3    H242254   2.740   3.359   0.750
 6899TIP3   OH242255   3.327   3.642   7.822
 6899TIP3    H142256   3.408   3.613   7.863
 6899TIP3    H242257   3.261   3.579   7.852
 6900TIP3   OH242258   4.169   2.787   1.914
 6900TIP3    H142259   4.159   2.816   1.824
 6900TIP3    H242260   4.170   2.691   1.908
 6901TIP3   OH242261   1.150   4.778   7.740
 6901TIP3    H142262   1.178   4.717   7.671
 6901TIP3    H242263   1.203   4.856   7.726
 6902TIP3   OH242264   3.850   4.444   0.737
 6902TIP3    H142265   3.763   4.444   0.696
 6902TIP3    H242266   3.883   4.355   0.722
 6903TIP3   OH242267   2.875   4.126   1.251
 6903TIP3    H142268   2.821   4.048   1.238
 6903TIP3    H242269   2.827   4.178   1.315
 6904TIP3   OH242270   1.418   3.306   1.318
 6904TIP3    H142271   1.380   3.293   1.231
 6904TIP3    H242272   1.443   3.218   1.346
 6905TIP3   OH242273   5.994   5.151   6.289
 6905TIP3    H142274   5.942   5.082   6.249
 6905TIP3    H242275   6.084   5.129   6.268
 6906TIP3   OH242276   1.445   4.184   8.112
 6906TIP3    H142277   1.443   4.121   8.040
 6906TIP3    H242278   1.426   4.131   8.190
 6907TIP3   OH242279   1.337   2.489   7.150
 6907TIP3    H142280   1.358   2.399   7.126
 6907TIP3    H242281   1.352   2.492   7.245
 6908TIP3   OH242282   2.640   6.578   7.979
 6908TIP3    H142283   2.619   6.573   7.886
 6908TIP3    H242284   2.563   6.543   8.024
 6909TIP3   OH242285   3.900   4.675   1.494
 6909TIP3    H142286   3.823   4.630   1.529
 6909TIP3    H242287   3.875   4.768   1.492
 6910TIP3   OH242288   6.501   4.686   6.809
 6910TIP3    H142289   6.458   4.685   6.723
 6910TIP3    H242290   6.535   4.775   6.818
 6911TIP3   OH242291   3.424   4.261   7.982
 6911TIP3    H142292   3.385   4.174   7.973
 6911TIP3    H242293   3.359   4.312   8.029
 6912TIP3   OH242294   5.415   4.953   8.351
 6912TIP3    H142295   5.443   5.043   8.333
 6912TIP3    H242296   5.427   4.942   8.445
 6913TIP3   OH242297   1.125   4.566   8.522
 6913TIP3    H142298   1.097   4.477   8.541
 6913TIP3    H242299   1.156   4.563   8.432
 6914TIP3   OH242300   6.664   3.440   1.538
 6914TIP3    H142301   6.597   3.371   1.532
 6914TIP3    H242302   6.733   3.402   1.593
 6915TIP3   OH242303   5.328   2.860   7.440
 6915TIP3    H142304   5.346   2.855   7.347
 6915TIP3    H242305   5.369   2.781   7.477
 6916TIP3   OH242306   1.499   0.100   6.422
 6916TIP3    H142307   1.456   0.022   6.458
 6916TIP3    H242308   1.479   0.097   6.328
 6917TIP3   OH242309   1.178   3.750   2.191
 6917TIP3    H142310   1.261   3.767   2.234
 6917TIP3    H242311   1.113   3.795   2.246
 6918TIP3   OH242312   0.184   6.444   6.887
 6918TIP3    H142313   0.123   6.407   6.951
 6918TIP3    H242314   0.168   6.395   6.807
 6919TIP3   OH242315   5.783   3.026   1.576
 6919TIP3    H142316   5.795   2.931   1.579
 6919TIP3    H242317   5.694   3.040   1.609
 6920TIP3   OH242318   0.463   6.750   8.495
 6920TIP3    H142319   0.376   6.766   8.459
 6920TIP3    H242320   0.484   6.661   8.467
 6921TIP3   OH242321   2.429   5.032   8.797
 6921TIP3    H142322   2.519   5.064   8.801
 6921TIP3    H242323   2.375   5.109   8.810
 6922TIP3   OH242324   3.335   5.610   1.404
 6922TIP3    H142325   3.398   5.539   1.395
 6922TIP3    H242326   3.353   5.647   1.490
 6923TIP3   OH242327   2.912   4.202   7.727
 6923TIP3    H142328   2.976   4.140   7.692
 6923TIP3    H242329   2.856   4.149   7.784
 6924TIP3   OH242330   4.027   2.648   0.591
 6924TIP3    H142331   3.938   2.666   0.620
 6924TIP3    H242332   4.056   2.730   0.549
 6925TIP3   OH242333   5.349   3.224   7.626
 6925TIP3    H142334   5.255   3.231   7.614
 6925TIP3    H242335   5.364   3.135   7.656
 6926TIP3   OH242336   3.276   1.147   1.796
 6926TIP3    H142337   3.280   1.095   1.876
 6926TIP3    H242338   3.186   1.181   1.794
 6927TIP3   OH242339   1.102   1.050   7.658
 6927TIP3    H142340   1.148   1.117   7.709
 6927TIP3    H242341   1.101   0.973   7.715
 6928TIP3   OH242342   6.199   0.191   1.503
 6928TIP3    H142343   6.282   0.207   1.457
 6928TIP3    H242344   6.224   0.188   1.595
 6929TIP3   OH242345   0.769   6.023   8.446
 6929TIP3    H142346   0.674   6.012   8.447
 6929TIP3    H242347   0.791   6.034   8.354
 6930TIP3   OH242348   1.599   1.350   0.062
 6930TIP3    H142349   1.663   1.304   0.116
 6930TIP3    H242350   1.639   1.435   0.043
 6931TIP3   OH242351   3.119   4.326   7.456
 6931TIP3    H142352   3.200   4.312   7.505
 6931TIP3    H242353   3.077   4.399   7.501
 6932TIP3   OH242354   1.440   6.209   1.982
 6932TIP3    H142355   1.444   6.259   2.063
 6932TIP3    H242356   1.503   6.138   1.995
 6933TIP3   OH242357   3.591   5.478   6.949
 6933TIP3    H142358   3.579   5.510   6.860
 6933TIP3    H242359   3.604   5.384   6.940
 6934TIP3   OH242360   5.775   4.156   8.111
 6934TIP3    H142361   5.747   4.088   8.172
 6934TIP3    H242362   5.694   4.187   8.070
 6935TIP3   OH242363   4.878   1.994   6.993
 6935TIP3    H142364   4.970   2.005   6.971
 6935TIP3    H242365   4.831   2.044   6.925
 6936TIP3   OH242366   1.211   3.284   1.720
 6936TIP3    H142367   1.261   3.207   1.748
 6936TIP3    H242368   1.220   3.346   1.792
 6937TIP3   OH242369   1.174   3.794   6.715
 6937TIP3    H142370   1.119   3.717   6.706
 6937TIP3    H242371   1.248   3.765   6.768
 6938TIP3   OH242372   2.353   0.895   8.364
 6938TIP3    H142373   2.299   0.915   8.441
 6938TIP3    H242374   2.317   0.951   8.295
 6939TIP3   OH242375   5.294   6.658   2.591
 6939TIP3    H142376   5.229   6.593   2.567
 6939TIP3    H242377   5.293   6.722   2.520
 6940TIP3   OH242378   3.043   6.740   1.915
 6940TIP3    H142379   3.081   6.697   1.839
 6940TIP3    H242380   3.111   6.733   1.983
 6941TIP3   OH242381   0.376   6.302   0.002
 6941TIP3    H142382   0.289   6.320   8.835
 6941TIP3    H242383   0.411   6.233   8.814
 6942TIP3   OH242384   3.162   4.228   1.826
 6942TIP3    H142385   3.124   4.275   1.900
 6942TIP3    H242386   3.174   4.139   1.859
 6943TIP3   OH242387   5.446   0.233   7.294
 6943TIP3    H142388   5.534   0.269   7.302
 6943TIP3    H242389   5.426   0.199   7.381
 6944TIP3   OH242390   4.175   4.952   8.520
 6944TIP3    H142391   4.184   5.047   8.510
 6944TIP3    H242392   4.222   4.931   8.600
 6945TIP3   OH242393   0.561   1.180   5.976
 6945TIP3    H142394   0.603   1.161   6.060
 6945TIP3    H242395   0.580   1.104   5.921
 6946TIP3   OH242396   4.974   2.451   1.561
 6946TIP3    H142397   4.982   2.427   1.469
 6946TIP3    H242398   4.982   2.547   1.561
 6947TIP3   OH242399   2.061   3.516   2.371
 6947TIP3    H142400   2.067   3.577   2.297
 6947TIP3    H242401   2.028   3.569   2.443
 6948TIP3   OH242402   6.306   2.347   6.221
 6948TIP3    H142403   6.395   2.335   6.254
 6948TIP3    H242404   6.308   2.433   6.178
 6949TIP3   OH242405   1.415   0.765   0.401
 6949TIP3    H142406   1.334   0.784   0.353
 6949TIP3    H242407   1.484   0.779   0.337
 6950TIP3   OH242408   0.685   2.123   1.779
 6950TIP3    H142409   0.731   2.134   1.862
 6950TIP3    H242410   0.621   2.194   1.777
 6951TIP3   OH242411   2.177   2.587   0.140
 6951TIP3    H142412   2.141   2.671   0.171
 6951TIP3    H242413   2.158   2.525   0.210
 6952TIP3   OH242414   6.153   3.104   1.225
 6952TIP3    H142415   6.210   3.178   1.204
 6952TIP3    H242416   6.098   3.136   1.296
 6953TIP3   OH242417   3.521   6.509   1.180
 6953TIP3    H142418   3.505   6.574   1.248
 6953TIP3    H242419   3.604   6.536   1.141
 6954TIP3   OH242420   1.125   0.455   7.163
 6954TIP3    H142421   1.063   0.389   7.131
 6954TIP3    H242422   1.175   0.480   7.086
 6955TIP3   OH242423   1.472   0.993   8.399
 6955TIP3    H142424   1.418   1.013   8.476
 6955TIP3    H242425   1.494   0.901   8.408
 6956TIP3   OH242426   4.803   0.175   1.849
 6956TIP3    H142427   4.727   0.223   1.816
 6956TIP3    H242428   4.773   0.084   1.854
 6957TIP3   OH242429   2.979   1.818   8.599
 6957TIP3    H142430   3.029   1.886   8.554
 6957TIP3    H242431   3.046   1.755   8.628
 6958TIP3   OH242432   4.096   4.904   7.397
 6958TIP3    H142433   4.190   4.921   7.412
 6958TIP3    H242434   4.052   4.973   7.447
 6959TIP3   OH242435   0.726   1.422   8.490
 6959TIP3    H142436   0.797   1.482   8.509
 6959TIP3    H242437   0.649   1.463   8.529
 6960TIP3   OH242438   2.242   5.198   2.678
 6960TIP3    H142439   2.225   5.159   2.593
 6960TIP3    H242440   2.298   5.273   2.660
 6961TIP3   OH242441   4.739   1.549   6.809
 6961TIP3    H142442   4.705   1.527   6.723
 6961TIP3    H242443   4.706   1.637   6.827
 6962TIP3   OH242444   3.051   2.974   1.135
 6962TIP3    H142445   3.085   3.046   1.187
 6962TIP3    H242446   3.126   2.947   1.081
 6963TIP3   OH242447   0.786   3.760   7.044
 6963TIP3    H142448   0.733   3.686   7.073
 6963TIP3    H242449   0.790   3.818   7.119
 6964TIP3   OH242450   3.564   1.172   1.015
 6964TIP3    H142451   3.633   1.215   1.066
 6964TIP3    H242452   3.568   1.081   1.041
 6965TIP3   OH242453   2.663   0.441   0.299
 6965TIP3    H142454   2.604   0.495   0.350
 6965TIP3    H242455   2.670   0.486   0.215
 6966TIP3   OH242456   6.375   1.674   0.504
 6966TIP3    H142457   6.398   1.741   0.568
 6966TIP3    H242458   6.297   1.708   0.461
 6967TIP3   OH242459   6.492   5.993   0.546
 6967TIP3    H142460   6.548   6.001   0.469
 6967TIP3    H242461   6.496   5.900   0.569
 6968TIP3   OH242462   0.837   1.304   8.781
 6968TIP3    H142463   0.741   1.307   8.779
 6968TIP3    H242464   0.857   1.228   8.836
 6969TIP3   OH242465   1.323   1.219   8.739
 6969TIP3    H142466   1.403   1.251   8.699
 6969TIP3    H242467   1.264   1.203   8.665
 6970TIP3   OH242468   0.820   6.545   8.760
 6970TIP3    H142469   0.769   6.479   8.713
 6970TIP3    H242470   0.887   6.495   8.806
 6971TIP3   OH242471   3.449   1.700   7.863
 6971TIP3    H142472   3.472   1.793   7.865
 6971TIP3    H242473   3.366   1.695   7.911
 6972TIP3   OH242474   2.075   4.156   0.671
 6972TIP3    H142475   2.128   4.188   0.598
 6972TIP3    H242476   2.005   4.221   0.681
 6973TIP3   OH242477   2.664   3.149   0.363
 6973TIP3    H142478   2.588   3.092   0.351
 6973TIP3    H242479   2.686   3.179   0.275
 6974TIP3   OH242480   2.135   1.345   8.774
 6974TIP3    H142481   2.110   1.374   8.862
 6974TIP3    H242482   2.227   1.319   8.783
 6975TIP3   OH242483   4.174   4.612   1.026
 6975TIP3    H142484   4.107   4.548   1.001
 6975TIP3    H242485   4.189   4.595   1.119
 6976TIP3   OH242486   6.493   6.243   0.658
 6976TIP3    H142487   6.462   6.204   0.576
 6976TIP3    H242488   6.489   6.172   0.722
 6977TIP3   OH242489   0.773   1.234   6.560
 6977TIP3    H142490   0.741   1.150   6.593
 6977TIP3    H242491   0.696   1.291   6.562
 6978TIP3   OH242492   1.347   6.303   0.089
 6978TIP3    H142493   1.349   6.345   0.175
 6978TIP3    H242494   1.399   6.361   0.034
 6979TIP3   OH242495   4.270   1.668   0.326
 6979TIP3    H142496   4.207   1.597   0.311
 6979TIP3    H242497   4.240   1.739   0.269
 6980TIP3   OH242498   2.701   4.819   7.981
 6980TIP3    H142499   2.647   4.890   7.946
 6980TIP3    H242500   2.743   4.857   8.058
 6981TIP3   OH242501   2.089   2.321   2.439
 6981TIP3    H142502   2.002   2.335   2.477
 6981TIP3    H242503   2.101   2.226   2.441
 6982TIP3   OH242504   5.592   0.074   1.038
 6982TIP3    H142505   5.532   6.792   1.036
 6982TIP3    H242506   5.554   0.133   1.103
 6983TIP3   OH242507   6.252   5.775   8.340
 6983TIP3    H142508   6.261   5.846   8.403
 6983TIP3    H242509   6.334   5.775   8.291
 6984TIP3   OH242510   1.486   6.197   7.795
 6984TIP3    H142511   1.516   6.116   7.754
 6984TIP3    H242512   1.510   6.188   7.887
 6985TIP3   OH242513   5.441   6.122   1.936
 6985TIP3    H142514   5.509   6.069   1.894
 6985TIP3    H242515   5.365   6.064   1.941
 6986TIP3   OH242516   2.381   3.253   1.226
 6986TIP3    H142517   2.473   3.230   1.244
 6986TIP3    H242518   2.347   3.178   1.177
 6987TIP3   OH242519   3.601   5.958   1.030
 6987TIP3    H142520   3.559   5.948   0.945
 6987TIP3    H242521   3.529   5.967   1.092
 6988TIP3   OH242522   4.326   3.505   0.922
 6988TIP3    H142523   4.413   3.469   0.938
 6988TIP3    H242524   4.269   3.428   0.918
 6989TIP3   OH242525   5.423   5.581   0.897
 6989TIP3    H142526   5.451   5.508   0.953
 6989TIP3    H242527   5.501   5.603   0.846
 6990TIP3   OH242528   2.414   3.515   7.328
 6990TIP3    H142529   2.404   3.596   7.278
 6990TIP3    H242530   2.415   3.542   7.419
 6991TIP3   OH242531   2.459   0.064   7.260
 6991TIP3    H142532   2.463   0.090   7.168
 6991TIP3    H242533   2.384   0.112   7.296
 6992TIP3   OH242534   0.844   5.518   7.458
 6992TIP3    H142535   0.807   5.449   7.404
 6992TIP3    H242536   0.928   5.538   7.417
 6993TIP3   OH242537   5.100   6.054   0.095
 6993TIP3    H142538   5.113   5.977   0.150
 6993TIP3    H242539   5.166   6.116   0.126
 6994TIP3   OH242540   1.948   5.329   7.187
 6994TIP3    H142541   2.008   5.274   7.136
 6994TIP3    H242542   1.956   5.297   7.277
 6995TIP3   OH242543   0.567   0.112   0.545
 6995TIP3    H142544   0.604   0.123   0.632
 6995TIP3    H242545   0.477   0.144   0.552
 6996TIP3   OH242546   2.875   3.925   0.423
 6996TIP3    H142547   2.894   3.867   0.497
 6996TIP3    H242548   2.952   3.917   0.366
 6997TIP3   OH242549   2.086   0.878   1.274
 6997TIP3    H142550   2.142   0.912   1.344
 6997TIP3    H242551   2.146   0.856   1.203
 6998TIP3   OH242552   1.390   4.063   8.366
 6998TIP3    H142553   1.456   4.012   8.413
 6998TIP3    H242554   1.313   4.007   8.366
 6999TIP3   OH242555   2.474   0.757   8.043
 6999TIP3    H142556   2.496   0.747   8.136
 6999TIP3    H242557   2.484   0.850   8.026
 7000TIP3   OH242558   0.792   4.178   6.571
 7000TIP3    H142559   0.755   4.258   6.609
 7000TIP3    H242560   0.716   4.121   6.559
 7001TIP3   OH242561   2.914   3.207   7.232
 7001TIP3    H142562   2.841   3.238   7.286
 7001TIP3    H242563   2.878   3.203   7.144
 7002TIP3   OH242564   2.778   0.359   1.906
 7002TIP3    H142565   2.810   0.437   1.951
 7002TIP3    H242566   2.855   0.302   1.900
 7003TIP3   OH242567   2.225   5.717   6.770
 7003TIP3    H142568   2.269   5.654   6.712
 7003TIP3    H242569   2.170   5.769   6.712
 7004TIP3   OH242570   6.506   1.213   8.327
 7004TIP3    H142571   6.492   1.307   8.314
 7004TIP3    H242572   6.494   1.200   8.421
 7005TIP3   OH242573   2.675   1.435   7.394
 7005TIP3    H142574   2.599   1.377   7.391
 7005TIP3    H242575   2.718   1.414   7.477
 7006TIP3   OH242576   3.062   3.019   2.361
 7006TIP3    H142577   3.039   3.098   2.312
 7006TIP3    H242578   3.121   3.049   2.430
 7007TIP3   OH242579   3.317   5.284   7.430
 7007TIP3    H142580   3.406   5.282   7.394
 7007TIP3    H242581   3.317   5.361   7.487
 7008TIP3   OH242582   2.054   6.105   7.766
 7008TIP3    H142583   2.042   6.094   7.672
 7008TIP3    H242584   1.985   6.051   7.805
 7009TIP3   OH242585   2.541   2.804   8.380
 7009TIP3    H142586   2.583   2.873   8.328
 7009TIP3    H242587   2.460   2.845   8.412
 7010TIP3   OH242588   1.015   5.384   0.808
 7010TIP3    H142589   0.932   5.432   0.811
 7010TIP3    H242590   1.078   5.448   0.775
 7011TIP3   OH242591   2.987   5.205   7.801
 7011TIP3    H142592   3.003   5.286   7.752
 7011TIP3    H242593   2.995   5.136   7.735
 7012TIP3   OH242594   6.257   1.666   8.364
 7012TIP3    H142595   6.268   1.755   8.397
 7012TIP3    H242596   6.347   1.636   8.347
 7013TIP3   OH242597   1.208   2.813   1.786
 7013TIP3    H142598   1.156   2.776   1.857
 7013TIP3    H242599   1.259   2.738   1.753
 7014TIP3   OH242600   5.034   1.653   1.979
 7014TIP3    H142601   5.079   1.581   2.023
 7014TIP3    H242602   5.037   1.725   2.042
 7015TIP3   OH242603   2.074   2.090   8.347
 7015TIP3    H142604   2.077   2.138   8.429
 7015TIP3    H242605   2.108   2.151   8.282
 7016TIP3   OH242606   0.150   2.795   7.340
 7016TIP3    H142607   0.195   2.879   7.332
 7016TIP3    H242608   0.150   2.759   7.251
 7017TIP3   OH242609   6.333   3.075   2.487
 7017TIP3    H142610   6.270   3.075   2.558
 7017TIP3    H242611   6.352   2.983   2.471
 7018TIP3   OH242612   5.529   6.412   7.287
 7018TIP3    H142613   5.602   6.443   7.341
 7018TIP3    H242614   5.533   6.316   7.296
 7019TIP3   OH242615   0.997   1.269   8.403
 7019TIP3    H142616   0.906   1.242   8.416
 7019TIP3    H242617   1.003   1.353   8.448
 7020TIP3   OH242618   2.349   2.762   1.332
 7020TIP3    H142619   2.386   2.718   1.409
 7020TIP3    H242620   2.275   2.812   1.366
 7021TIP3   OH242621   6.296   3.940   0.000
 7021TIP3    H142622   6.203   3.928   0.020
 7021TIP3    H242623   6.341   3.885   0.064
 7022TIP3   OH242624   2.600   2.215   1.461
 7022TIP3    H142625   2.541   2.216   1.386
 7022TIP3    H242626   2.547   2.248   1.534
 7023TIP3   OH242627   5.293   3.896   0.854
 7023TIP3    H142628   5.369   3.941   0.818
 7023TIP3    H242629   5.267   3.833   0.786
 7024TIP3   OH242630   3.508   4.820   8.127
 7024TIP3    H142631   3.490   4.792   8.037
 7024TIP3    H242632   3.532   4.740   8.173
 7025TIP3   OH242633   1.493   4.235   1.370
 7025TIP3    H142634   1.412   4.185   1.381
 7025TIP3    H242635   1.477   4.317   1.418
 7026TIP3   OH242636   2.922   4.701   7.252
 7026TIP3    H142637   2.855   4.633   7.260
 7026TIP3    H242638   2.935   4.710   7.158
 7027TIP3   OH242639   6.225   2.400   0.934
 7027TIP3    H142640   6.192   2.312   0.953
 7027TIP3    H242641   6.154   2.442   0.886
 7028TIP3   OH242642   1.936   0.747   7.277
 7028TIP3    H142643   1.856   0.767   7.228
 7028TIP3    H242644   1.923   0.657   7.308
 7029TIP3   OH242645   5.159   6.358   1.203
 7029TIP3    H142646   5.113   6.287   1.249
 7029TIP3    H242647   5.116   6.364   1.118
 7030TIP3   OH242648   4.972   5.858   0.810
 7030TIP3    H142649   4.922   5.812   0.878
 7030TIP3    H242650   4.963   5.802   0.733
 7031TIP3   OH242651   3.518   2.491   7.861
 7031TIP3    H142652   3.499   2.415   7.916
 7031TIP3    H242653   3.584   2.540   7.910
 7032TIP3   OH242654   3.769   3.654   8.452
 7032TIP3    H142655   3.761   3.584   8.387
 7032TIP3    H242656   3.854   3.639   8.494
 7033TIP3   OH242657   1.920   5.314   1.499
 7033TIP3    H142658   1.919   5.262   1.419
 7033TIP3    H242659   1.900   5.403   1.471
 7034TIP3   OH242660   5.630   5.061   6.950
 7034TIP3    H142661   5.703   5.047   6.890
 7034TIP3    H242662   5.552   5.049   6.896
 7035TIP3   OH242663   1.507   2.716   6.883
 7035TIP3    H142664   1.585   2.768   6.866
 7035TIP3    H242665   1.532   2.627   6.862
 7036TIP3   OH242666   1.228   1.149   0.706
 7036TIP3    H142667   1.266   1.142   0.619
 7036TIP3    H242668   1.287   1.100   0.763
 7037TIP3   OH242669   4.466   4.756   7.076
 7037TIP3    H142670   4.455   4.687   7.010
 7037TIP3    H242671   4.540   4.808   7.043
 7038TIP3   OH242672   6.156   5.573   1.732
 7038TIP3    H142673   6.235   5.622   1.708
 7038TIP3    H242674   6.179   5.482   1.717
 7039TIP3   OH242675   6.434   5.049   8.347
 7039TIP3    H142676   6.400   5.085   8.265
 7039TIP3    H242677   6.420   4.955   8.340
 7040TIP3   OH242678   6.205   1.607   8.805
 7040TIP3    H142679   6.173   1.643   8.723
 7040TIP3    H242680   6.211   1.512   8.789
 7041TIP3   OH242681   5.418   5.663   1.311
 7041TIP3    H142682   5.366   5.595   1.354
 7041TIP3    H242683   5.451   5.717   1.383
 7042TIP3   OH242684   5.537   1.914   1.755
 7042TIP3    H142685   5.488   1.832   1.750
 7042TIP3    H242686   5.531   1.952   1.667
 7043TIP3   OH242687   1.568   3.827   7.169
 7043TIP3    H142688   1.514   3.878   7.108
 7043TIP3    H242689   1.504   3.789   7.230
 7044TIP3   OH242690   6.303   6.283   7.477
 7044TIP3    H142691   6.211   6.260   7.466
 7044TIP3    H242692   6.343   6.261   7.392
 7045TIP3   OH242693   1.754   5.880   7.941
 7045TIP3    H142694   1.684   5.915   7.887
 7045TIP3    H242695   1.750   5.785   7.927
 7046TIP3   OH242696   0.183   2.525   2.170
 7046TIP3    H142697   0.194   2.549   2.262
 7046TIP3    H242698   0.263   2.556   2.128
 7047TIP3   OH242699   6.230   6.392   8.246
 7047TIP3    H142700   6.169   6.438   8.303
 7047TIP3    H242701   6.200   6.301   8.246
 7048TIP3   OH242702   1.818   2.959   6.967
 7048TIP3    H142703   1.781   2.959   6.878
 7048TIP3    H242704   1.770   3.029   7.012
 7049TIP3   OH242705   5.696   2.561   7.378
 7049TIP3    H142706   5.658   2.575   7.291
 7049TIP3    H242707   5.714   2.467   7.381
 7050TIP3   OH242708   3.781   6.518   1.137
 7050TIP3    H142709   3.850   6.574   1.100
 7050TIP3    H242710   3.816   6.429   1.129
 7051TIP3   OH242711   5.574   0.032   0.497
 7051TIP3    H142712   5.596   6.787   0.411
 7051TIP3    H242713   5.637   0.103   0.508
 7052TIP3   OH242714   5.097   4.841   0.197
 7052TIP3    H142715   5.124   4.754   0.167
 7052TIP3    H242716   5.176   4.879   0.234
 7053TIP3   OH242717   6.096   6.152   7.970
 7053TIP3    H142718   6.190   6.150   7.951
 7053TIP3    H242719   6.062   6.072   7.930
 7054TIP3   OH242720   5.228   0.476   6.837
 7054TIP3    H142721   5.155   0.533   6.861
 7054TIP3    H242722   5.261   0.444   6.921
 7055TIP3   OH242723   1.267   2.371   8.762
 7055TIP3    H142724   1.322   2.334   8.831
 7055TIP3    H242725   1.305   2.457   8.744
 7056TIP3   OH242726   0.623   5.799   7.817
 7056TIP3    H142727   0.696   5.761   7.767
 7056TIP3    H242728   0.545   5.775   7.767
 7057TIP3   OH242729   5.031   2.588   0.692
 7057TIP3    H142730   5.004   2.531   0.763
 7057TIP3    H242731   4.965   2.574   0.623
 7058TIP3   OH242732   4.518   3.447   8.574
 7058TIP3    H142733   4.424   3.463   8.568
 7058TIP3    H242734   4.545   3.422   8.486
 7059TIP3   OH242735   1.090   5.422   8.008
 7059TIP3    H142736   1.168   5.417   8.063
 7059TIP3    H242737   1.058   5.332   8.004
 7060TIP3   OH242738   3.992   2.558   8.653
 7060TIP3    H142739   3.986   2.641   8.700
 7060TIP3    H242740   3.970   2.580   8.562
 7061TIP3   OH242741   0.796   2.683   8.319
 7061TIP3    H142742   0.886   2.657   8.301
 7061TIP3    H242743   0.744   2.636   8.253
 7062TIP3   OH242744   1.888   1.583   7.145
 7062TIP3    H142745   1.802   1.622   7.160
 7062TIP3    H242746   1.925   1.634   7.073
 7063TIP3   OH242747   3.687   5.080   8.245
 7063TIP3    H142748   3.735   5.081   8.328
 7063TIP3    H242749   3.713   4.999   8.203
 7064TIP3   OH242750   1.893   2.607   7.322
 7064TIP3    H142751   1.820   2.607   7.260
 7064TIP3    H242752   1.915   2.515   7.334
 7065TIP3   OH242753   1.405   0.585   8.795
 7065TIP3    H142754   1.352   0.633   8.859
 7065TIP3    H242755   1.494   0.585   8.832
 7066TIP3   OH242756   0.103   2.051   7.348
 7066TIP3    H142757   0.019   2.096   7.359
 7066TIP3    H242758   0.132   2.075   7.260
 7067TIP3   OH242759   5.931   4.766   1.368
 7067TIP3    H142760   5.849   4.813   1.380
 7067TIP3    H242761   5.997   4.834   1.356
 7068TIP3   OH242762   3.297   4.201   0.900
 7068TIP3    H142763   3.339   4.285   0.922
 7068TIP3    H242764   3.227   4.192   0.965
 7069TIP3   OH242765   6.496   3.228   1.168
 7069TIP3    H142766   6.415   3.278   1.157
 7069TIP3    H242767   6.564   3.285   1.133
 7070TIP3   OH242768   5.024   0.676   1.917
 7070TIP3    H142769   4.997   0.734   1.846
 7070TIP3    H242770   4.942   0.642   1.952
 7071TIP3   OH242771   1.969   1.166   8.597
 7071TIP3    H142772   1.875   1.151   8.610
 7071TIP3    H242773   1.990   1.238   8.656
 7072LIG      O42774   3.132   4.572   4.198
 7072LIG     C142775   3.164   4.639   4.321
 7072LIG     C242776   3.135   4.547   4.435
 7072LIG     C342777   3.318   4.674   4.309
 7072LIG     H142778   3.109   4.736   4.329
 7072LIG     H242779   3.177   4.445   4.431
 7072LIG     H342780   3.024   4.541   4.428
 7072LIG     H442781   3.159   4.596   4.532
 7072LIG     H542782   3.370   4.576   4.317
 7072LIG     H642783   3.354   4.725   4.401
 7072LIG     H742784   3.348   4.723   4.213
 7072LIG     H842785   3.133   4.639   4.128
   6.79286   6.79286   8.86846
