Title t= 11900.00000 step= 5950000
42785
    1SAPS     N    1   4.264   3.763   6.361
    1SAPS   HN1    2   4.342   3.694   6.363
    1SAPS   HN2    3   4.258   3.824   6.277
    1SAPS   HN3    4   4.287   3.829   6.437
    1SAPS   C12    5   4.129   3.701   6.400
    1SAPS  H12A    6   4.104   3.618   6.336
    1SAPS   C13    7   4.133   3.645   6.546
    1SAPS  O13A    8   4.242   3.630   6.603
    1SAPS  O13B    9   4.025   3.621   6.602
    1SAPS   C11   10   4.024   3.814   6.395
    1SAPS  H11A   11   4.045   3.901   6.461
    1SAPS  H11B   12   3.933   3.758   6.425
    1SAPS     P   13   4.051   4.002   6.208
    1SAPS   O13   14   3.992   4.111   6.285
    1SAPS   O14   15   4.205   3.998   6.204
    1SAPS   O12   16   4.003   3.863   6.270
    1SAPS   O11   17   3.989   4.004   6.061
    1SAPS    C1   18   3.872   3.933   6.024
    1SAPS    HA   19   3.882   3.826   6.052
    1SAPS    HB   20   3.782   3.976   6.073
    1SAPS    C2   21   3.857   3.928   5.866
    1SAPS    HS   22   3.788   3.847   5.834
    1SAPS   O21   23   3.982   3.900   5.802
    1SAPS   C21   24   4.021   3.775   5.773
    1SAPS   O22   25   3.951   3.679   5.811
    1SAPS   C22   26   4.140   3.773   5.685
    1SAPS   H2R   27   4.098   3.813   5.591
    1SAPS   H2S   28   4.218   3.837   5.731
    1SAPS    C3   29   3.798   4.061   5.812
    1SAPS    HX   30   3.870   4.136   5.850
    1SAPS    HY   31   3.703   4.072   5.869
    1SAPS   O31   32   3.792   4.066   5.667
    1SAPS   C31   33   3.681   4.012   5.625
    1SAPS   O32   34   3.602   3.946   5.691
    1SAPS   C32   35   3.655   4.059   5.480
    1SAPS   H2X   36   3.759   4.076   5.445
    1SAPS   H2Y   37   3.603   4.156   5.491
    1SAPS   C23   38   4.191   3.629   5.659
    1SAPS   H3R   39   4.120   3.546   5.638
    1SAPS   H3S   40   4.243   3.596   5.751
    1SAPS   C24   41   4.307   3.619   5.556
    1SAPS   H4R   42   4.265   3.648   5.457
    1SAPS   H4S   43   4.333   3.511   5.550
    1SAPS   C25   44   4.428   3.703   5.595
    1SAPS   H5R   45   4.492   3.637   5.655
    1SAPS   C26   46   4.480   3.825   5.566
    1SAPS   H6R   47   4.564   3.864   5.625
    1SAPS   C27   48   4.411   3.940   5.484
    1SAPS   H7R   49   4.320   3.897   5.436
    1SAPS   H7S   50   4.473   3.981   5.401
    1SAPS   C28   51   4.366   4.057   5.564
    1SAPS   H8R   52   4.402   4.059   5.668
    1SAPS   C29   53   4.283   4.154   5.530
    1SAPS   H9R   54   4.255   4.232   5.601
    1SAPS  C210   55   4.205   4.170   5.396
    1SAPS  H10R   56   4.262   4.163   5.301
    1SAPS  H10S   57   4.171   4.276   5.386
    1SAPS  C211   58   4.077   4.088   5.406
    1SAPS  H11R   59   4.008   4.133   5.480
    1SAPS  C212   60   4.038   3.977   5.345
    1SAPS  H12R   61   3.937   3.942   5.372
    1SAPS  C213   62   4.096   3.889   5.239
    1SAPS  H13R   63   4.084   3.782   5.268
    1SAPS  H13S   64   4.207   3.897   5.246
    1SAPS  C214   65   4.026   3.906   5.109
    1SAPS  H14R   66   3.916   3.900   5.115
    1SAPS  C215   67   4.092   3.912   4.989
    1SAPS  H15R   68   4.037   3.913   4.894
    1SAPS  C216   69   4.239   3.927   4.964
    1SAPS  H16R   70   4.256   3.916   4.855
    1SAPS  H16S   71   4.290   3.847   5.021
    1SAPS  C217   72   4.282   4.067   5.015
    1SAPS  H17R   73   4.280   4.073   5.125
    1SAPS  H17S   74   4.227   4.145   4.958
    1SAPS  C218   75   4.424   4.093   4.960
    1SAPS  H18R   76   4.460   4.199   4.967
    1SAPS  H18S   77   4.421   4.066   4.853
    1SAPS  C219   78   4.534   3.995   5.020
    1SAPS  H19R   79   4.628   4.031   4.974
    1SAPS  H19S   80   4.519   3.889   4.987
    1SAPS  C220   81   4.540   4.001   5.174
    1SAPS  H20R   82   4.628   3.945   5.212
    1SAPS  H20S   83   4.450   3.952   5.217
    1SAPS  H20T   84   4.550   4.104   5.214
    1SAPS   C33   85   3.584   3.952   5.397
    1SAPS   H3X   86   3.504   3.914   5.463
    1SAPS   H3Y   87   3.655   3.867   5.387
    1SAPS   C34   88   3.545   4.006   5.258
    1SAPS   H4X   89   3.544   4.118   5.257
    1SAPS   H4Y   90   3.440   3.984   5.228
    1SAPS   C35   91   3.633   3.945   5.145
    1SAPS   H5X   92   3.613   3.837   5.129
    1SAPS   H5Y   93   3.737   3.965   5.178
    1SAPS   C36   94   3.600   4.002   5.009
    1SAPS   H6X   95   3.581   4.110   5.025
    1SAPS   H6Y   96   3.504   3.959   4.972
    1SAPS   C37   97   3.704   3.977   4.905
    1SAPS   H7X   98   3.685   3.869   4.887
    1SAPS   H7Y   99   3.805   3.982   4.951
    1SAPS   C38  100   3.707   4.068   4.784
    1SAPS   H8X  101   3.692   4.174   4.815
    1SAPS   H8Y  102   3.617   4.050   4.721
    1SAPS   C39  103   3.832   4.071   4.692
    1SAPS   H9X  104   3.922   4.115   4.741
    1SAPS   H9Y  105   3.809   4.145   4.613
    1SAPS  C310  106   3.865   3.935   4.636
    1SAPS  H10X  107   3.799   3.922   4.548
    1SAPS  H10Y  108   3.839   3.859   4.713
    1SAPS  C311  109   4.020   3.918   4.604
    1SAPS  H11X  110   4.080   3.950   4.692
    1SAPS  H11Y  111   4.046   3.988   4.521
    1SAPS  C312  112   4.055   3.785   4.540
    1SAPS  H12X  113   4.071   3.792   4.430
    1SAPS  H12Y  114   3.957   3.734   4.549
    1SAPS  C313  115   4.175   3.715   4.602
    1SAPS  H13X  116   4.177   3.611   4.564
    1SAPS  H13Y  117   4.164   3.701   4.712
    1SAPS  C314  118   4.313   3.781   4.570
    1SAPS  H14X  119   4.308   3.892   4.571
    1SAPS  H14Y  120   4.354   3.748   4.471
    1SAPS  C315  121   4.421   3.729   4.663
    1SAPS  H15X  122   4.413   3.618   4.661
    1SAPS  H15Y  123   4.400   3.761   4.768
    1SAPS  C316  124   4.561   3.772   4.628
    1SAPS  H16X  125   4.557   3.878   4.597
    1SAPS  H16Y  126   4.594   3.716   4.537
    1SAPS  C317  127   4.661   3.738   4.743
    1SAPS  H17X  128   4.626   3.642   4.787
    1SAPS  H17Y  129   4.646   3.814   4.824
    1SAPS  C318  130   4.809   3.735   4.711
    1SAPS  H18X  131   4.872   3.717   4.801
    1SAPS  H18Y  132   4.841   3.836   4.676
    1SAPS  H18Z  133   4.830   3.659   4.633
    2SAPS     N  134   4.848   5.924   6.471
    2SAPS   HN1  135   4.897   5.994   6.412
    2SAPS   HN2  136   4.918   5.853   6.501
    2SAPS   HN3  137   4.774   5.880   6.413
    2SAPS   C12  138   4.800   5.998   6.594
    2SAPS  H12A  139   4.745   5.923   6.649
    2SAPS   C13  140   4.915   6.037   6.683
    2SAPS  O13A  141   5.028   5.984   6.670
    2SAPS  O13B  142   4.894   6.098   6.792
    2SAPS   C11  143   4.723   6.126   6.543
    2SAPS  H11A  144   4.798   6.186   6.487
    2SAPS  H11B  145   4.682   6.183   6.629
    2SAPS     P  146   4.518   6.194   6.405
    2SAPS   O13  147   4.397   6.129   6.361
    2SAPS   O14  148   4.505   6.303   6.501
    2SAPS   O12  149   4.613   6.087   6.464
    2SAPS   O11  150   4.588   6.246   6.274
    2SAPS    C1  151   4.671   6.160   6.189
    2SAPS    HA  152   4.770   6.145   6.236
    2SAPS    HB  153   4.627   6.058   6.183
    2SAPS    C2  154   4.684   6.221   6.047
    2SAPS    HS  155   4.733   6.148   5.979
    2SAPS   O21  156   4.755   6.345   6.063
    2SAPS   C21  157   4.886   6.317   6.051
    2SAPS   O22  158   4.938   6.207   6.042
    2SAPS   C22  159   4.977   6.437   6.055
    2SAPS   H2R  160   4.986   6.492   6.151
    2SAPS   H2S  161   5.079   6.399   6.033
    2SAPS    C3  162   4.550   6.245   5.985
    2SAPS    HX  163   4.507   6.324   6.050
    2SAPS    HY  164   4.494   6.150   5.988
    2SAPS   O31  165   4.582   6.281   5.850
    2SAPS   C31  166   4.521   6.388   5.803
    2SAPS   O32  167   4.459   6.470   5.863
    2SAPS   C32  168   4.564   6.402   5.657
    2SAPS   H2X  169   4.645   6.327   5.641
    2SAPS   H2Y  170   4.607   6.504   5.662
    2SAPS   C23  171   4.925   6.540   5.954
    2SAPS   H3R  172   4.979   6.633   5.979
    2SAPS   H3S  173   4.820   6.569   5.976
    2SAPS   C24  174   4.938   6.489   5.805
    2SAPS   H4R  175   4.912   6.574   5.739
    2SAPS   H4S  176   4.857   6.413   5.794
    2SAPS   C25  177   5.085   6.455   5.768
    2SAPS   H5R  178   5.159   6.535   5.782
    2SAPS   C26  179   5.127   6.343   5.714
    2SAPS   H6R  180   5.235   6.337   5.694
    2SAPS   C27  181   5.055   6.212   5.681
    2SAPS   H7R  182   5.017   6.174   5.778
    2SAPS   H7S  183   5.142   6.149   5.651
    2SAPS   C28  184   4.940   6.234   5.582
    2SAPS   H8R  185   4.846   6.264   5.631
    2SAPS   C29  186   4.939   6.249   5.452
    2SAPS   H9R  187   4.843   6.262   5.399
    2SAPS  C210  188   5.044   6.236   5.345
    2SAPS  H10R  189   5.013   6.197   5.245
    2SAPS  H10S  190   5.109   6.154   5.381
    2SAPS  C211  191   5.127   6.355   5.314
    2SAPS  H11R  192   5.077   6.450   5.337
    2SAPS  C212  193   5.255   6.357   5.272
    2SAPS  H12R  194   5.303   6.456   5.262
    2SAPS  C213  195   5.334   6.235   5.247
    2SAPS  H13R  196   5.277   6.154   5.197
    2SAPS  H13S  197   5.376   6.198   5.344
    2SAPS  C214  198   5.461   6.252   5.163
    2SAPS  H14R  199   5.545   6.289   5.224
    2SAPS  C215  200   5.480   6.224   5.028
    2SAPS  H15R  201   5.572   6.262   4.981
    2SAPS  C216  202   5.367   6.166   4.943
    2SAPS  H16R  203   5.271   6.143   4.994
    2SAPS  H16S  204   5.400   6.077   4.885
    2SAPS  C217  205   5.317   6.267   4.838
    2SAPS  H17R  206   5.400   6.287   4.768
    2SAPS  H17S  207   5.289   6.362   4.887
    2SAPS  C218  208   5.194   6.209   4.764
    2SAPS  H18R  209   5.136   6.294   4.723
    2SAPS  H18S  210   5.126   6.165   4.840
    2SAPS  C219  211   5.239   6.111   4.652
    2SAPS  H19R  212   5.273   6.019   4.704
    2SAPS  H19S  213   5.334   6.148   4.606
    2SAPS  C220  214   5.115   6.069   4.560
    2SAPS  H20R  215   5.027   6.043   4.622
    2SAPS  H20S  216   5.147   5.989   4.489
    2SAPS  H20T  217   5.084   6.152   4.493
    2SAPS   C33  218   4.454   6.362   5.553
    2SAPS   H3X  219   4.360   6.419   5.569
    2SAPS   H3Y  220   4.431   6.256   5.577
    2SAPS   C34  221   4.498   6.375   5.406
    2SAPS   H4X  222   4.591   6.315   5.393
    2SAPS   H4Y  223   4.541   6.476   5.388
    2SAPS   C35  224   4.394   6.342   5.304
    2SAPS   H5X  225   4.319   6.424   5.311
    2SAPS   H5Y  226   4.340   6.248   5.330
    2SAPS   C36  227   4.446   6.337   5.161
    2SAPS   H6X  228   4.528   6.263   5.153
    2SAPS   H6Y  229   4.492   6.434   5.134
    2SAPS   C37  230   4.343   6.291   5.064
    2SAPS   H7X  231   4.248   6.341   5.090
    2SAPS   H7Y  232   4.339   6.180   5.069
    2SAPS   C38  233   4.385   6.301   4.909
    2SAPS   H8X  234   4.475   6.241   4.882
    2SAPS   H8Y  235   4.406   6.410   4.894
    2SAPS   C39  236   4.272   6.255   4.817
    2SAPS   H9X  237   4.188   6.306   4.870
    2SAPS   H9Y  238   4.275   6.144   4.826
    2SAPS  C310  239   4.305   6.293   4.674
    2SAPS  H10X  240   4.411   6.288   4.639
    2SAPS  H10Y  241   4.282   6.395   4.637
    2SAPS  C311  242   4.235   6.192   4.579
    2SAPS  H11X  243   4.124   6.198   4.575
    2SAPS  H11Y  244   4.259   6.094   4.626
    2SAPS  C312  245   4.289   6.176   4.435
    2SAPS  H12X  246   4.212   6.113   4.385
    2SAPS  H12Y  247   4.390   6.132   4.423
    2SAPS  C313  248   4.290   6.312   4.373
    2SAPS  H13X  249   4.369   6.379   4.414
    2SAPS  H13Y  250   4.196   6.370   4.390
    2SAPS  C314  251   4.313   6.300   4.222
    2SAPS  H14X  252   4.232   6.232   4.187
    2SAPS  H14Y  253   4.409   6.248   4.202
    2SAPS  C315  254   4.314   6.434   4.151
    2SAPS  H15X  255   4.341   6.409   4.046
    2SAPS  H15Y  256   4.394   6.502   4.189
    2SAPS  C316  257   4.184   6.522   4.152
    2SAPS  H16X  258   4.149   6.547   4.255
    2SAPS  H16Y  259   4.100   6.469   4.102
    2SAPS  C317  260   4.196   6.656   4.076
    2SAPS  H17X  261   4.260   6.637   3.987
    2SAPS  H17Y  262   4.260   6.729   4.130
    2SAPS  C318  263   4.057   6.708   4.052
    2SAPS  H18X  264   4.000   6.635   3.991
    2SAPS  H18Y  265   4.076   6.806   4.003
    2SAPS  H18Z  266   3.999   6.721   4.146
    3SAPS     N  267   5.165   4.277   6.552
    3SAPS   HN1  268   5.238   4.338   6.510
    3SAPS   HN2  269   5.088   4.330   6.597
    3SAPS   HN3  270   5.212   4.219   6.624
    3SAPS   C12  271   5.100   4.184   6.455
    3SAPS  H12A  272   5.169   4.120   6.401
    3SAPS   C13  273   5.017   4.070   6.532
    3SAPS  O13A  274   5.027   4.064   6.657
    3SAPS  O13B  275   4.992   3.973   6.458
    3SAPS   C11  276   5.020   4.261   6.349
    3SAPS  H11A  277   4.946   4.193   6.303
    3SAPS  H11B  278   5.093   4.286   6.269
    3SAPS     P  279   4.871   4.469   6.276
    3SAPS   O13  280   4.760   4.384   6.238
    3SAPS   O14  281   4.849   4.603   6.338
    3SAPS   O12  282   4.957   4.384   6.388
    3SAPS   O11  283   4.971   4.481   6.159
    3SAPS    C1  284   5.095   4.557   6.158
    3SAPS    HA  285   5.076   4.650   6.216
    3SAPS    HB  286   5.172   4.491   6.203
    3SAPS    C2  287   5.139   4.607   6.017
    3SAPS    HS  288   5.085   4.701   5.994
    3SAPS   O21  289   5.106   4.505   5.922
    3SAPS   C21  290   5.055   4.545   5.807
    3SAPS   O22  291   5.033   4.663   5.780
    3SAPS   C22  292   5.007   4.427   5.727
    3SAPS   H2R  293   5.093   4.356   5.724
    3SAPS   H2S  294   4.928   4.375   5.786
    3SAPS    C3  295   5.289   4.648   6.015
    3SAPS    HX  296   5.349   4.557   6.032
    3SAPS    HY  297   5.310   4.719   6.098
    3SAPS   O31  298   5.338   4.693   5.889
    3SAPS   C31  299   5.291   4.811   5.845
    3SAPS   O32  300   5.227   4.890   5.915
    3SAPS   C32  301   5.343   4.836   5.700
    3SAPS   H2X  302   5.322   4.739   5.650
    3SAPS   H2Y  303   5.453   4.836   5.709
    3SAPS   C23  304   4.970   4.468   5.585
    3SAPS   H3R  305   4.916   4.565   5.581
    3SAPS   H3S  306   4.896   4.395   5.549
    3SAPS   C24  307   5.096   4.490   5.492
    3SAPS   H4R  308   5.153   4.395   5.487
    3SAPS   H4S  309   5.166   4.567   5.531
    3SAPS   C25  310   5.057   4.551   5.356
    3SAPS   H5R  311   5.063   4.660   5.346
    3SAPS   C26  312   5.007   4.489   5.253
    3SAPS   H6R  313   4.979   4.545   5.163
    3SAPS   C27  314   4.972   4.338   5.238
    3SAPS   H7R  315   4.862   4.342   5.219
    3SAPS   H7S  316   4.984   4.276   5.329
    3SAPS   C28  317   5.047   4.271   5.131
    3SAPS   H8R  318   5.155   4.287   5.145
    3SAPS   C29  319   4.994   4.208   5.024
    3SAPS   H9R  320   5.066   4.157   4.958
    3SAPS  C210  321   4.845   4.175   5.004
    3SAPS  H10R  322   4.802   4.156   5.105
    3SAPS  H10S  323   4.840   4.074   4.958
    3SAPS  C211  324   4.768   4.279   4.929
    3SAPS  H11R  325   4.743   4.365   4.993
    3SAPS  C212  326   4.735   4.272   4.799
    3SAPS  H12R  327   4.669   4.353   4.763
    3SAPS  C213  328   4.762   4.159   4.700
    3SAPS  H13R  329   4.673   4.133   4.639
    3SAPS  H13S  330   4.808   4.071   4.749
    3SAPS  C214  331   4.874   4.215   4.613
    3SAPS  H14R  332   4.915   4.312   4.643
    3SAPS  C215  333   4.918   4.164   4.499
    3SAPS  H15R  334   4.986   4.232   4.446
    3SAPS  C216  335   4.883   4.039   4.429
    3SAPS  H16R  336   4.796   3.992   4.480
    3SAPS  H16S  337   4.965   3.965   4.445
    3SAPS  C217  338   4.850   4.061   4.280
    3SAPS  H17R  339   4.937   4.107   4.229
    3SAPS  H17S  340   4.760   4.127   4.272
    3SAPS  C218  341   4.818   3.938   4.187
    3SAPS  H18R  342   4.757   3.865   4.244
    3SAPS  H18S  343   4.913   3.883   4.168
    3SAPS  C219  344   4.742   3.964   4.059
    3SAPS  H19R  345   4.647   4.013   4.091
    3SAPS  H19S  346   4.794   4.029   3.985
    3SAPS  C220  347   4.701   3.827   3.995
    3SAPS  H20R  348   4.622   3.831   3.918
    3SAPS  H20S  349   4.650   3.772   4.077
    3SAPS  H20T  350   4.786   3.772   3.949
    3SAPS   C33  351   5.281   4.949   5.629
    3SAPS   H3X  352   5.285   5.044   5.686
    3SAPS   H3Y  353   5.172   4.926   5.622
    3SAPS   C34  354   5.339   4.950   5.481
    3SAPS   H4X  355   5.448   4.972   5.484
    3SAPS   H4Y  356   5.288   5.039   5.436
    3SAPS   C35  357   5.322   4.825   5.396
    3SAPS   H5X  358   5.414   4.762   5.399
    3SAPS   H5Y  359   5.237   4.766   5.434
    3SAPS   C36  360   5.280   4.842   5.247
    3SAPS   H6X  361   5.200   4.918   5.253
    3SAPS   H6Y  362   5.243   4.744   5.210
    3SAPS   C37  363   5.387   4.901   5.160
    3SAPS   H7X  364   5.490   4.859   5.166
    3SAPS   H7Y  365   5.403   5.010   5.175
    3SAPS   C38  366   5.348   4.869   5.010
    3SAPS   H8X  367   5.248   4.919   5.003
    3SAPS   H8Y  368   5.336   4.759   4.998
    3SAPS   C39  369   5.448   4.926   4.909
    3SAPS   H9X  370   5.546   4.892   4.950
    3SAPS   H9Y  371   5.442   5.036   4.895
    3SAPS  C310  372   5.430   4.867   4.762
    3SAPS  H10X  373   5.386   4.765   4.759
    3SAPS  H10Y  374   5.526   4.873   4.706
    3SAPS  C311  375   5.334   4.962   4.695
    3SAPS  H11X  376   5.367   5.068   4.689
    3SAPS  H11Y  377   5.239   4.979   4.751
    3SAPS  C312  378   5.281   4.914   4.562
    3SAPS  H12X  379   5.191   4.966   4.522
    3SAPS  H12Y  380   5.243   4.812   4.580
    3SAPS  C313  381   5.395   4.913   4.457
    3SAPS  H13X  382   5.369   4.860   4.362
    3SAPS  H13Y  383   5.475   4.852   4.503
    3SAPS  C314  384   5.440   5.053   4.407
    3SAPS  H14X  385   5.449   5.125   4.491
    3SAPS  H14Y  386   5.348   5.094   4.359
    3SAPS  C315  387   5.563   5.073   4.315
    3SAPS  H15X  388   5.655   5.025   4.356
    3SAPS  H15Y  389   5.576   5.183   4.318
    3SAPS  C316  390   5.528   5.022   4.173
    3SAPS  H16X  391   5.431   5.071   4.148
    3SAPS  H16Y  392   5.505   4.914   4.185
    3SAPS  C317  393   5.627   5.044   4.064
    3SAPS  H17X  394   5.630   5.153   4.043
    3SAPS  H17Y  395   5.583   5.002   3.971
    3SAPS  C318  396   5.769   4.984   4.079
    3SAPS  H18X  397   5.823   4.991   3.982
    3SAPS  H18Y  398   5.764   4.879   4.113
    3SAPS  H18Z  399   5.830   5.049   4.145
    4SAPS     N  400   2.217   2.309   6.549
    4SAPS   HN1  401   2.217   2.241   6.470
    4SAPS   HN2  402   2.313   2.342   6.568
    4SAPS   HN3  403   2.179   2.273   6.638
    4SAPS   C12  404   2.137   2.430   6.506
    4SAPS  H12A  405   2.037   2.387   6.506
    4SAPS   C13  406   2.147   2.546   6.617
    4SAPS  O13A  407   2.180   2.508   6.730
    4SAPS  O13B  408   2.058   2.635   6.606
    4SAPS   C11  409   2.172   2.478   6.362
    4SAPS  H11A  410   2.282   2.496   6.362
    4SAPS  H11B  411   2.122   2.577   6.353
    4SAPS     P  412   2.025   2.362   6.171
    4SAPS   O13  413   2.062   2.318   6.032
    4SAPS   O14  414   1.931   2.274   6.243
    4SAPS   O12  415   2.146   2.392   6.253
    4SAPS   O11  416   1.952   2.500   6.156
    4SAPS    C1  417   2.019   2.617   6.109
    4SAPS    HA  418   2.052   2.686   6.190
    4SAPS    HB  419   2.111   2.582   6.058
    4SAPS    C2  420   1.934   2.691   6.006
    4SAPS    HS  421   2.004   2.753   5.946
    4SAPS   O21  422   1.830   2.774   6.065
    4SAPS   C21  423   1.873   2.880   6.127
    4SAPS   O22  424   1.992   2.914   6.126
    4SAPS   C22  425   1.761   2.949   6.207
    4SAPS   H2R  426   1.658   2.934   6.170
    4SAPS   H2S  427   1.764   2.902   6.308
    4SAPS    C3  428   1.861   2.590   5.912
    4SAPS    HX  429   1.795   2.533   5.982
    4SAPS    HY  430   1.940   2.523   5.872
    4SAPS   O31  431   1.800   2.661   5.804
    4SAPS   C31  432   1.682   2.620   5.772
    4SAPS   O32  433   1.626   2.518   5.818
    4SAPS   C32  434   1.645   2.712   5.651
    4SAPS   H2X  435   1.708   2.687   5.563
    4SAPS   H2Y  436   1.660   2.818   5.680
    4SAPS   C23  437   1.790   3.098   6.232
    4SAPS   H3R  438   1.886   3.108   6.287
    4SAPS   H3S  439   1.711   3.131   6.303
    4SAPS   C24  440   1.790   3.197   6.112
    4SAPS   H4R  441   1.888   3.201   6.060
    4SAPS   H4S  442   1.770   3.302   6.143
    4SAPS   C25  443   1.687   3.162   6.011
    4SAPS   H5R  444   1.588   3.146   6.055
    4SAPS   C26  445   1.692   3.156   5.875
    4SAPS   H6R  446   1.606   3.120   5.817
    4SAPS   C27  447   1.816   3.174   5.790
    4SAPS   H7R  448   1.883   3.247   5.841
    4SAPS   H7S  449   1.798   3.230   5.696
    4SAPS   C28  450   1.876   3.038   5.767
    4SAPS   H8R  451   1.908   2.977   5.854
    4SAPS   C29  452   1.895   2.976   5.652
    4SAPS   H9R  453   1.942   2.877   5.662
    4SAPS  C210  454   1.876   3.023   5.512
    4SAPS  H10R  455   1.842   3.129   5.519
    4SAPS  H10S  456   1.799   2.959   5.463
    4SAPS  C211  457   2.006   3.019   5.438
    4SAPS  H11R  458   2.077   2.937   5.461
    4SAPS  C212  459   2.048   3.104   5.341
    4SAPS  H12R  460   2.135   3.069   5.284
    4SAPS  C213  461   1.964   3.223   5.281
    4SAPS  H13R  462   2.030   3.302   5.237
    4SAPS  H13S  463   1.928   3.289   5.363
    4SAPS  C214  464   1.842   3.178   5.205
    4SAPS  H14R  465   1.797   3.082   5.233
    4SAPS  C215  466   1.788   3.251   5.103
    4SAPS  H15R  467   1.698   3.214   5.052
    4SAPS  C216  468   1.858   3.368   5.043
    4SAPS  H16R  469   1.969   3.353   5.047
    4SAPS  H16S  470   1.845   3.466   5.094
    4SAPS  C217  471   1.817   3.406   4.896
    4SAPS  H17R  472   1.710   3.423   4.871
    4SAPS  H17S  473   1.845   3.308   4.852
    4SAPS  C218  474   1.897   3.532   4.855
    4SAPS  H18R  475   1.996   3.545   4.903
    4SAPS  H18S  476   1.841   3.626   4.873
    4SAPS  C219  477   1.927   3.524   4.706
    4SAPS  H19R  478   1.984   3.433   4.675
    4SAPS  H19S  479   1.991   3.613   4.687
    4SAPS  C220  480   1.801   3.542   4.626
    4SAPS  H20R  481   1.732   3.458   4.652
    4SAPS  H20S  482   1.830   3.536   4.519
    4SAPS  H20T  483   1.741   3.633   4.650
    4SAPS   C33  484   1.493   2.696   5.616
    4SAPS   H3X  485   1.440   2.728   5.709
    4SAPS   H3Y  486   1.481   2.587   5.599
    4SAPS   C34  487   1.437   2.796   5.507
    4SAPS   H4X  488   1.426   2.899   5.546
    4SAPS   H4Y  489   1.328   2.772   5.505
    4SAPS   C35  490   1.514   2.787   5.377
    4SAPS   H5X  491   1.615   2.831   5.394
    4SAPS   H5Y  492   1.472   2.850   5.296
    4SAPS   C36  493   1.546   2.662   5.303
    4SAPS   H6X  494   1.449   2.622   5.266
    4SAPS   H6Y  495   1.592   2.586   5.370
    4SAPS   C37  496   1.660   2.681   5.202
    4SAPS   H7X  497   1.700   2.581   5.175
    4SAPS   H7Y  498   1.748   2.736   5.243
    4SAPS   C38  499   1.620   2.761   5.072
    4SAPS   H8X  500   1.561   2.849   5.107
    4SAPS   H8Y  501   1.545   2.706   5.011
    4SAPS   C39  502   1.739   2.811   4.986
    4SAPS   H9X  503   1.817   2.732   4.993
    4SAPS   H9Y  504   1.781   2.895   5.045
    4SAPS  C310  505   1.706   2.862   4.845
    4SAPS  H10X  506   1.609   2.917   4.849
    4SAPS  H10Y  507   1.703   2.769   4.783
    4SAPS  C311  508   1.814   2.955   4.791
    4SAPS  H11X  509   1.898   2.889   4.761
    4SAPS  H11Y  510   1.855   3.017   4.874
    4SAPS  C312  511   1.774   3.054   4.670
    4SAPS  H12X  512   1.729   3.148   4.709
    4SAPS  H12Y  513   1.692   3.005   4.613
    4SAPS  C313  514   1.890   3.081   4.575
    4SAPS  H13X  515   1.913   2.986   4.522
    4SAPS  H13Y  516   1.976   3.125   4.629
    4SAPS  C314  517   1.845   3.179   4.470
    4SAPS  H14X  518   1.935   3.231   4.430
    4SAPS  H14Y  519   1.779   3.254   4.517
    4SAPS  C315  520   1.782   3.110   4.350
    4SAPS  H15X  521   1.698   3.047   4.384
    4SAPS  H15Y  522   1.862   3.044   4.309
    4SAPS  C316  523   1.732   3.204   4.233
    4SAPS  H16X  524   1.820   3.261   4.196
    4SAPS  H16Y  525   1.654   3.275   4.269
    4SAPS  C317  526   1.677   3.135   4.105
    4SAPS  H17X  527   1.590   3.074   4.137
    4SAPS  H17Y  528   1.747   3.065   4.054
    4SAPS  C318  529   1.649   3.249   4.004
    4SAPS  H18X  530   1.640   3.350   4.049
    4SAPS  H18Y  531   1.554   3.218   3.956
    4SAPS  H18Z  532   1.734   3.238   3.932
    5SAPS     N  533   4.973   4.827   6.411
    5SAPS   HN1  534   4.913   4.743   6.395
    5SAPS   HN2  535   4.915   4.913   6.414
    5SAPS   HN3  536   5.049   4.837   6.341
    5SAPS   C12  537   5.035   4.815   6.549
    5SAPS  H12A  538   5.093   4.904   6.567
    5SAPS   C13  539   4.922   4.803   6.665
    5SAPS  O13A  540   4.800   4.794   6.625
    5SAPS  O13B  541   4.958   4.812   6.786
    5SAPS   C11  542   5.124   4.681   6.550
    5SAPS  H11A  543   5.054   4.598   6.525
    5SAPS  H11B  544   5.157   4.660   6.654
    5SAPS     P  545   5.364   4.612   6.486
    5SAPS   O13  546   5.413   4.664   6.614
    5SAPS   O14  547   5.327   4.471   6.483
    5SAPS   O12  548   5.240   4.698   6.459
    5SAPS   O11  549   5.459   4.651   6.368
    5SAPS    C1  550   5.547   4.569   6.300
    5SAPS    HA  551   5.606   4.510   6.373
    5SAPS    HB  552   5.485   4.507   6.232
    5SAPS    C2  553   5.649   4.662   6.216
    5SAPS    HS  554   5.705   4.702   6.303
    5SAPS   O21  555   5.580   4.764   6.145
    5SAPS   C21  556   5.636   4.881   6.138
    5SAPS   O22  557   5.741   4.918   6.193
    5SAPS   C22  558   5.536   4.978   6.060
    5SAPS   H2R  559   5.486   4.920   5.980
    5SAPS   H2S  560   5.460   5.001   6.138
    5SAPS    C3  561   5.737   4.583   6.130
    5SAPS    HX  562   5.789   4.518   6.203
    5SAPS    HY  563   5.816   4.648   6.087
    5SAPS   O31  564   5.663   4.498   6.041
    5SAPS   C31  565   5.664   4.549   5.919
    5SAPS   O32  566   5.696   4.662   5.887
    5SAPS   C32  567   5.607   4.434   5.823
    5SAPS   H2X  568   5.503   4.409   5.853
    5SAPS   H2Y  569   5.660   4.342   5.854
    5SAPS   C23  570   5.592   5.113   6.023
    5SAPS   H3R  571   5.628   5.174   6.108
    5SAPS   H3S  572   5.525   5.176   5.961
    5SAPS   C24  573   5.717   5.102   5.934
    5SAPS   H4R  574   5.786   5.029   5.982
    5SAPS   H4S  575   5.777   5.196   5.929
    5SAPS   C25  576   5.680   5.049   5.804
    5SAPS   H5R  577   5.676   4.939   5.806
    5SAPS   C26  578   5.642   5.114   5.691
    5SAPS   H6R  579   5.611   5.063   5.598
    5SAPS   C27  580   5.633   5.262   5.686
    5SAPS   H7R  581   5.609   5.307   5.784
    5SAPS   H7S  582   5.556   5.294   5.612
    5SAPS   C28  583   5.761   5.318   5.623
    5SAPS   H8R  584   5.857   5.334   5.675
    5SAPS   C29  585   5.772   5.357   5.495
    5SAPS   H9R  586   5.871   5.398   5.471
    5SAPS  C210  587   5.671   5.318   5.389
    5SAPS  H10R  588   5.574   5.358   5.424
    5SAPS  H10S  589   5.668   5.207   5.379
    5SAPS  C211  590   5.714   5.370   5.256
    5SAPS  H11R  591   5.706   5.480   5.245
    5SAPS  C212  592   5.782   5.306   5.158
    5SAPS  H12R  593   5.800   5.361   5.064
    5SAPS  C213  594   5.811   5.159   5.145
    5SAPS  H13R  595   5.728   5.094   5.181
    5SAPS  H13S  596   5.889   5.133   5.220
    5SAPS  C214  597   5.844   5.128   4.998
    5SAPS  H14R  598   5.757   5.120   4.932
    5SAPS  C215  599   5.973   5.109   4.954
    5SAPS  H15R  600   5.979   5.081   4.848
    5SAPS  C216  601   6.101   5.126   5.042
    5SAPS  H16R  602   6.097   5.082   5.144
    5SAPS  H16S  603   6.126   5.233   5.061
    5SAPS  C217  604   6.214   5.051   4.971
    5SAPS  H17R  605   6.187   4.944   4.958
    5SAPS  H17S  606   6.295   5.043   5.046
    5SAPS  C218  607   6.270   5.123   4.846
    5SAPS  H18R  608   6.194   5.119   4.765
    5SAPS  H18S  609   6.349   5.058   4.803
    5SAPS  C219  610   6.326   5.266   4.872
    5SAPS  H19R  611   6.414   5.251   4.938
    5SAPS  H19S  612   6.245   5.314   4.933
    5SAPS  C220  613   6.362   5.341   4.749
    5SAPS  H20R  614   6.368   5.447   4.783
    5SAPS  H20S  615   6.287   5.353   4.667
    5SAPS  H20T  616   6.461   5.312   4.708
    5SAPS   C33  617   5.618   4.471   5.675
    5SAPS   H3X  618   5.727   4.485   5.654
    5SAPS   H3Y  619   5.579   4.571   5.648
    5SAPS   C34  620   5.564   4.373   5.578
    5SAPS   H4X  621   5.457   4.356   5.603
    5SAPS   H4Y  622   5.610   4.272   5.574
    5SAPS   C35  623   5.572   4.428   5.428
    5SAPS   H5X  624   5.676   4.461   5.405
    5SAPS   H5Y  625   5.512   4.521   5.428
    5SAPS   C36  626   5.530   4.323   5.326
    5SAPS   H6X  627   5.431   4.284   5.360
    5SAPS   H6Y  628   5.607   4.245   5.313
    5SAPS   C37  629   5.511   4.388   5.195
    5SAPS   H7X  630   5.611   4.433   5.177
    5SAPS   H7Y  631   5.444   4.477   5.190
    5SAPS   C38  632   5.482   4.289   5.082
    5SAPS   H8X  633   5.392   4.230   5.109
    5SAPS   H8Y  634   5.571   4.222   5.082
    5SAPS   C39  635   5.464   4.348   4.939
    5SAPS   H9X  636   5.488   4.265   4.870
    5SAPS   H9Y  637   5.549   4.419   4.927
    5SAPS  C310  638   5.325   4.404   4.912
    5SAPS  H10X  639   5.288   4.485   4.978
    5SAPS  H10Y  640   5.257   4.317   4.914
    5SAPS  C311  641   5.304   4.464   4.775
    5SAPS  H11X  642   5.380   4.544   4.769
    5SAPS  H11Y  643   5.207   4.517   4.785
    5SAPS  C312  644   5.285   4.372   4.654
    5SAPS  H12X  645   5.204   4.300   4.677
    5SAPS  H12Y  646   5.379   4.317   4.634
    5SAPS  C313  647   5.232   4.458   4.540
    5SAPS  H13X  648   5.265   4.564   4.538
    5SAPS  H13Y  649   5.121   4.462   4.554
    5SAPS  C314  650   5.256   4.404   4.395
    5SAPS  H14X  651   5.190   4.467   4.332
    5SAPS  H14Y  652   5.215   4.301   4.382
    5SAPS  C315  653   5.393   4.423   4.341
    5SAPS  H15X  654   5.396   4.364   4.247
    5SAPS  H15Y  655   5.466   4.375   4.410
    5SAPS  C316  656   5.440   4.572   4.317
    5SAPS  H16X  657   5.472   4.616   4.414
    5SAPS  H16Y  658   5.358   4.632   4.272
    5SAPS  C317  659   5.563   4.573   4.225
    5SAPS  H17X  660   5.617   4.477   4.230
    5SAPS  H17Y  661   5.624   4.663   4.250
    5SAPS  C318  662   5.539   4.590   4.078
    5SAPS  H18X  663   5.537   4.695   4.041
    5SAPS  H18Y  664   5.442   4.546   4.049
    5SAPS  H18Z  665   5.616   4.538   4.016
    6SAPS     N  666   3.823   4.310   6.249
    6SAPS   HN1  667   3.864   4.401   6.278
    6SAPS   HN2  668   3.860   4.227   6.301
    6SAPS   HN3  669   3.842   4.300   6.147
    6SAPS   C12  670   3.675   4.311   6.267
    6SAPS  H12A  671   3.641   4.222   6.217
    6SAPS   C13  672   3.619   4.316   6.411
    6SAPS  O13A  673   3.698   4.311   6.508
    6SAPS  O13B  674   3.494   4.303   6.427
    6SAPS   C11  675   3.610   4.434   6.182
    6SAPS  H11A  676   3.618   4.520   6.252
    6SAPS  H11B  677   3.505   4.406   6.157
    6SAPS     P  678   3.669   4.615   6.005
    6SAPS   O13  679   3.735   4.704   6.100
    6SAPS   O14  680   3.729   4.617   5.866
    6SAPS   O12  681   3.684   4.467   6.062
    6SAPS   O11  682   3.508   4.645   6.003
    6SAPS    C1  683   3.411   4.561   5.941
    6SAPS    HA  684   3.446   4.456   5.950
    6SAPS    HB  685   3.317   4.567   5.999
    6SAPS    C2  686   3.387   4.586   5.785
    6SAPS    HS  687   3.481   4.573   5.726
    6SAPS   O21  688   3.338   4.722   5.767
    6SAPS   C21  689   3.369   4.781   5.652
    6SAPS   O22  690   3.435   4.731   5.559
    6SAPS   C22  691   3.309   4.921   5.646
    6SAPS   H2R  692   3.216   4.922   5.707
    6SAPS   H2S  693   3.371   4.992   5.705
    6SAPS    C3  694   3.283   4.482   5.733
    6SAPS    HX  695   3.196   4.502   5.800
    6SAPS    HY  696   3.309   4.377   5.757
    6SAPS   O31  697   3.240   4.504   5.591
    6SAPS   C31  698   3.329   4.462   5.505
    6SAPS   O32  699   3.427   4.388   5.536
    6SAPS   C32  700   3.310   4.514   5.356
    6SAPS   H2X  701   3.349   4.618   5.356
    6SAPS   H2Y  702   3.200   4.516   5.340
    6SAPS   C23  703   3.278   4.986   5.507
    6SAPS   H3R  704   3.214   4.924   5.441
    6SAPS   H3S  705   3.376   5.008   5.459
    6SAPS   C24  706   3.206   5.125   5.529
    6SAPS   H4R  707   3.265   5.189   5.598
    6SAPS   H4S  708   3.103   5.096   5.560
    6SAPS   C25  709   3.227   5.201   5.401
    6SAPS   H5R  710   3.330   5.214   5.365
    6SAPS   C26  711   3.137   5.241   5.311
    6SAPS   H6R  712   3.171   5.299   5.224
    6SAPS   C27  713   2.990   5.201   5.306
    6SAPS   H7R  714   2.951   5.209   5.410
    6SAPS   H7S  715   2.979   5.093   5.284
    6SAPS   C28  716   2.903   5.283   5.214
    6SAPS   H8R  717   2.875   5.381   5.256
    6SAPS   C29  718   2.823   5.235   5.120
    6SAPS   H9R  719   2.768   5.302   5.051
    6SAPS  C210  720   2.825   5.087   5.075
    6SAPS  H10R  721   2.751   5.021   5.125
    6SAPS  H10S  722   2.924   5.039   5.091
    6SAPS  C211  723   2.805   5.072   4.924
    6SAPS  H11R  724   2.726   5.010   4.879
    6SAPS  C212  725   2.887   5.123   4.828
    6SAPS  H12R  726   2.863   5.108   4.722
    6SAPS  C213  727   3.005   5.214   4.863
    6SAPS  H13R  728   3.070   5.150   4.926
    6SAPS  H13S  729   2.974   5.305   4.918
    6SAPS  C214  730   3.075   5.259   4.744
    6SAPS  H14R  731   3.025   5.348   4.703
    6SAPS  C215  732   3.191   5.211   4.680
    6SAPS  H15R  733   3.226   5.266   4.591
    6SAPS  C216  734   3.254   5.080   4.721
    6SAPS  H16R  735   3.314   5.031   4.642
    6SAPS  H16S  736   3.187   5.001   4.763
    6SAPS  C217  737   3.355   5.108   4.837
    6SAPS  H17R  738   3.291   5.142   4.921
    6SAPS  H17S  739   3.429   5.186   4.809
    6SAPS  C218  740   3.425   4.984   4.873
    6SAPS  H18R  741   3.524   5.005   4.917
    6SAPS  H18S  742   3.447   4.927   4.780
    6SAPS  C219  743   3.343   4.888   4.957
    6SAPS  H19R  744   3.405   4.802   4.988
    6SAPS  H19S  745   3.266   4.846   4.888
    6SAPS  C220  746   3.271   4.931   5.084
    6SAPS  H20R  747   3.187   4.864   5.113
    6SAPS  H20S  748   3.225   5.032   5.076
    6SAPS  H20T  749   3.327   4.931   5.180
    6SAPS   C33  750   3.382   4.432   5.245
    6SAPS   H3X  751   3.358   4.324   5.257
    6SAPS   H3Y  752   3.493   4.445   5.248
    6SAPS   C34  753   3.330   4.476   5.107
    6SAPS   H4X  754   3.328   4.587   5.108
    6SAPS   H4Y  755   3.230   4.430   5.091
    6SAPS   C35  756   3.434   4.436   5.005
    6SAPS   H5X  757   3.421   4.329   4.977
    6SAPS   H5Y  758   3.541   4.452   5.030
    6SAPS   C36  759   3.407   4.511   4.871
    6SAPS   H6X  760   3.469   4.600   4.848
    6SAPS   H6Y  761   3.300   4.538   4.885
    6SAPS   C37  762   3.411   4.418   4.747
    6SAPS   H7X  763   3.355   4.327   4.777
    6SAPS   H7Y  764   3.515   4.384   4.725
    6SAPS   C38  765   3.362   4.491   4.626
    6SAPS   H8X  766   3.436   4.569   4.599
    6SAPS   H8Y  767   3.260   4.529   4.649
    6SAPS   C39  768   3.355   4.383   4.511
    6SAPS   H9X  769   3.294   4.425   4.429
    6SAPS   H9Y  770   3.307   4.289   4.545
    6SAPS  C310  771   3.497   4.352   4.443
    6SAPS  H10X  772   3.567   4.300   4.513
    6SAPS  H10Y  773   3.538   4.450   4.413
    6SAPS  C311  774   3.480   4.251   4.333
    6SAPS  H11X  775   3.398   4.288   4.267
    6SAPS  H11Y  776   3.447   4.151   4.366
    6SAPS  C312  777   3.595   4.227   4.241
    6SAPS  H12X  778   3.638   4.317   4.191
    6SAPS  H12Y  779   3.554   4.171   4.154
    6SAPS  C313  780   3.702   4.140   4.308
    6SAPS  H13X  781   3.656   4.040   4.318
    6SAPS  H13Y  782   3.734   4.173   4.409
    6SAPS  C314  783   3.824   4.123   4.219
    6SAPS  H14X  784   3.789   4.094   4.117
    6SAPS  H14Y  785   3.889   4.044   4.260
    6SAPS  C315  786   3.922   4.243   4.187
    6SAPS  H15X  787   3.893   4.286   4.089
    6SAPS  H15Y  788   4.024   4.199   4.180
    6SAPS  C316  789   3.930   4.352   4.297
    6SAPS  H16X  790   3.953   4.309   4.397
    6SAPS  H16Y  791   3.826   4.392   4.304
    6SAPS  C317  792   4.018   4.471   4.257
    6SAPS  H17X  793   3.964   4.558   4.299
    6SAPS  H17Y  794   4.004   4.468   4.147
    6SAPS  C318  795   4.157   4.461   4.314
    6SAPS  H18X  796   4.219   4.383   4.266
    6SAPS  H18Y  797   4.154   4.432   4.421
    6SAPS  H18Z  798   4.215   4.556   4.308
    7SAPS     N  799   2.605   0.852   6.424
    7SAPS   HN1  800   2.634   0.947   6.456
    7SAPS   HN2  801   2.661   0.809   6.347
    7SAPS   HN3  802   2.515   0.859   6.373
    7SAPS   C12  803   2.593   0.769   6.538
    7SAPS  H12A  804   2.692   0.736   6.567
    7SAPS   C13  805   2.536   0.832   6.672
    7SAPS  O13A  806   2.537   0.958   6.669
    7SAPS  O13B  807   2.556   0.772   6.779
    7SAPS   C11  808   2.503   0.646   6.495
    7SAPS  H11A  809   2.406   0.698   6.478
    7SAPS  H11B  810   2.493   0.576   6.581
    7SAPS     P  811   2.472   0.474   6.307
    7SAPS   O13  812   2.548   0.345   6.323
    7SAPS   O14  813   2.328   0.475   6.351
    7SAPS   O12  814   2.547   0.585   6.376
    7SAPS   O11  815   2.478   0.525   6.158
    7SAPS    C1  816   2.419   0.447   6.055
    7SAPS    HA  817   2.445   0.340   6.061
    7SAPS    HB  818   2.308   0.448   6.060
    7SAPS    C2  819   2.461   0.494   5.915
    7SAPS    HS  820   2.424   0.416   5.845
    7SAPS   O21  821   2.605   0.509   5.907
    7SAPS   C21  822   2.676   0.399   5.926
    7SAPS   O22  823   2.636   0.284   5.926
    7SAPS   C22  824   2.820   0.434   5.926
    7SAPS   H2R  825   2.831   0.544   5.913
    7SAPS   H2S  826   2.853   0.407   6.029
    7SAPS    C3  827   2.397   0.628   5.880
    7SAPS    HX  828   2.441   0.703   5.949
    7SAPS    HY  829   2.288   0.617   5.899
    7SAPS   O31  830   2.434   0.652   5.744
    7SAPS   C31  831   2.414   0.775   5.701
    7SAPS   O32  832   2.359   0.858   5.775
    7SAPS   C32  833   2.477   0.809   5.563
    7SAPS   H2X  834   2.412   0.774   5.480
    7SAPS   H2Y  835   2.564   0.742   5.547
    7SAPS   C23  836   2.916   0.362   5.825
    7SAPS   H3R  837   2.920   0.392   5.718
    7SAPS   H3S  838   2.859   0.270   5.798
    7SAPS   C24  839   3.057   0.339   5.882
    7SAPS   H4R  840   3.137   0.306   5.812
    7SAPS   H4S  841   3.063   0.259   5.959
    7SAPS   C25  842   3.103   0.463   5.943
    7SAPS   H5R  843   3.056   0.487   6.039
    7SAPS   C26  844   3.189   0.550   5.899
    7SAPS   H6R  845   3.214   0.636   5.962
    7SAPS   C27  846   3.274   0.529   5.772
    7SAPS   H7R  847   3.215   0.548   5.680
    7SAPS   H7S  848   3.305   0.423   5.765
    7SAPS   C28  849   3.397   0.617   5.774
    7SAPS   H8R  850   3.414   0.686   5.858
    7SAPS   C29  851   3.475   0.627   5.659
    7SAPS   H9R  852   3.556   0.701   5.659
    7SAPS  C210  853   3.451   0.558   5.531
    7SAPS  H10R  854   3.535   0.589   5.466
    7SAPS  H10S  855   3.355   0.593   5.487
    7SAPS  C211  856   3.439   0.406   5.544
    7SAPS  H11R  857   3.504   0.366   5.624
    7SAPS  C212  858   3.365   0.320   5.472
    7SAPS  H12R  859   3.363   0.213   5.497
    7SAPS  C213  860   3.266   0.364   5.368
    7SAPS  H13R  861   3.275   0.287   5.289
    7SAPS  H13S  862   3.282   0.464   5.321
    7SAPS  C214  863   3.129   0.342   5.426
    7SAPS  H14R  864   3.115   0.287   5.520
    7SAPS  C215  865   3.014   0.378   5.362
    7SAPS  H15R  866   2.919   0.360   5.414
    7SAPS  C216  867   3.001   0.443   5.229
    7SAPS  H16R  868   2.907   0.409   5.180
    7SAPS  H16S  869   3.078   0.414   5.155
    7SAPS  C217  870   3.015   0.594   5.234
    7SAPS  H17R  871   3.111   0.620   5.284
    7SAPS  H17S  872   2.942   0.636   5.307
    7SAPS  C218  873   3.000   0.671   5.099
    7SAPS  H18R  874   3.025   0.778   5.114
    7SAPS  H18S  875   2.897   0.669   5.056
    7SAPS  C219  876   3.113   0.635   4.994
    7SAPS  H19R  877   3.106   0.524   4.988
    7SAPS  H19S  878   3.216   0.652   5.031
    7SAPS  C220  879   3.079   0.688   4.855
    7SAPS  H20R  880   3.029   0.787   4.865
    7SAPS  H20S  881   3.013   0.618   4.799
    7SAPS  H20T  882   3.165   0.701   4.786
    7SAPS   C33  883   2.514   0.961   5.557
    7SAPS   H3X  884   2.582   0.988   5.641
    7SAPS   H3Y  885   2.425   1.022   5.585
    7SAPS   C34  886   2.583   1.018   5.431
    7SAPS   H4X  887   2.683   0.971   5.422
    7SAPS   H4Y  888   2.593   1.126   5.456
    7SAPS   C35  889   2.499   0.992   5.302
    7SAPS   H5X  890   2.397   1.032   5.324
    7SAPS   H5Y  891   2.488   0.882   5.290
    7SAPS   C36  892   2.559   1.055   5.175
    7SAPS   H6X  893   2.663   1.018   5.186
    7SAPS   H6Y  894   2.570   1.166   5.178
    7SAPS   C37  895   2.487   1.015   5.042
    7SAPS   H7X  896   2.387   1.058   5.020
    7SAPS   H7Y  897   2.475   0.905   5.052
    7SAPS   C38  898   2.581   1.042   4.924
    7SAPS   H8X  899   2.668   0.974   4.929
    7SAPS   H8Y  900   2.604   1.151   4.924
    7SAPS   C39  901   2.514   1.005   4.795
    7SAPS   H9X  902   2.415   1.054   4.786
    7SAPS   H9Y  903   2.500   0.896   4.782
    7SAPS  C310  904   2.589   1.047   4.671
    7SAPS  H10X  905   2.695   1.020   4.693
    7SAPS  H10Y  906   2.587   1.158   4.661
    7SAPS  C311  907   2.535   0.999   4.539
    7SAPS  H11X  908   2.425   1.010   4.536
    7SAPS  H11Y  909   2.551   0.891   4.523
    7SAPS  C312  910   2.584   1.069   4.405
    7SAPS  H12X  911   2.557   1.176   4.392
    7SAPS  H12Y  912   2.539   1.024   4.314
    7SAPS  C313  913   2.739   1.045   4.399
    7SAPS  H13X  914   2.755   0.937   4.419
    7SAPS  H13Y  915   2.799   1.095   4.478
    7SAPS  C314  916   2.804   1.086   4.268
    7SAPS  H14X  917   2.807   1.197   4.278
    7SAPS  H14Y  918   2.743   1.065   4.177
    7SAPS  C315  919   2.956   1.053   4.258
    7SAPS  H15X  920   2.977   0.944   4.265
    7SAPS  H15Y  921   3.000   1.096   4.351
    7SAPS  C316  922   3.030   1.106   4.136
    7SAPS  H16X  923   3.014   1.216   4.141
    7SAPS  H16Y  924   2.998   1.061   4.040
    7SAPS  C317  925   3.182   1.078   4.134
    7SAPS  H17X  926   3.227   1.091   4.034
    7SAPS  H17Y  927   3.206   0.975   4.168
    7SAPS  C318  928   3.255   1.163   4.236
    7SAPS  H18X  929   3.216   1.155   4.339
    7SAPS  H18Y  930   3.252   1.269   4.202
    7SAPS  H18Z  931   3.359   1.126   4.238
    8SAPS     N  932   1.846   1.533   6.517
    8SAPS   HN1  933   1.828   1.505   6.418
    8SAPS   HN2  934   1.769   1.505   6.581
    8SAPS   HN3  935   1.843   1.637   6.522
    8SAPS   C12  936   1.979   1.468   6.546
    8SAPS  H12A  937   2.017   1.503   6.642
    8SAPS   C13  938   1.967   1.315   6.563
    8SAPS  O13A  939   1.855   1.272   6.597
    8SAPS  O13B  940   2.070   1.247   6.560
    8SAPS   C11  941   2.076   1.496   6.419
    8SAPS  H11A  942   2.028   1.467   6.323
    8SAPS  H11B  943   2.163   1.427   6.427
    8SAPS     P  944   2.225   1.702   6.481
    8SAPS   O13  945   2.169   1.834   6.523
    8SAPS   O14  946   2.273   1.615   6.591
    8SAPS   O12  947   2.109   1.637   6.404
    8SAPS   O11  948   2.336   1.721   6.374
    8SAPS    C1  949   2.305   1.786   6.248
    8SAPS    HA  950   2.216   1.743   6.196
    8SAPS    HB  951   2.281   1.894   6.258
    8SAPS    C2  952   2.417   1.770   6.135
    8SAPS    HS  953   2.385   1.828   6.046
    8SAPS   O21  954   2.437   1.633   6.110
    8SAPS   C21  955   2.396   1.571   6.000
    8SAPS   O22  956   2.326   1.624   5.916
    8SAPS   C22  957   2.465   1.435   5.994
    8SAPS   H2R  958   2.553   1.430   6.061
    8SAPS   H2S  959   2.396   1.360   6.037
    8SAPS    C3  960   2.545   1.834   6.192
    8SAPS    HX  961   2.588   1.795   6.287
    8SAPS    HY  962   2.527   1.940   6.221
    8SAPS   O31  963   2.654   1.838   6.100
    8SAPS   C31  964   2.729   1.723   6.104
    8SAPS   O32  965   2.707   1.630   6.185
    8SAPS   C32  966   2.823   1.712   5.984
    8SAPS   H2X  967   2.907   1.648   6.018
    8SAPS   H2Y  968   2.852   1.818   5.967
    8SAPS   C23  969   2.489   1.379   5.850
    8SAPS   H3R  970   2.553   1.448   5.792
    8SAPS   H3S  971   2.387   1.362   5.809
    8SAPS   C24  972   2.548   1.230   5.846
    8SAPS   H4R  973   2.550   1.215   5.736
    8SAPS   H4S  974   2.484   1.159   5.901
    8SAPS   C25  975   2.689   1.245   5.901
    8SAPS   H5R  976   2.700   1.265   6.008
    8SAPS   C26  977   2.800   1.259   5.828
    8SAPS   H6R  978   2.899   1.269   5.873
    8SAPS   C27  979   2.799   1.277   5.677
    8SAPS   H7R  980   2.713   1.333   5.634
    8SAPS   H7S  981   2.798   1.175   5.631
    8SAPS   C28  982   2.928   1.338   5.615
    8SAPS   H8R  983   3.021   1.342   5.672
    8SAPS   C29  984   2.937   1.391   5.490
    8SAPS   H9R  985   3.037   1.428   5.462
    8SAPS  C210  986   2.838   1.390   5.379
    8SAPS  H10R  987   2.849   1.482   5.317
    8SAPS  H10S  988   2.736   1.394   5.423
    8SAPS  C211  989   2.856   1.268   5.293
    8SAPS  H11R  990   2.914   1.188   5.342
    8SAPS  C212  991   2.827   1.263   5.162
    8SAPS  H12R  992   2.865   1.166   5.124
    8SAPS  C213  993   2.763   1.364   5.065
    8SAPS  H13R  994   2.663   1.394   5.104
    8SAPS  H13S  995   2.741   1.301   4.976
    8SAPS  C214  996   2.844   1.483   5.028
    8SAPS  H14R  997   2.948   1.486   5.064
    8SAPS  C215  998   2.797   1.592   4.964
    8SAPS  H15R  999   2.871   1.656   4.914
    8SAPS  C216 1000   2.659   1.604   4.902
    8SAPS  H16R 1001   2.607   1.691   4.948
    8SAPS  H16S 1002   2.596   1.518   4.932
    8SAPS  C217 1003   2.668   1.609   4.747
    8SAPS  H17R 1004   2.564   1.610   4.706
    8SAPS  H17S 1005   2.715   1.516   4.708
    8SAPS  C218 1006   2.726   1.742   4.703
    8SAPS  H18R 1007   2.836   1.738   4.716
    8SAPS  H18S 1008   2.687   1.826   4.765
    8SAPS  C219 1009   2.690   1.755   4.553
    8SAPS  H19R 1010   2.597   1.698   4.533
    8SAPS  H19S 1011   2.771   1.699   4.502
    8SAPS  C220 1012   2.683   1.893   4.499
    8SAPS  H20R 1013   2.670   1.904   4.389
    8SAPS  H20S 1014   2.764   1.957   4.538
    8SAPS  H20T 1015   2.597   1.951   4.538
    8SAPS   C33 1016   2.752   1.674   5.850
    8SAPS   H3X 1017   2.719   1.569   5.863
    8SAPS   H3Y 1018   2.841   1.658   5.786
    8SAPS   C34 1019   2.651   1.769   5.790
    8SAPS   H4X 1020   2.685   1.866   5.832
    8SAPS   H4Y 1021   2.547   1.747   5.824
    8SAPS   C35 1022   2.657   1.788   5.638
    8SAPS   H5X 1023   2.762   1.770   5.609
    8SAPS   H5Y 1024   2.626   1.890   5.609
    8SAPS   C36 1025   2.575   1.673   5.576
    8SAPS   H6X 1026   2.467   1.690   5.596
    8SAPS   H6Y 1027   2.614   1.584   5.628
    8SAPS   C37 1028   2.606   1.654   5.417
    8SAPS   H7X 1029   2.568   1.551   5.400
    8SAPS   H7Y 1030   2.716   1.660   5.406
    8SAPS   C38 1031   2.530   1.745   5.321
    8SAPS   H8X 1032   2.421   1.741   5.339
    8SAPS   H8Y 1033   2.547   1.697   5.222
    8SAPS   C39 1034   2.583   1.889   5.313
    8SAPS   H9X 1035   2.690   1.886   5.284
    8SAPS   H9Y 1036   2.588   1.940   5.412
    8SAPS  C310 1037   2.508   1.975   5.216
    8SAPS  H10X 1038   2.558   2.074   5.208
    8SAPS  H10Y 1039   2.405   2.005   5.246
    8SAPS  C311 1040   2.505   1.906   5.074
    8SAPS  H11X 1041   2.464   1.803   5.080
    8SAPS  H11Y 1042   2.607   1.885   5.037
    8SAPS  C312 1043   2.425   1.981   4.976
    8SAPS  H12X 1044   2.509   2.033   4.925
    8SAPS  H12Y 1045   2.349   2.050   5.017
    8SAPS  C313 1046   2.357   1.890   4.864
    8SAPS  H13X 1047   2.269   1.842   4.911
    8SAPS  H13Y 1048   2.428   1.810   4.833
    8SAPS  C314 1049   2.327   1.973   4.743
    8SAPS  H14X 1050   2.414   2.031   4.706
    8SAPS  H14Y 1051   2.243   2.040   4.771
    8SAPS  C315 1052   2.294   1.879   4.624
    8SAPS  H15X 1053   2.238   1.790   4.659
    8SAPS  H15Y 1054   2.388   1.831   4.588
    8SAPS  C316 1055   2.222   1.948   4.512
    8SAPS  H16X 1056   2.276   2.037   4.474
    8SAPS  H16Y 1057   2.132   1.997   4.554
    8SAPS  C317 1058   2.197   1.855   4.390
    8SAPS  H17X 1059   2.154   1.759   4.427
    8SAPS  H17Y 1060   2.294   1.828   4.343
    8SAPS  C318 1061   2.119   1.916   4.279
    8SAPS  H18X 1062   2.031   1.969   4.320
    8SAPS  H18Y 1063   2.093   1.837   4.205
    8SAPS  H18Z 1064   2.189   1.983   4.224
    9SAPS     N 1065   1.375   5.418   6.630
    9SAPS   HN1 1066   1.446   5.481   6.673
    9SAPS   HN2 1067   1.411   5.321   6.616
    9SAPS   HN3 1068   1.350   5.463   6.539
    9SAPS   C12 1069   1.264   5.416   6.727
    9SAPS  H12A 1070   1.277   5.503   6.791
    9SAPS   C13 1071   1.119   5.444   6.677
    9SAPS  O13A 1072   1.101   5.447   6.554
    9SAPS  O13B 1073   1.031   5.449   6.764
    9SAPS   C11 1074   1.262   5.290   6.817
    9SAPS  H11A 1075   1.243   5.195   6.763
    9SAPS  H11B 1076   1.176   5.289   6.888
    9SAPS     P 1077   1.488   5.175   6.862
    9SAPS   O13 1078   1.614   5.223   6.910
    9SAPS   O14 1079   1.437   5.045   6.912
    9SAPS   O12 1080   1.383   5.285   6.894
    9SAPS   O11 1081   1.487   5.175   6.701
    9SAPS    C1 1082   1.591   5.138   6.609
    9SAPS    HA 1083   1.642   5.233   6.584
    9SAPS    HB 1084   1.657   5.064   6.659
    9SAPS    C2 1085   1.531   5.085   6.473
    9SAPS    HS 1086   1.614   5.046   6.411
    9SAPS   O21 1087   1.473   5.205   6.408
    9SAPS   C21 1088   1.444   5.188   6.280
    9SAPS   O22 1089   1.490   5.099   6.210
    9SAPS   C22 1090   1.328   5.274   6.243
    9SAPS   H2R 1091   1.268   5.304   6.331
    9SAPS   H2S 1092   1.355   5.369   6.193
    9SAPS    C3 1093   1.437   4.969   6.510
    9SAPS    HX 1094   1.375   5.007   6.594
    9SAPS    HY 1095   1.492   4.882   6.552
    9SAPS   O31 1096   1.357   4.921   6.398
    9SAPS   C31 1097   1.395   4.810   6.336
    9SAPS   O32 1098   1.506   4.756   6.344
    9SAPS   C32 1099   1.278   4.757   6.242
    9SAPS   H2X 1100   1.247   4.834   6.168
    9SAPS   H2Y 1101   1.198   4.726   6.313
    9SAPS   C23 1102   1.230   5.196   6.147
    9SAPS   H3R 1103   1.188   5.112   6.206
    9SAPS   H3S 1104   1.285   5.144   6.065
    9SAPS   C24 1105   1.117   5.295   6.088
    9SAPS   H4R 1106   1.158   5.392   6.053
    9SAPS   H4S 1107   1.056   5.314   6.180
    9SAPS   C25 1108   1.039   5.234   5.973
    9SAPS   H5R 1109   0.968   5.161   6.015
    9SAPS   C26 1110   1.037   5.272   5.841
    9SAPS   H6R 1111   0.968   5.213   5.778
    9SAPS   C27 1112   1.123   5.379   5.778
    9SAPS   H7R 1113   1.158   5.340   5.680
    9SAPS   H7S 1114   1.223   5.383   5.827
    9SAPS   C28 1115   1.058   5.518   5.773
    9SAPS   H8R 1116   1.040   5.559   5.874
    9SAPS   C29 1117   1.021   5.585   5.658
    9SAPS   H9R 1118   0.967   5.680   5.666
    9SAPS  C210 1119   1.051   5.547   5.516
    9SAPS  H10R 1120   0.976   5.610   5.464
    9SAPS  H10S 1121   1.024   5.442   5.490
    9SAPS  C211 1122   1.189   5.590   5.467
    9SAPS  H11R 1123   1.266   5.562   5.540
    9SAPS  C212 1124   1.228   5.650   5.352
    9SAPS  H12R 1125   1.334   5.679   5.341
    9SAPS  C213 1126   1.135   5.698   5.246
    9SAPS  H13R 1127   1.202   5.749   5.174
    9SAPS  H13S 1128   1.068   5.775   5.289
    9SAPS  C214 1129   1.063   5.586   5.183
    9SAPS  H14R 1130   1.006   5.520   5.251
    9SAPS  C215 1131   1.029   5.571   5.051
    9SAPS  H15R 1132   0.976   5.483   5.013
    9SAPS  C216 1133   1.057   5.660   4.931
    9SAPS  H16R 1134   1.104   5.758   4.955
    9SAPS  H16S 1135   0.959   5.686   4.886
    9SAPS  C217 1136   1.156   5.591   4.826
    9SAPS  H17R 1137   1.187   5.669   4.753
    9SAPS  H17S 1138   1.105   5.519   4.759
    9SAPS  C218 1139   1.276   5.539   4.895
    9SAPS  H18R 1140   1.244   5.447   4.948
    9SAPS  H18S 1141   1.318   5.616   4.962
    9SAPS  C219 1142   1.397   5.503   4.800
    9SAPS  H19R 1143   1.433   5.602   4.763
    9SAPS  H19S 1144   1.362   5.451   4.709
    9SAPS  C220 1145   1.510   5.430   4.876
    9SAPS  H20R 1146   1.489   5.322   4.889
    9SAPS  H20S 1147   1.517   5.483   4.973
    9SAPS  H20T 1148   1.606   5.443   4.821
    9SAPS   C33 1149   1.327   4.639   6.169
    9SAPS   H3X 1150   1.244   4.596   6.110
    9SAPS   H3Y 1151   1.377   4.554   6.222
    9SAPS   C34 1152   1.428   4.682   6.050
    9SAPS   H4X 1153   1.522   4.733   6.080
    9SAPS   H4Y 1154   1.377   4.752   5.981
    9SAPS   C35 1155   1.472   4.555   5.976
    9SAPS   H5X 1156   1.382   4.509   5.929
    9SAPS   H5Y 1157   1.502   4.475   6.048
    9SAPS   C36 1158   1.585   4.561   5.877
    9SAPS   H6X 1159   1.604   4.454   5.853
    9SAPS   H6Y 1160   1.680   4.600   5.921
    9SAPS   C37 1161   1.555   4.627   5.742
    9SAPS   H7X 1162   1.510   4.725   5.768
    9SAPS   H7Y 1163   1.476   4.566   5.692
    9SAPS   C38 1164   1.671   4.664   5.641
    9SAPS   H8X 1165   1.730   4.572   5.623
    9SAPS   H8Y 1166   1.743   4.723   5.702
    9SAPS   C39 1167   1.631   4.726   5.507
    9SAPS   H9X 1168   1.721   4.734   5.442
    9SAPS   H9Y 1169   1.591   4.828   5.524
    9SAPS  C310 1170   1.539   4.643   5.417
    9SAPS  H10X 1171   1.432   4.646   5.444
    9SAPS  H10Y 1172   1.573   4.538   5.428
    9SAPS  C311 1173   1.559   4.693   5.270
    9SAPS  H11X 1174   1.664   4.690   5.236
    9SAPS  H11Y 1175   1.528   4.799   5.256
    9SAPS  C312 1176   1.468   4.603   5.185
    9SAPS  H12X 1177   1.360   4.616   5.207
    9SAPS  H12Y 1178   1.496   4.501   5.220
    9SAPS  C313 1179   1.504   4.601   5.035
    9SAPS  H13X 1180   1.614   4.618   5.028
    9SAPS  H13Y 1181   1.446   4.681   4.985
    9SAPS  C314 1182   1.484   4.470   4.963
    9SAPS  H14X 1183   1.378   4.439   4.978
    9SAPS  H14Y 1184   1.541   4.392   5.018
    9SAPS  C315 1185   1.520   4.474   4.810
    9SAPS  H15X 1186   1.445   4.536   4.756
    9SAPS  H15Y 1187   1.507   4.370   4.772
    9SAPS  C316 1188   1.659   4.525   4.771
    9SAPS  H16X 1189   1.736   4.476   4.836
    9SAPS  H16Y 1190   1.662   4.630   4.807
    9SAPS  C317 1191   1.683   4.524   4.623
    9SAPS  H17X 1192   1.619   4.611   4.599
    9SAPS  H17Y 1193   1.640   4.429   4.585
    9SAPS  C318 1194   1.822   4.552   4.590
    9SAPS  H18X 1195   1.875   4.459   4.620
    9SAPS  H18Y 1196   1.863   4.639   4.645
    9SAPS  H18Z 1197   1.832   4.556   4.479
   10SAPS     N 1198   2.184   5.322   7.151
   10SAPS   HN1 1199   2.268   5.261   7.155
   10SAPS   HN2 1200   2.204   5.412   7.199
   10SAPS   HN3 1201   2.104   5.271   7.192
   10SAPS   C12 1202   2.147   5.358   7.002
   10SAPS  H12A 1203   2.098   5.266   6.971
   10SAPS   C13 1204   2.060   5.479   6.984
   10SAPS  O13A 1205   2.054   5.555   7.084
   10SAPS  O13B 1206   2.038   5.523   6.867
   10SAPS   C11 1207   2.285   5.379   6.928
   10SAPS  H11A 1208   2.340   5.455   6.987
   10SAPS  H11B 1209   2.263   5.421   6.828
   10SAPS     P 1210   2.359   5.158   6.810
   10SAPS   O13 1211   2.499   5.108   6.804
   10SAPS   O14 1212   2.256   5.061   6.831
   10SAPS   O12 1213   2.369   5.261   6.931
   10SAPS   O11 1214   2.339   5.246   6.687
   10SAPS    C1 1215   2.224   5.259   6.611
   10SAPS    HA 1216   2.135   5.271   6.676
   10SAPS    HB 1217   2.240   5.353   6.556
   10SAPS    C2 1218   2.194   5.143   6.515
   10SAPS    HS 1219   2.158   5.061   6.581
   10SAPS   O21 1220   2.311   5.100   6.445
   10SAPS   C21 1221   2.358   5.183   6.352
   10SAPS   O22 1222   2.348   5.303   6.352
   10SAPS   C22 1223   2.462   5.119   6.248
   10SAPS   H2R 1224   2.513   5.208   6.207
   10SAPS   H2S 1225   2.525   5.055   6.314
   10SAPS    C3 1226   2.070   5.172   6.425
   10SAPS    HX 1227   2.085   5.269   6.374
   10SAPS    HY 1228   1.985   5.168   6.497
   10SAPS   O31 1229   2.067   5.076   6.316
   10SAPS   C31 1230   1.942   5.064   6.272
   10SAPS   O32 1231   1.847   5.128   6.316
   10SAPS   C32 1232   1.934   4.956   6.161
   10SAPS   H2X 1233   1.845   4.893   6.181
   10SAPS   H2Y 1234   2.022   4.888   6.167
   10SAPS   C23 1235   2.394   5.047   6.126
   10SAPS   H3R 1236   2.321   5.103   6.062
   10SAPS   H3S 1237   2.346   4.958   6.171
   10SAPS   C24 1238   2.495   4.962   6.031
   10SAPS   H4R 1239   2.539   4.885   6.099
   10SAPS   H4S 1240   2.580   5.020   5.990
   10SAPS   C25 1241   2.415   4.894   5.924
   10SAPS   H5R 1242   2.358   4.804   5.948
   10SAPS   C26 1243   2.413   4.936   5.798
   10SAPS   H6R 1244   2.363   4.877   5.720
   10SAPS   C27 1245   2.478   5.056   5.739
   10SAPS   H7R 1246   2.529   5.121   5.813
   10SAPS   H7S 1247   2.402   5.124   5.696
   10SAPS   C28 1248   2.580   5.008   5.640
   10SAPS   H8R 1249   2.647   4.924   5.665
   10SAPS   C29 1250   2.570   5.031   5.506
   10SAPS   H9R 1251   2.650   4.987   5.444
   10SAPS  C210 1252   2.473   5.123   5.445
   10SAPS  H10R 1253   2.540   5.190   5.387
   10SAPS  H10S 1254   2.412   5.196   5.503
   10SAPS  C211 1255   2.371   5.042   5.367
   10SAPS  H11R 1256   2.285   5.020   5.432
   10SAPS  C212 1257   2.364   5.032   5.236
   10SAPS  H12R 1258   2.274   4.983   5.196
   10SAPS  C213 1259   2.462   5.078   5.130
   10SAPS  H13R 1260   2.550   5.118   5.186
   10SAPS  H13S 1261   2.422   5.164   5.072
   10SAPS  C214 1262   2.503   4.962   5.049
   10SAPS  H14R 1263   2.595   4.917   5.089
   10SAPS  C215 1264   2.450   4.927   4.929
   10SAPS  H15R 1265   2.490   4.846   4.866
   10SAPS  C216 1266   2.328   4.994   4.866
   10SAPS  H16R 1267   2.350   5.040   4.768
   10SAPS  H16S 1268   2.289   5.081   4.925
   10SAPS  C217 1269   2.202   4.900   4.853
   10SAPS  H17R 1270   2.156   4.889   4.953
   10SAPS  H17S 1271   2.234   4.810   4.796
   10SAPS  C218 1272   2.104   4.968   4.749
   10SAPS  H18R 1273   2.160   5.000   4.659
   10SAPS  H18S 1274   2.058   5.062   4.784
   10SAPS  C219 1275   1.991   4.880   4.690
   10SAPS  H19R 1276   1.936   4.840   4.778
   10SAPS  H19S 1277   2.044   4.788   4.657
   10SAPS  C220 1278   1.911   4.951   4.581
   10SAPS  H20R 1279   1.969   4.978   4.490
   10SAPS  H20S 1280   1.867   5.037   4.636
   10SAPS  H20T 1281   1.823   4.890   4.551
   10SAPS   C33 1282   1.929   5.021   6.026
   10SAPS   H3X 1283   1.851   5.099   6.016
   10SAPS   H3Y 1284   1.897   4.932   5.968
   10SAPS   C34 1285   2.061   5.084   5.981
   10SAPS   H4X 1286   2.145   5.012   5.995
   10SAPS   H4Y 1287   2.076   5.171   6.048
   10SAPS   C35 1288   2.050   5.133   5.832
   10SAPS   H5X 1289   2.144   5.187   5.806
   10SAPS   H5Y 1290   1.968   5.208   5.833
   10SAPS   C36 1291   2.019   5.022   5.726
   10SAPS   H6X 1292   1.921   4.987   5.764
   10SAPS   H6Y 1293   2.100   4.947   5.736
   10SAPS   C37 1294   2.030   5.079   5.583
   10SAPS   H7X 1295   2.134   5.092   5.547
   10SAPS   H7Y 1296   1.980   5.178   5.588
   10SAPS   C38 1297   1.955   4.994   5.485
   10SAPS   H8X 1298   1.856   4.959   5.521
   10SAPS   H8Y 1299   2.008   4.898   5.467
   10SAPS   C39 1300   1.948   5.056   5.342
   10SAPS   H9X 1301   2.051   5.087   5.313
   10SAPS   H9Y 1302   1.879   5.144   5.346
   10SAPS  C310 1303   1.906   4.959   5.229
   10SAPS  H10X 1304   1.807   4.911   5.243
   10SAPS  H10Y 1305   1.978   4.876   5.221
   10SAPS  C311 1306   1.904   5.032   5.096
   10SAPS  H11X 1307   1.909   4.951   5.020
   10SAPS  H11Y 1308   2.006   5.074   5.092
   10SAPS  C312 1309   1.793   5.132   5.065
   10SAPS  H12X 1310   1.795   5.155   4.956
   10SAPS  H12Y 1311   1.798   5.230   5.118
   10SAPS  C313 1312   1.652   5.082   5.112
   10SAPS  H13X 1313   1.584   5.167   5.091
   10SAPS  H13Y 1314   1.648   5.062   5.222
   10SAPS  C314 1315   1.599   4.969   5.019
   10SAPS  H14X 1316   1.498   4.943   5.056
   10SAPS  H14Y 1317   1.667   4.882   5.026
   10SAPS  C315 1318   1.592   4.994   4.869
   10SAPS  H15X 1319   1.692   4.971   4.826
   10SAPS  H15Y 1320   1.577   5.103   4.855
   10SAPS  C316 1321   1.497   4.899   4.795
   10SAPS  H16X 1322   1.392   4.922   4.822
   10SAPS  H16Y 1323   1.520   4.803   4.847
   10SAPS  C317 1324   1.520   4.899   4.644
   10SAPS  H17X 1325   1.474   4.804   4.610
   10SAPS  H17Y 1326   1.628   4.891   4.619
   10SAPS  C318 1327   1.452   5.014   4.562
   10SAPS  H18X 1328   1.355   4.980   4.518
   10SAPS  H18Y 1329   1.520   5.039   4.478
   10SAPS  H18Z 1330   1.435   5.108   4.618
   11SAPS     N 1331   3.341   2.766   1.943
   11SAPS   HN1 1332   3.289   2.826   2.009
   11SAPS   HN2 1333   3.277   2.695   1.902
   11SAPS   HN3 1334   3.405   2.713   2.005
   11SAPS   C12 1335   3.413   2.851   1.843
   11SAPS  H12A 1336   3.503   2.892   1.884
   11SAPS   C13 1337   3.448   2.774   1.713
   11SAPS  O13A 1338   3.380   2.668   1.692
   11SAPS  O13B 1339   3.504   2.834   1.621
   11SAPS   C11 1340   3.311   2.971   1.822
   11SAPS  H11A 1341   3.213   2.928   1.792
   11SAPS  H11B 1342   3.338   3.015   1.723
   11SAPS     P 1343   3.354   3.200   1.956
   11SAPS   O13 1344   3.390   3.264   1.827
   11SAPS   O14 1345   3.268   3.270   2.051
   11SAPS   O12 1346   3.293   3.058   1.932
   11SAPS   O11 1347   3.490   3.165   2.022
   11SAPS    C1 1348   3.516   3.077   2.128
   11SAPS    HA 1349   3.448   2.991   2.111
   11SAPS    HB 1350   3.622   3.045   2.119
   11SAPS    C2 1351   3.484   3.132   2.271
   11SAPS    HS 1352   3.373   3.140   2.266
   11SAPS   O21 1353   3.554   3.254   2.269
   11SAPS   C21 1354   3.485   3.357   2.337
   11SAPS   O22 1355   3.392   3.337   2.413
   11SAPS   C22 1356   3.555   3.487   2.314
   11SAPS   H2R 1357   3.660   3.469   2.280
   11SAPS   H2S 1358   3.503   3.526   2.224
   11SAPS    C3 1359   3.524   3.043   2.382
   11SAPS    HX 1360   3.540   3.103   2.474
   11SAPS    HY 1361   3.624   2.997   2.366
   11SAPS   O31 1362   3.434   2.943   2.394
   11SAPS   C31 1363   3.413   2.882   2.516
   11SAPS   O32 1364   3.493   2.898   2.609
   11SAPS   C32 1365   3.312   2.776   2.505
   11SAPS   H2X 1366   3.329   2.708   2.419
   11SAPS   H2Y 1367   3.214   2.827   2.499
   11SAPS   C23 1368   3.550   3.591   2.417
   11SAPS   H3R 1369   3.461   3.593   2.484
   11SAPS   H3S 1370   3.555   3.690   2.367
   11SAPS   C24 1371   3.675   3.586   2.510
   11SAPS   H4R 1372   3.678   3.684   2.562
   11SAPS   H4S 1373   3.764   3.585   2.444
   11SAPS   C25 1374   3.678   3.470   2.605
   11SAPS   H5R 1375   3.752   3.396   2.573
   11SAPS   C26 1376   3.613   3.466   2.726
   11SAPS   H6R 1377   3.609   3.380   2.795
   11SAPS   C27 1378   3.526   3.576   2.784
   11SAPS   H7R 1379   3.455   3.529   2.855
   11SAPS   H7S 1380   3.459   3.604   2.700
   11SAPS   C28 1381   3.604   3.697   2.839
   11SAPS   H8R 1382   3.647   3.760   2.759
   11SAPS   C29 1383   3.641   3.732   2.963
   11SAPS   H9R 1384   3.696   3.826   2.980
   11SAPS  C210 1385   3.617   3.636   3.077
   11SAPS  H10R 1386   3.519   3.586   3.070
   11SAPS  H10S 1387   3.600   3.690   3.173
   11SAPS  C211 1388   3.727   3.539   3.102
   11SAPS  H11R 1389   3.800   3.531   3.020
   11SAPS  C212 1390   3.736   3.461   3.211
   11SAPS  H12R 1391   3.820   3.391   3.225
   11SAPS  C213 1392   3.654   3.461   3.335
   11SAPS  H13R 1393   3.666   3.371   3.400
   11SAPS  H13S 1394   3.548   3.472   3.304
   11SAPS  C214 1395   3.689   3.587   3.421
   11SAPS  H14R 1396   3.682   3.688   3.380
   11SAPS  C215 1397   3.710   3.593   3.552
   11SAPS  H15R 1398   3.739   3.690   3.597
   11SAPS  C216 1399   3.717   3.473   3.647
   11SAPS  H16R 1400   3.731   3.376   3.595
   11SAPS  H16S 1401   3.621   3.452   3.699
   11SAPS  C217 1402   3.832   3.480   3.748
   11SAPS  H17R 1403   3.925   3.496   3.690
   11SAPS  H17S 1404   3.856   3.383   3.796
   11SAPS  C218 1405   3.804   3.581   3.862
   11SAPS  H18R 1406   3.712   3.544   3.911
   11SAPS  H18S 1407   3.783   3.680   3.817
   11SAPS  C219 1408   3.917   3.592   3.964
   11SAPS  H19R 1409   4.014   3.606   3.911
   11SAPS  H19S 1410   3.928   3.498   4.023
   11SAPS  C220 1411   3.907   3.705   4.074
   11SAPS  H20R 1412   3.992   3.729   4.141
   11SAPS  H20S 1413   3.819   3.677   4.136
   11SAPS  H20T 1414   3.879   3.804   4.033
   11SAPS   C33 1415   3.301   2.686   2.632
   11SAPS   H3X 1416   3.399   2.637   2.647
   11SAPS   H3Y 1417   3.230   2.605   2.602
   11SAPS   C34 1418   3.268   2.758   2.766
   11SAPS   H4X 1419   3.164   2.795   2.763
   11SAPS   H4Y 1420   3.331   2.851   2.769
   11SAPS   C35 1421   3.296   2.678   2.892
   11SAPS   H5X 1422   3.393   2.624   2.890
   11SAPS   H5Y 1423   3.219   2.599   2.906
   11SAPS   C36 1424   3.281   2.765   3.015
   11SAPS   H6X 1425   3.182   2.812   3.029
   11SAPS   H6Y 1426   3.349   2.853   3.011
   11SAPS   C37 1427   3.321   2.682   3.141
   11SAPS   H7X 1428   3.416   2.625   3.126
   11SAPS   H7Y 1429   3.237   2.610   3.147
   11SAPS   C38 1430   3.320   2.769   3.269
   11SAPS   H8X 1431   3.219   2.814   3.279
   11SAPS   H8Y 1432   3.398   2.848   3.260
   11SAPS   C39 1433   3.363   2.681   3.388
   11SAPS   H9X 1434   3.466   2.645   3.366
   11SAPS   H9Y 1435   3.290   2.598   3.392
   11SAPS  C310 1436   3.369   2.762   3.521
   11SAPS  H10X 1437   3.270   2.812   3.534
   11SAPS  H10Y 1438   3.442   2.841   3.498
   11SAPS  C311 1439   3.406   2.680   3.642
   11SAPS  H11X 1440   3.512   2.645   3.636
   11SAPS  H11Y 1441   3.344   2.588   3.644
   11SAPS  C312 1442   3.403   2.758   3.774
   11SAPS  H12X 1443   3.467   2.846   3.755
   11SAPS  H12Y 1444   3.439   2.685   3.850
   11SAPS  C313 1445   3.248   2.788   3.801
   11SAPS  H13X 1446   3.196   2.692   3.824
   11SAPS  H13Y 1447   3.189   2.829   3.716
   11SAPS  C314 1448   3.228   2.896   3.906
   11SAPS  H14X 1449   3.314   2.966   3.914
   11SAPS  H14Y 1450   3.225   2.848   4.006
   11SAPS  C315 1451   3.094   2.971   3.882
   11SAPS  H15X 1452   3.015   2.893   3.873
   11SAPS  H15Y 1453   3.091   3.027   3.786
   11SAPS  C316 1454   3.052   3.060   3.992
   11SAPS  H16X 1455   3.110   3.151   4.018
   11SAPS  H16Y 1456   3.055   2.995   4.082
   11SAPS  C317 1457   2.908   3.104   4.004
   11SAPS  H17X 1458   2.917   3.176   4.088
   11SAPS  H17Y 1459   2.834   3.024   4.023
   11SAPS  C318 1460   2.850   3.193   3.892
   11SAPS  H18X 1461   2.874   3.159   3.789
   11SAPS  H18Y 1462   2.894   3.295   3.896
   11SAPS  H18Z 1463   2.740   3.206   3.903
   12SAPS     N 1464   2.016   2.561   2.109
   12SAPS   HN1 1465   1.925   2.574   2.159
   12SAPS   HN2 1466   2.101   2.559   2.169
   12SAPS   HN3 1467   2.034   2.642   2.046
   12SAPS   C12 1468   1.998   2.446   2.013
   12SAPS  H12A 1469   1.955   2.367   2.074
   12SAPS   C13 1470   1.917   2.475   1.883
   12SAPS  O13A 1471   1.872   2.591   1.863
   12SAPS  O13B 1472   1.898   2.376   1.806
   12SAPS   C11 1473   2.143   2.397   1.967
   12SAPS  H11A 1474   2.166   2.469   1.885
   12SAPS  H11B 1475   2.133   2.297   1.920
   12SAPS     P 1476   2.369   2.297   2.080
   12SAPS   O13 1477   2.330   2.155   2.082
   12SAPS   O14 1478   2.473   2.346   1.981
   12SAPS   O12 1479   2.239   2.391   2.071
   12SAPS   O11 1480   2.424   2.337   2.224
   12SAPS    C1 1481   2.340   2.361   2.335
   12SAPS    HA 1482   2.285   2.453   2.306
   12SAPS    HB 1483   2.265   2.280   2.352
   12SAPS    C2 1484   2.423   2.373   2.464
   12SAPS    HS 1485   2.494   2.457   2.452
   12SAPS   O21 1486   2.487   2.249   2.502
   12SAPS   C21 1487   2.623   2.246   2.511
   12SAPS   O22 1488   2.703   2.337   2.494
   12SAPS   C22 1489   2.666   2.107   2.549
   12SAPS   H2R 1490   2.592   2.067   2.621
   12SAPS   H2S 1491   2.665   2.045   2.457
   12SAPS    C3 1492   2.327   2.415   2.576
   12SAPS    HX 1493   2.230   2.362   2.582
   12SAPS    HY 1494   2.300   2.519   2.548
   12SAPS   O31 1495   2.407   2.420   2.703
   12SAPS   C31 1496   2.386   2.326   2.789
   12SAPS   O32 1497   2.304   2.232   2.779
   12SAPS   C32 1498   2.477   2.344   2.912
   12SAPS   H2X 1499   2.417   2.368   3.002
   12SAPS   H2Y 1500   2.551   2.425   2.899
   12SAPS   C23 1501   2.812   2.122   2.606
   12SAPS   H3R 1502   2.810   2.211   2.672
   12SAPS   H3S 1503   2.899   2.134   2.538
   12SAPS   C24 1504   2.836   1.996   2.690
   12SAPS   H4R 1505   2.755   1.978   2.764
   12SAPS   H4S 1506   2.925   2.009   2.754
   12SAPS   C25 1507   2.853   1.867   2.609
   12SAPS   H5R 1508   2.844   1.877   2.500
   12SAPS   C26 1509   2.889   1.752   2.667
   12SAPS   H6R 1510   2.899   1.669   2.595
   12SAPS   C27 1511   2.896   1.728   2.813
   12SAPS   H7R 1512   2.874   1.621   2.834
   12SAPS   H7S 1513   2.811   1.783   2.860
   12SAPS   C28 1514   3.021   1.782   2.874
   12SAPS   H8R 1515   3.089   1.840   2.811
   12SAPS   C29 1516   3.046   1.767   3.006
   12SAPS   H9R 1517   3.139   1.808   3.048
   12SAPS  C210 1518   2.961   1.695   3.104
   12SAPS  H10R 1519   3.033   1.655   3.179
   12SAPS  H10S 1520   2.915   1.610   3.049
   12SAPS  C211 1521   2.848   1.789   3.159
   12SAPS  H11R 1522   2.791   1.835   3.077
   12SAPS  C212 1523   2.821   1.828   3.283
   12SAPS  H12R 1524   2.741   1.903   3.288
   12SAPS  C213 1525   2.887   1.792   3.421
   12SAPS  H13R 1526   2.955   1.704   3.415
   12SAPS  H13S 1527   2.804   1.771   3.491
   12SAPS  C214 1528   2.972   1.897   3.485
   12SAPS  H14R 1529   3.029   1.958   3.414
   12SAPS  C215 1530   3.012   1.888   3.611
   12SAPS  H15R 1531   3.088   1.961   3.642
   12SAPS  C216 1532   2.979   1.799   3.722
   12SAPS  H16R 1533   3.066   1.778   3.787
   12SAPS  H16S 1534   2.947   1.701   3.680
   12SAPS  C217 1535   2.866   1.848   3.817
   12SAPS  H17R 1536   2.853   1.771   3.896
   12SAPS  H17S 1537   2.770   1.846   3.762
   12SAPS  C218 1538   2.893   1.974   3.897
   12SAPS  H18R 1539   2.901   2.063   3.830
   12SAPS  H18S 1540   2.993   1.976   3.944
   12SAPS  C219 1541   2.786   2.014   3.989
   12SAPS  H19R 1542   2.782   1.930   4.062
   12SAPS  H19S 1543   2.692   2.002   3.931
   12SAPS  C220 1544   2.788   2.156   4.049
   12SAPS  H20R 1545   2.888   2.176   4.092
   12SAPS  H20S 1546   2.701   2.159   4.117
   12SAPS  H20T 1547   2.763   2.230   3.969
   12SAPS   C33 1548   2.552   2.206   2.924
   12SAPS   H3X 1549   2.616   2.184   2.836
   12SAPS   H3Y 1550   2.486   2.116   2.922
   12SAPS   C34 1551   2.636   2.196   3.051
   12SAPS   H4X 1552   2.716   2.272   3.054
   12SAPS   H4Y 1553   2.687   2.100   3.072
   12SAPS   C35 1554   2.553   2.220   3.181
   12SAPS   H5X 1555   2.487   2.131   3.187
   12SAPS   H5Y 1556   2.493   2.313   3.179
   12SAPS   C36 1557   2.653   2.240   3.301
   12SAPS   H6X 1558   2.711   2.334   3.281
   12SAPS   H6Y 1559   2.716   2.149   3.291
   12SAPS   C37 1560   2.586   2.225   3.430
   12SAPS   H7X 1561   2.540   2.123   3.428
   12SAPS   H7Y 1562   2.497   2.291   3.441
   12SAPS   C38 1563   2.657   2.250   3.564
   12SAPS   H8X 1564   2.654   2.357   3.590
   12SAPS   H8Y 1565   2.762   2.220   3.545
   12SAPS   C39 1566   2.606   2.147   3.668
   12SAPS   H9X 1567   2.681   2.151   3.749
   12SAPS   H9Y 1568   2.607   2.047   3.621
   12SAPS  C310 1569   2.475   2.183   3.729
   12SAPS  H10X 1570   2.390   2.200   3.659
   12SAPS  H10Y 1571   2.485   2.287   3.767
   12SAPS  C311 1572   2.423   2.091   3.843
   12SAPS  H11X 1573   2.330   2.128   3.890
   12SAPS  H11Y 1574   2.490   2.088   3.931
   12SAPS  C312 1575   2.393   1.947   3.794
   12SAPS  H12X 1576   2.487   1.898   3.760
   12SAPS  H12Y 1577   2.325   1.940   3.706
   12SAPS  C313 1578   2.326   1.868   3.907
   12SAPS  H13X 1579   2.302   1.763   3.878
   12SAPS  H13Y 1580   2.234   1.923   3.936
   12SAPS  C314 1581   2.409   1.854   4.038
   12SAPS  H14X 1582   2.327   1.845   4.113
   12SAPS  H14Y 1583   2.474   1.941   4.058
   12SAPS  C315 1584   2.491   1.725   4.034
   12SAPS  H15X 1585   2.549   1.736   3.940
   12SAPS  H15Y 1586   2.426   1.639   4.006
   12SAPS  C316 1587   2.584   1.697   4.150
   12SAPS  H16X 1588   2.526   1.656   4.236
   12SAPS  H16Y 1589   2.623   1.793   4.190
   12SAPS  C317 1590   2.698   1.606   4.105
   12SAPS  H17X 1591   2.752   1.662   4.026
   12SAPS  H17Y 1592   2.657   1.510   4.068
   12SAPS  C318 1593   2.797   1.570   4.214
   12SAPS  H18X 1594   2.858   1.658   4.242
   12SAPS  H18Y 1595   2.864   1.489   4.179
   12SAPS  H18Z 1596   2.738   1.536   4.302
   13SAPS     N 1597   4.952   1.311   2.149
   13SAPS   HN1 1598   4.973   1.406   2.184
   13SAPS   HN2 1599   5.004   1.254   2.219
   13SAPS   HN3 1600   4.983   1.301   2.050
   13SAPS   C12 1601   4.803   1.303   2.143
   13SAPS  H12A 1602   4.766   1.371   2.068
   13SAPS   C13 1603   4.747   1.162   2.121
   13SAPS  O13A 1604   4.816   1.062   2.086
   13SAPS  O13B 1605   4.622   1.155   2.132
   13SAPS   C11 1606   4.753   1.355   2.279
   13SAPS  H11A 1607   4.768   1.272   2.352
   13SAPS  H11B 1608   4.643   1.373   2.275
   13SAPS     P 1609   4.753   1.564   2.434
   13SAPS   O13 1610   4.845   1.681   2.450
   13SAPS   O14 1611   4.615   1.586   2.394
   13SAPS   O12 1612   4.817   1.474   2.324
   13SAPS   O11 1613   4.758   1.482   2.572
   13SAPS    C1 1614   4.876   1.396   2.598
   13SAPS    HA 1615   4.838   1.298   2.635
   13SAPS    HB 1616   4.946   1.371   2.516
   13SAPS    C2 1617   4.977   1.441   2.713
   13SAPS    HS 1618   5.066   1.378   2.694
   13SAPS   O21 1619   4.913   1.417   2.837
   13SAPS   C21 1620   4.939   1.307   2.893
   13SAPS   O22 1621   5.001   1.214   2.839
   13SAPS   C22 1622   4.870   1.301   3.029
   13SAPS   H2R 1623   4.912   1.387   3.086
   13SAPS   H2S 1624   4.763   1.324   3.016
   13SAPS    C3 1625   5.027   1.584   2.705
   13SAPS    HX 1626   4.942   1.652   2.727
   13SAPS    HY 1627   5.066   1.598   2.602
   13SAPS   O31 1628   5.128   1.597   2.813
   13SAPS   C31 1629   5.177   1.719   2.822
   13SAPS   O32 1630   5.154   1.815   2.751
   13SAPS   C32 1631   5.263   1.726   2.947
   13SAPS   H2X 1632   5.341   1.802   2.925
   13SAPS   H2Y 1633   5.310   1.630   2.978
   13SAPS   C23 1634   4.900   1.174   3.102
   13SAPS   H3R 1635   5.010   1.162   3.105
   13SAPS   H3S 1636   4.852   1.091   3.046
   13SAPS   C24 1637   4.853   1.170   3.243
   13SAPS   H4R 1638   4.905   1.252   3.298
   13SAPS   H4S 1639   4.891   1.073   3.283
   13SAPS   C25 1640   4.703   1.185   3.259
   13SAPS   H5R 1641   4.644   1.204   3.168
   13SAPS   C26 1642   4.634   1.175   3.376
   13SAPS   H6R 1643   4.525   1.166   3.370
   13SAPS   C27 1644   4.703   1.138   3.503
   13SAPS   H7R 1645   4.781   1.064   3.476
   13SAPS   H7S 1646   4.629   1.092   3.572
   13SAPS   C28 1647   4.768   1.260   3.575
   13SAPS   H8R 1648   4.834   1.319   3.510
   13SAPS   C29 1649   4.742   1.296   3.706
   13SAPS   H9R 1650   4.796   1.380   3.750
   13SAPS  C210 1651   4.647   1.230   3.803
   13SAPS  H10R 1652   4.558   1.203   3.742
   13SAPS  H10S 1653   4.604   1.305   3.872
   13SAPS  C211 1654   4.699   1.106   3.868
   13SAPS  H11R 1655   4.772   1.049   3.808
   13SAPS  C212 1656   4.675   1.056   3.992
   13SAPS  H12R 1657   4.709   0.955   4.020
   13SAPS  C213 1658   4.583   1.107   4.094
   13SAPS  H13R 1659   4.490   1.048   4.080
   13SAPS  H13S 1660   4.568   1.216   4.082
   13SAPS  C214 1661   4.626   1.083   4.237
   13SAPS  H14R 1662   4.734   1.073   4.254
   13SAPS  C215 1663   4.549   1.075   4.348
   13SAPS  H15R 1664   4.599   1.046   4.442
   13SAPS  C216 1665   4.398   1.087   4.354
   13SAPS  H16R 1666   4.356   1.120   4.257
   13SAPS  H16S 1667   4.371   1.172   4.420
   13SAPS  C217 1668   4.316   0.977   4.419
   13SAPS  H17R 1669   4.313   0.898   4.342
   13SAPS  H17S 1670   4.216   1.022   4.436
   13SAPS  C218 1671   4.384   0.921   4.545
   13SAPS  H18R 1672   4.435   1.004   4.598
   13SAPS  H18S 1673   4.466   0.861   4.500
   13SAPS  C219 1674   4.308   0.848   4.652
   13SAPS  H19R 1675   4.262   0.758   4.605
   13SAPS  H19S 1676   4.216   0.894   4.694
   13SAPS  C220 1677   4.382   0.796   4.780
   13SAPS  H20R 1678   4.320   0.752   4.861
   13SAPS  H20S 1679   4.441   0.880   4.823
   13SAPS  H20T 1680   4.457   0.717   4.757
   13SAPS   C33 1681   5.185   1.770   3.074
   13SAPS   H3X 1682   5.110   1.850   3.058
   13SAPS   H3Y 1683   5.261   1.819   3.139
   13SAPS   C34 1684   5.122   1.651   3.147
   13SAPS   H4X 1685   5.198   1.591   3.202
   13SAPS   H4Y 1686   5.080   1.583   3.070
   13SAPS   C35 1687   5.017   1.692   3.252
   13SAPS   H5X 1688   4.933   1.753   3.213
   13SAPS   H5Y 1689   5.061   1.763   3.326
   13SAPS   C36 1690   4.969   1.579   3.339
   13SAPS   H6X 1691   5.063   1.554   3.392
   13SAPS   H6Y 1692   4.941   1.495   3.272
   13SAPS   C37 1693   4.859   1.613   3.431
   13SAPS   H7X 1694   4.883   1.712   3.475
   13SAPS   H7Y 1695   4.866   1.546   3.520
   13SAPS   C38 1696   4.721   1.607   3.368
   13SAPS   H8X 1697   4.694   1.502   3.344
   13SAPS   H8Y 1698   4.739   1.658   3.271
   13SAPS   C39 1699   4.612   1.668   3.462
   13SAPS   H9X 1700   4.510   1.647   3.423
   13SAPS   H9Y 1701   4.617   1.779   3.459
   13SAPS  C310 1702   4.609   1.604   3.600
   13SAPS  H10X 1703   4.712   1.610   3.643
   13SAPS  H10Y 1704   4.570   1.502   3.580
   13SAPS  C311 1705   4.527   1.685   3.701
   13SAPS  H11X 1706   4.417   1.688   3.690
   13SAPS  H11Y 1707   4.555   1.792   3.690
   13SAPS  C312 1708   4.572   1.640   3.847
   13SAPS  H12X 1709   4.677   1.665   3.869
   13SAPS  H12Y 1710   4.574   1.529   3.856
   13SAPS  C313 1711   4.480   1.704   3.947
   13SAPS  H13X 1712   4.521   1.691   4.049
   13SAPS  H13Y 1713   4.380   1.659   3.959
   13SAPS  C314 1714   4.459   1.852   3.918
   13SAPS  H14X 1715   4.381   1.855   3.839
   13SAPS  H14Y 1716   4.546   1.904   3.872
   13SAPS  C315 1717   4.397   1.930   4.036
   13SAPS  H15X 1718   4.321   1.870   4.090
   13SAPS  H15Y 1719   4.350   2.024   3.997
   13SAPS  C316 1720   4.500   1.986   4.144
   13SAPS  H16X 1721   4.581   2.031   4.083
   13SAPS  H16Y 1722   4.539   1.900   4.202
   13SAPS  C317 1723   4.435   2.082   4.245
   13SAPS  H17X 1724   4.341   2.040   4.287
   13SAPS  H17Y 1725   4.407   2.174   4.190
   13SAPS  C318 1726   4.526   2.113   4.367
   13SAPS  H18X 1727   4.611   2.175   4.333
   13SAPS  H18Y 1728   4.568   2.019   4.410
   13SAPS  H18Z 1729   4.472   2.165   4.449
   14SAPS     N 1730   5.142   3.624   1.762
   14SAPS   HN1 1731   5.081   3.679   1.825
   14SAPS   HN2 1732   5.090   3.546   1.716
   14SAPS   HN3 1733   5.211   3.581   1.826
   14SAPS   C12 1734   5.210   3.706   1.659
   14SAPS  H12A 1735   5.285   3.642   1.617
   14SAPS   C13 1736   5.120   3.754   1.543
   14SAPS  O13A 1737   4.991   3.745   1.549
   14SAPS  O13B 1738   5.169   3.808   1.441
   14SAPS   C11 1739   5.274   3.833   1.728
   14SAPS  H11A 1740   5.209   3.909   1.776
   14SAPS  H11B 1741   5.314   3.895   1.645
   14SAPS     P 1742   5.522   3.851   1.837
   14SAPS   O13 1743   5.626   3.743   1.808
   14SAPS   O14 1744   5.534   3.975   1.762
   14SAPS   O12 1745   5.381   3.791   1.812
   14SAPS   O11 1746   5.514   3.894   1.986
   14SAPS    C1 1747   5.399   3.888   2.067
   14SAPS    HA 1748   5.429   3.937   2.162
   14SAPS    HB 1749   5.311   3.942   2.024
   14SAPS    C2 1750   5.362   3.747   2.119
   14SAPS    HS 1751   5.341   3.681   2.032
   14SAPS   O21 1752   5.249   3.759   2.200
   14SAPS   C21 1753   5.200   3.638   2.229
   14SAPS   O22 1754   5.230   3.536   2.177
   14SAPS   C22 1755   5.091   3.639   2.342
   14SAPS   H2R 1756   4.994   3.637   2.289
   14SAPS   H2S 1757   5.101   3.545   2.401
   14SAPS    C3 1758   5.485   3.682   2.201
   14SAPS    HX 1759   5.564   3.668   2.124
   14SAPS    HY 1760   5.467   3.583   2.248
   14SAPS   O31 1761   5.532   3.766   2.310
   14SAPS   C31 1762   5.661   3.766   2.330
   14SAPS   O32 1763   5.744   3.717   2.253
   14SAPS   C32 1764   5.680   3.836   2.472
   14SAPS   H2X 1765   5.640   3.939   2.470
   14SAPS   H2Y 1766   5.790   3.856   2.471
   14SAPS   C23 1767   5.104   3.759   2.440
   14SAPS   H3R 1768   5.056   3.849   2.396
   14SAPS   H3S 1769   5.212   3.779   2.461
   14SAPS   C24 1770   5.045   3.711   2.574
   14SAPS   H4R 1771   5.107   3.639   2.631
   14SAPS   H4S 1772   4.948   3.660   2.559
   14SAPS   C25 1773   4.997   3.821   2.665
   14SAPS   H5R 1774   4.919   3.885   2.622
   14SAPS   C26 1775   5.035   3.841   2.796
   14SAPS   H6R 1776   4.986   3.915   2.860
   14SAPS   C27 1777   5.129   3.753   2.867
   14SAPS   H7R 1778   5.217   3.713   2.813
   14SAPS   H7S 1779   5.074   3.660   2.896
   14SAPS   C28 1780   5.173   3.822   2.993
   14SAPS   H8R 1781   5.274   3.865   2.994
   14SAPS   C29 1782   5.111   3.822   3.114
   14SAPS   H9R 1783   5.164   3.852   3.205
   14SAPS  C210 1784   4.986   3.744   3.119
   14SAPS  H10R 1785   4.929   3.736   3.025
   14SAPS  H10S 1786   4.908   3.801   3.174
   14SAPS  C211 1787   5.023   3.612   3.180
   14SAPS  H11R 1788   5.038   3.542   3.096
   14SAPS  C212 1789   5.029   3.575   3.314
   14SAPS  H12R 1790   5.046   3.468   3.333
   14SAPS  C213 1791   5.010   3.670   3.427
   14SAPS  H13R 1792   4.907   3.656   3.468
   14SAPS  H13S 1793   5.010   3.773   3.387
   14SAPS  C214 1794   5.112   3.673   3.540
   14SAPS  H14R 1795   5.192   3.598   3.541
   14SAPS  C215 1796   5.121   3.777   3.625
   14SAPS  H15R 1797   5.197   3.777   3.705
   14SAPS  C216 1798   5.031   3.894   3.639
   14SAPS  H16R 1799   4.937   3.882   3.580
   14SAPS  H16S 1800   5.078   3.974   3.578
   14SAPS  C217 1801   5.006   3.942   3.783
   14SAPS  H17R 1802   4.970   3.860   3.848
   14SAPS  H17S 1803   4.925   4.017   3.786
   14SAPS  C218 1804   5.141   3.986   3.846
   14SAPS  H18R 1805   5.168   4.084   3.800
   14SAPS  H18S 1806   5.225   3.914   3.833
   14SAPS  C219 1807   5.143   4.023   3.996
   14SAPS  H19R 1808   5.155   3.939   4.068
   14SAPS  H19S 1809   5.050   4.081   4.011
   14SAPS  C220 1810   5.266   4.114   4.035
   14SAPS  H20R 1811   5.235   4.184   4.115
   14SAPS  H20S 1812   5.308   4.173   3.951
   14SAPS  H20T 1813   5.341   4.042   4.074
   14SAPS   C33 1814   5.619   3.764   2.591
   14SAPS   H3X 1815   5.656   3.659   2.587
   14SAPS   H3Y 1816   5.509   3.753   2.575
   14SAPS   C34 1817   5.641   3.835   2.726
   14SAPS   H4X 1818   5.604   3.939   2.717
   14SAPS   H4Y 1819   5.747   3.832   2.757
   14SAPS   C35 1820   5.563   3.771   2.836
   14SAPS   H5X 1821   5.455   3.763   2.809
   14SAPS   H5Y 1822   5.580   3.831   2.928
   14SAPS   C36 1823   5.611   3.633   2.886
   14SAPS   H6X 1824   5.717   3.650   2.915
   14SAPS   H6Y 1825   5.608   3.556   2.806
   14SAPS   C37 1826   5.540   3.573   3.007
   14SAPS   H7X 1827   5.545   3.463   2.997
   14SAPS   H7Y 1828   5.431   3.590   3.013
   14SAPS   C38 1829   5.614   3.613   3.141
   14SAPS   H8X 1830   5.593   3.719   3.169
   14SAPS   H8Y 1831   5.724   3.607   3.129
   14SAPS   C39 1832   5.562   3.528   3.254
   14SAPS   H9X 1833   5.578   3.420   3.238
   14SAPS   H9Y 1834   5.453   3.543   3.268
   14SAPS  C310 1835   5.640   3.570   3.383
   14SAPS  H10X 1836   5.629   3.679   3.403
   14SAPS  H10Y 1837   5.746   3.544   3.363
   14SAPS  C311 1838   5.591   3.496   3.511
   14SAPS  H11X 1839   5.565   3.393   3.480
   14SAPS  H11Y 1840   5.498   3.541   3.552
   14SAPS  C312 1841   5.695   3.498   3.620
   14SAPS  H12X 1842   5.729   3.604   3.628
   14SAPS  H12Y 1843   5.782   3.434   3.595
   14SAPS  C313 1844   5.637   3.436   3.749
   14SAPS  H13X 1845   5.585   3.340   3.728
   14SAPS  H13Y 1846   5.558   3.508   3.780
   14SAPS  C314 1847   5.750   3.418   3.848
   14SAPS  H14X 1848   5.799   3.515   3.873
   14SAPS  H14Y 1849   5.827   3.356   3.797
   14SAPS  C315 1850   5.704   3.358   3.986
   14SAPS  H15X 1851   5.634   3.273   3.966
   14SAPS  H15Y 1852   5.649   3.434   4.046
   14SAPS  C316 1853   5.819   3.303   4.070
   14SAPS  H16X 1854   5.898   3.379   4.088
   14SAPS  H16Y 1855   5.869   3.219   4.018
   14SAPS  C317 1856   5.778   3.292   4.223
   14SAPS  H17X 1857   5.706   3.209   4.235
   14SAPS  H17Y 1858   5.735   3.385   4.264
   14SAPS  C318 1859   5.896   3.242   4.310
   14SAPS  H18X 1860   5.867   3.203   4.410
   14SAPS  H18Y 1861   5.976   3.319   4.311
   14SAPS  H18Z 1862   5.948   3.155   4.264
   15SAPS     N 1863   4.488   3.727   2.078
   15SAPS   HN1 1864   4.406   3.692   2.132
   15SAPS   HN2 1865   4.568   3.673   2.117
   15SAPS   HN3 1866   4.495   3.827   2.103
   15SAPS   C12 1867   4.471   3.714   1.925
   15SAPS  H12A 1868   4.378   3.762   1.896
   15SAPS   C13 1869   4.588   3.774   1.840
   15SAPS  O13A 1870   4.683   3.833   1.888
   15SAPS  O13B 1871   4.570   3.769   1.715
   15SAPS   C11 1872   4.453   3.565   1.873
   15SAPS  H11A 1873   4.554   3.531   1.842
   15SAPS  H11B 1874   4.390   3.587   1.784
   15SAPS     P 1875   4.341   3.343   1.894
   15SAPS   O13 1876   4.345   3.359   1.745
   15SAPS   O14 1877   4.420   3.235   1.963
   15SAPS   O12 1878   4.377   3.481   1.964
   15SAPS   O11 1879   4.187   3.331   1.926
   15SAPS    C1 1880   4.089   3.425   1.884
   15SAPS    HA 1881   4.101   3.464   1.780
   15SAPS    HB 1882   3.993   3.371   1.896
   15SAPS    C2 1883   4.094   3.547   1.974
   15SAPS    HS 1884   4.191   3.599   1.958
   15SAPS   O21 1885   4.071   3.513   2.111
   15SAPS   C21 1886   4.168   3.540   2.198
   15SAPS   O22 1887   4.254   3.623   2.187
   15SAPS   C22 1888   4.134   3.459   2.325
   15SAPS   H2R 1889   4.031   3.481   2.360
   15SAPS   H2S 1890   4.126   3.353   2.293
   15SAPS    C3 1891   3.976   3.641   1.930
   15SAPS    HX 1892   3.893   3.573   1.902
   15SAPS    HY 1893   4.010   3.693   1.838
   15SAPS   O31 1894   3.950   3.734   2.038
   15SAPS   C31 1895   4.048   3.831   2.062
   15SAPS   O32 1896   4.148   3.855   1.994
   15SAPS   C32 1897   4.013   3.907   2.195
   15SAPS   H2X 1898   3.949   3.993   2.168
   15SAPS   H2Y 1899   4.108   3.950   2.233
   15SAPS   C23 1900   4.229   3.471   2.439
   15SAPS   H3R 1901   4.220   3.571   2.488
   15SAPS   H3S 1902   4.337   3.465   2.412
   15SAPS   C24 1903   4.206   3.360   2.541
   15SAPS   H4R 1904   4.290   3.367   2.613
   15SAPS   H4S 1905   4.223   3.266   2.484
   15SAPS   C25 1906   4.079   3.361   2.617
   15SAPS   H5R 1907   3.984   3.385   2.568
   15SAPS   C26 1908   4.061   3.344   2.750
   15SAPS   H6R 1909   3.960   3.344   2.792
   15SAPS   C27 1910   4.165   3.317   2.857
   15SAPS   H7R 1911   4.248   3.253   2.820
   15SAPS   H7S 1912   4.108   3.258   2.932
   15SAPS   C28 1913   4.228   3.433   2.937
   15SAPS   H8R 1914   4.252   3.527   2.886
   15SAPS   C29 1915   4.243   3.435   3.067
   15SAPS   H9R 1916   4.287   3.521   3.120
   15SAPS  C210 1917   4.232   3.326   3.176
   15SAPS  H10R 1918   4.332   3.313   3.222
   15SAPS  H10S 1919   4.213   3.231   3.122
   15SAPS  C211 1920   4.130   3.365   3.274
   15SAPS  H11R 1921   4.025   3.369   3.240
   15SAPS  C212 1922   4.135   3.393   3.405
   15SAPS  H12R 1923   4.039   3.410   3.455
   15SAPS  C213 1924   4.259   3.395   3.494
   15SAPS  H13R 1925   4.271   3.497   3.537
   15SAPS  H13S 1926   4.352   3.370   3.438
   15SAPS  C214 1927   4.249   3.305   3.611
   15SAPS  H14R 1928   4.239   3.196   3.600
   15SAPS  C215 1929   4.258   3.331   3.743
   15SAPS  H15R 1930   4.240   3.247   3.812
   15SAPS  C216 1931   4.277   3.457   3.815
   15SAPS  H16R 1932   4.188   3.473   3.880
   15SAPS  H16S 1933   4.273   3.545   3.748
   15SAPS  C217 1934   4.415   3.462   3.885
   15SAPS  H17R 1935   4.441   3.370   3.942
   15SAPS  H17S 1936   4.414   3.546   3.958
   15SAPS  C218 1937   4.534   3.484   3.790
   15SAPS  H18R 1938   4.514   3.578   3.735
   15SAPS  H18S 1939   4.534   3.399   3.719
   15SAPS  C219 1940   4.677   3.482   3.857
   15SAPS  H19R 1941   4.669   3.563   3.932
   15SAPS  H19S 1942   4.755   3.498   3.780
   15SAPS  C220 1943   4.722   3.364   3.941
   15SAPS  H20R 1944   4.673   3.280   3.887
   15SAPS  H20S 1945   4.679   3.373   4.043
   15SAPS  H20T 1946   4.833   3.370   3.949
   15SAPS   C33 1947   3.943   3.821   2.307
   15SAPS   H3X 1948   3.916   3.718   2.275
   15SAPS   H3Y 1949   3.845   3.856   2.347
   15SAPS   C34 1950   4.036   3.815   2.428
   15SAPS   H4X 1951   4.068   3.919   2.452
   15SAPS   H4Y 1952   4.136   3.771   2.409
   15SAPS   C35 1953   3.968   3.765   2.561
   15SAPS   H5X 1954   3.942   3.658   2.551
   15SAPS   H5Y 1955   3.876   3.827   2.575
   15SAPS   C36 1956   4.057   3.791   2.684
   15SAPS   H6X 1957   4.101   3.894   2.683
   15SAPS   H6Y 1958   4.141   3.719   2.675
   15SAPS   C37 1959   3.986   3.787   2.818
   15SAPS   H7X 1960   3.941   3.690   2.848
   15SAPS   H7Y 1961   3.903   3.860   2.820
   15SAPS   C38 1962   4.084   3.817   2.937
   15SAPS   H8X 1963   4.114   3.923   2.925
   15SAPS   H8Y 1964   4.181   3.764   2.924
   15SAPS   C39 1965   4.024   3.789   3.077
   15SAPS   H9X 1966   4.015   3.679   3.066
   15SAPS   H9Y 1967   3.924   3.833   3.094
   15SAPS  C310 1968   4.105   3.819   3.196
   15SAPS  H10X 1969   4.128   3.928   3.203
   15SAPS  H10Y 1970   4.202   3.766   3.183
   15SAPS  C311 1971   4.027   3.782   3.322
   15SAPS  H11X 1972   3.993   3.678   3.306
   15SAPS  H11Y 1973   3.939   3.841   3.354
   15SAPS  C312 1974   4.116   3.783   3.445
   15SAPS  H12X 1975   4.219   3.756   3.416
   15SAPS  H12Y 1976   4.089   3.705   3.520
   15SAPS  C313 1977   4.108   3.926   3.513
   15SAPS  H13X 1978   4.005   3.943   3.552
   15SAPS  H13Y 1979   4.128   4.005   3.439
   15SAPS  C314 1980   4.210   3.949   3.631
   15SAPS  H14X 1981   4.214   4.059   3.647
   15SAPS  H14Y 1982   4.314   3.919   3.604
   15SAPS  C315 1983   4.176   3.874   3.759
   15SAPS  H15X 1984   4.195   3.765   3.751
   15SAPS  H15Y 1985   4.069   3.891   3.784
   15SAPS  C316 1986   4.261   3.928   3.878
   15SAPS  H16X 1987   4.240   4.034   3.905
   15SAPS  H16Y 1988   4.369   3.922   3.853
   15SAPS  C317 1989   4.250   3.861   4.017
   15SAPS  H17X 1990   4.284   3.756   3.999
   15SAPS  H17Y 1991   4.139   3.856   4.025
   15SAPS  C318 1992   4.318   3.927   4.138
   15SAPS  H18X 1993   4.429   3.934   4.130
   15SAPS  H18Y 1994   4.280   3.885   4.233
   15SAPS  H18Z 1995   4.282   4.032   4.141
   16SAPS     N 1996   6.322   4.376   1.735
   16SAPS   HN1 1997   6.415   4.335   1.757
   16SAPS   HN2 1998   6.305   4.379   1.632
   16SAPS   HN3 1999   6.314   4.474   1.769
   16SAPS   C12 2000   6.212   4.301   1.796
   16SAPS  H12A 2001   6.129   4.329   1.733
   16SAPS   C13 2002   6.239   4.150   1.786
   16SAPS  O13A 2003   6.352   4.110   1.759
   16SAPS  O13B 2004   6.148   4.069   1.814
   16SAPS   C11 2005   6.178   4.347   1.939
   16SAPS  H11A 2006   6.266   4.325   2.004
   16SAPS  H11B 2007   6.093   4.291   1.982
   16SAPS     P 2008   6.169   4.556   2.077
   16SAPS   O13 2009   6.316   4.550   2.109
   16SAPS   O14 2010   6.103   4.684   2.078
   16SAPS   O12 2011   6.141   4.484   1.942
   16SAPS   O11 2012   6.093   4.464   2.177
   16SAPS    C1 2013   5.949   4.452   2.174
   16SAPS    HA 2014   5.894   4.487   2.084
   16SAPS    HB 2015   5.925   4.350   2.210
   16SAPS    C2 2016   5.911   4.536   2.295
   16SAPS    HS 2017   5.958   4.636   2.286
   16SAPS   O21 2018   5.961   4.456   2.408
   16SAPS   C21 2019   6.064   4.510   2.469
   16SAPS   O22 2020   6.116   4.618   2.444
   16SAPS   C22 2021   6.115   4.416   2.579
   16SAPS   H2R 2022   6.122   4.310   2.546
   16SAPS   H2S 2023   6.224   4.440   2.582
   16SAPS    C3 2024   5.757   4.555   2.310
   16SAPS    HX 2025   5.706   4.456   2.314
   16SAPS    HY 2026   5.713   4.607   2.222
   16SAPS   O31 2027   5.729   4.626   2.434
   16SAPS   C31 2028   5.756   4.752   2.432
   16SAPS   O32 2029   5.758   4.831   2.336
   16SAPS   C32 2030   5.795   4.805   2.566
   16SAPS   H2X 2031   5.856   4.894   2.541
   16SAPS   H2Y 2032   5.876   4.739   2.603
   16SAPS   C23 2033   6.044   4.421   2.716
   16SAPS   H3R 2034   6.024   4.528   2.739
   16SAPS   H3S 2035   6.122   4.385   2.786
   16SAPS   C24 2036   5.914   4.338   2.733
   16SAPS   H4R 2037   5.835   4.374   2.663
   16SAPS   H4S 2038   5.878   4.350   2.837
   16SAPS   C25 2039   5.933   4.191   2.691
   16SAPS   H5R 2040   5.982   4.173   2.594
   16SAPS   C26 2041   5.908   4.085   2.766
   16SAPS   H6R 2042   5.939   3.989   2.722
   16SAPS   C27 2043   5.852   4.087   2.905
   16SAPS   H7R 2044   5.794   3.994   2.923
   16SAPS   H7S 2045   5.776   4.168   2.908
   16SAPS   C28 2046   5.954   4.113   3.010
   16SAPS   H8R 2047   6.046   4.168   2.984
   16SAPS   C29 2048   5.949   4.056   3.132
   16SAPS   H9R 2049   6.027   4.080   3.206
   16SAPS  C210 2050   5.844   3.972   3.187
   16SAPS  H10R 2051   5.752   3.959   3.125
   16SAPS  H10S 2052   5.800   4.025   3.274
   16SAPS  C211 2053   5.872   3.835   3.245
   16SAPS  H11R 2054   5.892   3.759   3.168
   16SAPS  C212 2055   5.905   3.813   3.377
   16SAPS  H12R 2056   5.922   3.709   3.412
   16SAPS  C213 2057   5.910   3.898   3.494
   16SAPS  H13R 2058   5.870   3.844   3.582
   16SAPS  H13S 2059   5.852   3.992   3.480
   16SAPS  C214 2060   6.052   3.933   3.515
   16SAPS  H14R 2061   6.105   3.964   3.424
   16SAPS  C215 2062   6.116   3.945   3.629
   16SAPS  H15R 2063   6.225   3.958   3.626
   16SAPS  C216 2064   6.054   3.913   3.766
   16SAPS  H16R 2065   5.949   3.948   3.771
   16SAPS  H16S 2066   6.119   3.964   3.840
   16SAPS  C217 2067   6.057   3.760   3.787
   16SAPS  H17R 2068   6.162   3.724   3.784
   16SAPS  H17S 2069   6.003   3.704   3.708
   16SAPS  C218 2070   6.001   3.710   3.916
   16SAPS  H18R 2071   6.029   3.603   3.926
   16SAPS  H18S 2072   5.890   3.720   3.915
   16SAPS  C219 2073   6.045   3.800   4.029
   16SAPS  H19R 2074   5.972   3.884   4.032
   16SAPS  H19S 2075   6.146   3.836   4.002
   16SAPS  C220 2076   6.042   3.735   4.167
   16SAPS  H20R 2077   6.085   3.815   4.231
   16SAPS  H20S 2078   6.099   3.640   4.181
   16SAPS  H20T 2079   5.938   3.726   4.205
   16SAPS   C33 2080   5.676   4.848   2.664
   16SAPS   H3X 2081   5.590   4.896   2.613
   16SAPS   H3Y 2082   5.703   4.932   2.732
   16SAPS   C34 2083   5.621   4.729   2.745
   16SAPS   H4X 2084   5.594   4.652   2.670
   16SAPS   H4Y 2085   5.531   4.768   2.798
   16SAPS   C35 2086   5.735   4.689   2.843
   16SAPS   H5X 2087   5.768   4.773   2.908
   16SAPS   H5Y 2088   5.820   4.647   2.784
   16SAPS   C36 2089   5.695   4.577   2.945
   16SAPS   H6X 2090   5.691   4.476   2.898
   16SAPS   H6Y 2091   5.596   4.613   2.979
   16SAPS   C37 2092   5.780   4.557   3.070
   16SAPS   H7X 2093   5.772   4.654   3.124
   16SAPS   H7Y 2094   5.887   4.538   3.050
   16SAPS   C38 2095   5.728   4.440   3.164
   16SAPS   H8X 2096   5.772   4.348   3.119
   16SAPS   H8Y 2097   5.617   4.429   3.164
   16SAPS   C39 2098   5.773   4.482   3.307
   16SAPS   H9X 2099   5.707   4.566   3.340
   16SAPS   H9Y 2100   5.877   4.521   3.302
   16SAPS  C310 2101   5.762   4.364   3.410
   16SAPS  H10X 2102   5.831   4.289   3.366
   16SAPS  H10Y 2103   5.659   4.324   3.402
   16SAPS  C311 2104   5.814   4.411   3.549
   16SAPS  H11X 2105   5.750   4.498   3.574
   16SAPS  H11Y 2106   5.919   4.444   3.539
   16SAPS  C312 2107   5.813   4.302   3.656
   16SAPS  H12X 2108   5.881   4.218   3.629
   16SAPS  H12Y 2109   5.704   4.284   3.670
   16SAPS  C313 2110   5.858   4.351   3.799
   16SAPS  H13X 2111   5.795   4.442   3.810
   16SAPS  H13Y 2112   5.966   4.378   3.810
   16SAPS  C314 2113   5.826   4.247   3.909
   16SAPS  H14X 2114   5.863   4.144   3.889
   16SAPS  H14Y 2115   5.716   4.249   3.928
   16SAPS  C315 2116   5.887   4.277   4.049
   16SAPS  H15X 2117   5.843   4.372   4.086
   16SAPS  H15Y 2118   5.997   4.287   4.038
   16SAPS  C316 2119   5.856   4.160   4.143
   16SAPS  H16X 2120   5.891   4.066   4.097
   16SAPS  H16Y 2121   5.745   4.154   4.149
   16SAPS  C317 2122   5.927   4.179   4.276
   16SAPS  H17X 2123   5.907   4.279   4.319
   16SAPS  H17Y 2124   6.036   4.170   4.252
   16SAPS  C318 2125   5.883   4.072   4.378
   16SAPS  H18X 2126   5.893   3.969   4.338
   16SAPS  H18Y 2127   5.777   4.095   4.398
   16SAPS  H18Z 2128   5.932   4.099   4.474
   17SAPS     N 2129   1.657   2.042   1.770
   17SAPS   HN1 2130   1.612   2.009   1.858
   17SAPS   HN2 2131   1.661   1.966   1.700
   17SAPS   HN3 2132   1.751   2.078   1.795
   17SAPS   C12 2133   1.574   2.157   1.702
   17SAPS  H12A 2134   1.571   2.235   1.778
   17SAPS   C13 2135   1.651   2.211   1.573
   17SAPS  O13A 2136   1.746   2.153   1.522
   17SAPS  O13B 2137   1.598   2.317   1.525
   17SAPS   C11 2138   1.421   2.133   1.650
   17SAPS  H11A 2139   1.436   2.088   1.550
   17SAPS  H11B 2140   1.381   2.237   1.643
   17SAPS     P 2141   1.291   2.115   1.873
   17SAPS   O13 2142   1.401   2.183   1.947
   17SAPS   O14 2143   1.160   2.185   1.850
   17SAPS   O12 2144   1.336   2.061   1.734
   17SAPS   O11 2145   1.263   1.980   1.954
   17SAPS    C1 2146   1.150   1.962   2.042
   17SAPS    HA 2147   1.055   1.998   1.996
   17SAPS    HB 2148   1.150   1.852   2.054
   17SAPS    C2 2149   1.168   2.027   2.185
   17SAPS    HS 2150   1.156   2.137   2.181
   17SAPS   O21 2151   1.300   1.992   2.229
   17SAPS   C21 2152   1.352   2.066   2.319
   17SAPS   O22 2153   1.306   2.176   2.358
   17SAPS   C22 2154   1.489   2.006   2.364
   17SAPS   H2R 2155   1.480   1.896   2.375
   17SAPS   H2S 2156   1.552   2.029   2.276
   17SAPS    C3 2157   1.054   1.977   2.275
   17SAPS    HX 2158   1.038   1.867   2.275
   17SAPS    HY 2159   0.956   2.012   2.235
   17SAPS   O31 2160   1.080   2.011   2.410
   17SAPS   C31 2161   1.023   2.130   2.456
   17SAPS   O32 2162   0.954   2.202   2.377
   17SAPS   C32 2163   1.064   2.162   2.590
   17SAPS   H2X 2164   1.115   2.070   2.626
   17SAPS   H2Y 2165   0.967   2.164   2.644
   17SAPS   C23 2166   1.551   2.076   2.488
   17SAPS   H3R 2167   1.552   2.186   2.470
   17SAPS   H3S 2168   1.659   2.052   2.500
   17SAPS   C24 2169   1.478   2.051   2.621
   17SAPS   H4R 2170   1.469   1.942   2.641
   17SAPS   H4S 2171   1.374   2.089   2.622
   17SAPS   C25 2172   1.571   2.115   2.721
   17SAPS   H5R 2173   1.643   2.191   2.687
   17SAPS   C26 2174   1.566   2.112   2.860
   17SAPS   H6R 2175   1.637   2.166   2.925
   17SAPS   C27 2176   1.480   2.018   2.942
   17SAPS   H7R 2177   1.552   1.956   3.000
   17SAPS   H7S 2178   1.433   1.943   2.874
   17SAPS   C28 2179   1.370   2.080   3.022
   17SAPS   H8R 2180   1.328   2.167   2.968
   17SAPS   C29 2181   1.331   2.060   3.153
   17SAPS   H9R 2182   1.247   2.111   3.202
   17SAPS  C210 2183   1.385   1.953   3.243
   17SAPS  H10R 2184   1.477   1.904   3.204
   17SAPS  H10S 2185   1.312   1.871   3.258
   17SAPS  C211 2186   1.434   2.009   3.372
   17SAPS  H11R 2187   1.483   2.108   3.369
   17SAPS  C212 2188   1.421   1.952   3.493
   17SAPS  H12R 2189   1.457   2.019   3.572
   17SAPS  C213 2190   1.356   1.819   3.531
   17SAPS  H13R 2191   1.285   1.776   3.457
   17SAPS  H13S 2192   1.284   1.848   3.611
   17SAPS  C214 2193   1.457   1.711   3.553
   17SAPS  H14R 2194   1.549   1.737   3.608
   17SAPS  C215 2195   1.444   1.585   3.522
   17SAPS  H15R 2196   1.533   1.524   3.542
   17SAPS  C216 2197   1.321   1.514   3.472
   17SAPS  H16R 2198   1.220   1.545   3.507
   17SAPS  H16S 2199   1.328   1.415   3.522
   17SAPS  C217 2200   1.338   1.498   3.320
   17SAPS  H17R 2201   1.440   1.471   3.285
   17SAPS  H17S 2202   1.319   1.602   3.285
   17SAPS  C218 2203   1.241   1.399   3.256
   17SAPS  H18R 2204   1.136   1.434   3.256
   17SAPS  H18S 2205   1.256   1.311   3.322
   17SAPS  C219 2206   1.275   1.373   3.107
   17SAPS  H19R 2207   1.201   1.305   3.061
   17SAPS  H19S 2208   1.370   1.315   3.108
   17SAPS  C220 2209   1.290   1.495   3.009
   17SAPS  H20R 2210   1.376   1.563   3.031
   17SAPS  H20S 2211   1.196   1.551   2.993
   17SAPS  H20T 2212   1.321   1.456   2.909
   17SAPS   C33 2213   1.139   2.286   2.628
   17SAPS   H3X 2214   1.082   2.381   2.620
   17SAPS   H3Y 2215   1.229   2.294   2.563
   17SAPS   C34 2216   1.182   2.285   2.778
   17SAPS   H4X 2217   1.269   2.354   2.789
   17SAPS   H4Y 2218   1.214   2.180   2.796
   17SAPS   C35 2219   1.072   2.338   2.876
   17SAPS   H5X 2220   0.970   2.314   2.838
   17SAPS   H5Y 2221   1.064   2.449   2.871
   17SAPS   C36 2222   1.099   2.308   3.024
   17SAPS   H6X 2223   1.200   2.340   3.057
   17SAPS   H6Y 2224   1.097   2.197   3.027
   17SAPS   C37 2225   0.989   2.352   3.130
   17SAPS   H7X 2226   0.889   2.320   3.093
   17SAPS   H7Y 2227   0.984   2.463   3.141
   17SAPS   C38 2228   1.012   2.299   3.272
   17SAPS   H8X 2229   1.032   2.189   3.281
   17SAPS   H8Y 2230   0.923   2.320   3.335
   17SAPS   C39 2231   1.138   2.359   3.345
   17SAPS   H9X 2232   1.129   2.467   3.368
   17SAPS   H9Y 2233   1.228   2.340   3.282
   17SAPS  C310 2234   1.162   2.287   3.478
   17SAPS  H10X 2235   1.198   2.183   3.462
   17SAPS  H10Y 2236   1.062   2.281   3.525
   17SAPS  C311 2237   1.263   2.346   3.571
   17SAPS  H11X 2238   1.252   2.456   3.583
   17SAPS  H11Y 2239   1.367   2.333   3.534
   17SAPS  C312 2240   1.265   2.293   3.716
   17SAPS  H12X 2241   1.237   2.188   3.691
   17SAPS  H12Y 2242   1.179   2.338   3.771
   17SAPS  C313 2243   1.399   2.307   3.790
   17SAPS  H13X 2244   1.483   2.255   3.739
   17SAPS  H13Y 2245   1.384   2.268   3.892
   17SAPS  C314 2246   1.456   2.447   3.801
   17SAPS  H14X 2247   1.371   2.503   3.844
   17SAPS  H14Y 2248   1.476   2.490   3.700
   17SAPS  C315 2249   1.570   2.458   3.908
   17SAPS  H15X 2250   1.521   2.423   4.002
   17SAPS  H15Y 2251   1.610   2.561   3.917
   17SAPS  C316 2252   1.698   2.376   3.883
   17SAPS  H16X 2253   1.766   2.408   3.965
   17SAPS  H16Y 2254   1.754   2.393   3.788
   17SAPS  C317 2255   1.687   2.220   3.895
   17SAPS  H17X 2256   1.648   2.178   3.800
   17SAPS  H17Y 2257   1.612   2.188   3.972
   17SAPS  C318 2258   1.822   2.158   3.919
   17SAPS  H18X 2259   1.886   2.164   3.829
   17SAPS  H18Y 2260   1.819   2.048   3.928
   17SAPS  H18Z 2261   1.875   2.190   4.011
   18SAPS     N 2262   4.739   2.410   1.981
   18SAPS   HN1 2263   4.690   2.444   2.067
   18SAPS   HN2 2264   4.706   2.312   1.966
   18SAPS   HN3 2265   4.839   2.422   2.007
   18SAPS   C12 2266   4.707   2.510   1.877
   18SAPS  H12A 2267   4.758   2.602   1.900
   18SAPS   C13 2268   4.754   2.480   1.735
   18SAPS  O13A 2269   4.821   2.381   1.709
   18SAPS  O13B 2270   4.746   2.581   1.655
   18SAPS   C11 2271   4.557   2.538   1.881
   18SAPS  H11A 2272   4.506   2.444   1.850
   18SAPS  H11B 2273   4.540   2.619   1.808
   18SAPS     P 2274   4.363   2.635   2.018
   18SAPS   O13 2275   4.310   2.696   1.895
   18SAPS   O14 2276   4.283   2.533   2.090
   18SAPS   O12 2277   4.513   2.592   2.004
   18SAPS   O11 2278   4.384   2.760   2.104
   18SAPS    C1 2279   4.490   2.787   2.198
   18SAPS    HA 2280   4.533   2.689   2.230
   18SAPS    HB 2281   4.581   2.839   2.163
   18SAPS    C2 2282   4.431   2.868   2.327
   18SAPS    HS 2283   4.498   2.835   2.409
   18SAPS   O21 2284   4.294   2.840   2.352
   18SAPS   C21 2285   4.246   2.722   2.386
   18SAPS   O22 2286   4.308   2.619   2.377
   18SAPS   C22 2287   4.106   2.732   2.444
   18SAPS   H2R 2288   4.060   2.816   2.388
   18SAPS   H2S 2289   4.053   2.636   2.428
   18SAPS    C3 2290   4.437   3.023   2.297
   18SAPS    HX 2291   4.372   3.049   2.211
   18SAPS    HY 2292   4.540   3.038   2.259
   18SAPS   O31 2293   4.422   3.105   2.413
   18SAPS   C31 2294   4.529   3.091   2.489
   18SAPS   O32 2295   4.640   3.041   2.460
   18SAPS   C32 2296   4.488   3.130   2.635
   18SAPS   H2X 2297   4.379   3.120   2.653
   18SAPS   H2Y 2298   4.514   3.237   2.650
   18SAPS   C23 2299   4.112   2.772   2.593
   18SAPS   H3R 2300   4.012   2.762   2.640
   18SAPS   H3S 2301   4.142   2.877   2.609
   18SAPS   C24 2302   4.214   2.687   2.683
   18SAPS   H4R 2303   4.189   2.715   2.788
   18SAPS   H4S 2304   4.321   2.711   2.668
   18SAPS   C25 2305   4.183   2.540   2.660
   18SAPS   H5R 2306   4.192   2.507   2.556
   18SAPS   C26 2307   4.133   2.450   2.746
   18SAPS   H6R 2308   4.112   2.348   2.710
   18SAPS   C27 2309   4.093   2.487   2.885
   18SAPS   H7R 2310   4.009   2.422   2.915
   18SAPS   H7S 2311   4.039   2.584   2.891
   18SAPS   C28 2312   4.201   2.490   2.995
   18SAPS   H8R 2313   4.303   2.459   2.968
   18SAPS   C29 2314   4.179   2.502   3.133
   18SAPS   H9R 2315   4.266   2.498   3.200
   18SAPS  C210 2316   4.057   2.536   3.210
   18SAPS  H10R 2317   3.972   2.579   3.152
   18SAPS  H10S 2318   4.106   2.612   3.274
   18SAPS  C211 2319   3.988   2.433   3.298
   18SAPS  H11R 2320   3.912   2.375   3.244
   18SAPS  C212 2321   4.015   2.401   3.425
   18SAPS  H12R 2322   3.963   2.318   3.474
   18SAPS  C213 2323   4.110   2.481   3.506
   18SAPS  H13R 2324   4.040   2.518   3.584
   18SAPS  H13S 2325   4.161   2.570   3.463
   18SAPS  C214 2326   4.219   2.383   3.552
   18SAPS  H14R 2327   4.294   2.365   3.474
   18SAPS  C215 2328   4.228   2.317   3.666
   18SAPS  H15R 2329   4.300   2.234   3.676
   18SAPS  C216 2330   4.130   2.335   3.777
   18SAPS  H16R 2331   4.025   2.309   3.753
   18SAPS  H16S 2332   4.130   2.444   3.802
   18SAPS  C217 2333   4.166   2.268   3.914
   18SAPS  H17R 2334   4.260   2.313   3.953
   18SAPS  H17S 2335   4.180   2.159   3.900
   18SAPS  C218 2336   4.055   2.276   4.028
   18SAPS  H18R 2337   3.976   2.210   3.989
   18SAPS  H18S 2338   4.033   2.385   4.029
   18SAPS  C219 2339   4.111   2.236   4.167
   18SAPS  H19R 2340   4.194   2.307   4.190
   18SAPS  H19S 2341   4.161   2.138   4.157
   18SAPS  C220 2342   4.000   2.233   4.272
   18SAPS  H20R 2343   3.949   2.327   4.300
   18SAPS  H20S 2344   4.049   2.199   4.366
   18SAPS  H20T 2345   3.925   2.152   4.254
   18SAPS   C33 2346   4.560   3.043   2.741
   18SAPS   H3X 2347   4.663   3.070   2.770
   18SAPS   H3Y 2348   4.571   2.942   2.695
   18SAPS   C34 2349   4.468   3.047   2.877
   18SAPS   H4X 2350   4.362   3.024   2.853
   18SAPS   H4Y 2351   4.472   3.150   2.918
   18SAPS   C35 2352   4.527   2.946   2.978
   18SAPS   H5X 2353   4.623   2.985   3.018
   18SAPS   H5Y 2354   4.536   2.844   2.936
   18SAPS   C36 2355   4.441   2.937   3.107
   18SAPS   H6X 2356   4.341   2.899   3.078
   18SAPS   H6Y 2357   4.417   3.037   3.148
   18SAPS   C37 2358   4.505   2.838   3.203
   18SAPS   H7X 2359   4.607   2.876   3.224
   18SAPS   H7Y 2360   4.508   2.744   3.144
   18SAPS   C38 2361   4.430   2.828   3.340
   18SAPS   H8X 2362   4.338   2.774   3.306
   18SAPS   H8Y 2363   4.396   2.932   3.360
   18SAPS   C39 2364   4.515   2.751   3.443
   18SAPS   H9X 2365   4.606   2.805   3.474
   18SAPS   H9Y 2366   4.551   2.656   3.397
   18SAPS  C310 2367   4.438   2.719   3.573
   18SAPS  H10X 2368   4.339   2.679   3.543
   18SAPS  H10Y 2369   4.420   2.817   3.620
   18SAPS  C311 2370   4.508   2.632   3.679
   18SAPS  H11X 2371   4.615   2.658   3.693
   18SAPS  H11Y 2372   4.510   2.523   3.657
   18SAPS  C312 2373   4.432   2.639   3.804
   18SAPS  H12X 2374   4.329   2.602   3.784
   18SAPS  H12Y 2375   4.420   2.747   3.828
   18SAPS  C313 2376   4.475   2.562   3.926
   18SAPS  H13X 2377   4.528   2.468   3.900
   18SAPS  H13Y 2378   4.382   2.536   3.982
   18SAPS  C314 2379   4.559   2.643   4.026
   18SAPS  H14X 2380   4.507   2.735   4.060
   18SAPS  H14Y 2381   4.651   2.677   3.975
   18SAPS  C315 2382   4.603   2.562   4.149
   18SAPS  H15X 2383   4.659   2.477   4.105
   18SAPS  H15Y 2384   4.520   2.523   4.212
   18SAPS  C316 2385   4.691   2.648   4.238
   18SAPS  H16X 2386   4.631   2.717   4.302
   18SAPS  H16Y 2387   4.761   2.710   4.178
   18SAPS  C317 2388   4.778   2.560   4.331
   18SAPS  H17X 2389   4.880   2.604   4.341
   18SAPS  H17Y 2390   4.795   2.458   4.291
   18SAPS  C318 2391   4.727   2.545   4.472
   18SAPS  H18X 2392   4.639   2.478   4.480
   18SAPS  H18Y 2393   4.701   2.642   4.520
   18SAPS  H18Z 2394   4.809   2.506   4.538
   19SAPS     N 2395   3.831   5.060   1.994
   19SAPS   HN1 2396   3.916   5.013   1.957
   19SAPS   HN2 2397   3.824   5.004   2.082
   19SAPS   HN3 2398   3.756   5.039   1.925
   19SAPS   C12 2399   3.838   5.207   2.039
   19SAPS  H12A 2400   3.911   5.252   1.974
   19SAPS   C13 2401   3.706   5.276   2.018
   19SAPS  O13A 2402   3.603   5.214   1.984
   19SAPS  O13B 2403   3.700   5.403   2.027
   19SAPS   C11 2404   3.886   5.225   2.183
   19SAPS  H11A 2405   3.795   5.189   2.235
   19SAPS  H11B 2406   3.894   5.331   2.215
   19SAPS     P 2407   4.142   5.213   2.174
   19SAPS   O13 2408   4.145   5.222   2.023
   19SAPS   O14 2409   4.150   5.335   2.259
   19SAPS   O12 2410   4.006   5.147   2.221
   19SAPS   O11 2411   4.241   5.106   2.223
   19SAPS    C1 2412   4.220   4.962   2.217
   19SAPS    HA 2413   4.120   4.932   2.178
   19SAPS    HB 2414   4.291   4.921   2.142
   19SAPS    C2 2415   4.245   4.892   2.354
   19SAPS    HS 2416   4.238   4.783   2.332
   19SAPS   O21 2417   4.145   4.936   2.451
   19SAPS   C21 2418   4.020   4.908   2.424
   19SAPS   O22 2419   3.989   4.816   2.347
   19SAPS   C22 2420   3.927   4.999   2.500
   19SAPS   H2R 2421   3.973   5.019   2.600
   19SAPS   H2S 2422   3.939   5.094   2.443
   19SAPS    C3 2423   4.387   4.926   2.410
   19SAPS    HX 2424   4.409   5.034   2.394
   19SAPS    HY 2425   4.445   4.871   2.332
   19SAPS   O31 2426   4.414   4.890   2.545
   19SAPS   C31 2427   4.532   4.858   2.582
   19SAPS   O32 2428   4.629   4.847   2.509
   19SAPS   C32 2429   4.531   4.852   2.736
   19SAPS   H2X 2430   4.442   4.788   2.751
   19SAPS   H2Y 2431   4.507   4.952   2.778
   19SAPS   C23 2432   3.776   4.962   2.491
   19SAPS   H3R 2433   3.767   4.851   2.488
   19SAPS   H3S 2434   3.737   4.992   2.391
   19SAPS   C24 2435   3.705   5.024   2.611
   19SAPS   H4R 2436   3.732   4.977   2.708
   19SAPS   H4S 2437   3.599   4.994   2.596
   19SAPS   C25 2438   3.720   5.173   2.618
   19SAPS   H5R 2439   3.662   5.236   2.549
   19SAPS   C26 2440   3.774   5.249   2.725
   19SAPS   H6R 2441   3.766   5.359   2.723
   19SAPS   C27 2442   3.843   5.201   2.845
   19SAPS   H7R 2443   3.879   5.098   2.822
   19SAPS   H7S 2444   3.780   5.199   2.936
   19SAPS   C28 2445   3.962   5.291   2.883
   19SAPS   H8R 2446   4.032   5.312   2.800
   19SAPS   C29 2447   3.985   5.347   3.004
   19SAPS   H9R 2448   4.085   5.394   3.008
   19SAPS  C210 2449   3.895   5.335   3.126
   19SAPS  H10R 2450   3.789   5.317   3.097
   19SAPS  H10S 2451   3.889   5.435   3.174
   19SAPS  C211 2452   3.930   5.229   3.222
   19SAPS  H11R 2453   3.892   5.134   3.181
   19SAPS  C212 2454   3.999   5.231   3.335
   19SAPS  H12R 2455   4.007   5.136   3.390
   19SAPS  C213 2456   4.045   5.355   3.406
   19SAPS  H13R 2457   3.951   5.406   3.436
   19SAPS  H13S 2458   4.079   5.425   3.327
   19SAPS  C214 2459   4.133   5.346   3.532
   19SAPS  H14R 2460   4.234   5.387   3.516
   19SAPS  C215 2461   4.111   5.283   3.648
   19SAPS  H15R 2462   4.192   5.283   3.723
   19SAPS  C216 2463   3.983   5.215   3.685
   19SAPS  H16R 2464   3.916   5.217   3.596
   19SAPS  H16S 2465   3.921   5.265   3.763
   19SAPS  C217 2466   4.029   5.080   3.736
   19SAPS  H17R 2467   3.939   5.036   3.784
   19SAPS  H17S 2468   4.103   5.087   3.819
   19SAPS  C218 2469   4.063   4.974   3.626
   19SAPS  H18R 2470   4.146   5.019   3.567
   19SAPS  H18S 2471   3.966   4.963   3.574
   19SAPS  C219 2472   4.118   4.845   3.678
   19SAPS  H19R 2473   4.033   4.790   3.724
   19SAPS  H19S 2474   4.188   4.863   3.762
   19SAPS  C220 2475   4.183   4.753   3.583
   19SAPS  H20R 2476   4.248   4.806   3.510
   19SAPS  H20S 2477   4.120   4.688   3.518
   19SAPS  H20T 2478   4.252   4.694   3.646
   19SAPS   C33 2479   4.655   4.789   2.811
   19SAPS   H3X 2480   4.750   4.838   2.783
   19SAPS   H3Y 2481   4.673   4.683   2.781
   19SAPS   C34 2482   4.643   4.794   2.958
   19SAPS   H4X 2483   4.551   4.738   2.984
   19SAPS   H4Y 2484   4.641   4.902   2.986
   19SAPS   C35 2485   4.755   4.722   3.030
   19SAPS   H5X 2486   4.856   4.749   2.993
   19SAPS   H5Y 2487   4.759   4.613   3.008
   19SAPS   C36 2488   4.744   4.755   3.179
   19SAPS   H6X 2489   4.646   4.726   3.223
   19SAPS   H6Y 2490   4.741   4.866   3.186
   19SAPS   C37 2491   4.863   4.695   3.264
   19SAPS   H7X 2492   4.961   4.725   3.223
   19SAPS   H7Y 2493   4.861   4.584   3.255
   19SAPS   C38 2494   4.850   4.745   3.407
   19SAPS   H8X 2495   4.779   4.674   3.456
   19SAPS   H8Y 2496   4.807   4.847   3.403
   19SAPS   C39 2497   4.985   4.753   3.484
   19SAPS   H9X 2498   5.050   4.820   3.424
   19SAPS   H9Y 2499   5.037   4.655   3.473
   19SAPS  C310 2500   4.988   4.799   3.627
   19SAPS  H10X 2501   5.090   4.788   3.671
   19SAPS  H10Y 2502   4.928   4.734   3.696
   19SAPS  C311 2503   4.936   4.945   3.644
   19SAPS  H11X 2504   4.825   4.951   3.651
   19SAPS  H11Y 2505   4.951   4.998   3.548
   19SAPS  C312 2506   4.996   5.028   3.765
   19SAPS  H12X 2507   5.107   5.036   3.763
   19SAPS  H12Y 2508   4.972   4.972   3.858
   19SAPS  C313 2509   4.937   5.168   3.773
   19SAPS  H13X 2510   4.829   5.153   3.753
   19SAPS  H13Y 2511   4.974   5.238   3.695
   19SAPS  C314 2512   4.951   5.229   3.909
   19SAPS  H14X 2513   5.058   5.252   3.927
   19SAPS  H14Y 2514   4.913   5.157   3.985
   19SAPS  C315 2515   4.871   5.362   3.926
   19SAPS  H15X 2516   4.846   5.368   4.034
   19SAPS  H15Y 2517   4.774   5.353   3.872
   19SAPS  C316 2518   4.948   5.484   3.882
   19SAPS  H16X 2519   4.973   5.477   3.774
   19SAPS  H16Y 2520   5.035   5.472   3.951
   19SAPS  C317 2521   4.880   5.616   3.893
   19SAPS  H17X 2522   4.883   5.641   4.002
   19SAPS  H17Y 2523   4.778   5.611   3.849
   19SAPS  C318 2524   4.953   5.726   3.815
   19SAPS  H18X 2525   4.918   5.832   3.820
   19SAPS  H18Y 2526   4.959   5.703   3.707
   19SAPS  H18Z 2527   5.057   5.721   3.855
   20SAPS     N 2528   4.713   6.367   1.642
   20SAPS   HN1 2529   4.714   6.432   1.723
   20SAPS   HN2 2530   4.806   6.386   1.598
   20SAPS   HN3 2531   4.636   6.398   1.579
   20SAPS   C12 2532   4.696   6.224   1.695
   20SAPS  H12A 2533   4.619   6.240   1.768
   20SAPS   C13 2534   4.635   6.126   1.589
   20SAPS  O13A 2535   4.606   6.164   1.470
   20SAPS  O13B 2536   4.580   6.019   1.632
   20SAPS   C11 2537   4.828   6.167   1.758
   20SAPS  H11A 2538   4.915   6.160   1.690
   20SAPS  H11B 2539   4.799   6.066   1.792
   20SAPS     P 2540   5.010   6.248   1.941
   20SAPS   O13 2541   5.100   6.164   1.862
   20SAPS   O14 2542   5.062   6.382   1.981
   20SAPS   O12 2543   4.867   6.266   1.865
   20SAPS   O11 2544   4.972   6.165   2.068
   20SAPS    C1 2545   4.842   6.167   2.129
   20SAPS    HA 2546   4.754   6.183   2.063
   20SAPS    HB 2547   4.835   6.073   2.189
   20SAPS    C2 2548   4.824   6.273   2.243
   20SAPS    HS 2549   4.873   6.366   2.208
   20SAPS   O21 2550   4.896   6.230   2.362
   20SAPS   C21 2551   4.876   6.296   2.480
   20SAPS   O22 2552   4.840   6.411   2.495
   20SAPS   C22 2553   4.898   6.193   2.587
   20SAPS   H2R 2554   4.859   6.098   2.545
   20SAPS   H2S 2555   5.006   6.178   2.604
   20SAPS    C3 2556   4.667   6.290   2.269
   20SAPS    HX 2557   4.620   6.313   2.171
   20SAPS    HY 2558   4.643   6.377   2.334
   20SAPS   O31 2559   4.615   6.169   2.328
   20SAPS   C31 2560   4.480   6.163   2.342
   20SAPS   O32 2561   4.400   6.246   2.303
   20SAPS   C32 2562   4.430   6.041   2.419
   20SAPS   H2X 2563   4.517   5.977   2.444
   20SAPS   H2Y 2564   4.377   5.986   2.338
   20SAPS   C23 2565   4.813   6.216   2.719
   20SAPS   H3R 2566   4.703   6.216   2.700
   20SAPS   H3S 2567   4.837   6.319   2.753
   20SAPS   C24 2568   4.844   6.107   2.826
   20SAPS   H4R 2569   4.930   6.137   2.890
   20SAPS   H4S 2570   4.878   6.025   2.759
   20SAPS   C25 2571   4.714   6.064   2.893
   20SAPS   H5R 2572   4.655   5.997   2.829
   20SAPS   C26 2573   4.679   6.092   3.022
   20SAPS   H6R 2574   4.583   6.052   3.060
   20SAPS   C27 2575   4.760   6.186   3.113
   20SAPS   H7R 2576   4.693   6.196   3.201
   20SAPS   H7S 2577   4.774   6.289   3.073
   20SAPS   C28 2578   4.895   6.138   3.153
   20SAPS   H8R 2579   4.939   6.062   3.087
   20SAPS   C29 2580   4.958   6.179   3.266
   20SAPS   H9R 2581   5.059   6.139   3.283
   20SAPS  C210 2582   4.896   6.270   3.369
   20SAPS  H10R 2583   4.820   6.342   3.332
   20SAPS  H10S 2584   4.986   6.327   3.400
   20SAPS  C211 2585   4.848   6.204   3.492
   20SAPS  H11R 2586   4.755   6.147   3.477
   20SAPS  C212 2587   4.894   6.208   3.617
   20SAPS  H12R 2588   4.832   6.163   3.695
   20SAPS  C213 2589   5.015   6.286   3.665
   20SAPS  H13R 2590   5.051   6.368   3.599
   20SAPS  H13S 2591   5.105   6.223   3.683
   20SAPS  C214 2592   4.967   6.355   3.791
   20SAPS  H14R 2593   4.859   6.375   3.803
   20SAPS  C215 2594   5.040   6.391   3.895
   20SAPS  H15R 2595   4.999   6.437   3.986
   20SAPS  C216 2596   5.188   6.372   3.904
   20SAPS  H16R 2597   5.224   6.473   3.874
   20SAPS  H16S 2598   5.234   6.303   3.829
   20SAPS  C217 2599   5.255   6.338   4.035
   20SAPS  H17R 2600   5.230   6.415   4.111
   20SAPS  H17S 2601   5.365   6.350   4.020
   20SAPS  C218 2602   5.217   6.201   4.097
   20SAPS  H18R 2603   5.113   6.195   4.134
   20SAPS  H18S 2604   5.278   6.179   4.188
   20SAPS  C219 2605   5.230   6.086   4.000
   20SAPS  H19R 2606   5.328   6.095   3.949
   20SAPS  H19S 2607   5.146   6.100   3.928
   20SAPS  C220 2608   5.200   5.944   4.060
   20SAPS  H20R 2609   5.256   5.868   4.002
   20SAPS  H20S 2610   5.095   5.914   4.078
   20SAPS  H20T 2611   5.246   5.942   4.161
   20SAPS   C33 2612   4.347   6.069   2.554
   20SAPS   H3X 2613   4.262   6.130   2.517
   20SAPS   H3Y 2614   4.406   6.137   2.619
   20SAPS   C34 2615   4.302   5.937   2.625
   20SAPS   H4X 2616   4.388   5.867   2.628
   20SAPS   H4Y 2617   4.224   5.890   2.562
   20SAPS   C35 2618   4.256   5.956   2.772
   20SAPS   H5X 2619   4.150   5.988   2.759
   20SAPS   H5Y 2620   4.310   6.037   2.826
   20SAPS   C36 2621   4.281   5.830   2.850
   20SAPS   H6X 2622   4.386   5.795   2.855
   20SAPS   H6Y 2623   4.224   5.743   2.810
   20SAPS   C37 2624   4.230   5.842   2.995
   20SAPS   H7X 2625   4.130   5.890   2.999
   20SAPS   H7Y 2626   4.302   5.909   3.047
   20SAPS   C38 2627   4.240   5.706   3.070
   20SAPS   H8X 2628   4.343   5.669   3.054
   20SAPS   H8Y 2629   4.163   5.635   3.033
   20SAPS   C39 2630   4.220   5.726   3.222
   20SAPS   H9X 2631   4.291   5.803   3.260
   20SAPS   H9Y 2632   4.231   5.629   3.274
   20SAPS  C310 2633   4.074   5.771   3.252
   20SAPS  H10X 2634   3.990   5.729   3.192
   20SAPS  H10Y 2635   4.072   5.879   3.228
   20SAPS  C311 2636   4.054   5.728   3.396
   20SAPS  H11X 2637   4.136   5.760   3.463
   20SAPS  H11Y 2638   4.048   5.617   3.401
   20SAPS  C312 2639   3.917   5.782   3.447
   20SAPS  H12X 2640   3.836   5.763   3.374
   20SAPS  H12Y 2641   3.938   5.889   3.470
   20SAPS  C313 2642   3.872   5.707   3.578
   20SAPS  H13X 2643   3.897   5.600   3.563
   20SAPS  H13Y 2644   3.763   5.727   3.585
   20SAPS  C314 2645   3.953   5.748   3.708
   20SAPS  H14X 2646   3.958   5.857   3.726
   20SAPS  H14Y 2647   4.056   5.711   3.691
   20SAPS  C315 2648   3.898   5.671   3.836
   20SAPS  H15X 2649   3.820   5.736   3.879
   20SAPS  H15Y 2650   3.983   5.673   3.907
   20SAPS  C316 2651   3.839   5.531   3.801
   20SAPS  H16X 2652   3.916   5.474   3.744
   20SAPS  H16Y 2653   3.745   5.540   3.742
   20SAPS  C317 2654   3.819   5.458   3.932
   20SAPS  H17X 2655   3.760   5.370   3.900
   20SAPS  H17Y 2656   3.758   5.523   4.000
   20SAPS  C318 2657   3.954   5.416   3.998
   20SAPS  H18X 2658   4.019   5.502   4.026
   20SAPS  H18Y 2659   4.012   5.351   3.930
   20SAPS  H18Z 2660   3.932   5.356   4.089
   21CHL1    C3 2661   1.725   4.215   5.941
   21CHL1    H3 2662   1.753   4.322   5.926
   21CHL1    O3 2663   1.673   4.209   6.070
   21CHL1   H3' 2664   1.680   4.117   6.098
   21CHL1    C4 2665   1.612   4.173   5.845
   21CHL1   H4A 2666   1.584   4.066   5.854
   21CHL1   H4B 2667   1.527   4.239   5.869
   21CHL1    C5 2668   1.675   4.186   5.705
   21CHL1    C6 2669   1.634   4.277   5.614
   21CHL1    H6 2670   1.552   4.347   5.637
   21CHL1    C7 2671   1.681   4.294   5.474
   21CHL1   H7A 2672   1.596   4.303   5.403
   21CHL1   H7B 2673   1.752   4.379   5.467
   21CHL1    C8 2674   1.756   4.167   5.429
   21CHL1    H8 2675   1.683   4.084   5.415
   21CHL1   C14 2676   1.823   4.186   5.294
   21CHL1   H14 2677   1.905   4.261   5.304
   21CHL1   C15 2678   1.742   4.252   5.178
   21CHL1  H15A 2679   1.635   4.220   5.188
   21CHL1  H15B 2680   1.746   4.362   5.189
   21CHL1   C16 2681   1.806   4.205   5.053
   21CHL1  H16A 2682   1.727   4.148   4.999
   21CHL1  H16B 2683   1.856   4.282   4.991
   21CHL1   C17 2684   1.921   4.107   5.085
   21CHL1   H17 2685   2.016   4.164   5.093
   21CHL1   C13 2686   1.873   4.055   5.229
   21CHL1   C18 2687   1.766   3.947   5.213
   21CHL1  H18A 2688   1.801   3.858   5.157
   21CHL1  H18B 2689   1.729   3.905   5.309
   21CHL1  H18C 2690   1.674   3.986   5.164
   21CHL1   C12 2691   1.991   4.008   5.325
   21CHL1  H12A 2692   2.035   3.911   5.293
   21CHL1  H12B 2693   2.070   4.086   5.322
   21CHL1   C11 2694   1.942   3.996   5.473
   21CHL1  H11A 2695   1.875   3.907   5.473
   21CHL1  H11B 2696   2.021   3.963   5.544
   21CHL1    C9 2697   1.858   4.119   5.532
   21CHL1    H9 2698   1.931   4.202   5.540
   21CHL1   C10 2699   1.795   4.091   5.675
   21CHL1   C19 2700   1.739   3.953   5.685
   21CHL1  H19A 2701   1.702   3.925   5.786
   21CHL1  H19B 2702   1.662   3.928   5.609
   21CHL1  H19C 2703   1.818   3.875   5.680
   21CHL1    C1 2704   1.907   4.115   5.782
   21CHL1   H1A 2705   1.978   4.030   5.775
   21CHL1   H1B 2706   1.958   4.210   5.757
   21CHL1    C2 2707   1.847   4.123   5.926
   21CHL1   H2A 2708   1.923   4.156   6.000
   21CHL1   H2B 2709   1.798   4.026   5.949
   21CHL1   C20 2710   1.948   4.004   4.973
   21CHL1   H20 2711   1.853   3.950   4.950
   21CHL1   C21 2712   2.044   3.893   5.020
   21CHL1  H21A 2713   1.998   3.823   5.092
   21CHL1  H21B 2714   2.125   3.949   5.071
   21CHL1  H21C 2715   2.089   3.834   4.937
   21CHL1   C22 2716   1.998   4.083   4.840
   21CHL1  H22A 2717   1.941   4.177   4.824
   21CHL1  H22B 2718   2.103   4.111   4.862
   21CHL1   C23 2719   1.991   4.000   4.706
   21CHL1  H23A 2720   1.999   3.890   4.721
   21CHL1  H23B 2721   1.890   4.022   4.664
   21CHL1   C24 2722   2.087   4.051   4.604
   21CHL1  H24A 2723   2.077   4.162   4.608
   21CHL1  H24B 2724   2.185   4.032   4.652
   21CHL1   C25 2725   2.068   3.997   4.457
   21CHL1   H25 2726   2.159   4.031   4.403
   21CHL1   C26 2727   2.064   3.838   4.455
   21CHL1  H26A 2728   2.144   3.802   4.523
   21CHL1  H26B 2729   1.967   3.806   4.500
   21CHL1  H26C 2730   2.083   3.796   4.354
   21CHL1   C27 2731   1.944   4.062   4.392
   21CHL1  H27A 2732   1.938   4.031   4.285
   21CHL1  H27B 2733   1.849   4.050   4.449
   21CHL1  H27C 2734   1.954   4.172   4.382
   22CHL1    C3 2735   2.100   1.872   5.825
   22CHL1    H3 2736   2.048   1.970   5.834
   22CHL1    O3 2737   2.157   1.828   5.948
   22CHL1   H3' 2738   2.210   1.750   5.932
   22CHL1    C4 2739   1.998   1.772   5.775
   22CHL1   H4A 2740   2.039   1.670   5.762
   22CHL1   H4B 2741   1.911   1.766   5.844
   22CHL1    C5 2742   1.953   1.797   5.630
   22CHL1    C6 2743   1.825   1.807   5.594
   22CHL1    H6 2744   1.745   1.801   5.669
   22CHL1    C7 2745   1.776   1.843   5.456
   22CHL1   H7A 2746   1.689   1.779   5.430
   22CHL1   H7B 2747   1.747   1.950   5.460
   22CHL1    C8 2748   1.892   1.812   5.353
   22CHL1    H8 2749   1.902   1.702   5.342
   22CHL1   C14 2750   1.854   1.870   5.220
   22CHL1   H14 2751   1.848   1.980   5.233
   22CHL1   C15 2752   1.711   1.834   5.162
   22CHL1  H15A 2753   1.693   1.724   5.168
   22CHL1  H15B 2754   1.635   1.889   5.221
   22CHL1   C16 2755   1.720   1.874   5.012
   22CHL1  H16A 2756   1.697   1.790   4.943
   22CHL1  H16B 2757   1.651   1.960   5.002
   22CHL1   C17 2758   1.866   1.921   4.986
   22CHL1   H17 2759   1.868   2.028   5.017
   22CHL1   C13 2760   1.952   1.859   5.101
   22CHL1   C18 2761   1.982   1.709   5.067
   22CHL1  H18A 2762   2.016   1.652   5.157
   22CHL1  H18B 2763   1.886   1.666   5.030
   22CHL1  H18C 2764   2.058   1.698   4.987
   22CHL1   C12 2765   2.078   1.937   5.141
   22CHL1  H12A 2766   2.148   1.915   5.058
   22CHL1  H12B 2767   2.051   2.045   5.146
   22CHL1   C11 2768   2.126   1.884   5.280
   22CHL1  H11A 2769   2.182   1.789   5.270
   22CHL1  H11B 2770   2.193   1.958   5.331
   22CHL1    C9 2771   2.023   1.877   5.396
   22CHL1    H9 2772   1.983   1.979   5.414
   22CHL1   C10 2773   2.073   1.819   5.532
   22CHL1   C19 2774   2.133   1.675   5.501
   22CHL1  H19A 2775   2.153   1.622   5.597
   22CHL1  H19B 2776   2.076   1.613   5.428
   22CHL1  H19C 2777   2.234   1.694   5.460
   22CHL1    C1 2778   2.176   1.921   5.598
   22CHL1   H1A 2779   2.265   1.927   5.532
   22CHL1   H1B 2780   2.130   2.022   5.600
   22CHL1    C2 2781   2.222   1.876   5.738
   22CHL1   H2A 2782   2.292   1.949   5.784
   22CHL1   H2B 2783   2.267   1.775   5.728
   22CHL1   C20 2784   1.925   1.901   4.848
   22CHL1   H20 2785   2.031   1.877   4.869
   22CHL1   C21 2786   1.908   2.026   4.759
   22CHL1  H21A 2787   1.958   2.023   4.659
   22CHL1  H21B 2788   1.952   2.118   4.802
   22CHL1  H21C 2789   1.797   2.036   4.754
   22CHL1   C22 2790   1.871   1.781   4.761
   22CHL1  H22A 2791   1.885   1.680   4.805
   22CHL1  H22B 2792   1.762   1.803   4.754
   22CHL1   C23 2793   1.923   1.759   4.617
   22CHL1  H23A 2794   1.886   1.843   4.553
   22CHL1  H23B 2795   2.034   1.763   4.618
   22CHL1   C24 2796   1.871   1.626   4.566
   22CHL1  H24A 2797   1.913   1.550   4.636
   22CHL1  H24B 2798   1.761   1.640   4.575
   22CHL1   C25 2799   1.919   1.596   4.418
   22CHL1   H25 2800   2.029   1.601   4.425
   22CHL1   C26 2801   1.890   1.445   4.381
   22CHL1  H26A 2802   1.937   1.413   4.286
   22CHL1  H26B 2803   1.941   1.384   4.459
   22CHL1  H26C 2804   1.785   1.409   4.394
   22CHL1   C27 2805   1.864   1.695   4.311
   22CHL1  H27A 2806   1.753   1.686   4.316
   22CHL1  H27B 2807   1.882   1.800   4.343
   22CHL1  H27C 2808   1.901   1.671   4.210
   23CHL1    C3 2809   1.219   3.640   5.909
   23CHL1    H3 2810   1.298   3.568   5.881
   23CHL1    O3 2811   1.183   3.619   6.050
   23CHL1   H3' 2812   1.259   3.644   6.103
   23CHL1    C4 2813   1.261   3.789   5.892
   23CHL1   H4A 2814   1.188   3.838   5.960
   23CHL1   H4B 2815   1.346   3.821   5.956
   23CHL1    C5 2816   1.257   3.838   5.751
   23CHL1    C6 2817   1.370   3.899   5.710
   23CHL1    H6 2818   1.446   3.912   5.789
   23CHL1    C7 2819   1.390   3.973   5.585
   23CHL1   H7A 2820   1.436   4.072   5.609
   23CHL1   H7B 2821   1.454   3.912   5.519
   23CHL1    C8 2822   1.255   3.989   5.507
   23CHL1    H8 2823   1.189   4.063   5.557
   23CHL1   C14 2824   1.284   4.024   5.358
   23CHL1   H14 2825   1.320   3.928   5.313
   23CHL1   C15 2826   1.385   4.136   5.320
   23CHL1  H15A 2827   1.371   4.222   5.390
   23CHL1  H15B 2828   1.487   4.094   5.332
   23CHL1   C16 2829   1.341   4.164   5.175
   23CHL1  H16A 2830   1.323   4.274   5.169
   23CHL1  H16B 2831   1.423   4.141   5.103
   23CHL1   C17 2832   1.222   4.070   5.142
   23CHL1   H17 2833   1.263   3.972   5.111
   23CHL1   C13 2834   1.149   4.040   5.276
   23CHL1   C18 2835   1.056   4.155   5.322
   23CHL1  H18A 2836   0.965   4.157   5.259
   23CHL1  H18B 2837   1.036   4.151   5.431
   23CHL1  H18C 2838   1.113   4.250   5.310
   23CHL1   C12 2839   1.068   3.910   5.286
   23CHL1  H12A 2840   0.972   3.931   5.234
   23CHL1  H12B 2841   1.127   3.832   5.233
   23CHL1   C11 2842   1.041   3.871   5.426
   23CHL1  H11A 2843   0.963   3.936   5.470
   23CHL1  H11B 2844   0.994   3.771   5.419
   23CHL1    C9 2845   1.169   3.856   5.517
   23CHL1    H9 2846   1.225   3.771   5.474
   23CHL1   C10 2847   1.140   3.812   5.660
   23CHL1   C19 2848   1.027   3.897   5.715
   23CHL1  H19A 2849   0.927   3.871   5.675
   23CHL1  H19B 2850   1.010   3.876   5.823
   23CHL1  H19C 2851   1.052   4.005   5.706
   23CHL1    C1 2852   1.095   3.666   5.672
   23CHL1   H1A 2853   0.997   3.658   5.619
   23CHL1   H1B 2854   1.170   3.611   5.612
   23CHL1    C2 2855   1.099   3.605   5.817
   23CHL1   H2A 2856   1.068   3.499   5.824
   23CHL1   H2B 2857   1.017   3.667   5.861
   23CHL1   C20 2858   1.128   4.129   5.027
   23CHL1   H20 2859   1.099   4.232   5.059
   23CHL1   C21 2860   1.004   4.039   5.004
   23CHL1  H21A 2861   1.025   3.930   4.998
   23CHL1  H21B 2862   0.948   4.070   4.913
   23CHL1  H21C 2863   0.932   4.054   5.087
   23CHL1   C22 2864   1.204   4.162   4.900
   23CHL1  H22A 2865   1.277   4.242   4.923
   23CHL1  H22B 2866   1.252   4.063   4.882
   23CHL1   C23 2867   1.115   4.180   4.774
   23CHL1  H23A 2868   1.076   4.080   4.746
   23CHL1  H23B 2869   1.030   4.243   4.809
   23CHL1   C24 2870   1.188   4.236   4.655
   23CHL1  H24A 2871   1.233   4.335   4.679
   23CHL1  H24B 2872   1.271   4.165   4.633
   23CHL1   C25 2873   1.094   4.252   4.528
   23CHL1   H25 2874   1.004   4.312   4.553
   23CHL1   C26 2875   1.175   4.315   4.414
   23CHL1  H26A 2876   1.101   4.328   4.332
   23CHL1  H26B 2877   1.210   4.419   4.435
   23CHL1  H26C 2878   1.257   4.252   4.373
   23CHL1   C27 2879   1.030   4.123   4.468
   23CHL1  H27A 2880   0.952   4.148   4.393
   23CHL1  H27B 2881   1.098   4.047   4.424
   23CHL1  H27C 2882   0.981   4.070   4.552
   24CHL1    C3 2883   3.764   5.150   5.825
   24CHL1    H3 2884   3.794   5.255   5.841
   24CHL1    O3 2885   3.738   5.074   5.947
   24CHL1   H3' 2886   3.683   5.131   6.001
   24CHL1    C4 2887   3.626   5.155   5.741
   24CHL1   H4A 2888   3.589   5.052   5.721
   24CHL1   H4B 2889   3.553   5.212   5.802
   24CHL1    C5 2890   3.636   5.225   5.606
   24CHL1    C6 2891   3.548   5.326   5.570
   24CHL1    H6 2892   3.466   5.360   5.635
   24CHL1    C7 2893   3.545   5.374   5.432
   24CHL1   H7A 2894   3.438   5.379   5.404
   24CHL1   H7B 2895   3.573   5.482   5.439
   24CHL1    C8 2896   3.631   5.300   5.324
   24CHL1    H8 2897   3.572   5.210   5.297
   24CHL1   C14 2898   3.650   5.391   5.207
   24CHL1   H14 2899   3.693   5.485   5.248
   24CHL1   C15 2900   3.531   5.465   5.135
   24CHL1  H15A 2901   3.445   5.394   5.140
   24CHL1  H15B 2902   3.504   5.564   5.179
   24CHL1   C16 2903   3.589   5.489   4.997
   24CHL1  H16A 2904   3.531   5.426   4.926
   24CHL1  H16B 2905   3.583   5.595   4.965
   24CHL1   C17 2906   3.739   5.441   4.991
   24CHL1   H17 2907   3.797   5.525   5.035
   24CHL1   C13 2908   3.743   5.327   5.101
   24CHL1   C18 2909   3.681   5.197   5.042
   24CHL1  H18A 2910   3.725   5.171   4.943
   24CHL1  H18B 2911   3.683   5.106   5.105
   24CHL1  H18C 2912   3.574   5.222   5.026
   24CHL1   C12 2913   3.877   5.295   5.167
   24CHL1  H12A 2914   3.967   5.262   5.112
   24CHL1  H12B 2915   3.910   5.394   5.206
   24CHL1   C11 2916   3.859   5.199   5.281
   24CHL1  H11A 2917   3.821   5.103   5.240
   24CHL1  H11B 2918   3.958   5.176   5.325
   24CHL1    C9 2919   3.770   5.262   5.382
   24CHL1    H9 2920   3.818   5.355   5.416
   24CHL1   C10 2921   3.757   5.177   5.511
   24CHL1   C19 2922   3.710   5.035   5.470
   24CHL1  H19A 2923   3.789   4.992   5.406
   24CHL1  H19B 2924   3.677   4.969   5.554
   24CHL1  H19C 2925   3.619   5.031   5.406
   24CHL1    C1 2926   3.886   5.152   5.595
   24CHL1   H1A 2927   3.961   5.090   5.542
   24CHL1   H1B 2928   3.940   5.245   5.623
   24CHL1    C2 2929   3.871   5.087   5.737
   24CHL1   H2A 2930   3.971   5.072   5.781
   24CHL1   H2B 2931   3.834   4.985   5.711
   24CHL1   C20 2932   3.792   5.413   4.846
   24CHL1   H20 2933   3.734   5.329   4.804
   24CHL1   C21 2934   3.938   5.360   4.849
   24CHL1  H21A 2935   3.998   5.426   4.915
   24CHL1  H21B 2936   3.985   5.369   4.748
   24CHL1  H21C 2937   3.957   5.257   4.888
   24CHL1   C22 2938   3.780   5.538   4.758
   24CHL1  H22A 2939   3.671   5.560   4.751
   24CHL1  H22B 2940   3.832   5.629   4.795
   24CHL1   C23 2941   3.831   5.510   4.619
   24CHL1  H23A 2942   3.940   5.528   4.614
   24CHL1  H23B 2943   3.820   5.401   4.600
   24CHL1   C24 2944   3.756   5.595   4.518
   24CHL1  H24A 2945   3.648   5.590   4.546
   24CHL1  H24B 2946   3.791   5.700   4.521
   24CHL1   C25 2947   3.754   5.555   4.375
   24CHL1   H25 2948   3.857   5.539   4.336
   24CHL1   C26 2949   3.681   5.423   4.353
   24CHL1  H26A 2950   3.575   5.454   4.367
   24CHL1  H26B 2951   3.680   5.388   4.247
   24CHL1  H26C 2952   3.712   5.348   4.428
   24CHL1   C27 2953   3.698   5.667   4.283
   24CHL1  H27A 2954   3.778   5.737   4.251
   24CHL1  H27B 2955   3.656   5.616   4.194
   24CHL1  H27C 2956   3.606   5.708   4.331
   25CHL1    C3 2957   6.080   6.201   5.681
   25CHL1    H3 2958   5.987   6.262   5.689
   25CHL1    O3 2959   6.132   6.177   5.809
   25CHL1   H3' 2960   6.074   6.121   5.861
   25CHL1    C4 2961   6.038   6.068   5.606
   25CHL1   H4A 2962   6.125   5.999   5.608
   25CHL1   H4B 2963   5.959   6.032   5.675
   25CHL1    C5 2964   5.992   6.098   5.462
   25CHL1    C6 2965   5.883   6.045   5.403
   25CHL1    H6 2966   5.820   5.978   5.463
   25CHL1    C7 2967   5.844   6.066   5.265
   25CHL1   H7A 2968   5.814   5.969   5.220
   25CHL1   H7B 2969   5.768   6.147   5.263
   25CHL1    C8 2970   5.957   6.116   5.177
   25CHL1    H8 2971   6.033   6.035   5.168
   25CHL1   C14 2972   5.902   6.162   5.038
   25CHL1   H14 2973   5.835   6.248   5.059
   25CHL1   C15 2974   5.831   6.051   4.960
   25CHL1  H15A 2975   5.895   5.960   4.958
   25CHL1  H15B 2976   5.731   6.030   5.004
   25CHL1   C16 2977   5.826   6.120   4.818
   25CHL1  H16A 2978   5.881   6.052   4.750
   25CHL1  H16B 2979   5.727   6.139   4.772
   25CHL1   C17 2980   5.913   6.245   4.824
   25CHL1   H17 2981   5.854   6.337   4.845
   25CHL1   C13 2982   6.005   6.222   4.950
   25CHL1   C18 2983   6.118   6.121   4.919
   25CHL1  H18A 2984   6.166   6.093   5.015
   25CHL1  H18B 2985   6.076   6.029   4.875
   25CHL1  H18C 2986   6.195   6.148   4.843
   25CHL1   C12 2987   6.063   6.347   5.019
   25CHL1  H12A 2988   6.142   6.397   4.960
   25CHL1  H12B 2989   5.981   6.422   5.025
   25CHL1   C11 2990   6.125   6.310   5.157
   25CHL1  H11A 2991   6.222   6.258   5.144
   25CHL1  H11B 2992   6.147   6.410   5.201
   25CHL1    C9 2993   6.021   6.243   5.246
   25CHL1    H9 2994   5.931   6.307   5.259
   25CHL1   C10 2995   6.076   6.199   5.382
   25CHL1   C19 2996   6.219   6.135   5.362
   25CHL1  H19A 2997   6.252   6.065   5.443
   25CHL1  H19B 2998   6.220   6.080   5.265
   25CHL1  H19C 2999   6.298   6.213   5.355
   25CHL1    C1 3000   6.103   6.323   5.463
   25CHL1   H1A 3001   6.180   6.389   5.419
   25CHL1   H1B 3002   6.003   6.369   5.476
   25CHL1    C2 3003   6.176   6.288   5.599
   25CHL1   H2A 3004   6.199   6.386   5.647
   25CHL1   H2B 3005   6.274   6.236   5.589
   25CHL1   C20 3006   5.990   6.262   4.690
   25CHL1   H20 3007   6.066   6.185   4.666
   25CHL1   C21 3008   6.075   6.388   4.689
   25CHL1  H21A 3009   6.016   6.480   4.711
   25CHL1  H21B 3010   6.123   6.400   4.590
   25CHL1  H21C 3011   6.155   6.388   4.766
   25CHL1   C22 3012   5.900   6.248   4.562
   25CHL1  H22A 3013   5.957   6.265   4.468
   25CHL1  H22B 3014   5.857   6.146   4.556
   25CHL1   C23 3015   5.793   6.357   4.542
   25CHL1  H23A 3016   5.740   6.368   4.639
   25CHL1  H23B 3017   5.850   6.451   4.551
   25CHL1   C24 3018   5.706   6.344   4.420
   25CHL1  H24A 3019   5.776   6.334   4.334
   25CHL1  H24B 3020   5.664   6.241   4.422
   25CHL1   C25 3021   5.613   6.462   4.386
   25CHL1   H25 3022   5.671   6.556   4.379
   25CHL1   C26 3023   5.539   6.425   4.257
   25CHL1  H26A 3024   5.468   6.500   4.216
   25CHL1  H26B 3025   5.609   6.398   4.175
   25CHL1  H26C 3026   5.480   6.332   4.268
   25CHL1   C27 3027   5.507   6.479   4.503
   25CHL1  H27A 3028   5.563   6.493   4.597
   25CHL1  H27B 3029   5.453   6.574   4.482
   25CHL1  H27C 3030   5.428   6.400   4.510
   26CHL1    C3 3031   3.734   3.391   5.732
   26CHL1    H3 3032   3.837   3.411   5.769
   26CHL1    O3 3033   3.659   3.394   5.850
   26CHL1   H3' 3034   3.700   3.460   5.907
   26CHL1    C4 3035   3.687   3.512   5.647
   26CHL1   H4A 3036   3.577   3.521   5.653
   26CHL1   H4B 3037   3.724   3.597   5.709
   26CHL1    C5 3038   3.734   3.507   5.507
   26CHL1    C6 3039   3.812   3.602   5.448
   26CHL1    H6 3040   3.844   3.690   5.508
   26CHL1    C7 3041   3.869   3.591   5.312
   26CHL1   H7A 3042   3.873   3.693   5.267
   26CHL1   H7B 3043   3.974   3.557   5.307
   26CHL1    C8 3044   3.775   3.502   5.223
   26CHL1    H8 3045   3.676   3.550   5.210
   26CHL1   C14 3046   3.861   3.482   5.090
   26CHL1   H14 3047   3.951   3.427   5.128
   26CHL1   C15 3048   3.914   3.603   5.020
   26CHL1  H15A 3049   3.827   3.672   5.029
   26CHL1  H15B 3050   4.007   3.632   5.073
   26CHL1   C16 3051   3.943   3.555   4.874
   26CHL1  H16A 3052   3.903   3.618   4.793
   26CHL1  H16B 3053   4.053   3.555   4.860
   26CHL1   C17 3054   3.882   3.405   4.869
   26CHL1   H17 3055   3.968   3.339   4.895
   26CHL1   C13 3056   3.791   3.394   4.990
   26CHL1   C18 3057   3.663   3.468   4.942
   26CHL1  H18A 3058   3.679   3.571   4.903
   26CHL1  H18B 3059   3.607   3.421   4.859
   26CHL1  H18C 3060   3.588   3.478   5.024
   26CHL1   C12 3061   3.764   3.252   5.058
   26CHL1  H12A 3062   3.680   3.204   5.004
   26CHL1  H12B 3063   3.858   3.193   5.063
   26CHL1   C11 3064   3.695   3.265   5.192
   26CHL1  H11A 3065   3.589   3.295   5.176
   26CHL1  H11B 3066   3.700   3.163   5.236
   26CHL1    C9 3067   3.762   3.365   5.285
   26CHL1    H9 3068   3.862   3.326   5.312
   26CHL1   C10 3069   3.699   3.371   5.429
   26CHL1   C19 3070   3.540   3.360   5.416
   26CHL1  H19A 3071   3.503   3.444   5.354
   26CHL1  H19B 3072   3.510   3.263   5.370
   26CHL1  H19C 3073   3.503   3.357   5.520
   26CHL1    C1 3074   3.755   3.249   5.524
   26CHL1   H1A 3075   3.743   3.156   5.466
   26CHL1   H1B 3076   3.863   3.266   5.543
   26CHL1    C2 3077   3.698   3.250   5.667
   26CHL1   H2A 3078   3.723   3.158   5.724
   26CHL1   H2B 3079   3.588   3.236   5.659
   26CHL1   C20 3080   3.838   3.362   4.734
   26CHL1   H20 3081   3.744   3.413   4.707
   26CHL1   C21 3082   3.824   3.210   4.733
   26CHL1  H21A 3083   3.756   3.173   4.813
   26CHL1  H21B 3084   3.926   3.167   4.744
   26CHL1  H21C 3085   3.782   3.183   4.634
   26CHL1   C22 3086   3.933   3.403   4.621
   26CHL1  H22A 3087   3.953   3.512   4.618
   26CHL1  H22B 3088   4.032   3.355   4.636
   26CHL1   C23 3089   3.883   3.365   4.474
   26CHL1  H23A 3090   3.887   3.257   4.450
   26CHL1  H23B 3091   3.777   3.396   4.465
   26CHL1   C24 3092   3.983   3.434   4.371
   26CHL1  H24A 3093   3.928   3.417   4.276
   26CHL1  H24B 3094   3.973   3.544   4.387
   26CHL1   C25 3095   4.133   3.372   4.374
   26CHL1   H25 3096   4.170   3.388   4.477
   26CHL1   C26 3097   4.146   3.218   4.344
   26CHL1  H26A 3098   4.100   3.168   4.432
   26CHL1  H26B 3099   4.088   3.205   4.251
   26CHL1  H26C 3100   4.253   3.192   4.328
   26CHL1   C27 3101   4.215   3.446   4.273
   26CHL1  H27A 3102   4.322   3.418   4.264
   26CHL1  H27B 3103   4.169   3.444   4.172
   26CHL1  H27C 3104   4.220   3.551   4.308
   27CHL1    C3 3105   0.426   2.722   5.879
   27CHL1    H3 3106   0.453   2.615   5.863
   27CHL1    O3 3107   0.387   2.746   6.015
   27CHL1   H3' 3108   0.354   2.836   6.012
   27CHL1    C4 3109   0.562   2.794   5.849
   27CHL1   H4A 3110   0.558   2.901   5.877
   27CHL1   H4B 3111   0.645   2.754   5.910
   27CHL1    C5 3112   0.595   2.793   5.701
   27CHL1    C6 3113   0.712   2.752   5.656
   27CHL1    H6 3114   0.798   2.734   5.722
   27CHL1    C7 3115   0.768   2.775   5.517
   27CHL1   H7A 3116   0.872   2.813   5.527
   27CHL1   H7B 3117   0.762   2.673   5.474
   27CHL1    C8 3118   0.684   2.871   5.437
   27CHL1    H8 3119   0.705   2.970   5.483
   27CHL1   C14 3120   0.725   2.861   5.287
   27CHL1   H14 3121   0.699   2.756   5.261
   27CHL1   C15 3122   0.866   2.883   5.244
   27CHL1  H15A 3123   0.909   2.972   5.294
   27CHL1  H15B 3124   0.923   2.789   5.265
   27CHL1   C16 3125   0.864   2.901   5.099
   27CHL1  H16A 3126   0.913   3.000   5.083
   27CHL1  H16B 3127   0.919   2.825   5.040
   27CHL1   C17 3128   0.715   2.905   5.055
   27CHL1   H17 3129   0.698   2.799   5.028
   27CHL1   C13 3130   0.643   2.944   5.188
   27CHL1   C18 3131   0.668   3.099   5.227
   27CHL1  H18A 3132   0.603   3.160   5.160
   27CHL1  H18B 3133   0.650   3.108   5.336
   27CHL1  H18C 3134   0.764   3.151   5.207
   27CHL1   C12 3135   0.497   2.900   5.204
   27CHL1  H12A 3136   0.429   2.965   5.145
   27CHL1  H12B 3137   0.481   2.796   5.169
   27CHL1   C11 3138   0.450   2.913   5.351
   27CHL1  H11A 3139   0.444   3.022   5.369
   27CHL1  H11B 3140   0.344   2.879   5.351
   27CHL1    C9 3141   0.538   2.839   5.455
   27CHL1    H9 3142   0.524   2.730   5.436
   27CHL1   C10 3143   0.488   2.850   5.607
   27CHL1   C19 3144   0.465   3.003   5.629
   27CHL1  H19A 3145   0.381   3.033   5.564
   27CHL1  H19B 3146   0.433   3.035   5.731
   27CHL1  H19C 3147   0.546   3.076   5.611
   27CHL1    C1 3148   0.358   2.761   5.633
   27CHL1   H1A 3149   0.278   2.798   5.565
   27CHL1   H1B 3150   0.382   2.659   5.595
   27CHL1    C2 3151   0.310   2.764   5.782
   27CHL1   H2A 3152   0.224   2.694   5.793
   27CHL1   H2B 3153   0.254   2.858   5.803
   27CHL1   C20 3154   0.689   2.985   4.930
   27CHL1   H20 3155   0.694   3.091   4.963
   27CHL1   C21 3156   0.544   2.951   4.886
   27CHL1  H21A 3157   0.504   2.853   4.921
   27CHL1  H21B 3158   0.544   2.949   4.775
   27CHL1  H21C 3159   0.472   3.023   4.930
   27CHL1   C22 3160   0.781   2.972   4.817
   27CHL1  H22A 3161   0.729   3.016   4.730
   27CHL1  H22B 3162   0.861   3.049   4.826
   27CHL1   C23 3163   0.820   2.822   4.781
   27CHL1  H23A 3164   0.902   2.785   4.845
   27CHL1  H23B 3165   0.733   2.753   4.788
   27CHL1   C24 3166   0.853   2.823   4.631
   27CHL1  H24A 3167   0.768   2.841   4.562
   27CHL1  H24B 3168   0.924   2.908   4.615
   27CHL1   C25 3169   0.930   2.698   4.573
   27CHL1   H25 3170   1.024   2.694   4.632
   27CHL1   C26 3171   0.851   2.568   4.578
   27CHL1  H26A 3172   0.907   2.477   4.548
   27CHL1  H26B 3173   0.807   2.554   4.680
   27CHL1  H26C 3174   0.767   2.566   4.505
   27CHL1   C27 3175   0.970   2.726   4.424
   27CHL1  H27A 3176   1.034   2.817   4.424
   27CHL1  H27B 3177   0.877   2.749   4.368
   27CHL1  H27C 3178   1.023   2.636   4.386
   28CHL1    C3 3179   5.268   2.555   5.766
   28CHL1    H3 3180   5.182   2.618   5.732
   28CHL1    O3 3181   5.289   2.572   5.907
   28CHL1   H3' 3182   5.355   2.508   5.935
   28CHL1    C4 3183   5.239   2.407   5.732
   28CHL1   H4A 3184   5.312   2.351   5.793
   28CHL1   H4B 3185   5.140   2.388   5.779
   28CHL1    C5 3186   5.235   2.362   5.590
   28CHL1    C6 3187   5.131   2.291   5.533
   28CHL1    H6 3188   5.050   2.253   5.596
   28CHL1    C7 3189   5.136   2.251   5.387
   28CHL1   H7A 3190   5.099   2.149   5.363
   28CHL1   H7B 3191   5.077   2.321   5.324
   28CHL1    C8 3192   5.275   2.265   5.323
   28CHL1    H8 3193   5.334   2.179   5.360
   28CHL1   C14 3194   5.256   2.256   5.166
   28CHL1   H14 3195   5.182   2.338   5.150
   28CHL1   C15 3196   5.185   2.141   5.095
   28CHL1  H15A 3197   5.219   2.044   5.139
   28CHL1  H15B 3198   5.074   2.132   5.096
   28CHL1   C16 3199   5.243   2.144   4.952
   28CHL1  H16A 3200   5.306   2.056   4.929
   28CHL1  H16B 3201   5.169   2.141   4.868
   28CHL1   C17 3202   5.336   2.273   4.938
   28CHL1   H17 3203   5.263   2.354   4.914
   28CHL1   C13 3204   5.383   2.292   5.084
   28CHL1   C18 3205   5.506   2.195   5.113
   28CHL1  H18A 3206   5.526   2.183   5.222
   28CHL1  H18B 3207   5.489   2.093   5.072
   28CHL1  H18C 3208   5.600   2.235   5.070
   28CHL1   C12 3209   5.425   2.431   5.122
   28CHL1  H12A 3210   5.517   2.467   5.070
   28CHL1  H12B 3211   5.344   2.503   5.098
   28CHL1   C11 3212   5.455   2.440   5.274
   28CHL1  H11A 3213   5.542   2.375   5.294
   28CHL1  H11B 3214   5.482   2.546   5.293
   28CHL1    C9 3215   5.329   2.403   5.357
   28CHL1    H9 3216   5.244   2.471   5.335
   28CHL1   C10 3217   5.364   2.421   5.510
   28CHL1   C19 3218   5.494   2.346   5.539
   28CHL1  H19A 3219   5.492   2.247   5.488
   28CHL1  H19B 3220   5.580   2.406   5.503
   28CHL1  H19C 3221   5.504   2.327   5.648
   28CHL1    C1 3222   5.372   2.573   5.543
   28CHL1   H1A 3223   5.464   2.611   5.493
   28CHL1   H1B 3224   5.289   2.632   5.499
   28CHL1    C2 3225   5.388   2.611   5.693
   28CHL1   H2A 3226   5.404   2.720   5.702
   28CHL1   H2B 3227   5.478   2.560   5.732
   28CHL1   C20 3228   5.443   2.266   4.819
   28CHL1   H20 3229   5.530   2.201   4.840
   28CHL1   C21 3230   5.503   2.412   4.791
   28CHL1  H21A 3231   5.575   2.448   4.867
   28CHL1  H21B 3232   5.433   2.498   4.797
   28CHL1  H21C 3233   5.537   2.405   4.685
   28CHL1   C22 3234   5.387   2.197   4.687
   28CHL1  H22A 3235   5.345   2.099   4.717
   28CHL1  H22B 3236   5.305   2.251   4.635
   28CHL1   C23 3237   5.492   2.169   4.572
   28CHL1  H23A 3238   5.520   2.255   4.508
   28CHL1  H23B 3239   5.587   2.133   4.618
   28CHL1   C24 3240   5.443   2.066   4.462
   28CHL1  H24A 3241   5.403   1.973   4.508
   28CHL1  H24B 3242   5.351   2.110   4.419
   28CHL1   C25 3243   5.537   2.037   4.345
   28CHL1   H25 3244   5.583   2.134   4.317
   28CHL1   C26 3245   5.655   1.934   4.367
   28CHL1  H26A 3246   5.729   1.961   4.289
   28CHL1  H26B 3247   5.697   1.938   4.470
   28CHL1  H26C 3248   5.619   1.834   4.336
   28CHL1   C27 3249   5.445   1.996   4.228
   28CHL1  H27A 3250   5.506   1.975   4.137
   28CHL1  H27B 3251   5.387   1.907   4.262
   28CHL1  H27C 3252   5.384   2.080   4.190
   29CHL1    C3 3253   2.717   4.402   6.032
   29CHL1    H3 3254   2.809   4.344   6.008
   29CHL1    O3 3255   2.685   4.381   6.168
   29CHL1   H3' 3256   2.775   4.392   6.200
   29CHL1    C4 3257   2.741   4.548   6.013
   29CHL1   H4A 3258   2.651   4.611   6.031
   29CHL1   H4B 3259   2.807   4.592   6.091
   29CHL1    C5 3260   2.779   4.573   5.866
   29CHL1    C6 3261   2.900   4.628   5.836
   29CHL1    H6 3262   2.971   4.643   5.918
   29CHL1    C7 3263   2.936   4.657   5.686
   29CHL1   H7A 3264   2.971   4.763   5.678
   29CHL1   H7B 3265   3.012   4.585   5.649
   29CHL1    C8 3266   2.817   4.656   5.583
   29CHL1    H8 3267   2.751   4.745   5.582
   29CHL1   C14 3268   2.874   4.648   5.441
   29CHL1   H14 3269   2.938   4.558   5.430
   29CHL1   C15 3270   2.969   4.759   5.392
   29CHL1  H15A 3271   2.932   4.862   5.411
   29CHL1  H15B 3272   3.075   4.745   5.423
   29CHL1   C16 3273   2.979   4.726   5.239
   29CHL1  H16A 3274   2.977   4.817   5.174
   29CHL1  H16B 3275   3.074   4.677   5.208
   29CHL1   C17 3276   2.864   4.625   5.206
   29CHL1   H17 3277   2.912   4.525   5.199
   29CHL1   C13 3278   2.774   4.620   5.328
   29CHL1   C18 3279   2.676   4.741   5.323
   29CHL1  H18A 3280   2.739   4.829   5.299
   29CHL1  H18B 3281   2.593   4.721   5.252
   29CHL1  H18C 3282   2.628   4.771   5.419
   29CHL1   C12 3283   2.706   4.492   5.359
   29CHL1  H12A 3284   2.634   4.458   5.281
   29CHL1  H12B 3285   2.785   4.414   5.366
   29CHL1   C11 3286   2.632   4.491   5.495
   29CHL1  H11A 3287   2.557   4.573   5.494
   29CHL1  H11B 3288   2.582   4.395   5.520
   29CHL1    C9 3289   2.736   4.526   5.616
   29CHL1    H9 3290   2.815   4.448   5.607
   29CHL1   C10 3291   2.681   4.516   5.765
   29CHL1   C19 3292   2.545   4.589   5.768
   29CHL1  H19A 3293   2.566   4.691   5.729
   29CHL1  H19B 3294   2.467   4.541   5.706
   29CHL1  H19C 3295   2.493   4.606   5.865
   29CHL1    C1 3296   2.661   4.364   5.792
   29CHL1   H1A 3297   2.593   4.328   5.711
   29CHL1   H1B 3298   2.758   4.311   5.779
   29CHL1    C2 3299   2.612   4.340   5.936
   29CHL1   H2A 3300   2.588   4.235   5.963
   29CHL1   H2B 3301   2.522   4.395   5.971
   29CHL1   C20 3302   2.797   4.643   5.062
   29CHL1   H20 3303   2.728   4.729   5.079
   29CHL1   C21 3304   2.698   4.539   5.016
   29CHL1  H21A 3305   2.633   4.577   4.934
   29CHL1  H21B 3306   2.630   4.502   5.096
   29CHL1  H21C 3307   2.753   4.450   4.976
   29CHL1   C22 3308   2.897   4.681   4.945
   29CHL1  H22A 3309   2.936   4.781   4.974
   29CHL1  H22B 3310   2.966   4.594   4.943
   29CHL1   C23 3311   2.845   4.705   4.807
   29CHL1  H23A 3312   2.804   4.607   4.773
   29CHL1  H23B 3313   2.755   4.769   4.809
   29CHL1   C24 3314   2.948   4.748   4.708
   29CHL1  H24A 3315   3.017   4.823   4.754
   29CHL1  H24B 3316   3.015   4.665   4.680
   29CHL1   C25 3317   2.880   4.790   4.573
   29CHL1   H25 3318   2.808   4.871   4.595
   29CHL1   C26 3319   2.983   4.856   4.478
   29CHL1  H26A 3320   3.007   4.956   4.521
   29CHL1  H26B 3321   3.070   4.787   4.476
   29CHL1  H26C 3322   2.947   4.882   4.377
   29CHL1   C27 3323   2.799   4.678   4.501
   29CHL1  H27A 3324   2.860   4.586   4.494
   29CHL1  H27B 3325   2.719   4.665   4.576
   29CHL1  H27C 3326   2.761   4.710   4.401
   30CHL1    C3 3327   2.961   4.086   5.747
   30CHL1    H3 3328   2.851   4.101   5.750
   30CHL1    O3 3329   2.992   4.059   5.883
   30CHL1   H3' 3330   3.045   3.979   5.892
   30CHL1    C4 3331   2.998   3.960   5.676
   30CHL1   H4A 3332   3.105   3.933   5.692
   30CHL1   H4B 3333   2.941   3.872   5.712
   30CHL1    C5 3334   2.982   3.976   5.526
   30CHL1    C6 3335   2.918   3.890   5.454
   30CHL1    H6 3336   2.865   3.801   5.490
   30CHL1    C7 3337   2.904   3.895   5.303
   30CHL1   H7A 3338   2.933   3.793   5.269
   30CHL1   H7B 3339   2.797   3.905   5.278
   30CHL1    C8 3340   2.990   4.001   5.229
   30CHL1    H8 3341   3.090   3.954   5.225
   30CHL1   C14 3342   2.933   4.022   5.092
   30CHL1   H14 3343   2.826   4.050   5.104
   30CHL1   C15 3344   2.919   3.895   4.998
   30CHL1  H15A 3345   3.009   3.835   5.022
   30CHL1  H15B 3346   2.825   3.843   5.029
   30CHL1   C16 3347   2.923   3.960   4.855
   30CHL1  H16A 3348   3.013   3.912   4.809
   30CHL1  H16B 3349   2.840   3.943   4.783
   30CHL1   C17 3350   2.943   4.112   4.875
   30CHL1   H17 3351   2.838   4.147   4.886
   30CHL1   C13 3352   3.015   4.125   5.013
   30CHL1   C18 3353   3.160   4.085   5.004
   30CHL1  H18A 3354   3.153   3.989   4.949
   30CHL1  H18B 3355   3.223   4.144   4.934
   30CHL1  H18C 3356   3.215   4.075   5.100
   30CHL1   C12 3357   2.999   4.262   5.087
   30CHL1  H12A 3358   3.048   4.343   5.029
   30CHL1  H12B 3359   2.893   4.290   5.100
   30CHL1   C11 3360   3.062   4.252   5.235
   30CHL1  H11A 3361   3.171   4.232   5.226
   30CHL1  H11B 3362   3.042   4.344   5.292
   30CHL1    C9 3363   2.994   4.126   5.314
   30CHL1    H9 3364   2.892   4.168   5.320
   30CHL1   C10 3365   3.046   4.102   5.459
   30CHL1   C19 3366   3.193   4.077   5.451
   30CHL1  H19A 3367   3.246   4.160   5.401
   30CHL1  H19B 3368   3.243   4.066   5.550
   30CHL1  H19C 3369   3.203   3.983   5.394
   30CHL1    C1 3370   3.010   4.222   5.548
   30CHL1   H1A 3371   3.087   4.298   5.520
   30CHL1   H1B 3372   2.917   4.277   5.525
   30CHL1    C2 3373   3.029   4.211   5.698
   30CHL1   H2A 3374   2.979   4.294   5.752
   30CHL1   H2B 3375   3.137   4.214   5.724
   30CHL1   C20 3376   3.013   4.170   4.751
   30CHL1   H20 3377   3.115   4.126   4.742
   30CHL1   C21 3378   3.040   4.322   4.762
   30CHL1  H21A 3379   2.948   4.379   4.788
   30CHL1  H21B 3380   3.083   4.356   4.666
   30CHL1  H21C 3381   3.115   4.340   4.843
   30CHL1   C22 3382   2.932   4.145   4.626
   30CHL1  H22A 3383   2.992   4.173   4.537
   30CHL1  H22B 3384   2.924   4.035   4.613
   30CHL1   C23 3385   2.787   4.207   4.616
   30CHL1  H23A 3386   2.725   4.153   4.691
   30CHL1  H23B 3387   2.787   4.316   4.634
   30CHL1   C24 3388   2.742   4.190   4.466
   30CHL1  H24A 3389   2.806   4.242   4.391
   30CHL1  H24B 3390   2.745   4.081   4.442
   30CHL1   C25 3391   2.596   4.237   4.436
   30CHL1   H25 3392   2.579   4.342   4.468
   30CHL1   C26 3393   2.564   4.229   4.284
   30CHL1  H26A 3394   2.459   4.261   4.263
   30CHL1  H26B 3395   2.625   4.310   4.237
   30CHL1  H26C 3396   2.593   4.132   4.240
   30CHL1   C27 3397   2.489   4.145   4.508
   30CHL1  H27A 3398   2.398   4.173   4.452
   30CHL1  H27B 3399   2.503   4.036   4.494
   30CHL1  H27C 3400   2.486   4.170   4.616
   31CHL1    C3 3401   2.084   4.452   6.039
   31CHL1    H3 3402   2.053   4.346   6.026
   31CHL1    O3 3403   2.108   4.489   6.174
   31CHL1   H3' 3404   2.193   4.531   6.161
   31CHL1    C4 3405   2.211   4.468   5.959
   31CHL1   H4A 3406   2.255   4.569   5.975
   31CHL1   H4B 3407   2.279   4.387   5.994
   31CHL1    C5 3408   2.199   4.446   5.810
   31CHL1    C6 3409   2.266   4.350   5.744
   31CHL1    H6 3410   2.345   4.297   5.800
   31CHL1    C7 3411   2.244   4.316   5.603
   31CHL1   H7A 3412   2.338   4.279   5.554
   31CHL1   H7B 3413   2.165   4.239   5.596
   31CHL1    C8 3414   2.197   4.443   5.520
   31CHL1    H8 3415   2.278   4.519   5.529
   31CHL1   C14 3416   2.171   4.412   5.375
   31CHL1   H14 3417   2.085   4.343   5.389
   31CHL1   C15 3418   2.282   4.328   5.305
   31CHL1  H15A 3419   2.373   4.388   5.325
   31CHL1  H15B 3420   2.285   4.225   5.345
   31CHL1   C16 3421   2.261   4.346   5.154
   31CHL1  H16A 3422   2.344   4.395   5.099
   31CHL1  H16B 3423   2.239   4.250   5.103
   31CHL1   C17 3424   2.131   4.451   5.154
   31CHL1   H17 3425   2.038   4.391   5.158
   31CHL1   C13 3426   2.131   4.527   5.286
   31CHL1   C18 3427   2.236   4.642   5.269
   31CHL1  H18A 3428   2.262   4.694   5.364
   31CHL1  H18B 3429   2.330   4.599   5.230
   31CHL1  H18C 3430   2.209   4.718   5.193
   31CHL1   C12 3431   1.997   4.583   5.347
   31CHL1  H12A 3432   1.959   4.671   5.292
   31CHL1  H12B 3433   1.922   4.501   5.347
   31CHL1   C11 3434   2.023   4.624   5.495
   31CHL1  H11A 3435   2.094   4.709   5.494
   31CHL1  H11B 3436   1.921   4.649   5.531
   31CHL1    C9 3437   2.073   4.510   5.587
   31CHL1    H9 3438   1.995   4.432   5.577
   31CHL1   C10 3439   2.102   4.536   5.739
   31CHL1   C19 3440   2.142   4.683   5.742
   31CHL1  H19A 3441   2.231   4.704   5.679
   31CHL1  H19B 3442   2.057   4.748   5.715
   31CHL1  H19C 3443   2.176   4.717   5.842
   31CHL1    C1 3444   1.967   4.529   5.826
   31CHL1   H1A 3445   1.899   4.605   5.783
   31CHL1   H1B 3446   1.937   4.423   5.814
   31CHL1    C2 3447   1.976   4.542   5.983
   31CHL1   H2A 3448   1.874   4.527   6.024
   31CHL1   H2B 3449   1.995   4.650   5.997
   31CHL1   C20 3450   2.130   4.535   5.022
   31CHL1   H20 3451   2.219   4.601   5.013
   31CHL1   C21 3452   2.003   4.625   5.022
   31CHL1  H21A 3453   1.999   4.686   4.929
   31CHL1  H21B 3454   2.009   4.705   5.100
   31CHL1  H21C 3455   1.913   4.564   5.043
   31CHL1   C22 3456   2.123   4.441   4.907
   31CHL1  H22A 3457   2.176   4.344   4.898
   31CHL1  H22B 3458   2.017   4.407   4.898
   31CHL1   C23 3459   2.166   4.516   4.784
   31CHL1  H23A 3460   2.096   4.602   4.773
   31CHL1  H23B 3461   2.264   4.569   4.786
   31CHL1   C24 3462   2.152   4.434   4.656
   31CHL1  H24A 3463   2.236   4.362   4.653
   31CHL1  H24B 3464   2.058   4.375   4.660
   31CHL1   C25 3465   2.155   4.505   4.516
   31CHL1   H25 3466   2.083   4.590   4.523
   31CHL1   C26 3467   2.292   4.580   4.489
   31CHL1  H26A 3468   2.255   4.657   4.418
   31CHL1  H26B 3469   2.327   4.618   4.588
   31CHL1  H26C 3470   2.372   4.518   4.445
   31CHL1   C27 3471   2.112   4.406   4.407
   31CHL1  H27A 3472   2.119   4.463   4.312
   31CHL1  H27B 3473   2.187   4.324   4.406
   31CHL1  H27C 3474   2.008   4.370   4.415
   32CHL1    C3 3475   1.949   2.219   5.726
   32CHL1    H3 3476   1.959   2.115   5.688
   32CHL1    O3 3477   1.911   2.215   5.864
   32CHL1   H3' 3478   1.985   2.254   5.912
   32CHL1    C4 3479   2.080   2.295   5.709
   32CHL1   H4A 3480   2.067   2.400   5.746
   32CHL1   H4B 3481   2.162   2.240   5.761
   32CHL1    C5 3482   2.120   2.304   5.565
   32CHL1    C6 3483   2.244   2.256   5.528
   32CHL1    H6 3484   2.322   2.239   5.603
   32CHL1    C7 3485   2.293   2.265   5.384
   32CHL1   H7A 3486   2.391   2.317   5.390
   32CHL1   H7B 3487   2.311   2.165   5.340
   32CHL1    C8 3488   2.199   2.349   5.291
   32CHL1    H8 3489   2.219   2.456   5.312
   32CHL1   C14 3490   2.223   2.328   5.142
   32CHL1   H14 3491   2.208   2.220   5.120
   32CHL1   C15 3492   2.365   2.346   5.086
   32CHL1  H15A 3493   2.427   2.424   5.135
   32CHL1  H15B 3494   2.426   2.256   5.109
   32CHL1   C16 3495   2.354   2.362   4.928
   32CHL1  H16A 3496   2.411   2.445   4.880
   32CHL1  H16B 3497   2.382   2.265   4.883
   32CHL1   C17 3498   2.198   2.376   4.899
   32CHL1   H17 3499   2.165   2.270   4.890
   32CHL1   C13 3500   2.137   2.409   5.044
   32CHL1   C18 3501   2.154   2.559   5.064
   32CHL1  H18A 3502   2.260   2.593   5.060
   32CHL1  H18B 3503   2.093   2.610   4.986
   32CHL1  H18C 3504   2.123   2.597   5.163
   32CHL1   C12 3505   1.992   2.373   5.064
   32CHL1  H12A 3506   1.929   2.441   5.003
   32CHL1  H12B 3507   1.980   2.273   5.018
   32CHL1   C11 3508   1.943   2.373   5.213
   32CHL1  H11A 3509   1.922   2.478   5.240
   32CHL1  H11B 3510   1.839   2.336   5.222
   32CHL1    C9 3511   2.051   2.327   5.319
   32CHL1    H9 3512   2.043   2.217   5.307
   32CHL1   C10 3513   2.012   2.352   5.466
   32CHL1   C19 3514   2.008   2.510   5.490
   32CHL1  H19A 3515   1.971   2.531   5.593
   32CHL1  H19B 3516   2.098   2.572   5.472
   32CHL1  H19C 3517   1.925   2.552   5.430
   32CHL1    C1 3518   1.873   2.296   5.500
   32CHL1   H1A 3519   1.794   2.358   5.451
   32CHL1   H1B 3520   1.879   2.194   5.457
   32CHL1    C2 3521   1.832   2.279   5.644
   32CHL1   H2A 3522   1.742   2.217   5.662
   32CHL1   H2B 3523   1.797   2.372   5.693
   32CHL1   C20 3524   2.150   2.452   4.774
   32CHL1   H20 3525   2.049   2.493   4.797
   32CHL1   C21 3526   2.122   2.361   4.656
   32CHL1  H21A 3527   2.217   2.312   4.625
   32CHL1  H21B 3528   2.104   2.416   4.561
   32CHL1  H21C 3529   2.037   2.290   4.664
   32CHL1   C22 3530   2.227   2.577   4.729
   32CHL1  H22A 3531   2.247   2.626   4.827
   32CHL1  H22B 3532   2.322   2.547   4.679
   32CHL1   C23 3533   2.157   2.683   4.640
   32CHL1  H23A 3534   2.110   2.626   4.557
   32CHL1  H23B 3535   2.080   2.722   4.710
   32CHL1   C24 3536   2.253   2.795   4.589
   32CHL1  H24A 3537   2.189   2.868   4.534
   32CHL1  H24B 3538   2.294   2.832   4.685
   32CHL1   C25 3539   2.377   2.754   4.500
   32CHL1   H25 3540   2.451   2.691   4.553
   32CHL1   C26 3541   2.322   2.685   4.370
   32CHL1  H26A 3542   2.242   2.615   4.401
   32CHL1  H26B 3543   2.289   2.761   4.296
   32CHL1  H26C 3544   2.404   2.630   4.318
   32CHL1   C27 3545   2.455   2.884   4.464
   32CHL1  H27A 3546   2.536   2.863   4.391
   32CHL1  H27B 3547   2.381   2.956   4.421
   32CHL1  H27C 3548   2.495   2.942   4.549
   33CHL1    C3 3549   0.678   1.514   5.670
   33CHL1    H3 3550   0.741   1.429   5.638
   33CHL1    O3 3551   0.601   1.473   5.781
   33CHL1   H3' 3552   0.633   1.390   5.817
   33CHL1    C4 3553   0.754   1.645   5.693
   33CHL1   H4A 3554   0.679   1.712   5.740
   33CHL1   H4B 3555   0.819   1.630   5.782
   33CHL1    C5 3556   0.811   1.723   5.576
   33CHL1    C6 3557   0.928   1.792   5.578
   33CHL1    H6 3558   0.990   1.779   5.668
   33CHL1    C7 3559   0.980   1.860   5.458
   33CHL1   H7A 3560   1.020   1.961   5.480
   33CHL1   H7B 3561   1.061   1.793   5.420
   33CHL1    C8 3562   0.883   1.877   5.337
   33CHL1    H8 3563   0.822   1.968   5.354
   33CHL1   C14 3564   0.958   1.892   5.208
   33CHL1   H14 3565   0.992   1.790   5.180
   33CHL1   C15 3566   1.085   1.972   5.204
   33CHL1  H15A 3567   1.075   2.061   5.269
   33CHL1  H15B 3568   1.173   1.906   5.222
   33CHL1   C16 3569   1.093   2.021   5.058
   33CHL1  H16A 3570   1.069   2.129   5.049
   33CHL1  H16B 3571   1.191   1.989   5.016
   33CHL1   C17 3572   0.984   1.939   4.977
   33CHL1   H17 3573   1.028   1.838   4.966
   33CHL1   C13 3574   0.873   1.921   5.081
   33CHL1   C18 3575   0.793   2.052   5.091
   33CHL1  H18A 3576   0.862   2.139   5.087
   33CHL1  H18B 3577   0.715   2.056   5.012
   33CHL1  H18C 3578   0.727   2.054   5.180
   33CHL1   C12 3579   0.778   1.796   5.065
   33CHL1  H12A 3580   0.706   1.805   4.981
   33CHL1  H12B 3581   0.845   1.709   5.053
   33CHL1   C11 3582   0.700   1.770   5.194
   33CHL1  H11A 3583   0.625   1.852   5.187
   33CHL1  H11B 3584   0.636   1.683   5.169
   33CHL1    C9 3585   0.790   1.761   5.322
   33CHL1    H9 3586   0.851   1.675   5.288
   33CHL1   C10 3587   0.713   1.727   5.450
   33CHL1   C19 3588   0.615   1.840   5.480
   33CHL1  H19A 3589   0.542   1.854   5.398
   33CHL1  H19B 3590   0.562   1.815   5.574
   33CHL1  H19C 3591   0.676   1.931   5.499
   33CHL1    C1 3592   0.624   1.597   5.435
   33CHL1   H1A 3593   0.529   1.622   5.382
   33CHL1   H1B 3594   0.670   1.509   5.386
   33CHL1    C2 3595   0.569   1.539   5.566
   33CHL1   H2A 3596   0.528   1.436   5.555
   33CHL1   H2B 3597   0.494   1.610   5.606
   33CHL1   C20 3598   0.941   2.006   4.846
   33CHL1   H20 3599   0.910   2.111   4.867
   33CHL1   C21 3600   0.819   1.941   4.779
   33CHL1  H21A 3601   0.717   1.964   4.816
   33CHL1  H21B 3602   0.848   1.835   4.768
   33CHL1  H21C 3603   0.814   1.969   4.672
   33CHL1   C22 3604   1.052   2.011   4.743
   33CHL1  H22A 3605   1.148   2.028   4.796
   33CHL1  H22B 3606   1.065   1.914   4.691
   33CHL1   C23 3607   1.045   2.124   4.640
   33CHL1  H23A 3608   0.957   2.104   4.574
   33CHL1  H23B 3609   1.032   2.217   4.698
   33CHL1   C24 3610   1.158   2.126   4.537
   33CHL1  H24A 3611   1.256   2.106   4.586
   33CHL1  H24B 3612   1.134   2.049   4.460
   33CHL1   C25 3613   1.164   2.263   4.461
   33CHL1   H25 3614   1.063   2.309   4.469
   33CHL1   C26 3615   1.254   2.366   4.534
   33CHL1  H26A 3616   1.362   2.341   4.531
   33CHL1  H26B 3617   1.254   2.462   4.478
   33CHL1  H26C 3618   1.229   2.384   4.641
   33CHL1   C27 3619   1.193   2.247   4.313
   33CHL1  H27A 3620   1.297   2.207   4.313
   33CHL1  H27B 3621   1.116   2.182   4.266
   33CHL1  H27C 3622   1.202   2.347   4.267
   34CHL1    C3 3623   2.425   2.672   5.982
   34CHL1    H3 3624   2.536   2.668   5.985
   34CHL1    O3 3625   2.372   2.639   6.111
   34CHL1   H3' 3626   2.395   2.547   6.126
   34CHL1    C4 3627   2.383   2.819   5.958
   34CHL1   H4A 3628   2.272   2.821   5.969
   34CHL1   H4B 3629   2.428   2.879   6.040
   34CHL1    C5 3630   2.434   2.858   5.822
   34CHL1    C6 3631   2.514   2.966   5.800
   34CHL1    H6 3632   2.545   3.027   5.886
   34CHL1    C7 3633   2.559   3.011   5.660
   34CHL1   H7A 3634   2.550   3.121   5.655
   34CHL1   H7B 3635   2.666   2.981   5.653
   34CHL1    C8 3636   2.479   2.942   5.545
   34CHL1    H8 3637   2.377   2.986   5.534
   34CHL1   C14 3638   2.571   2.952   5.420
   34CHL1   H14 3639   2.654   2.879   5.430
   34CHL1   C15 3640   2.636   3.081   5.384
   34CHL1  H15A 3641   2.556   3.158   5.380
   34CHL1  H15B 3642   2.711   3.116   5.458
   34CHL1   C16 3643   2.677   3.074   5.237
   34CHL1  H16A 3644   2.637   3.166   5.188
   34CHL1  H16B 3645   2.786   3.071   5.214
   34CHL1   C17 3646   2.618   2.931   5.185
   34CHL1   H17 3647   2.703   2.866   5.214
   34CHL1   C13 3648   2.506   2.902   5.293
   34CHL1   C18 3649   2.376   2.980   5.243
   34CHL1  H18A 3650   2.310   2.977   5.332
   34CHL1  H18B 3651   2.390   3.090   5.237
   34CHL1  H18C 3652   2.332   2.935   5.152
   34CHL1   C12 3653   2.482   2.746   5.314
   34CHL1  H12A 3654   2.423   2.701   5.231
   34CHL1  H12B 3655   2.577   2.690   5.308
   34CHL1   C11 3656   2.407   2.724   5.443
   34CHL1  H11A 3657   2.309   2.773   5.419
   34CHL1  H11B 3658   2.388   2.615   5.450
   34CHL1    C9 3659   2.465   2.792   5.569
   34CHL1    H9 3660   2.571   2.762   5.581
   34CHL1   C10 3661   2.390   2.764   5.707
   34CHL1   C19 3662   2.236   2.794   5.685
   34CHL1  H19A 3663   2.188   2.703   5.643
   34CHL1  H19B 3664   2.182   2.824   5.777
   34CHL1  H19C 3665   2.216   2.884   5.624
   34CHL1    C1 3666   2.416   2.617   5.734
   34CHL1   H1A 3667   2.361   2.555   5.660
   34CHL1   H1B 3668   2.523   2.588   5.734
   34CHL1    C2 3669   2.371   2.581   5.882
   34CHL1   H2A 3670   2.411   2.478   5.893
   34CHL1   H2B 3671   2.260   2.572   5.878
   34CHL1   C20 3672   2.592   2.938   5.035
   34CHL1   H20 3673   2.513   3.013   5.014
   34CHL1   C21 3674   2.544   2.802   4.986
   34CHL1  H21A 3675   2.521   2.810   4.878
   34CHL1  H21B 3676   2.446   2.771   5.027
   34CHL1  H21C 3677   2.619   2.721   4.998
   34CHL1   C22 3678   2.718   2.969   4.967
   34CHL1  H22A 3679   2.773   3.059   5.004
   34CHL1  H22B 3680   2.787   2.886   4.993
   34CHL1   C23 3681   2.710   2.993   4.816
   34CHL1  H23A 3682   2.650   2.912   4.769
   34CHL1  H23B 3683   2.654   3.087   4.795
   34CHL1   C24 3684   2.845   2.985   4.744
   34CHL1  H24A 3685   2.918   3.062   4.777
   34CHL1  H24B 3686   2.896   2.889   4.766
   34CHL1   C25 3687   2.832   2.996   4.593
   34CHL1   H25 3688   2.762   2.923   4.549
   34CHL1   C26 3689   2.783   3.129   4.548
   34CHL1  H26A 3690   2.672   3.132   4.549
   34CHL1  H26B 3691   2.825   3.206   4.616
   34CHL1  H26C 3692   2.816   3.170   4.450
   34CHL1   C27 3693   2.970   2.951   4.533
   34CHL1  H27A 3694   2.986   2.990   4.430
   34CHL1  H27B 3695   3.048   2.990   4.602
   34CHL1  H27C 3696   2.981   2.842   4.547
   35CHL1    C3 3697   4.579   5.806   5.832
   35CHL1    H3 3698   4.678   5.758   5.816
   35CHL1    O3 3699   4.578   5.849   5.965
   35CHL1   H3' 3700   4.555   5.774   6.021
   35CHL1    C4 3701   4.569   5.932   5.747
   35CHL1   H4A 3702   4.494   6.008   5.780
   35CHL1   H4B 3703   4.667   5.983   5.756
   35CHL1    C5 3704   4.560   5.908   5.599
   35CHL1    C6 3705   4.640   5.968   5.513
   35CHL1    H6 3706   4.712   6.044   5.548
   35CHL1    C7 3707   4.629   5.947   5.365
   35CHL1   H7A 3708   4.662   6.037   5.309
   35CHL1   H7B 3709   4.700   5.863   5.346
   35CHL1    C8 3710   4.493   5.895   5.319
   35CHL1    H8 3711   4.427   5.983   5.339
   35CHL1   C14 3712   4.494   5.855   5.171
   35CHL1   H14 3713   4.570   5.775   5.169
   35CHL1   C15 3714   4.546   5.960   5.071
   35CHL1  H15A 3715   4.502   6.059   5.097
   35CHL1  H15B 3716   4.656   5.961   5.085
   35CHL1   C16 3717   4.492   5.904   4.937
   35CHL1  H16A 3718   4.440   5.990   4.889
   35CHL1  H16B 3719   4.576   5.864   4.876
   35CHL1   C17 3720   4.399   5.785   4.965
   35CHL1   H17 3721   4.455   5.689   4.962
   35CHL1   C13 3722   4.363   5.801   5.119
   35CHL1   C18 3723   4.253   5.905   5.134
   35CHL1  H18A 3724   4.219   5.917   5.238
   35CHL1  H18B 3725   4.293   6.006   5.108
   35CHL1  H18C 3726   4.167   5.882   5.068
   35CHL1   C12 3727   4.340   5.666   5.192
   35CHL1  H12A 3728   4.245   5.619   5.159
   35CHL1  H12B 3729   4.428   5.600   5.175
   35CHL1   C11 3730   4.332   5.687   5.348
   35CHL1  H11A 3731   4.234   5.738   5.357
   35CHL1  H11B 3732   4.313   5.589   5.396
   35CHL1    C9 3733   4.449   5.771   5.403
   35CHL1    H9 3734   4.541   5.708   5.395
   35CHL1   C10 3735   4.447   5.808   5.553
   35CHL1   C19 3736   4.305   5.875   5.576
   35CHL1  H19A 3737   4.298   5.919   5.678
   35CHL1  H19B 3738   4.295   5.955   5.500
   35CHL1  H19C 3739   4.223   5.800   5.565
   35CHL1    C1 3740   4.458   5.678   5.641
   35CHL1   H1A 3741   4.365   5.619   5.627
   35CHL1   H1B 3742   4.549   5.619   5.617
   35CHL1    C2 3743   4.465   5.710   5.796
   35CHL1   H2A 3744   4.489   5.620   5.856
   35CHL1   H2B 3745   4.371   5.755   5.835
   35CHL1   C20 3746   4.285   5.757   4.868
   35CHL1   H20 3747   4.213   5.840   4.882
   35CHL1   C21 3748   4.206   5.623   4.881
   35CHL1  H21A 3749   4.150   5.618   4.977
   35CHL1  H21B 3750   4.270   5.533   4.896
   35CHL1  H21C 3751   4.138   5.591   4.799
   35CHL1   C22 3752   4.340   5.767   4.724
   35CHL1  H22A 3753   4.414   5.848   4.705
   35CHL1  H22B 3754   4.393   5.670   4.724
   35CHL1   C23 3755   4.220   5.774   4.619
   35CHL1  H23A 3756   4.183   5.670   4.606
   35CHL1  H23B 3757   4.137   5.842   4.648
   35CHL1   C24 3758   4.264   5.809   4.478
   35CHL1  H24A 3759   4.317   5.907   4.473
   35CHL1  H24B 3760   4.340   5.733   4.450
   35CHL1   C25 3761   4.162   5.798   4.361
   35CHL1   H25 3762   4.141   5.690   4.346
   35CHL1   C26 3763   4.037   5.882   4.365
   35CHL1  H26A 3764   4.055   5.992   4.362
   35CHL1  H26B 3765   3.982   5.867   4.269
   35CHL1  H26C 3766   3.967   5.854   4.446
   35CHL1   C27 3767   4.234   5.825   4.229
   35CHL1  H27A 3768   4.322   5.758   4.229
   35CHL1  H27B 3769   4.175   5.784   4.144
   35CHL1  H27C 3770   4.265   5.932   4.223
   36CHL1    C3 3771   0.017   4.129   5.880
   36CHL1    H3 3772   6.824   4.086   5.880
   36CHL1    O3 3773   0.062   4.151   6.011
   36CHL1   H3' 3774   0.158   4.143   6.011
   36CHL1    C4 3775   0.112   4.020   5.819
   36CHL1   H4A 3776   0.217   4.051   5.833
   36CHL1   H4B 3777   0.089   3.930   5.881
   36CHL1    C5 3778   0.094   3.997   5.667
   36CHL1    C6 3779   0.068   3.883   5.607
   36CHL1    H6 3780   0.059   3.791   5.667
   36CHL1    C7 3781   0.066   3.864   5.457
   36CHL1   H7A 3782   0.122   3.772   5.431
   36CHL1   H7B 3783   6.875   3.836   5.419
   36CHL1    C8 3784   0.123   3.990   5.374
   36CHL1    H8 3785   0.234   3.991   5.382
   36CHL1   C14 3786   0.077   3.977   5.228
   36CHL1   H14 3787   6.875   3.970   5.229
   36CHL1   C15 3788   0.114   3.856   5.147
   36CHL1  H15A 3789   0.223   3.838   5.151
   36CHL1  H15B 3790   0.050   3.770   5.175
   36CHL1   C16 3791   0.082   3.892   5.006
   36CHL1  H16A 3792   0.172   3.873   4.942
   36CHL1  H16B 3793   0.002   3.835   4.954
   36CHL1   C17 3794   0.048   4.046   5.011
   36CHL1   H17 3795   6.848   4.053   5.030
   36CHL1   C13 3796   0.107   4.099   5.146
   36CHL1   C18 3797   0.249   4.132   5.124
   36CHL1  H18A 3798   0.323   4.062   5.080
   36CHL1  H18B 3799   0.266   4.229   5.071
   36CHL1  H18C 3800   0.303   4.158   5.218
   36CHL1   C12 3801   0.035   4.222   5.201
   36CHL1  H12A 3802   0.049   4.320   5.150
   36CHL1  H12B 3803   6.837   4.196   5.210
   36CHL1   C11 3804   0.076   4.246   5.347
   36CHL1  H11A 3805   0.173   4.299   5.340
   36CHL1  H11B 3806   0.006   4.321   5.388
   36CHL1    C9 3807   0.065   4.118   5.436
   36CHL1    H9 3808   6.866   4.097   5.425
   36CHL1   C10 3809   0.108   4.134   5.581
   36CHL1   C19 3810   0.256   4.175   5.575
   36CHL1  H19A 3811   0.322   4.087   5.561
   36CHL1  H19B 3812   0.300   4.235   5.493
   36CHL1  H19C 3813   0.300   4.218   5.668
   36CHL1    C1 3814   0.013   4.236   5.649
   36CHL1   H1A 3815   0.036   4.337   5.607
   36CHL1   H1B 3816   6.814   4.214   5.635
   36CHL1    C2 3817   0.041   4.257   5.800
   36CHL1   H2A 3818   6.893   4.338   5.848
   36CHL1   H2B 3819   0.145   4.292   5.816
   36CHL1   C20 3820   0.076   4.123   4.880
   36CHL1   H20 3821   0.187   4.120   4.876
   36CHL1   C21 3822   0.038   4.269   4.872
   36CHL1  H21A 3823   6.850   4.284   4.923
   36CHL1  H21B 3824   0.027   4.303   4.767
   36CHL1  H21C 3825   0.120   4.328   4.918
   36CHL1   C22 3826   0.012   4.041   4.763
   36CHL1  H22A 3827   0.064   3.943   4.766
   36CHL1  H22B 3828   6.812   4.019   4.767
   36CHL1   C23 3829   0.042   4.088   4.623
   36CHL1  H23A 3830   6.906   4.019   4.548
   36CHL1  H23B 3831   6.904   4.185   4.599
   36CHL1   C24 3832   0.196   4.083   4.586
   36CHL1  H24A 3833   0.269   4.129   4.656
   36CHL1  H24B 3834   0.220   3.975   4.583
   36CHL1   C25 3835   0.224   4.154   4.451
   36CHL1   H25 3836   0.153   4.110   4.378
   36CHL1   C26 3837   0.209   4.305   4.455
   36CHL1  H26A 3838   0.106   4.323   4.491
   36CHL1  H26B 3839   0.282   4.348   4.527
   36CHL1  H26C 3840   0.218   4.348   4.353
   36CHL1   C27 3841   0.372   4.138   4.415
   36CHL1  H27A 3842   0.404   4.032   4.412
   36CHL1  H27B 3843   0.397   4.184   4.317
   36CHL1  H27C 3844   0.438   4.194   4.485
   37CHL1    C3 3845   0.467   0.545   5.878
   37CHL1    H3 3846   0.389   0.588   5.811
   37CHL1    O3 3847   0.432   0.570   6.011
   37CHL1   H3' 3848   0.487   0.522   6.074
   37CHL1    C4 3849   0.494   0.395   5.852
   37CHL1   H4A 3850   0.589   0.371   5.904
   37CHL1   H4B 3851   0.405   0.342   5.890
   37CHL1    C5 3852   0.526   0.381   5.705
   37CHL1    C6 3853   0.443   0.308   5.631
   37CHL1    H6 3854   0.359   0.262   5.684
   37CHL1    C7 3855   0.464   0.288   5.482
   37CHL1   H7A 3856   0.441   0.183   5.451
   37CHL1   H7B 3857   0.389   0.353   5.431
   37CHL1    C8 3858   0.598   0.337   5.428
   37CHL1    H8 3859   0.681   0.267   5.454
   37CHL1   C14 3860   0.591   0.350   5.279
   37CHL1   H14 3861   0.506   0.419   5.263
   37CHL1   C15 3862   0.541   0.232   5.196
   37CHL1  H15A 3863   0.612   0.147   5.202
   37CHL1  H15B 3864   0.435   0.206   5.219
   37CHL1   C16 3865   0.563   0.282   5.051
   37CHL1  H16A 3866   0.608   0.204   4.985
   37CHL1  H16B 3867   0.457   0.290   5.018
   37CHL1   C17 3868   0.650   0.408   5.058
   37CHL1   H17 3869   0.575   0.490   5.051
   37CHL1   C13 3870   0.709   0.418   5.203
   37CHL1   C18 3871   0.832   0.321   5.221
   37CHL1  H18A 3872   0.863   0.310   5.327
   37CHL1  H18B 3873   0.817   0.224   5.170
   37CHL1  H18C 3874   0.919   0.367   5.169
   37CHL1   C12 3875   0.730   0.553   5.265
   37CHL1  H12A 3876   0.816   0.602   5.213
   37CHL1  H12B 3877   0.642   0.619   5.248
   37CHL1   C11 3878   0.754   0.544   5.419
   37CHL1  H11A 3879   0.847   0.488   5.441
   37CHL1  H11B 3880   0.769   0.647   5.457
   37CHL1    C9 3881   0.631   0.473   5.494
   37CHL1    H9 3882   0.546   0.540   5.474
   37CHL1   C10 3883   0.643   0.468   5.648
   37CHL1   C19 3884   0.773   0.403   5.687
   37CHL1  H19A 3885   0.781   0.384   5.796
   37CHL1  H19B 3886   0.794   0.310   5.632
   37CHL1  H19C 3887   0.854   0.472   5.653
   37CHL1    C1 3888   0.641   0.615   5.706
   37CHL1   H1A 3889   0.742   0.657   5.685
   37CHL1   H1B 3890   0.574   0.679   5.644
   37CHL1    C2 3891   0.598   0.619   5.851
   37CHL1   H2A 3892   0.600   0.725   5.884
   37CHL1   H2B 3893   0.683   0.573   5.907
   37CHL1   C20 3894   0.740   0.419   4.931
   37CHL1   H20 3895   0.782   0.316   4.930
   37CHL1   C21 3896   0.845   0.531   4.958
   37CHL1  H21A 3897   0.897   0.548   4.862
   37CHL1  H21B 3898   0.922   0.506   5.035
   37CHL1  H21C 3899   0.787   0.624   4.978
   37CHL1   C22 3900   0.656   0.451   4.801
   37CHL1  H22A 3901   0.557   0.402   4.811
   37CHL1  H22B 3902   0.643   0.562   4.803
   37CHL1   C23 3903   0.725   0.407   4.671
   37CHL1  H23A 3904   0.664   0.457   4.593
   37CHL1  H23B 3905   0.831   0.440   4.677
   37CHL1   C24 3906   0.707   0.256   4.652
   37CHL1  H24A 3907   0.728   0.200   4.746
   37CHL1  H24B 3908   0.604   0.233   4.619
   37CHL1   C25 3909   0.802   0.207   4.539
   37CHL1   H25 3910   0.904   0.188   4.578
   37CHL1   C26 3911   0.743   0.072   4.485
   37CHL1  H26A 3912   0.798   0.036   4.395
   37CHL1  H26B 3913   0.734   0.003   4.572
   37CHL1  H26C 3914   0.640   0.083   4.444
   37CHL1   C27 3915   0.829   0.299   4.421
   37CHL1  H27A 3916   0.735   0.338   4.375
   37CHL1  H27B 3917   0.887   0.387   4.457
   37CHL1  H27C 3918   0.885   0.245   4.342
   38CHL1    C3 3919   1.613   1.166   5.993
   38CHL1    H3 3920   1.724   1.157   6.001
   38CHL1    O3 3921   1.548   1.163   6.121
   38CHL1   H3' 3922   1.467   1.116   6.103
   38CHL1    C4 3923   1.576   1.287   5.908
   38CHL1   H4A 3924   1.465   1.292   5.913
   38CHL1   H4B 3925   1.616   1.373   5.966
   38CHL1    C5 3926   1.640   1.276   5.766
   38CHL1    C6 3927   1.718   1.379   5.711
   38CHL1    H6 3928   1.747   1.465   5.773
   38CHL1    C7 3929   1.764   1.380   5.567
   38CHL1   H7A 3930   1.749   1.478   5.518
   38CHL1   H7B 3931   1.874   1.361   5.555
   38CHL1    C8 3932   1.685   1.271   5.480
   38CHL1    H8 3933   1.586   1.322   5.473
   38CHL1   C14 3934   1.753   1.253   5.347
   38CHL1   H14 3935   1.849   1.202   5.369
   38CHL1   C15 3936   1.783   1.381   5.262
   38CHL1  H15A 3937   1.700   1.455   5.264
   38CHL1  H15B 3938   1.857   1.442   5.319
   38CHL1   C16 3939   1.829   1.322   5.131
   38CHL1  H16A 3940   1.766   1.368   5.052
   38CHL1  H16B 3941   1.936   1.339   5.106
   38CHL1   C17 3942   1.796   1.165   5.134
   38CHL1   H17 3943   1.887   1.113   5.171
   38CHL1   C13 3944   1.697   1.149   5.250
   38CHL1   C18 3945   1.556   1.197   5.201
   38CHL1  H18A 3946   1.516   1.151   5.108
   38CHL1  H18B 3947   1.486   1.177   5.285
   38CHL1  H18C 3948   1.562   1.306   5.179
   38CHL1   C12 3949   1.701   1.013   5.325
   38CHL1  H12A 3950   1.651   0.932   5.268
   38CHL1  H12B 3951   1.804   0.980   5.351
   38CHL1   C11 3952   1.625   1.024   5.459
   38CHL1  H11A 3953   1.516   1.034   5.438
   38CHL1  H11B 3954   1.628   0.922   5.503
   38CHL1    C9 3955   1.677   1.136   5.549
   38CHL1    H9 3956   1.779   1.100   5.572
   38CHL1   C10 3957   1.604   1.147   5.685
   38CHL1   C19 3958   1.447   1.136   5.664
   38CHL1  H19A 3959   1.407   1.183   5.756
   38CHL1  H19B 3960   1.426   1.192   5.571
   38CHL1  H19C 3961   1.410   1.033   5.644
   38CHL1    C1 3962   1.634   1.029   5.777
   38CHL1   H1A 3963   1.605   0.930   5.736
   38CHL1   H1B 3964   1.744   1.037   5.786
   38CHL1    C2 3965   1.585   1.027   5.917
   38CHL1   H2A 3966   1.636   0.949   5.977
   38CHL1   H2B 3967   1.477   1.000   5.915
   38CHL1   C20 3968   1.761   1.106   4.998
   38CHL1   H20 3969   1.674   1.159   4.954
   38CHL1   C21 3970   1.711   0.958   4.998
   38CHL1  H21A 3971   1.691   0.917   4.896
   38CHL1  H21B 3972   1.617   0.956   5.058
   38CHL1  H21C 3973   1.788   0.892   5.043
   38CHL1   C22 3974   1.884   1.109   4.901
   38CHL1  H22A 3975   1.900   1.219   4.891
   38CHL1  H22B 3976   1.975   1.082   4.959
   38CHL1   C23 3977   1.875   1.045   4.766
   38CHL1  H23A 3978   1.881   0.936   4.785
   38CHL1  H23B 3979   1.782   1.075   4.714
   38CHL1   C24 3980   2.005   1.076   4.689
   38CHL1  H24A 3981   2.007   1.182   4.653
   38CHL1  H24B 3982   2.085   1.066   4.765
   38CHL1   C25 3983   2.024   0.985   4.565
   38CHL1   H25 3984   1.994   0.886   4.605
   38CHL1   C26 3985   1.927   1.027   4.450
   38CHL1  H26A 3986   1.928   0.961   4.361
   38CHL1  H26B 3987   1.828   1.026   4.502
   38CHL1  H26C 3988   1.954   1.125   4.406
   38CHL1   C27 3989   2.160   0.993   4.507
   38CHL1  H27A 3990   2.173   0.937   4.412
   38CHL1  H27B 3991   2.210   1.090   4.485
   38CHL1  H27C 3992   2.228   0.945   4.580
   39CHL1    C3 3993   3.396   1.857   6.130
   39CHL1    H3 3994   3.495   1.904   6.144
   39CHL1    O3 3995   3.318   1.857   6.249
   39CHL1   H3' 3996   3.234   1.824   6.216
   39CHL1    C4 3997   3.325   1.944   6.020
   39CHL1   H4A 3998   3.222   1.903   6.020
   39CHL1   H4B 3999   3.303   2.046   6.057
   39CHL1    C5 4000   3.386   1.934   5.882
   39CHL1    C6 4001   3.422   2.055   5.817
   39CHL1    H6 4002   3.409   2.152   5.867
   39CHL1    C7 4003   3.502   2.064   5.694
   39CHL1   H7A 4004   3.468   2.149   5.630
   39CHL1   H7B 4005   3.604   2.085   5.732
   39CHL1    C8 4006   3.496   1.925   5.625
   39CHL1    H8 4007   3.390   1.912   5.592
   39CHL1   C14 4008   3.596   1.926   5.506
   39CHL1   H14 4009   3.697   1.938   5.550
   39CHL1   C15 4010   3.594   2.045   5.407
   39CHL1  H15A 4011   3.490   2.064   5.372
   39CHL1  H15B 4012   3.632   2.139   5.452
   39CHL1   C16 4013   3.681   1.994   5.285
   39CHL1  H16A 4014   3.625   2.021   5.193
   39CHL1  H16B 4015   3.771   2.058   5.280
   39CHL1   C17 4016   3.706   1.845   5.313
   39CHL1   H17 4017   3.799   1.827   5.371
   39CHL1   C13 4018   3.607   1.801   5.422
   39CHL1   C18 4019   3.479   1.776   5.354
   39CHL1  H18A 4020   3.498   1.672   5.320
   39CHL1  H18B 4021   3.389   1.783   5.418
   39CHL1  H18C 4022   3.473   1.834   5.260
   39CHL1   C12 4023   3.642   1.686   5.517
   39CHL1  H12A 4024   3.655   1.591   5.461
   39CHL1  H12B 4025   3.744   1.706   5.557
   39CHL1   C11 4026   3.541   1.673   5.630
   39CHL1  H11A 4027   3.444   1.648   5.581
   39CHL1  H11B 4028   3.573   1.590   5.697
   39CHL1    C9 4029   3.526   1.809   5.713
   39CHL1    H9 4030   3.626   1.834   5.755
   39CHL1   C10 4031   3.420   1.801   5.832
   39CHL1   C19 4032   3.302   1.715   5.778
   39CHL1  H19A 4033   3.273   1.760   5.681
   39CHL1  H19B 4034   3.318   1.607   5.758
   39CHL1  H19C 4035   3.214   1.722   5.845
   39CHL1    C1 4036   3.484   1.719   5.944
   39CHL1   H1A 4037   3.498   1.613   5.912
   39CHL1   H1B 4038   3.585   1.762   5.959
   39CHL1    C2 4039   3.421   1.714   6.081
   39CHL1   H2A 4040   3.486   1.654   6.148
   39CHL1   H2B 4041   3.329   1.654   6.066
   39CHL1   C20 4042   3.717   1.766   5.182
   39CHL1   H20 4043   3.618   1.765   5.130
   39CHL1   C21 4044   3.752   1.623   5.222
   39CHL1  H21A 4045   3.822   1.591   5.141
   39CHL1  H21B 4046   3.662   1.560   5.238
   39CHL1  H21C 4047   3.816   1.618   5.312
   39CHL1   C22 4048   3.810   1.831   5.075
   39CHL1  H22A 4049   3.803   1.942   5.071
   39CHL1  H22B 4050   3.917   1.808   5.088
   39CHL1   C23 4051   3.772   1.784   4.932
   39CHL1  H23A 4052   3.776   1.673   4.940
   39CHL1  H23B 4053   3.664   1.810   4.929
   39CHL1   C24 4054   3.862   1.841   4.834
   39CHL1  H24A 4055   3.870   1.950   4.855
   39CHL1  H24B 4056   3.958   1.793   4.863
   39CHL1   C25 4057   3.819   1.806   4.687
   39CHL1   H25 4058   3.885   1.871   4.624
   39CHL1   C26 4059   3.839   1.658   4.655
   39CHL1  H26A 4060   3.788   1.599   4.734
   39CHL1  H26B 4061   3.795   1.625   4.558
   39CHL1  H26C 4062   3.950   1.656   4.658
   39CHL1   C27 4063   3.671   1.847   4.664
   39CHL1  H27A 4064   3.643   1.846   4.556
   39CHL1  H27B 4065   3.603   1.780   4.722
   39CHL1  H27C 4066   3.639   1.945   4.704
   40CHL1    C3 4067   3.783   4.487   5.521
   40CHL1    H3 4068   3.676   4.463   5.500
   40CHL1    O3 4069   3.810   4.463   5.654
   40CHL1   H3' 4070   3.781   4.540   5.703
   40CHL1    C4 4071   3.882   4.411   5.432
   40CHL1   H4A 4072   3.981   4.424   5.481
   40CHL1   H4B 4073   3.842   4.308   5.449
   40CHL1    C5 4074   3.875   4.448   5.286
   40CHL1    C6 4075   3.862   4.359   5.185
   40CHL1    H6 4076   3.863   4.252   5.213
   40CHL1    C7 4077   3.862   4.392   5.039
   40CHL1   H7A 4078   3.943   4.343   4.983
   40CHL1   H7B 4079   3.774   4.355   4.981
   40CHL1    C8 4080   3.889   4.542   5.013
   40CHL1    H8 4081   3.997   4.562   5.023
   40CHL1   C14 4082   3.839   4.574   4.868
   40CHL1   H14 4083   3.729   4.560   4.870
   40CHL1   C15 4084   3.872   4.479   4.758
   40CHL1  H15A 4085   3.979   4.452   4.748
   40CHL1  H15B 4086   3.818   4.382   4.768
   40CHL1   C16 4087   3.833   4.563   4.635
   40CHL1  H16A 4088   3.916   4.555   4.561
   40CHL1  H16B 4089   3.741   4.519   4.591
   40CHL1   C17 4090   3.797   4.707   4.685
   40CHL1   H17 4091   3.687   4.710   4.698
   40CHL1   C13 4092   3.854   4.718   4.829
   40CHL1   C18 4093   4.005   4.758   4.812
   40CHL1  H18A 4094   4.061   4.760   4.908
   40CHL1  H18B 4095   4.039   4.674   4.748
   40CHL1  H18C 4096   4.012   4.861   4.769
   40CHL1   C12 4097   3.780   4.806   4.932
   40CHL1  H12A 4098   3.790   4.916   4.916
   40CHL1  H12B 4099   3.670   4.787   4.924
   40CHL1   C11 4100   3.844   4.778   5.071
   40CHL1  H11A 4101   3.951   4.807   5.081
   40CHL1  H11B 4102   3.784   4.834   5.145
   40CHL1    C9 4103   3.825   4.631   5.113
   40CHL1    H9 4104   3.720   4.597   5.123
   40CHL1   C10 4105   3.871   4.600   5.263
   40CHL1   C19 4106   4.026   4.645   5.288
   40CHL1  H19A 4107   4.066   4.629   5.390
   40CHL1  H19B 4108   4.091   4.586   5.220
   40CHL1  H19C 4109   4.037   4.753   5.266
   40CHL1    C1 4110   3.784   4.679   5.361
   40CHL1   H1A 4111   3.811   4.787   5.356
   40CHL1   H1B 4112   3.681   4.668   5.321
   40CHL1    C2 4113   3.800   4.636   5.505
   40CHL1   H2A 4114   3.733   4.699   5.567
   40CHL1   H2B 4115   3.904   4.655   5.537
   40CHL1   C20 4116   3.829   4.816   4.581
   40CHL1   H20 4117   3.939   4.827   4.580
   40CHL1   C21 4118   3.759   4.943   4.626
   40CHL1  H21A 4119   3.662   4.911   4.670
   40CHL1  H21B 4120   3.753   5.012   4.540
   40CHL1  H21C 4121   3.803   5.004   4.708
   40CHL1   C22 4122   3.778   4.782   4.437
   40CHL1  H22A 4123   3.801   4.680   4.400
   40CHL1  H22B 4124   3.668   4.792   4.449
   40CHL1   C23 4125   3.833   4.876   4.330
   40CHL1  H23A 4126   3.830   4.979   4.373
   40CHL1  H23B 4127   3.939   4.859   4.304
   40CHL1   C24 4128   3.747   4.861   4.211
   40CHL1  H24A 4129   3.747   4.752   4.189
   40CHL1  H24B 4130   3.644   4.898   4.229
   40CHL1   C25 4131   3.804   4.928   4.079
   40CHL1   H25 4132   3.907   4.888   4.071
   40CHL1   C26 4133   3.717   4.883   3.960
   40CHL1  H26A 4134   3.706   4.772   3.957
   40CHL1  H26B 4135   3.621   4.936   3.979
   40CHL1  H26C 4136   3.771   4.922   3.871
   40CHL1   C27 4137   3.817   5.078   4.090
   40CHL1  H27A 4138   3.878   5.107   4.178
   40CHL1  H27B 4139   3.860   5.127   4.001
   40CHL1  H27C 4140   3.713   5.116   4.090
   41CHL1    C3 4141   0.664   5.015   5.844
   41CHL1    H3 4142   0.772   5.040   5.835
   41CHL1    O3 4143   0.632   5.026   5.982
   41CHL1   H3' 4144   0.537   5.041   5.983
   41CHL1    C4 4145   0.597   5.131   5.765
   41CHL1   H4A 4146   0.487   5.136   5.778
   41CHL1   H4B 4147   0.646   5.223   5.804
   41CHL1    C5 4148   0.641   5.126   5.622
   41CHL1    C6 4149   0.705   5.227   5.555
   41CHL1    H6 4150   0.728   5.319   5.611
   41CHL1    C7 4151   0.737   5.225   5.412
   41CHL1   H7A 4152   0.702   5.318   5.362
   41CHL1   H7B 4153   0.843   5.199   5.391
   41CHL1    C8 4154   0.651   5.121   5.338
   41CHL1    H8 4155   0.545   5.149   5.353
   41CHL1   C14 4156   0.690   5.098   5.193
   41CHL1   H14 4157   0.793   5.057   5.195
   41CHL1   C15 4158   0.709   5.221   5.101
   41CHL1  H15A 4159   0.620   5.287   5.113
   41CHL1  H15B 4160   0.792   5.292   5.122
   41CHL1   C16 4161   0.726   5.169   4.959
   41CHL1  H16A 4162   0.653   5.212   4.887
   41CHL1  H16B 4163   0.827   5.188   4.916
   41CHL1   C17 4164   0.700   5.017   4.973
   41CHL1   H17 4165   0.795   4.965   4.997
   41CHL1   C13 4166   0.616   5.002   5.106
   41CHL1   C18 4167   0.473   5.040   5.077
   41CHL1  H18A 4168   0.421   4.965   5.013
   41CHL1  H18B 4169   0.420   5.032   5.174
   41CHL1  H18C 4170   0.458   5.138   5.027
   41CHL1   C12 4171   0.624   4.866   5.177
   41CHL1  H12A 4172   0.554   4.795   5.128
   41CHL1  H12B 4173   0.726   4.822   5.171
   41CHL1   C11 4174   0.582   4.872   5.324
   41CHL1  H11A 4175   0.476   4.905   5.324
   41CHL1  H11B 4176   0.583   4.771   5.372
   41CHL1    C9 4177   0.653   4.980   5.405
   41CHL1    H9 4178   0.759   4.951   5.416
   41CHL1   C10 4179   0.602   4.986   5.554
   41CHL1   C19 4180   0.445   4.982   5.553
   41CHL1  H19A 4181   0.397   5.068   5.502
   41CHL1  H19B 4182   0.411   4.883   5.514
   41CHL1  H19C 4183   0.411   4.998   5.658
   41CHL1    C1 4184   0.654   4.860   5.638
   41CHL1   H1A 4185   0.596   4.777   5.593
   41CHL1   H1B 4186   0.763   4.849   5.617
   41CHL1    C2 4187   0.622   4.883   5.788
   41CHL1   H2A 4188   0.678   4.801   5.837
   41CHL1   H2B 4189   0.517   4.853   5.810
   41CHL1   C20 4190   0.653   4.955   4.843
   41CHL1   H20 4191   0.551   4.992   4.823
   41CHL1   C21 4192   0.656   4.808   4.863
   41CHL1  H21A 4193   0.750   4.771   4.910
   41CHL1  H21B 4194   0.645   4.753   4.767
   41CHL1  H21C 4195   0.571   4.782   4.930
   41CHL1   C22 4196   0.728   4.991   4.709
   41CHL1  H22A 4197   0.712   5.100   4.691
   41CHL1  H22B 4198   0.837   4.972   4.714
   41CHL1   C23 4199   0.664   4.930   4.579
   41CHL1  H23A 4200   0.683   4.820   4.573
   41CHL1  H23B 4201   0.555   4.930   4.602
   41CHL1   C24 4202   0.709   5.010   4.457
   41CHL1  H24A 4203   0.634   5.091   4.444
   41CHL1  H24B 4204   0.817   5.034   4.467
   41CHL1   C25 4205   0.711   4.919   4.333
   41CHL1   H25 4206   0.773   4.829   4.351
   41CHL1   C26 4207   0.574   4.861   4.300
   41CHL1  H26A 4208   0.505   4.945   4.277
   41CHL1  H26B 4209   0.573   4.791   4.214
   41CHL1  H26C 4210   0.528   4.809   4.387
   41CHL1   C27 4211   0.788   4.984   4.213
   41CHL1  H27A 4212   0.891   5.005   4.249
   41CHL1  H27B 4213   0.800   4.908   4.134
   41CHL1  H27C 4214   0.737   5.077   4.181
   42CHL1    C3 4215   5.531   3.930   5.964
   42CHL1    H3 4216   5.427   3.964   5.946
   42CHL1    O3 4217   5.545   3.962   6.099
   42CHL1   H3' 4218   5.624   3.910   6.116
   42CHL1    C4 4219   5.533   3.790   5.922
   42CHL1   H4A 4220   5.628   3.742   5.953
   42CHL1   H4B 4221   5.452   3.741   5.980
   42CHL1    C5 4222   5.529   3.766   5.773
   42CHL1    C6 4223   5.449   3.686   5.703
   42CHL1    H6 4224   5.377   3.626   5.761
   42CHL1    C7 4225   5.456   3.652   5.562
   42CHL1   H7A 4226   5.451   3.542   5.547
   42CHL1   H7B 4227   5.366   3.693   5.512
   42CHL1    C8 4228   5.581   3.704   5.483
   42CHL1    H8 4229   5.658   3.629   5.508
   42CHL1   C14 4230   5.559   3.710   5.335
   42CHL1   H14 4231   5.474   3.780   5.316
   42CHL1   C15 4232   5.514   3.584   5.255
   42CHL1  H15A 4233   5.582   3.503   5.288
   42CHL1  H15B 4234   5.407   3.563   5.277
   42CHL1   C16 4235   5.538   3.626   5.109
   42CHL1  H16A 4236   5.594   3.549   5.053
   42CHL1  H16B 4237   5.437   3.640   5.064
   42CHL1   C17 4238   5.616   3.760   5.113
   42CHL1   H17 4239   5.558   3.853   5.096
   42CHL1   C13 4240   5.673   3.770   5.260
   42CHL1   C18 4241   5.793   3.677   5.273
   42CHL1  H18A 4242   5.781   3.581   5.217
   42CHL1  H18B 4243   5.883   3.727   5.232
   42CHL1  H18C 4244   5.823   3.660   5.379
   42CHL1   C12 4245   5.693   3.916   5.313
   42CHL1  H12A 4246   5.782   3.961   5.264
   42CHL1  H12B 4247   5.601   3.973   5.287
   42CHL1   C11 4248   5.729   3.915   5.456
   42CHL1  H11A 4249   5.830   3.881   5.483
   42CHL1  H11B 4250   5.742   4.022   5.483
   42CHL1    C9 4251   5.613   3.845   5.542
   42CHL1    H9 4252   5.523   3.907   5.525
   42CHL1   C10 4253   5.634   3.848   5.692
   42CHL1   C19 4254   5.780   3.793   5.717
   42CHL1  H19A 4255   5.790   3.691   5.675
   42CHL1  H19B 4256   5.854   3.867   5.678
   42CHL1  H19C 4257   5.792   3.791   5.827
   42CHL1    C1 4258   5.623   3.995   5.735
   42CHL1   H1A 4259   5.689   4.057   5.670
   42CHL1   H1B 4260   5.527   4.028   5.691
   42CHL1    C2 4261   5.635   4.015   5.887
   42CHL1   H2A 4262   5.600   4.119   5.907
   42CHL1   H2B 4263   5.736   3.996   5.928
   42CHL1   C20 4264   5.715   3.764   4.996
   42CHL1   H20 4265   5.790   3.682   4.998
   42CHL1   C21 4266   5.800   3.897   5.004
   42CHL1  H21A 4267   5.847   3.915   4.905
   42CHL1  H21B 4268   5.877   3.902   5.084
   42CHL1  H21C 4269   5.748   3.994   5.015
   42CHL1   C22 4270   5.647   3.748   4.856
   42CHL1  H22A 4271   5.730   3.745   4.782
   42CHL1  H22B 4272   5.609   3.644   4.858
   42CHL1   C23 4273   5.541   3.850   4.826
   42CHL1  H23A 4274   5.452   3.820   4.885
   42CHL1  H23B 4275   5.571   3.949   4.868
   42CHL1   C24 4276   5.493   3.852   4.678
   42CHL1  H24A 4277   5.580   3.866   4.611
   42CHL1  H24B 4278   5.465   3.746   4.654
   42CHL1   C25 4279   5.381   3.951   4.652
   42CHL1   H25 4280   5.393   4.044   4.711
   42CHL1   C26 4281   5.390   3.986   4.504
   42CHL1  H26A 4282   5.400   3.887   4.454
   42CHL1  H26B 4283   5.297   4.029   4.462
   42CHL1  H26C 4284   5.482   4.048   4.495
   42CHL1   C27 4285   5.248   3.893   4.685
   42CHL1  H27A 4286   5.166   3.957   4.646
   42CHL1  H27B 4287   5.234   3.789   4.647
   42CHL1  H27C 4288   5.244   3.881   4.795
   43CHL1    C3 4289   6.615   2.399   6.099
   43CHL1    H3 4290   6.520   2.447   6.068
   43CHL1    O3 4291   6.650   2.447   6.225
   43CHL1   H3' 4292   6.743   2.427   6.236
   43CHL1    C4 4293   6.592   2.246   6.110
   43CHL1   H4A 4294   6.694   2.211   6.137
   43CHL1   H4B 4295   6.515   2.227   6.188
   43CHL1    C5 4296   6.558   2.187   5.976
   43CHL1    C6 4297   6.444   2.115   5.958
   43CHL1    H6 4298   6.379   2.098   6.045
   43CHL1    C7 4299   6.408   2.057   5.823
   43CHL1   H7A 4300   6.380   1.951   5.838
   43CHL1   H7B 4301   6.331   2.118   5.772
   43CHL1    C8 4302   6.521   2.046   5.721
   43CHL1    H8 4303   6.589   1.964   5.752
   43CHL1   C14 4304   6.469   2.018   5.589
   43CHL1   H14 4305   6.389   2.096   5.580
   43CHL1   C15 4306   6.377   1.886   5.560
   43CHL1  H15A 4307   6.419   1.798   5.614
   43CHL1  H15B 4308   6.272   1.902   5.593
   43CHL1   C16 4309   6.386   1.857   5.410
   43CHL1  H16A 4310   6.434   1.759   5.393
   43CHL1  H16B 4311   6.286   1.865   5.363
   43CHL1   C17 4312   6.473   1.977   5.353
   43CHL1   H17 4313   6.413   2.068   5.335
   43CHL1   C13 4314   6.567   2.022   5.468
   43CHL1   C18 4315   6.679   1.917   5.483
   43CHL1  H18A 4316   6.732   1.940   5.578
   43CHL1  H18B 4317   6.634   1.817   5.505
   43CHL1  H18C 4318   6.747   1.918   5.396
   43CHL1   C12 4319   6.621   2.163   5.459
   43CHL1  H12A 4320   6.695   2.181   5.378
   43CHL1  H12B 4321   6.538   2.232   5.436
   43CHL1   C11 4322   6.689   2.200   5.597
   43CHL1  H11A 4323   6.771   2.127   5.617
   43CHL1  H11B 4324   6.730   2.303   5.586
   43CHL1    C9 4325   6.589   2.186   5.718
   43CHL1    H9 4326   6.510   2.258   5.692
   43CHL1   C10 4327   6.654   2.230   5.858
   43CHL1   C19 4328   6.776   2.142   5.879
   43CHL1  H19A 4329   6.751   2.034   5.880
   43CHL1  H19B 4330   6.855   2.168   5.805
   43CHL1  H19C 4331   6.823   2.169   5.975
   43CHL1    C1 4332   6.686   2.376   5.861
   43CHL1   H1A 4333   6.781   2.401   5.808
   43CHL1   H1B 4334   6.603   2.442   5.827
   43CHL1    C2 4335   6.731   2.425   6.005
   43CHL1   H2A 4336   6.771   2.528   5.995
   43CHL1   H2B 4337   6.822   2.368   6.035
   43CHL1   C20 4338   6.535   1.930   5.218
   43CHL1   H20 4339   6.595   1.837   5.220
   43CHL1   C21 4340   6.642   2.035   5.161
   43CHL1  H21A 4341   6.738   2.052   5.214
   43CHL1  H21B 4342   6.596   2.136   5.160
   43CHL1  H21C 4343   6.675   1.991   5.064
   43CHL1   C22 4344   6.422   1.914   5.106
   43CHL1  H22A 4345   6.323   1.889   5.149
   43CHL1  H22B 4346   6.412   2.007   5.045
   43CHL1   C23 4347   6.459   1.799   5.008
   43CHL1  H23A 4348   6.563   1.811   4.972
   43CHL1  H23B 4349   6.461   1.703   5.064
   43CHL1   C24 4350   6.367   1.767   4.885
   43CHL1  H24A 4351   6.278   1.709   4.917
   43CHL1  H24B 4352   6.337   1.861   4.835
   43CHL1   C25 4353   6.435   1.676   4.783
   43CHL1   H25 4354   6.536   1.711   4.752
   43CHL1   C26 4355   6.463   1.535   4.838
   43CHL1  H26A 4356   6.518   1.539   4.935
   43CHL1  H26B 4357   6.368   1.482   4.862
   43CHL1  H26C 4358   6.515   1.461   4.774
   43CHL1   C27 4359   6.362   1.675   4.656
   43CHL1  H27A 4360   6.351   1.781   4.624
   43CHL1  H27B 4361   6.398   1.601   4.581
   43CHL1  H27C 4362   6.259   1.639   4.679
   44CHL1    C3 4363   0.029   3.326   5.902
   44CHL1    H3 4364   6.837   3.336   5.856
   44CHL1    O3 4365   0.005   3.301   6.040
   44CHL1   H3' 4366   0.086   3.288   6.089
   44CHL1    C4 4367   0.096   3.204   5.842
   44CHL1   H4A 4368   0.192   3.176   5.892
   44CHL1   H4B 4369   0.013   3.132   5.857
   44CHL1    C5 4370   0.127   3.209   5.698
   44CHL1    C6 4371   0.089   3.111   5.607
   44CHL1    H6 4372   0.040   3.020   5.644
   44CHL1    C7 4373   0.109   3.112   5.455
   44CHL1   H7A 4374   0.159   3.015   5.434
   44CHL1   H7B 4375   0.014   3.121   5.399
   44CHL1    C8 4376   0.200   3.225   5.410
   44CHL1    H8 4377   0.307   3.198   5.423
   44CHL1   C14 4378   0.179   3.261   5.261
   44CHL1   H14 4379   0.071   3.284   5.247
   44CHL1   C15 4380   0.194   3.142   5.165
   44CHL1  H15A 4381   0.278   3.078   5.200
   44CHL1  H15B 4382   0.106   3.076   5.151
   44CHL1   C16 4383   0.221   3.207   5.029
   44CHL1  H16A 4384   0.320   3.177   4.988
   44CHL1  H16B 4385   0.146   3.180   4.951
   44CHL1   C17 4386   0.230   3.360   5.051
   44CHL1   H17 4387   0.125   3.390   5.030
   44CHL1   C13 4388   0.269   3.373   5.201
   44CHL1   C18 4389   0.419   3.346   5.209
   44CHL1  H18A 4390   0.444   3.253   5.153
   44CHL1  H18B 4391   0.485   3.424   5.165
   44CHL1  H18C 4392   0.469   3.332   5.307
   44CHL1   C12 4393   0.231   3.496   5.280
   44CHL1  H12A 4394   0.297   3.583   5.257
   44CHL1  H12B 4395   0.130   3.541   5.266
   44CHL1   C11 4396   0.247   3.478   5.436
   44CHL1  H11A 4397   0.357   3.465   5.447
   44CHL1  H11B 4398   0.242   3.571   5.497
   44CHL1    C9 4399   0.175   3.354   5.497
   44CHL1    H9 4400   0.066   3.374   5.484
   44CHL1   C10 4401   0.187   3.340   5.647
   44CHL1   C19 4402   0.343   3.333   5.671
   44CHL1  H19A 4403   0.394   3.273   5.593
   44CHL1  H19B 4404   0.387   3.434   5.686
   44CHL1  H19C 4405   0.363   3.288   5.771
   44CHL1    C1 4406   0.123   3.463   5.717
   44CHL1   H1A 4407   0.186   3.553   5.697
   44CHL1   H1B 4408   0.025   3.493   5.674
   44CHL1    C2 4409   0.110   3.452   5.866
   44CHL1   H2A 4410   0.046   3.534   5.907
   44CHL1   H2B 4411   0.211   3.463   5.911
   44CHL1   C20 4412   0.313   3.423   4.941
   44CHL1   H20 4413   0.417   3.385   4.945
   44CHL1   C21 4414   0.326   3.580   4.958
   44CHL1  H21A 4415   0.303   3.630   4.861
   44CHL1  H21B 4416   0.425   3.611   4.996
   44CHL1  H21C 4417   0.263   3.614   5.043
   44CHL1   C22 4418   0.260   3.395   4.798
   44CHL1  H22A 4419   0.241   3.286   4.783
   44CHL1  H22B 4420   0.164   3.449   4.780
   44CHL1   C23 4421   0.362   3.431   4.692
   44CHL1  H23A 4422   0.294   3.428   4.604
   44CHL1  H23B 4423   0.417   3.525   4.714
   44CHL1   C24 4424   0.465   3.315   4.662
   44CHL1  H24A 4425   0.508   3.274   4.756
   44CHL1  H24B 4426   0.404   3.232   4.621
   44CHL1   C25 4427   0.575   3.371   4.573
   44CHL1   H25 4428   0.521   3.425   4.492
   44CHL1   C26 4429   0.668   3.476   4.644
   44CHL1  H26A 4430   0.706   3.433   4.739
   44CHL1  H26B 4431   0.754   3.510   4.583
   44CHL1  H26C 4432   0.613   3.569   4.669
   44CHL1   C27 4433   0.669   3.261   4.509
   44CHL1  H27A 4434   0.727   3.201   4.583
   44CHL1  H27B 4435   0.611   3.190   4.446
   44CHL1  H27C 4436   0.745   3.308   4.442
   45CHL1    C3 4437   6.869   4.860   6.310
   45CHL1    H3 4438   6.904   4.960   6.274
   45CHL1    O3 4439   6.889   4.857   6.454
   45CHL1   H3' 4440   0.072   4.834   6.467
   45CHL1    C4 4441   6.717   4.842   6.277
   45CHL1   H4A 4442   6.668   4.759   6.330
   45CHL1   H4B 4443   6.662   4.932   6.311
   45CHL1    C5 4444   6.683   4.824   6.125
   45CHL1    C6 4445   6.590   4.902   6.064
   45CHL1    H6 4446   6.544   4.975   6.132
   45CHL1    C7 4447   6.539   4.895   5.923
   45CHL1   H7A 4448   6.428   4.885   5.920
   45CHL1   H7B 4449   6.572   4.984   5.865
   45CHL1    C8 4450   6.593   4.774   5.856
   45CHL1    H8 4451   6.521   4.696   5.889
   45CHL1   C14 4452   6.592   4.789   5.708
   45CHL1   H14 4453   6.672   4.863   5.688
   45CHL1   C15 4454   6.466   4.849   5.642
   45CHL1  H15A 4455   6.377   4.807   5.693
   45CHL1  H15B 4456   6.469   4.957   5.667
   45CHL1   C16 4457   6.490   4.816   5.495
   45CHL1  H16A 4458   6.400   4.759   5.463
   45CHL1  H16B 4459   6.508   4.898   5.422
   45CHL1   C17 4460   6.603   4.717   5.478
   45CHL1   H17 4461   6.698   4.769   5.452
   45CHL1   C13 4462   6.619   4.662   5.625
   45CHL1   C18 4463   6.515   4.557   5.662
   45CHL1  H18A 4464   6.515   4.461   5.606
   45CHL1  H18B 4465   6.532   4.522   5.766
   45CHL1  H18C 4466   6.413   4.600   5.676
   45CHL1   C12 4467   6.756   4.610   5.668
   45CHL1  H12A 4468   6.776   4.512   5.619
   45CHL1  H12B 4469   6.831   4.685   5.636
   45CHL1   C11 4470   6.775   4.598   5.817
   45CHL1  H11A 4471   6.721   4.510   5.858
   45CHL1  H11B 4472   6.882   4.572   5.834
   45CHL1    C9 4473   6.735   4.723   5.898
   45CHL1    H9 4474   6.800   4.808   5.870
   45CHL1   C10 4475   6.765   4.712   6.055
   45CHL1   C19 4476   6.720   4.579   6.113
   45CHL1  H19A 4477   6.728   4.576   6.224
   45CHL1  H19B 4478   6.610   4.575   6.098
   45CHL1  H19C 4479   6.774   4.488   6.081
   45CHL1    C1 4480   0.003   4.746   6.093
   45CHL1   H1A 4481   0.078   4.675   6.052
   45CHL1   H1B 4482   0.033   4.842   6.046
   45CHL1    C2 4483   0.040   4.753   6.242
   45CHL1   H2A 4484   0.150   4.768   6.242
   45CHL1   H2B 4485   0.021   4.656   6.293
   45CHL1   C20 4486   6.566   4.614   5.368
   45CHL1   H20 4487   6.479   4.552   5.398
   45CHL1   C21 4488   6.689   4.524   5.349
   45CHL1  H21A 4489   6.777   4.590   5.338
   45CHL1  H21B 4490   6.681   4.447   5.269
   45CHL1  H21C 4491   6.697   4.465   5.443
   45CHL1   C22 4492   6.534   4.682   5.233
   45CHL1  H22A 4493   6.457   4.760   5.253
   45CHL1  H22B 4494   6.621   4.736   5.189
   45CHL1   C23 4495   6.472   4.591   5.115
   45CHL1  H23A 4496   6.553   4.519   5.090
   45CHL1  H23B 4497   6.384   4.535   5.155
   45CHL1   C24 4498   6.440   4.678   4.991
   45CHL1  H24A 4499   6.365   4.758   5.013
   45CHL1  H24B 4500   6.536   4.729   4.968
   45CHL1   C25 4501   6.375   4.604   4.870
   45CHL1   H25 4502   6.288   4.542   4.899
   45CHL1   C26 4503   6.318   4.711   4.770
   45CHL1  H26A 4504   6.244   4.776   4.822
   45CHL1  H26B 4505   6.397   4.777   4.728
   45CHL1  H26C 4506   6.276   4.646   4.690
   45CHL1   C27 4507   6.470   4.506   4.802
   45CHL1  H27A 4508   6.497   4.422   4.870
   45CHL1  H27B 4509   6.424   4.467   4.708
   45CHL1  H27C 4510   6.569   4.550   4.780
   46CHL1    C3 4511   2.071   6.118   5.802
   46CHL1    H3 4512   2.144   6.197   5.771
   46CHL1    O3 4513   2.020   6.135   5.937
   46CHL1   H3' 4514   1.991   6.053   5.978
   46CHL1    C4 4515   1.953   6.118   5.708
   46CHL1   H4A 4516   1.889   6.032   5.736
   46CHL1   H4B 4517   1.897   6.212   5.727
   46CHL1    C5 4518   2.012   6.109   5.565
   46CHL1    C6 4519   1.984   6.200   5.468
   46CHL1    H6 4520   1.926   6.286   5.504
   46CHL1    C7 4521   2.041   6.197   5.329
   46CHL1   H7A 4522   1.969   6.242   5.258
   46CHL1   H7B 4523   2.137   6.253   5.332
   46CHL1    C8 4524   2.089   6.056   5.292
   46CHL1    H8 4525   1.996   5.999   5.272
   46CHL1   C14 4526   2.171   6.056   5.159
   46CHL1   H14 4527   2.255   6.124   5.185
   46CHL1   C15 4528   2.116   6.130   5.042
   46CHL1  H15A 4529   2.015   6.090   5.020
   46CHL1  H15B 4530   2.118   6.240   5.052
   46CHL1   C16 4531   2.201   6.087   4.928
   46CHL1  H16A 4532   2.131   6.033   4.861
   46CHL1  H16B 4533   2.253   6.162   4.864
   46CHL1   C17 4534   2.289   5.964   4.975
   46CHL1   H17 4535   2.380   6.014   5.016
   46CHL1   C13 4536   2.223   5.920   5.105
   46CHL1   C18 4537   2.107   5.835   5.072
   46CHL1  H18A 4538   2.026   5.837   5.148
   46CHL1  H18B 4539   2.060   5.875   4.980
   46CHL1  H18C 4540   2.150   5.733   5.065
   46CHL1   C12 4541   2.318   5.862   5.218
   46CHL1  H12A 4542   2.357   5.758   5.210
   46CHL1  H12B 4543   2.399   5.937   5.224
   46CHL1   C11 4544   2.241   5.855   5.357
   46CHL1  H11A 4545   2.166   5.774   5.344
   46CHL1  H11B 4546   2.311   5.819   5.435
   46CHL1    C9 4547   2.171   5.989   5.400
   46CHL1    H9 4548   2.258   6.052   5.430
   46CHL1   C10 4549   2.096   5.978   5.539
   46CHL1   C19 4550   1.998   5.862   5.531
   46CHL1  H19A 4551   2.050   5.764   5.531
   46CHL1  H19B 4552   1.926   5.860   5.616
   46CHL1  H19C 4553   1.937   5.871   5.438
   46CHL1    C1 4554   2.198   5.946   5.656
   46CHL1   H1A 4555   2.232   5.841   5.651
   46CHL1   H1B 4556   2.282   6.016   5.639
   46CHL1    C2 4557   2.146   5.985   5.792
   46CHL1   H2A 4558   2.234   5.987   5.860
   46CHL1   H2B 4559   2.087   5.907   5.844
   46CHL1   C20 4560   2.322   5.860   4.862
   46CHL1   H20 4561   2.224   5.816   4.833
   46CHL1   C21 4562   2.428   5.765   4.926
   46CHL1  H21A 4563   2.377   5.699   5.000
   46CHL1  H21B 4564   2.507   5.817   4.984
   46CHL1  H21C 4565   2.473   5.693   4.854
   46CHL1   C22 4566   2.372   5.930   4.728
   46CHL1  H22A 4567   2.301   6.008   4.693
   46CHL1  H22B 4568   2.471   5.976   4.748
   46CHL1   C23 4569   2.393   5.830   4.611
   46CHL1  H23A 4570   2.454   5.744   4.646
   46CHL1  H23B 4571   2.300   5.784   4.569
   46CHL1   C24 4572   2.460   5.892   4.485
   46CHL1  H24A 4573   2.408   5.985   4.454
   46CHL1  H24B 4574   2.563   5.925   4.512
   46CHL1   C25 4575   2.471   5.786   4.371
   46CHL1   H25 4576   2.369   5.744   4.355
   46CHL1   C26 4577   2.498   5.856   4.246
   46CHL1  H26A 4578   2.456   5.959   4.236
   46CHL1  H26B 4579   2.607   5.863   4.230
   46CHL1  H26C 4580   2.458   5.802   4.157
   46CHL1   C27 4581   2.564   5.665   4.404
   46CHL1  H27A 4582   2.564   5.609   4.308
   46CHL1  H27B 4583   2.664   5.700   4.436
   46CHL1  H27C 4584   2.528   5.611   4.493
   47CHL1    C3 4585   4.295   5.207   5.990
   47CHL1    H3 4586   4.198   5.152   5.990
   47CHL1    O3 4587   4.325   5.236   6.124
   47CHL1   H3' 4588   4.353   5.328   6.122
   47CHL1    C4 4589   4.405   5.127   5.921
   47CHL1   H4A 4590   4.504   5.174   5.936
   47CHL1   H4B 4591   4.425   5.033   5.977
   47CHL1    C5 4592   4.372   5.096   5.781
   47CHL1    C6 4593   4.357   4.969   5.737
   47CHL1    H6 4594   4.361   4.891   5.814
   47CHL1    C7 4595   4.329   4.933   5.590
   47CHL1   H7A 4596   4.371   4.833   5.565
   47CHL1   H7B 4597   4.221   4.913   5.572
   47CHL1    C8 4598   4.368   5.041   5.495
   47CHL1    H8 4599   4.476   5.058   5.478
   47CHL1   C14 4600   4.313   5.018   5.356
   47CHL1   H14 4601   4.203   5.019   5.369
   47CHL1   C15 4602   4.341   4.889   5.279
   47CHL1  H15A 4603   4.451   4.875   5.282
   47CHL1  H15B 4604   4.290   4.805   5.330
   47CHL1   C16 4605   4.301   4.927   5.140
   47CHL1  H16A 4606   4.395   4.908   5.082
   47CHL1  H16B 4607   4.218   4.870   5.092
   47CHL1   C17 4608   4.281   5.077   5.135
   47CHL1   H17 4609   4.171   5.093   5.142
   47CHL1   C13 4610   4.342   5.138   5.262
   47CHL1   C18 4611   4.497   5.151   5.232
   47CHL1  H18A 4612   4.558   5.162   5.325
   47CHL1  H18B 4613   4.536   5.060   5.182
   47CHL1  H18C 4614   4.516   5.226   5.152
   47CHL1   C12 4615   4.284   5.274   5.307
   47CHL1  H12A 4616   4.327   5.346   5.234
   47CHL1  H12B 4617   4.173   5.272   5.300
   47CHL1   C11 4618   4.326   5.302   5.448
   47CHL1  H11A 4619   4.432   5.335   5.443
   47CHL1  H11B 4620   4.271   5.392   5.484
   47CHL1    C9 4621   4.306   5.178   5.539
   47CHL1    H9 4622   4.196   5.163   5.543
   47CHL1   C10 4623   4.349   5.220   5.687
   47CHL1   C19 4624   4.479   5.299   5.686
   47CHL1  H19A 4625   4.554   5.249   5.621
   47CHL1  H19B 4626   4.455   5.396   5.637
   47CHL1  H19C 4627   4.526   5.311   5.786
   47CHL1    C1 4628   4.239   5.295   5.757
   47CHL1   H1A 4629   4.226   5.396   5.710
   47CHL1   H1B 4630   4.144   5.239   5.747
   47CHL1    C2 4631   4.264   5.333   5.907
   47CHL1   H2A 4632   4.178   5.385   5.955
   47CHL1   H2B 4633   4.347   5.405   5.919
   47CHL1   C20 4634   4.312   5.130   4.993
   47CHL1   H20 4635   4.421   5.137   4.974
   47CHL1   C21 4636   4.256   5.278   4.981
   47CHL1  H21A 4637   4.154   5.282   5.024
   47CHL1  H21B 4638   4.253   5.326   4.881
   47CHL1  H21C 4639   4.333   5.345   5.025
   47CHL1   C22 4640   4.238   5.062   4.876
   47CHL1  H22A 4641   4.159   4.997   4.919
   47CHL1  H22B 4642   4.183   5.134   4.810
   47CHL1   C23 4643   4.335   4.994   4.780
   47CHL1  H23A 4644   4.416   5.066   4.755
   47CHL1  H23B 4645   4.388   4.912   4.833
   47CHL1   C24 4646   4.267   4.941   4.655
   47CHL1  H24A 4647   4.197   4.857   4.675
   47CHL1  H24B 4648   4.216   5.020   4.596
   47CHL1   C25 4649   4.376   4.879   4.556
   47CHL1   H25 4650   4.446   4.803   4.599
   47CHL1   C26 4651   4.315   4.800   4.442
   47CHL1  H26A 4652   4.394   4.764   4.372
   47CHL1  H26B 4653   4.256   4.709   4.465
   47CHL1  H26C 4654   4.253   4.864   4.375
   47CHL1   C27 4655   4.473   4.988   4.498
   47CHL1  H27A 4656   4.549   4.934   4.438
   47CHL1  H27B 4657   4.422   5.063   4.435
   47CHL1  H27C 4658   4.543   5.041   4.567
   48CHL1    C3 4659   0.956   6.308   5.854
   48CHL1    H3 4660   0.858   6.257   5.869
   48CHL1    O3 4661   1.006   6.341   5.985
   48CHL1   H3' 4662   0.994   6.257   6.030
   48CHL1    C4 4663   1.053   6.215   5.792
   48CHL1   H4A 4664   1.160   6.244   5.785
   48CHL1   H4B 4665   1.050   6.118   5.846
   48CHL1    C5 4666   1.000   6.190   5.650
   48CHL1    C6 4667   0.986   6.069   5.596
   48CHL1    H6 4668   1.014   5.985   5.662
   48CHL1    C7 4669   0.942   6.037   5.454
   48CHL1   H7A 4670   0.994   5.953   5.404
   48CHL1   H7B 4671   0.833   6.016   5.459
   48CHL1    C8 4672   0.940   6.162   5.359
   48CHL1    H8 4673   1.038   6.202   5.327
   48CHL1   C14 4674   0.857   6.121   5.239
   48CHL1   H14 4675   0.763   6.077   5.279
   48CHL1   C15 4676   0.922   6.017   5.149
   48CHL1  H15A 4677   1.029   6.039   5.129
   48CHL1  H15B 4678   0.892   5.929   5.210
   48CHL1   C16 4679   0.841   6.030   5.018
   48CHL1  H16A 4680   0.912   6.056   4.937
   48CHL1  H16B 4681   0.772   5.945   5.002
   48CHL1   C17 4682   0.745   6.149   5.049
   48CHL1   H17 4683   0.659   6.104   5.104
   48CHL1   C13 4684   0.815   6.235   5.148
   48CHL1   C18 4685   0.931   6.306   5.075
   48CHL1  H18A 4686   1.013   6.325   5.147
   48CHL1  H18B 4687   0.970   6.255   4.984
   48CHL1  H18C 4688   0.889   6.407   5.056
   48CHL1   C12 4689   0.736   6.340   5.232
   48CHL1  H12A 4690   0.692   6.427   5.180
   48CHL1  H12B 4691   0.653   6.286   5.284
   48CHL1   C11 4692   0.827   6.388   5.349
   48CHL1  H11A 4693   0.918   6.436   5.306
   48CHL1  H11B 4694   0.762   6.456   5.407
   48CHL1    C9 4695   0.877   6.274   5.439
   48CHL1    H9 4696   0.782   6.237   5.483
   48CHL1   C10 4697   0.960   6.310   5.565
   48CHL1   C19 4698   1.105   6.371   5.538
   48CHL1  H19A 4699   1.160   6.396   5.631
   48CHL1  H19B 4700   1.172   6.309   5.475
   48CHL1  H19C 4701   1.095   6.468   5.483
   48CHL1    C1 4702   0.876   6.407   5.651
   48CHL1   H1A 4703   0.871   6.498   5.587
   48CHL1   H1B 4704   0.773   6.374   5.674
   48CHL1    C2 4705   0.938   6.439   5.785
   48CHL1   H2A 4706   0.874   6.504   5.848
   48CHL1   H2B 4707   1.032   6.497   5.775
   48CHL1   C20 4708   0.675   6.216   4.926
   48CHL1   H20 4709   0.721   6.313   4.899
   48CHL1   C21 4710   0.527   6.232   4.954
   48CHL1  H21A 4711   0.484   6.282   4.865
   48CHL1  H21B 4712   0.470   6.139   4.976
   48CHL1  H21C 4713   0.506   6.306   5.034
   48CHL1   C22 4714   0.691   6.132   4.797
   48CHL1  H22A 4715   0.797   6.138   4.764
   48CHL1  H22B 4716   0.662   6.028   4.824
   48CHL1   C23 4717   0.612   6.168   4.672
   48CHL1  H23A 4718   0.505   6.142   4.688
   48CHL1  H23B 4719   0.601   6.278   4.663
   48CHL1   C24 4720   0.651   6.092   4.541
   48CHL1  H24A 4721   0.755   6.109   4.507
   48CHL1  H24B 4722   0.624   5.985   4.555
   48CHL1   C25 4723   0.556   6.146   4.436
   48CHL1   H25 4724   0.452   6.129   4.472
   48CHL1   C26 4725   0.580   6.297   4.408
   48CHL1  H26A 4726   0.681   6.316   4.366
   48CHL1  H26B 4727   0.502   6.322   4.333
   48CHL1  H26C 4728   0.547   6.367   4.489
   48CHL1   C27 4729   0.572   6.059   4.308
   48CHL1  H27A 4730   0.510   6.109   4.231
   48CHL1  H27B 4731   0.679   6.058   4.278
   48CHL1  H27C 4732   0.537   5.954   4.321
   49CHL1    C3 4733   4.049   4.384   2.329
   49CHL1    H3 4734   3.944   4.396   2.363
   49CHL1    O3 4735   4.053   4.375   2.188
   49CHL1   H3' 4736   4.144   4.398   2.166
   49CHL1    C4 4737   4.140   4.492   2.372
   49CHL1   H4A 4738   4.235   4.512   2.318
   49CHL1   H4B 4739   4.083   4.578   2.332
   49CHL1    C5 4740   4.160   4.490   2.525
   49CHL1    C6 4741   4.144   4.603   2.598
   49CHL1    H6 4742   4.109   4.699   2.556
   49CHL1    C7 4743   4.159   4.609   2.750
   49CHL1   H7A 4744   4.209   4.699   2.790
   49CHL1   H7B 4745   4.057   4.609   2.795
   49CHL1    C8 4746   4.226   4.490   2.809
   49CHL1    H8 4747   4.335   4.500   2.793
   49CHL1   C14 4748   4.197   4.486   2.960
   49CHL1   H14 4749   4.087   4.480   2.976
   49CHL1   C15 4750   4.237   4.611   3.037
   49CHL1  H15A 4751   4.341   4.637   3.009
   49CHL1  H15B 4752   4.172   4.699   3.020
   49CHL1   C16 4753   4.241   4.559   3.180
   49CHL1  H16A 4754   4.324   4.594   3.245
   49CHL1  H16B 4755   4.152   4.598   3.235
   49CHL1   C17 4756   4.223   4.400   3.178
   49CHL1   H17 4757   4.118   4.365   3.191
   49CHL1   C13 4758   4.266   4.368   3.038
   49CHL1   C18 4759   4.417   4.370   3.020
   49CHL1  H18A 4760   4.457   4.267   3.028
   49CHL1  H18B 4761   4.449   4.412   2.923
   49CHL1  H18C 4762   4.457   4.441   3.095
   49CHL1   C12 4763   4.205   4.236   2.977
   49CHL1  H12A 4764   4.242   4.135   3.007
   49CHL1  H12B 4765   4.097   4.229   2.999
   49CHL1   C11 4766   4.219   4.236   2.821
   49CHL1  H11A 4767   4.326   4.208   2.808
   49CHL1  H11B 4768   4.162   4.150   2.780
   49CHL1    C9 4769   4.172   4.361   2.747
   49CHL1    H9 4770   4.062   4.356   2.760
   49CHL1   C10 4771   4.195   4.361   2.592
   49CHL1   C19 4772   4.341   4.323   2.556
   49CHL1  H19A 4773   4.405   4.398   2.609
   49CHL1  H19B 4774   4.370   4.225   2.599
   49CHL1  H19C 4775   4.370   4.324   2.449
   49CHL1    C1 4776   4.098   4.250   2.537
   49CHL1   H1A 4777   4.133   4.150   2.568
   49CHL1   H1B 4778   3.993   4.265   2.570
   49CHL1    C2 4779   4.103   4.249   2.381
   49CHL1   H2A 4780   4.048   4.169   2.328
   49CHL1   H2B 4781   4.205   4.224   2.345
   49CHL1   C20 4782   4.305   4.337   3.289
   49CHL1   H20 4783   4.408   4.378   3.297
   49CHL1   C21 4784   4.313   4.183   3.280
   49CHL1  H21A 4785   4.372   4.152   3.191
   49CHL1  H21B 4786   4.209   4.144   3.271
   49CHL1  H21C 4787   4.359   4.131   3.366
   49CHL1   C22 4788   4.244   4.364   3.431
   49CHL1  H22A 4789   4.310   4.321   3.510
   49CHL1  H22B 4790   4.249   4.473   3.455
   49CHL1   C23 4791   4.092   4.335   3.456
   49CHL1  H23A 4792   4.022   4.394   3.394
   49CHL1  H23B 4793   4.083   4.224   3.448
   49CHL1   C24 4794   4.054   4.361   3.603
   49CHL1  H24A 4795   4.128   4.305   3.664
   49CHL1  H24B 4796   4.064   4.468   3.628
   49CHL1   C25 4797   3.915   4.297   3.647
   49CHL1   H25 4798   3.904   4.196   3.602
   49CHL1   C26 4799   3.909   4.288   3.803
   49CHL1  H26A 4800   3.998   4.236   3.844
   49CHL1  H26B 4801   3.915   4.392   3.842
   49CHL1  H26C 4802   3.822   4.229   3.838
   49CHL1   C27 4803   3.806   4.388   3.593
   49CHL1  H27A 4804   3.805   4.406   3.483
   49CHL1  H27B 4805   3.711   4.337   3.623
   49CHL1  H27C 4806   3.820   4.485   3.645
   50CHL1    C3 4807   4.265   1.956   2.819
   50CHL1    H3 4808   4.279   1.849   2.845
   50CHL1    O3 4809   4.287   1.998   2.684
   50CHL1   H3' 4810   4.214   1.959   2.636
   50CHL1    C4 4811   4.110   1.965   2.831
   50CHL1   H4A 4812   4.092   2.072   2.807
   50CHL1   H4B 4813   4.059   1.905   2.752
   50CHL1    C5 4814   4.058   1.935   2.973
   50CHL1    C6 4815   3.958   1.851   2.985
   50CHL1    H6 4816   3.920   1.796   2.898
   50CHL1    C7 4817   3.899   1.815   3.116
   50CHL1   H7A 4818   3.789   1.811   3.102
   50CHL1   H7B 4819   3.939   1.713   3.136
   50CHL1    C8 4820   3.945   1.909   3.232
   50CHL1    H8 4821   3.894   2.008   3.232
   50CHL1   C14 4822   3.910   1.839   3.364
   50CHL1   H14 4823   3.958   1.740   3.360
   50CHL1   C15 4824   3.767   1.807   3.397
   50CHL1  H15A 4825   3.711   1.902   3.382
   50CHL1  H15B 4826   3.728   1.725   3.333
   50CHL1   C16 4827   3.775   1.759   3.541
   50CHL1  H16A 4828   3.700   1.820   3.597
   50CHL1  H16B 4829   3.753   1.651   3.550
   50CHL1   C17 4830   3.914   1.798   3.597
   50CHL1   H17 4831   3.969   1.703   3.578
   50CHL1   C13 4832   3.967   1.902   3.496
   50CHL1   C18 4833   3.896   2.029   3.525
   50CHL1  H18A 4834   3.942   2.084   3.610
   50CHL1  H18B 4835   3.906   2.100   3.441
   50CHL1  H18C 4836   3.788   2.026   3.551
   50CHL1   C12 4837   4.120   1.925   3.486
   50CHL1  H12A 4838   4.150   1.988   3.572
   50CHL1  H12B 4839   4.186   1.835   3.489
   50CHL1   C11 4840   4.158   2.002   3.356
   50CHL1  H11A 4841   4.123   2.104   3.384
   50CHL1  H11B 4842   4.267   2.001   3.340
   50CHL1    C9 4843   4.094   1.939   3.227
   50CHL1    H9 4844   4.141   1.838   3.223
   50CHL1   C10 4845   4.121   2.009   3.087
   50CHL1   C19 4846   4.076   2.156   3.087
   50CHL1  H19A 4847   3.970   2.167   3.120
   50CHL1  H19B 4848   4.133   2.206   3.167
   50CHL1  H19C 4849   4.093   2.207   2.989
   50CHL1    C1 4850   4.280   2.006   3.068
   50CHL1   H1A 4851   4.324   2.078   3.140
   50CHL1   H1B 4852   4.328   1.912   3.105
   50CHL1    C2 4853   4.330   2.052   2.926
   50CHL1   H2A 4854   4.441   2.055   2.929
   50CHL1   H2B 4855   4.290   2.154   2.912
   50CHL1   C20 4856   3.918   1.820   3.747
   50CHL1   H20 4857   3.847   1.901   3.775
   50CHL1   C21 4858   4.052   1.873   3.798
   50CHL1  H21A 4859   4.080   1.973   3.759
   50CHL1  H21B 4860   4.128   1.794   3.779
   50CHL1  H21C 4861   4.057   1.884   3.908
   50CHL1   C22 4862   3.870   1.693   3.822
   50CHL1  H22A 4863   3.766   1.675   3.789
   50CHL1  H22B 4864   3.932   1.606   3.792
   50CHL1   C23 4865   3.864   1.701   3.976
   50CHL1  H23A 4866   3.830   1.600   4.009
   50CHL1  H23B 4867   3.968   1.717   4.012
   50CHL1   C24 4868   3.778   1.807   4.038
   50CHL1  H24A 4869   3.790   1.901   3.978
   50CHL1  H24B 4870   3.669   1.786   4.027
   50CHL1   C25 4871   3.823   1.846   4.179
   50CHL1   H25 4872   3.922   1.897   4.172
   50CHL1   C26 4873   3.717   1.956   4.232
   50CHL1  H26A 4874   3.722   2.052   4.176
   50CHL1  H26B 4875   3.617   1.908   4.221
   50CHL1  H26C 4876   3.739   1.996   4.334
   50CHL1   C27 4877   3.822   1.721   4.273
   50CHL1  H27A 4878   3.719   1.681   4.275
   50CHL1  H27B 4879   3.891   1.642   4.235
   50CHL1  H27C 4880   3.843   1.746   4.379
   51CHL1    C3 4881   3.816   2.922   2.812
   51CHL1    H3 4882   3.850   2.819   2.789
   51CHL1    O3 4883   3.753   2.980   2.694
   51CHL1   H3' 4884   3.666   2.940   2.691
   51CHL1    C4 4885   3.713   2.913   2.918
   51CHL1   H4A 4886   3.668   3.013   2.933
   51CHL1   H4B 4887   3.630   2.849   2.881
   51CHL1    C5 4888   3.762   2.871   3.052
   51CHL1    C6 4889   3.702   2.771   3.126
   51CHL1    H6 4890   3.627   2.706   3.079
   51CHL1    C7 4891   3.727   2.744   3.269
   51CHL1   H7A 4892   3.626   2.735   3.316
   51CHL1   H7B 4893   3.765   2.640   3.276
   51CHL1    C8 4894   3.815   2.848   3.330
   51CHL1    H8 4895   3.743   2.931   3.348
   51CHL1   C14 4896   3.860   2.804   3.468
   51CHL1   H14 4897   3.912   2.710   3.440
   51CHL1   C15 4898   3.763   2.763   3.584
   51CHL1  H15A 4899   3.689   2.846   3.584
   51CHL1  H15B 4900   3.706   2.670   3.562
   51CHL1   C16 4901   3.847   2.741   3.707
   51CHL1  H16A 4902   3.790   2.797   3.784
   51CHL1  H16B 4903   3.856   2.634   3.734
   51CHL1   C17 4904   3.987   2.812   3.681
   51CHL1   H17 4905   4.048   2.723   3.655
   51CHL1   C13 4906   3.964   2.889   3.544
   51CHL1   C18 4907   3.906   3.032   3.582
   51CHL1  H18A 4908   3.866   3.087   3.494
   51CHL1  H18B 4909   3.830   3.025   3.663
   51CHL1  H18C 4910   3.996   3.091   3.612
   51CHL1   C12 4911   4.091   2.908   3.449
   51CHL1  H12A 4912   4.154   2.983   3.501
   51CHL1  H12B 4913   4.146   2.815   3.427
   51CHL1   C11 4914   4.043   2.970   3.318
   51CHL1  H11A 4915   4.015   3.077   3.332
   51CHL1  H11B 4916   4.130   2.974   3.249
   51CHL1    C9 4917   3.928   2.892   3.238
   51CHL1    H9 4918   3.978   2.797   3.209
   51CHL1   C10 4919   3.879   2.951   3.107
   51CHL1   C19 4920   3.841   3.099   3.143
   51CHL1  H19A 4921   3.786   3.115   3.238
   51CHL1  H19B 4922   3.940   3.149   3.153
   51CHL1  H19C 4923   3.790   3.140   3.054
   51CHL1    C1 4924   3.986   2.952   2.996
   51CHL1   H1A 4925   4.059   3.027   3.031
   51CHL1   H1B 4926   4.042   2.858   2.978
   51CHL1    C2 4927   3.941   3.005   2.859
   51CHL1   H2A 4928   4.023   2.998   2.785
   51CHL1   H2B 4929   3.916   3.113   2.866
   51CHL1   C20 4930   4.048   2.878   3.810
   51CHL1   H20 4931   3.993   2.969   3.840
   51CHL1   C21 4932   4.190   2.932   3.760
   51CHL1  H21A 4933   4.256   2.954   3.846
   51CHL1  H21B 4934   4.185   3.026   3.701
   51CHL1  H21C 4935   4.241   2.852   3.702
   51CHL1   C22 4936   4.066   2.770   3.917
   51CHL1  H22A 4937   3.970   2.719   3.935
   51CHL1  H22B 4938   4.135   2.691   3.880
   51CHL1   C23 4939   4.123   2.816   4.050
   51CHL1  H23A 4940   4.231   2.840   4.046
   51CHL1  H23B 4941   4.065   2.904   4.087
   51CHL1   C24 4942   4.120   2.695   4.150
   51CHL1  H24A 4943   4.018   2.670   4.187
   51CHL1  H24B 4944   4.145   2.602   4.094
   51CHL1   C25 4945   4.215   2.731   4.269
   51CHL1   H25 4946   4.311   2.775   4.234
   51CHL1   C26 4947   4.150   2.835   4.361
   51CHL1  H26A 4948   4.138   2.936   4.316
   51CHL1  H26B 4949   4.051   2.800   4.398
   51CHL1  H26C 4950   4.218   2.855   4.447
   51CHL1   C27 4951   4.250   2.603   4.351
   51CHL1  H27A 4952   4.249   2.515   4.284
   51CHL1  H27B 4953   4.353   2.621   4.388
   51CHL1  H27C 4954   4.178   2.586   4.434
   52CHL1    C3 4955   3.054   4.655   2.404
   52CHL1    H3 4956   2.975   4.583   2.431
   52CHL1    O3 4957   3.025   4.706   2.275
   52CHL1   H3' 4958   2.954   4.644   2.255
   52CHL1    C4 4959   3.039   4.775   2.492
   52CHL1   H4A 4960   3.110   4.856   2.465
   52CHL1   H4B 4961   2.941   4.825   2.479
   52CHL1    C5 4962   3.064   4.724   2.633
   52CHL1    C6 4963   2.969   4.753   2.723
   52CHL1    H6 4964   2.880   4.810   2.693
   52CHL1    C7 4965   2.970   4.710   2.861
   52CHL1   H7A 4966   2.941   4.791   2.931
   52CHL1   H7B 4967   2.892   4.632   2.871
   52CHL1    C8 4968   3.112   4.659   2.908
   52CHL1    H8 4969   3.181   4.744   2.925
   52CHL1   C14 4970   3.102   4.577   3.035
   52CHL1   H14 4971   3.037   4.494   3.000
   52CHL1   C15 4972   3.017   4.627   3.158
   52CHL1  H15A 4973   3.022   4.737   3.166
   52CHL1  H15B 4974   2.913   4.592   3.142
   52CHL1   C16 4975   3.071   4.553   3.279
   52CHL1  H16A 4976   3.125   4.630   3.339
   52CHL1  H16B 4977   2.993   4.499   3.337
   52CHL1   C17 4978   3.174   4.450   3.224
   52CHL1   H17 4979   3.111   4.367   3.184
   52CHL1   C13 4980   3.231   4.517   3.091
   52CHL1   C18 4981   3.338   4.629   3.126
   52CHL1  H18A 4982   3.431   4.582   3.166
   52CHL1  H18B 4983   3.366   4.695   3.041
   52CHL1  H18C 4984   3.298   4.694   3.206
   52CHL1   C12 4985   3.285   4.418   2.984
   52CHL1  H12A 4986   3.385   4.389   3.023
   52CHL1  H12B 4987   3.209   4.338   2.994
   52CHL1   C11 4988   3.297   4.491   2.853
   52CHL1  H11A 4989   3.381   4.562   2.845
   52CHL1  H11B 4990   3.321   4.413   2.776
   52CHL1    C9 4991   3.174   4.567   2.799
   52CHL1    H9 4992   3.095   4.491   2.782
   52CHL1   C10 4993   3.197   4.646   2.663
   52CHL1   C19 4994   3.311   4.754   2.670
   52CHL1  H19A 4995   3.402   4.691   2.684
   52CHL1  H19B 4996   3.319   4.804   2.571
   52CHL1  H19C 4997   3.305   4.828   2.753
   52CHL1    C1 4998   3.229   4.551   2.549
   52CHL1   H1A 4999   3.337   4.527   2.548
   52CHL1   H1B 5000   3.181   4.451   2.565
   52CHL1    C2 5001   3.196   4.596   2.403
   52CHL1   H2A 5002   3.195   4.515   2.327
   52CHL1   H2B 5003   3.277   4.668   2.380
   52CHL1   C20 5004   3.276   4.389   3.311
   52CHL1   H20 5005   3.377   4.432   3.291
   52CHL1   C21 5006   3.284   4.239   3.280
   52CHL1  H21A 5007   3.357   4.177   3.336
   52CHL1  H21B 5008   3.300   4.213   3.173
   52CHL1  H21C 5009   3.181   4.197   3.290
   52CHL1   C22 5010   3.249   4.418   3.459
   52CHL1  H22A 5011   3.245   4.527   3.482
   52CHL1  H22B 5012   3.150   4.372   3.483
   52CHL1   C23 5013   3.357   4.367   3.551
   52CHL1  H23A 5014   3.382   4.261   3.526
   52CHL1  H23B 5015   3.453   4.420   3.538
   52CHL1   C24 5016   3.320   4.357   3.707
   52CHL1  H24A 5017   3.284   4.456   3.745
   52CHL1  H24B 5018   3.237   4.285   3.721
   52CHL1   C25 5019   3.441   4.312   3.799
   52CHL1   H25 5020   3.497   4.240   3.735
   52CHL1   C26 5021   3.537   4.432   3.840
   52CHL1  H26A 5022   3.484   4.512   3.896
   52CHL1  H26B 5023   3.624   4.390   3.895
   52CHL1  H26C 5024   3.571   4.472   3.742
   52CHL1   C27 5025   3.387   4.232   3.917
   52CHL1  H27A 5026   3.316   4.298   3.971
   52CHL1  H27B 5027   3.341   4.138   3.879
   52CHL1  H27C 5028   3.473   4.203   3.981
   53CHL1    C3 5029   3.205   3.285   2.689
   53CHL1    H3 5030   3.289   3.359   2.697
   53CHL1    O3 5031   3.177   3.255   2.556
   53CHL1   H3' 5032   3.254   3.289   2.510
   53CHL1    C4 5033   3.239   3.148   2.746
   53CHL1   H4A 5034   3.164   3.068   2.729
   53CHL1   H4B 5035   3.325   3.097   2.698
   53CHL1    C5 5036   3.266   3.162   2.897
   53CHL1    C6 5037   3.389   3.143   2.953
   53CHL1    H6 5038   3.474   3.116   2.888
   53CHL1    C7 5039   3.423   3.153   3.095
   53CHL1   H7A 5040   3.489   3.071   3.131
   53CHL1   H7B 5041   3.483   3.246   3.107
   53CHL1    C8 5042   3.292   3.163   3.184
   53CHL1    H8 5043   3.242   3.065   3.172
   53CHL1   C14 5044   3.325   3.205   3.328
   53CHL1   H14 5045   3.375   3.304   3.314
   53CHL1   C15 5046   3.422   3.123   3.407
   53CHL1  H15A 5047   3.409   3.014   3.390
   53CHL1  H15B 5048   3.526   3.154   3.388
   53CHL1   C16 5049   3.393   3.158   3.557
   53CHL1  H16A 5050   3.368   3.065   3.613
   53CHL1  H16B 5051   3.482   3.204   3.605
   53CHL1   C17 5052   3.284   3.270   3.554
   53CHL1   H17 5053   3.342   3.362   3.532
   53CHL1   C13 5054   3.202   3.240   3.428
   53CHL1   C18 5055   3.124   3.111   3.448
   53CHL1  H18A 5056   3.018   3.142   3.456
   53CHL1  H18B 5057   3.128   3.046   3.358
   53CHL1  H18C 5058   3.149   3.055   3.540
   53CHL1   C12 5059   3.125   3.350   3.357
   53CHL1  H12A 5060   3.048   3.394   3.424
   53CHL1  H12B 5061   3.198   3.430   3.332
   53CHL1   C11 5062   3.071   3.294   3.223
   53CHL1  H11A 5063   3.005   3.206   3.237
   53CHL1  H11B 5064   3.001   3.368   3.180
   53CHL1    C9 5065   3.190   3.264   3.130
   53CHL1    H9 5066   3.251   3.357   3.118
   53CHL1   C10 5067   3.148   3.221   2.981
   53CHL1   C19 5068   3.028   3.120   2.983
   53CHL1  H19A 5069   3.060   3.039   3.052
   53CHL1  H19B 5070   2.941   3.167   3.035
   53CHL1  H19C 5071   3.010   3.079   2.882
   53CHL1    C1 5072   3.106   3.350   2.915
   53CHL1   H1A 5073   3.014   3.385   2.965
   53CHL1   H1B 5074   3.187   3.426   2.924
   53CHL1    C2 5075   3.085   3.338   2.761
   53CHL1   H2A 5076   3.061   3.440   2.722
   53CHL1   H2B 5077   2.994   3.276   2.744
   53CHL1   C20 5078   3.211   3.296   3.690
   53CHL1   H20 5079   3.195   3.197   3.739
   53CHL1   C21 5080   3.073   3.362   3.685
   53CHL1  H21A 5081   2.996   3.294   3.641
   53CHL1  H21B 5082   3.075   3.464   3.641
   53CHL1  H21C 5083   3.038   3.372   3.790
   53CHL1   C22 5084   3.294   3.387   3.787
   53CHL1  H22A 5085   3.326   3.477   3.731
   53CHL1  H22B 5086   3.226   3.412   3.871
   53CHL1   C23 5087   3.414   3.324   3.851
   53CHL1  H23A 5088   3.378   3.227   3.890
   53CHL1  H23B 5089   3.501   3.305   3.784
   53CHL1   C24 5090   3.463   3.399   3.981
   53CHL1  H24A 5091   3.524   3.485   3.945
   53CHL1  H24B 5092   3.377   3.428   4.045
   53CHL1   C25 5093   3.563   3.316   4.064
   53CHL1   H25 5094   3.510   3.222   4.092
   53CHL1   C26 5095   3.685   3.249   3.992
   53CHL1  H26A 5096   3.757   3.316   3.942
   53CHL1  H26B 5097   3.759   3.208   4.064
   53CHL1  H26C 5098   3.648   3.166   3.928
   53CHL1   C27 5099   3.610   3.385   4.193
   53CHL1  H27A 5100   3.674   3.308   4.241
   53CHL1  H27B 5101   3.673   3.474   4.168
   53CHL1  H27C 5102   3.533   3.403   4.270
   54CHL1    C3 5103   2.600   3.540   2.720
   54CHL1    H3 5104   2.534   3.628   2.736
   54CHL1    O3 5105   2.598   3.526   2.580
   54CHL1   H3' 5106   2.644   3.441   2.572
   54CHL1    C4 5107   2.739   3.542   2.775
   54CHL1   H4A 5108   2.786   3.445   2.750
   54CHL1   H4B 5109   2.799   3.620   2.724
   54CHL1    C5 5110   2.723   3.558   2.929
   54CHL1    C6 5111   2.763   3.664   2.990
   54CHL1    H6 5112   2.816   3.738   2.929
   54CHL1    C7 5113   2.740   3.695   3.134
   54CHL1   H7A 5114   2.834   3.736   3.178
   54CHL1   H7B 5115   2.660   3.771   3.142
   54CHL1    C8 5116   2.701   3.565   3.215
   54CHL1    H8 5117   2.795   3.508   3.231
   54CHL1   C14 5118   2.652   3.594   3.353
   54CHL1   H14 5119   2.559   3.650   3.332
   54CHL1   C15 5120   2.731   3.687   3.439
   54CHL1  H15A 5121   2.841   3.680   3.426
   54CHL1  H15B 5122   2.702   3.790   3.408
   54CHL1   C16 5123   2.700   3.660   3.584
   54CHL1  H16A 5124   2.790   3.614   3.628
   54CHL1  H16B 5125   2.658   3.754   3.627
   54CHL1   C17 5126   2.598   3.543   3.570
   54CHL1   H17 5127   2.500   3.593   3.563
   54CHL1   C13 5128   2.617   3.474   3.439
   54CHL1   C18 5129   2.743   3.378   3.456
   54CHL1  H18A 5130   2.813   3.432   3.523
   54CHL1  H18B 5131   2.700   3.291   3.509
   54CHL1  H18C 5132   2.788   3.351   3.358
   54CHL1   C12 5133   2.503   3.408   3.370
   54CHL1  H12A 5134   2.462   3.319   3.421
   54CHL1  H12B 5135   2.420   3.480   3.355
   54CHL1   C11 5136   2.543   3.360   3.233
   54CHL1  H11A 5137   2.620   3.282   3.250
   54CHL1  H11B 5138   2.462   3.304   3.182
   54CHL1    C9 5139   2.598   3.478   3.145
   54CHL1    H9 5140   2.507   3.542   3.143
   54CHL1   C10 5141   2.641   3.446   2.999
   54CHL1   C19 5142   2.720   3.311   3.017
   54CHL1  H19A 5143   2.658   3.220   3.031
   54CHL1  H19B 5144   2.788   3.295   2.931
   54CHL1  H19C 5145   2.792   3.326   3.101
   54CHL1    C1 5146   2.503   3.427   2.923
   54CHL1   H1A 5147   2.442   3.340   2.957
   54CHL1   H1B 5148   2.452   3.525   2.939
   54CHL1    C2 5149   2.521   3.422   2.773
   54CHL1   H2A 5150   2.418   3.422   2.731
   54CHL1   H2B 5151   2.561   3.321   2.751
   54CHL1   C20 5152   2.593   3.457   3.699
   54CHL1   H20 5153   2.695   3.420   3.720
   54CHL1   C21 5154   2.492   3.337   3.688
   54CHL1  H21A 5155   2.479   3.288   3.787
   54CHL1  H21B 5156   2.525   3.268   3.607
   54CHL1  H21C 5157   2.394   3.384   3.663
   54CHL1   C22 5158   2.558   3.534   3.825
   54CHL1  H22A 5159   2.630   3.619   3.818
   54CHL1  H22B 5160   2.452   3.567   3.826
   54CHL1   C23 5161   2.588   3.457   3.964
   54CHL1  H23A 5162   2.523   3.367   3.972
   54CHL1  H23B 5163   2.694   3.425   3.957
   54CHL1   C24 5164   2.583   3.548   4.090
   54CHL1  H24A 5165   2.641   3.498   4.170
   54CHL1  H24B 5166   2.638   3.639   4.056
   54CHL1   C25 5167   2.452   3.585   4.150
   54CHL1   H25 5168   2.384   3.624   4.072
   54CHL1   C26 5169   2.394   3.464   4.223
   54CHL1  H26A 5170   2.311   3.489   4.292
   54CHL1  H26B 5171   2.360   3.390   4.148
   54CHL1  H26C 5172   2.461   3.414   4.296
   54CHL1   C27 5173   2.463   3.704   4.249
   54CHL1  H27A 5174   2.365   3.707   4.300
   54CHL1  H27B 5175   2.534   3.685   4.332
   54CHL1  H27C 5176   2.489   3.798   4.196
   55CHL1    C3 5177   3.866   6.451   2.852
   55CHL1    H3 5178   3.800   6.505   2.922
   55CHL1    O3 5179   3.824   6.459   2.713
   55CHL1   H3' 5180   3.902   6.423   2.670
   55CHL1    C4 5181   4.006   6.506   2.875
   55CHL1   H4A 5182   4.061   6.453   2.795
   55CHL1   H4B 5183   3.992   6.610   2.837
   55CHL1    C5 5184   4.055   6.491   3.017
   55CHL1    C6 5185   4.102   6.591   3.100
   55CHL1    H6 5186   4.096   6.694   3.063
   55CHL1    C7 5187   4.165   6.563   3.236
   55CHL1   H7A 5188   4.249   6.634   3.251
   55CHL1   H7B 5189   4.087   6.592   3.310
   55CHL1    C8 5190   4.212   6.420   3.255
   55CHL1    H8 5191   4.302   6.409   3.191
   55CHL1   C14 5192   4.237   6.387   3.404
   55CHL1   H14 5193   4.140   6.397   3.457
   55CHL1   C15 5194   4.334   6.464   3.492
   55CHL1  H15A 5195   4.426   6.468   3.429
   55CHL1  H15B 5196   4.297   6.566   3.514
   55CHL1   C16 5197   4.370   6.375   3.616
   55CHL1  H16A 5198   4.480   6.374   3.626
   55CHL1  H16B 5199   4.330   6.412   3.713
   55CHL1   C17 5200   4.304   6.230   3.587
   55CHL1   H17 5201   4.205   6.241   3.636
   55CHL1   C13 5202   4.276   6.241   3.431
   55CHL1   C18 5203   4.408   6.206   3.359
   55CHL1  H18A 5204   4.426   6.097   3.376
   55CHL1  H18B 5205   4.412   6.202   3.248
   55CHL1  H18C 5206   4.494   6.270   3.387
   55CHL1   C12 5207   4.155   6.152   3.390
   55CHL1  H12A 5208   4.177   6.045   3.409
   55CHL1  H12B 5209   4.066   6.182   3.450
   55CHL1   C11 5210   4.128   6.166   3.239
   55CHL1  H11A 5211   4.210   6.113   3.185
   55CHL1  H11B 5212   4.030   6.121   3.215
   55CHL1    C9 5213   4.101   6.323   3.209
   55CHL1    H9 5214   4.008   6.342   3.267
   55CHL1   C10 5215   4.066   6.346   3.057
   55CHL1   C19 5216   4.179   6.275   2.966
   55CHL1  H19A 5217   4.162   6.276   2.856
   55CHL1  H19B 5218   4.283   6.298   2.995
   55CHL1  H19C 5219   4.156   6.168   2.986
   55CHL1    C1 5220   3.928   6.277   3.029
   55CHL1   H1A 5221   3.934   6.166   3.033
   55CHL1   H1B 5222   3.847   6.303   3.101
   55CHL1    C2 5223   3.864   6.301   2.889
   55CHL1   H2A 5224   3.767   6.247   2.883
   55CHL1   H2B 5225   3.929   6.245   2.818
   55CHL1   C20 5226   4.382   6.115   3.646
   55CHL1   H20 5227   4.481   6.101   3.598
   55CHL1   C21 5228   4.293   5.994   3.650
   55CHL1  H21A 5229   4.186   6.020   3.671
   55CHL1  H21B 5230   4.325   5.923   3.728
   55CHL1  H21C 5231   4.300   5.945   3.551
   55CHL1   C22 5232   4.423   6.148   3.793
   55CHL1  H22A 5233   4.463   6.251   3.799
   55CHL1  H22B 5234   4.333   6.150   3.859
   55CHL1   C23 5235   4.529   6.058   3.853
   55CHL1  H23A 5236   4.498   5.953   3.836
   55CHL1  H23B 5237   4.619   6.067   3.788
   55CHL1   C24 5238   4.542   6.072   4.003
   55CHL1  H24A 5239   4.558   6.178   4.032
   55CHL1  H24B 5240   4.448   6.039   4.051
   55CHL1   C25 5241   4.659   5.986   4.046
   55CHL1   H25 5242   4.666   5.905   3.971
   55CHL1   C26 5243   4.792   6.071   4.048
   55CHL1  H26A 5244   4.863   6.022   4.119
   55CHL1  H26B 5245   4.831   6.099   3.948
   55CHL1  H26C 5246   4.770   6.172   4.089
   55CHL1   C27 5247   4.642   5.912   4.176
   55CHL1  H27A 5248   4.560   5.838   4.176
   55CHL1  H27B 5249   4.735   5.867   4.217
   55CHL1  H27C 5250   4.616   5.985   4.256
   56CHL1    C3 5251   5.989   2.180   2.755
   56CHL1    H3 5252   5.929   2.088   2.734
   56CHL1    O3 5253   6.030   2.240   2.637
   56CHL1   H3' 5254   6.118   2.269   2.660
   56CHL1    C4 5255   5.904   2.274   2.839
   56CHL1   H4A 5256   5.968   2.365   2.846
   56CHL1   H4B 5257   5.819   2.294   2.771
   56CHL1    C5 5258   5.866   2.226   2.974
   56CHL1    C6 5259   5.735   2.225   3.011
   56CHL1    H6 5260   5.652   2.247   2.943
   56CHL1    C7 5261   5.701   2.186   3.149
   56CHL1   H7A 5262   5.625   2.260   3.182
   56CHL1   H7B 5263   5.648   2.089   3.163
   56CHL1    C8 5264   5.820   2.187   3.253
   56CHL1    H8 5265   5.834   2.295   3.275
   56CHL1   C14 5266   5.796   2.103   3.372
   56CHL1   H14 5267   5.786   1.997   3.340
   56CHL1   C15 5268   5.665   2.137   3.439
   56CHL1  H15A 5269   5.659   2.248   3.434
   56CHL1  H15B 5270   5.576   2.089   3.394
   56CHL1   C16 5271   5.684   2.092   3.581
   56CHL1  H16A 5272   5.681   2.178   3.652
   56CHL1  H16B 5273   5.612   2.016   3.618
   56CHL1   C17 5274   5.830   2.036   3.601
   56CHL1   H17 5275   5.827   1.929   3.572
   56CHL1   C13 5276   5.899   2.105   3.491
   56CHL1   C18 5277   5.919   2.249   3.533
   56CHL1  H18A 5278   6.001   2.249   3.608
   56CHL1  H18B 5279   5.951   2.309   3.445
   56CHL1  H18C 5280   5.826   2.290   3.577
   56CHL1   C12 5281   6.030   2.040   3.438
   56CHL1  H12A 5282   6.106   2.035   3.520
   56CHL1  H12B 5283   6.012   1.933   3.412
   56CHL1   C11 5284   6.070   2.110   3.306
   56CHL1  H11A 5285   6.099   2.212   3.337
   56CHL1  H11B 5286   6.159   2.067   3.256
   56CHL1    C9 5287   5.951   2.126   3.195
   56CHL1    H9 5288   5.928   2.020   3.173
   56CHL1   C10 5289   5.984   2.187   3.058
   56CHL1   C19 5290   6.059   2.319   3.089
   56CHL1  H19A 5291   5.997   2.396   3.140
   56CHL1  H19B 5292   6.149   2.303   3.152
   56CHL1  H19C 5293   6.105   2.351   2.994
   56CHL1    C1 5294   6.080   2.087   2.981
   56CHL1   H1A 5295   6.179   2.070   3.029
   56CHL1   H1B 5296   6.027   1.990   2.980
   56CHL1    C2 5297   6.114   2.142   2.841
   56CHL1   H2A 5298   6.180   2.072   2.784
   56CHL1   H2B 5299   6.184   2.227   2.856
   56CHL1   C20 5300   5.876   2.036   3.754
   56CHL1   H20 5301   5.900   2.140   3.784
   56CHL1   C21 5302   6.009   1.951   3.787
   56CHL1  H21A 5303   6.102   2.007   3.764
   56CHL1  H21B 5304   6.007   1.846   3.751
   56CHL1  H21C 5305   6.021   1.946   3.897
   56CHL1   C22 5306   5.771   1.990   3.850
   56CHL1  H22A 5307   5.804   2.014   3.954
   56CHL1  H22B 5308   5.672   2.041   3.844
   56CHL1   C23 5309   5.725   1.843   3.840
   56CHL1  H23A 5310   5.651   1.832   3.758
   56CHL1  H23B 5311   5.813   1.779   3.817
   56CHL1   C24 5312   5.659   1.796   3.966
   56CHL1  H24A 5313   5.722   1.825   4.053
   56CHL1  H24B 5314   5.558   1.841   3.974
   56CHL1   C25 5315   5.635   1.637   3.966
   56CHL1   H25 5316   5.728   1.578   3.954
   56CHL1   C26 5317   5.575   1.581   4.094
   56CHL1  H26A 5318   5.487   1.645   4.114
   56CHL1  H26B 5319   5.546   1.476   4.073
   56CHL1  H26C 5320   5.648   1.599   4.175
   56CHL1   C27 5321   5.540   1.588   3.859
   56CHL1  H27A 5322   5.440   1.634   3.871
   56CHL1  H27B 5323   5.589   1.614   3.763
   56CHL1  H27C 5324   5.523   1.478   3.870
   57CHL1    C3 5325   4.292   0.389   2.949
   57CHL1    H3 5326   4.399   0.361   2.935
   57CHL1    O3 5327   4.242   0.426   2.821
   57CHL1   H3' 5328   4.218   0.344   2.777
   57CHL1    C4 5329   4.210   0.266   2.991
   57CHL1   H4A 5330   4.104   0.294   2.975
   57CHL1   H4B 5331   4.234   0.180   2.924
   57CHL1    C5 5332   4.235   0.226   3.136
   57CHL1    C6 5333   4.271   0.103   3.183
   57CHL1    H6 5334   4.265   0.013   3.119
   57CHL1    C7 5335   4.281   0.075   3.329
   57CHL1   H7A 5336   4.261   6.878   3.353
   57CHL1   H7B 5337   4.390   0.083   3.349
   57CHL1    C8 5338   4.211   0.169   3.424
   57CHL1    H8 5339   4.101   0.155   3.425
   57CHL1   C14 5340   4.270   0.146   3.562
   57CHL1   H14 5341   4.378   0.173   3.558
   57CHL1   C15 5342   4.270   0.000   3.625
   57CHL1  H15A 5343   4.179   6.855   3.593
   57CHL1  H15B 5344   4.364   6.855   3.602
   57CHL1   C16 5345   4.267   0.028   3.776
   57CHL1  H16A 5346   4.172   6.904   3.823
   57CHL1  H16B 5347   4.347   6.875   3.822
   57CHL1   C17 5348   4.281   0.184   3.793
   57CHL1   H17 5349   4.388   0.203   3.772
   57CHL1   C13 5350   4.213   0.242   3.663
   57CHL1   C18 5351   4.062   0.225   3.674
   57CHL1  H18A 5352   4.018   0.272   3.583
   57CHL1  H18B 5353   4.030   0.119   3.683
   57CHL1  H18C 5354   4.026   0.283   3.761
   57CHL1   C12 5355   4.251   0.387   3.629
   57CHL1  H12A 5356   4.195   0.454   3.698
   57CHL1  H12B 5357   4.360   0.393   3.651
   57CHL1   C11 5358   4.207   0.417   3.487
   57CHL1  H11A 5359   4.098   0.437   3.481
   57CHL1  H11B 5360   4.266   0.510   3.471
   57CHL1    C9 5361   4.246   0.310   3.385
   57CHL1    H9 5362   4.357   0.309   3.387
   57CHL1   C10 5363   4.217   0.343   3.236
   57CHL1   C19 5364   4.063   0.373   3.234
   57CHL1  H19A 5365   4.047   0.477   3.269
   57CHL1  H19B 5366   4.028   0.373   3.128
   57CHL1  H19C 5367   4.003   0.303   3.295
   57CHL1    C1 5368   4.305   0.467   3.188
   57CHL1   H1A 5369   4.277   0.550   3.256
   57CHL1   H1B 5370   4.414   0.443   3.197
   57CHL1    C2 5371   4.266   0.508   3.045
   57CHL1   H2A 5372   4.328   0.593   3.009
   57CHL1   H2B 5373   4.160   0.542   3.040
   57CHL1   C20 5374   4.251   0.239   3.932
   57CHL1   H20 5375   4.140   0.244   3.940
   57CHL1   C21 5376   4.294   0.387   3.953
   57CHL1  H21A 5377   4.282   0.405   4.062
   57CHL1  H21B 5378   4.230   0.467   3.911
   57CHL1  H21C 5379   4.400   0.405   3.929
   57CHL1   C22 5380   4.298   0.147   4.046
   57CHL1  H22A 5381   4.242   0.176   4.137
   57CHL1  H22B 5382   4.276   0.040   4.025
   57CHL1   C23 5383   4.451   0.154   4.071
   57CHL1  H23A 5384   4.503   0.095   3.992
   57CHL1  H23B 5385   4.487   0.259   4.076
   57CHL1   C24 5386   4.477   0.083   4.208
   57CHL1  H24A 5387   4.403   0.116   4.283
   57CHL1  H24B 5388   4.462   6.885   4.185
   57CHL1   C25 5389   4.621   0.102   4.257
   57CHL1   H25 5390   4.660   0.202   4.230
   57CHL1   C26 5391   4.624   0.076   4.413
   57CHL1  H26A 5392   4.595   0.178   4.449
   57CHL1  H26B 5393   4.546   6.908   4.430
   57CHL1  H26C 5394   4.719   0.038   4.455
   57CHL1   C27 5395   4.720   0.011   4.189
   57CHL1  H27A 5396   4.724   0.022   4.079
   57CHL1  H27B 5397   4.823   0.032   4.223
   57CHL1  H27C 5398   4.694   6.814   4.209
   58CHL1    C3 5399   4.282   0.953   3.010
   58CHL1    H3 5400   4.358   0.875   3.035
   58CHL1    O3 5401   4.306   0.990   2.881
   58CHL1   H3' 5402   4.367   1.064   2.879
   58CHL1    C4 5403   4.140   0.902   3.044
   58CHL1   H4A 5404   4.077   0.984   3.003
   58CHL1   H4B 5405   4.120   0.813   2.981
   58CHL1    C5 5406   4.104   0.879   3.189
   58CHL1    C6 5407   4.044   0.765   3.221
   58CHL1    H6 5408   4.026   0.691   3.142
   58CHL1    C7 5409   4.016   0.721   3.363
   58CHL1   H7A 5410   3.914   0.680   3.380
   58CHL1   H7B 5411   4.089   0.646   3.402
   58CHL1    C8 5412   4.017   0.839   3.462
   58CHL1    H8 5413   3.918   0.887   3.450
   58CHL1   C14 5414   4.038   0.786   3.603
   58CHL1   H14 5415   4.141   0.743   3.604
   58CHL1   C15 5416   3.960   0.672   3.659
   58CHL1  H15A 5417   3.854   0.694   3.635
   58CHL1  H15B 5418   3.980   0.569   3.620
   58CHL1   C16 5419   3.990   0.670   3.811
   58CHL1  H16A 5420   3.901   0.649   3.874
   58CHL1  H16B 5421   4.064   0.592   3.839
   58CHL1   C17 5422   4.058   0.805   3.840
   58CHL1   H17 5423   4.167   0.784   3.846
   58CHL1   C13 5424   4.035   0.897   3.711
   58CHL1   C18 5425   3.899   0.974   3.713
   58CHL1  H18A 5426   3.822   0.895   3.728
   58CHL1  H18B 5427   3.892   1.033   3.806
   58CHL1  H18C 5428   3.886   1.032   3.619
   58CHL1   C12 5429   4.152   0.995   3.679
   58CHL1  H12A 5430   4.151   1.081   3.749
   58CHL1  H12B 5431   4.248   0.940   3.686
   58CHL1   C11 5432   4.154   1.051   3.535
   58CHL1  H11A 5433   4.065   1.114   3.515
   58CHL1  H11B 5434   4.242   1.114   3.508
   58CHL1    C9 5435   4.131   0.946   3.428
   58CHL1    H9 5436   4.220   0.881   3.441
   58CHL1   C10 5437   4.131   0.997   3.282
   58CHL1   C19 5438   4.020   1.103   3.264
   58CHL1  H19A 5439   3.921   1.064   3.297
   58CHL1  H19B 5440   4.039   1.192   3.328
   58CHL1  H19C 5441   4.012   1.138   3.158
   58CHL1    C1 5442   4.274   1.047   3.244
   58CHL1   H1A 5443   4.293   1.133   3.312
   58CHL1   H1B 5444   4.341   0.965   3.275
   58CHL1    C2 5445   4.300   1.077   3.095
   58CHL1   H2A 5446   4.392   1.136   3.074
   58CHL1   H2B 5447   4.220   1.147   3.062
   58CHL1   C20 5448   4.020   0.864   3.979
   58CHL1   H20 5449   3.910   0.876   3.983
   58CHL1   C21 5450   4.088   1.007   3.996
   58CHL1  H21A 5451   4.066   1.037   4.101
   58CHL1  H21B 5452   4.026   1.079   3.938
   58CHL1  H21C 5453   4.197   1.003   3.976
   58CHL1   C22 5454   4.059   0.768   4.095
   58CHL1  H22A 5455   4.030   0.664   4.067
   58CHL1  H22B 5456   4.169   0.758   4.106
   58CHL1   C23 5457   3.980   0.796   4.224
   58CHL1  H23A 5458   4.019   0.880   4.286
   58CHL1  H23B 5459   3.871   0.817   4.213
   58CHL1   C24 5460   3.977   0.672   4.309
   58CHL1  H24A 5461   3.942   0.589   4.245
   58CHL1  H24B 5462   4.077   0.638   4.346
   58CHL1   C25 5463   3.885   0.682   4.432
   58CHL1   H25 5464   3.794   0.733   4.396
   58CHL1   C26 5465   3.853   0.542   4.477
   58CHL1  H26A 5466   3.949   0.493   4.505
   58CHL1  H26B 5467   3.787   0.544   4.566
   58CHL1  H26C 5468   3.804   0.491   4.391
   58CHL1   C27 5469   3.953   0.761   4.544
   58CHL1  H27A 5470   4.046   0.714   4.584
   58CHL1  H27B 5471   3.996   0.858   4.513
   58CHL1  H27C 5472   3.870   0.777   4.617
   59CHL1    C3 5473   2.382   5.399   2.589
   59CHL1    H3 5474   2.283   5.446   2.602
   59CHL1    O3 5475   2.398   5.378   2.452
   59CHL1   H3' 5476   2.421   5.465   2.419
   59CHL1    C4 5477   2.490   5.487   2.649
   59CHL1   H4A 5478   2.585   5.447   2.609
   59CHL1   H4B 5479   2.478   5.590   2.608
   59CHL1    C5 5480   2.506   5.490   2.800
   59CHL1    C6 5481   2.504   5.604   2.866
   59CHL1    H6 5482   2.503   5.701   2.814
   59CHL1    C7 5483   2.511   5.617   3.015
   59CHL1   H7A 5484   2.567   5.706   3.050
   59CHL1   H7B 5485   2.410   5.650   3.048
   59CHL1    C8 5486   2.552   5.479   3.087
   59CHL1    H8 5487   2.661   5.469   3.067
   59CHL1   C14 5488   2.518   5.498   3.234
   59CHL1   H14 5489   2.411   5.525   3.243
   59CHL1   C15 5490   2.592   5.611   3.311
   59CHL1  H15A 5491   2.698   5.616   3.279
   59CHL1  H15B 5492   2.546   5.710   3.288
   59CHL1   C16 5493   2.573   5.565   3.456
   59CHL1  H16A 5494   2.674   5.583   3.498
   59CHL1  H16B 5495   2.508   5.630   3.518
   59CHL1   C17 5496   2.523   5.419   3.456
   59CHL1   H17 5497   2.415   5.422   3.477
   59CHL1   C13 5498   2.539   5.367   3.312
   59CHL1   C18 5499   2.689   5.321   3.285
   59CHL1  H18A 5500   2.716   5.298   3.179
   59CHL1  H18B 5501   2.750   5.406   3.323
   59CHL1  H18C 5502   2.711   5.226   3.338
   59CHL1   C12 5503   2.434   5.268   3.256
   59CHL1  H12A 5504   2.429   5.174   3.316
   59CHL1  H12B 5505   2.338   5.320   3.275
   59CHL1   C11 5506   2.457   5.240   3.105
   59CHL1  H11A 5507   2.551   5.182   3.094
   59CHL1  H11B 5508   2.387   5.159   3.077
   59CHL1    C9 5509   2.465   5.372   3.018
   59CHL1    H9 5510   2.361   5.410   3.016
   59CHL1   C10 5511   2.501   5.350   2.869
   59CHL1   C19 5512   2.637   5.271   2.856
   59CHL1  H19A 5513   2.717   5.320   2.916
   59CHL1  H19B 5514   2.625   5.168   2.895
   59CHL1  H19C 5515   2.681   5.263   2.754
   59CHL1    C1 5516   2.376   5.275   2.807
   59CHL1   H1A 5517   2.371   5.174   2.853
   59CHL1   H1B 5518   2.287   5.335   2.835
   59CHL1    C2 5519   2.380   5.256   2.655
   59CHL1   H2A 5520   2.302   5.187   2.618
   59CHL1   H2B 5521   2.484   5.223   2.630
   59CHL1   C20 5522   2.582   5.334   3.571
   59CHL1   H20 5523   2.693   5.327   3.563
   59CHL1   C21 5524   2.530   5.188   3.561
   59CHL1  H21A 5525   2.419   5.184   3.565
   59CHL1  H21B 5526   2.565   5.126   3.647
   59CHL1  H21C 5527   2.577   5.134   3.476
   59CHL1   C22 5528   2.562   5.405   3.710
   59CHL1  H22A 5529   2.590   5.331   3.787
   59CHL1  H22B 5530   2.629   5.493   3.724
   59CHL1   C23 5531   2.413   5.443   3.740
   59CHL1  H23A 5532   2.383   5.520   3.665
   59CHL1  H23B 5533   2.351   5.356   3.710
   59CHL1   C24 5534   2.385   5.477   3.890
   59CHL1  H24A 5535   2.434   5.392   3.943
   59CHL1  H24B 5536   2.437   5.571   3.922
   59CHL1   C25 5537   2.234   5.486   3.931
   59CHL1   H25 5538   2.182   5.404   3.878
   59CHL1   C26 5539   2.222   5.475   4.080
   59CHL1  H26A 5540   2.271   5.384   4.121
   59CHL1  H26B 5541   2.283   5.554   4.130
   59CHL1  H26C 5542   2.116   5.466   4.113
   59CHL1   C27 5543   2.163   5.619   3.895
   59CHL1  H27A 5544   2.230   5.696   3.937
   59CHL1  H27B 5545   2.176   5.633   3.786
   59CHL1  H27C 5546   2.054   5.628   3.915
   60CHL1    C3 5547   5.361   6.009   3.098
   60CHL1    H3 5548   5.318   5.943   3.176
   60CHL1    O3 5549   5.289   5.984   2.982
   60CHL1   H3' 5550   5.317   6.046   2.914
   60CHL1    C4 5551   5.341   6.151   3.146
   60CHL1   H4A 5552   5.382   6.223   3.072
   60CHL1   H4B 5553   5.232   6.166   3.157
   60CHL1    C5 5554   5.422   6.167   3.278
   60CHL1    C6 5555   5.348   6.184   3.394
   60CHL1    H6 5556   5.242   6.214   3.394
   60CHL1    C7 5557   5.410   6.198   3.529
   60CHL1   H7A 5558   5.365   6.281   3.587
   60CHL1   H7B 5559   5.385   6.110   3.593
   60CHL1    C8 5560   5.559   6.214   3.519
   60CHL1    H8 5561   5.578   6.316   3.481
   60CHL1   C14 5562   5.617   6.198   3.658
   60CHL1   H14 5563   5.593   6.091   3.676
   60CHL1   C15 5564   5.547   6.269   3.779
   60CHL1  H15A 5565   5.528   6.375   3.753
   60CHL1  H15B 5566   5.449   6.220   3.802
   60CHL1   C16 5567   5.648   6.245   3.890
   60CHL1  H16A 5568   5.678   6.339   3.941
   60CHL1  H16B 5569   5.606   6.180   3.970
   60CHL1   C17 5570   5.774   6.184   3.820
   60CHL1   H17 5571   5.768   6.076   3.846
   60CHL1   C13 5572   5.766   6.212   3.673
   60CHL1   C18 5573   5.803   6.365   3.646
   60CHL1  H18A 5574   5.764   6.397   3.547
   60CHL1  H18B 5575   5.747   6.428   3.719
   60CHL1  H18C 5576   5.912   6.370   3.667
   60CHL1   C12 5577   5.824   6.105   3.577
   60CHL1  H12A 5578   5.935   6.108   3.585
   60CHL1  H12B 5579   5.805   6.003   3.617
   60CHL1   C11 5580   5.777   6.129   3.433
   60CHL1  H11A 5581   5.805   6.233   3.405
   60CHL1  H11B 5582   5.828   6.055   3.367
   60CHL1    C9 5583   5.623   6.117   3.424
   60CHL1    H9 5584   5.588   6.020   3.465
   60CHL1   C10 5585   5.569   6.126   3.276
   60CHL1   C19 5586   5.648   6.248   3.206
   60CHL1  H19A 5587   5.616   6.256   3.100
   60CHL1  H19B 5588   5.630   6.346   3.256
   60CHL1  H19C 5589   5.756   6.225   3.202
   60CHL1    C1 5590   5.584   5.997   3.210
   60CHL1   H1A 5591   5.690   5.968   3.195
   60CHL1   H1B 5592   5.543   5.924   3.283
   60CHL1    C2 5593   5.514   5.982   3.072
   60CHL1   H2A 5594   5.531   5.877   3.040
   60CHL1   H2B 5595   5.563   6.045   2.995
   60CHL1   C20 5596   5.901   6.228   3.900
   60CHL1   H20 5597   5.916   6.338   3.897
   60CHL1   C21 5598   6.034   6.160   3.842
   60CHL1  H21A 5599   6.047   6.214   3.746
   60CHL1  H21B 5600   6.031   6.052   3.817
   60CHL1  H21C 5601   6.125   6.169   3.904
   60CHL1   C22 5602   5.897   6.179   4.049
   60CHL1  H22A 5603   5.804   6.221   4.093
   60CHL1  H22B 5604   5.875   6.071   4.054
   60CHL1   C23 5605   6.013   6.230   4.141
   60CHL1  H23A 5606   5.995   6.183   4.240
   60CHL1  H23B 5607   6.106   6.183   4.103
   60CHL1   C24 5608   6.050   6.381   4.142
   60CHL1  H24A 5609   6.089   6.412   4.043
   60CHL1  H24B 5610   5.953   6.429   4.166
   60CHL1   C25 5611   6.143   6.418   4.251
   60CHL1   H25 5612   6.099   6.386   4.348
   60CHL1   C26 5613   6.283   6.357   4.238
   60CHL1  H26A 5614   6.278   6.248   4.216
   60CHL1  H26B 5615   6.322   6.403   4.145
   60CHL1  H26C 5616   6.346   6.371   4.328
   60CHL1   C27 5617   6.150   6.571   4.264
   60CHL1  H27A 5618   6.229   6.590   4.340
   60CHL1  H27B 5619   6.178   6.632   4.176
   60CHL1  H27C 5620   6.053   6.610   4.302
   61CHL1    C3 5621   5.575   2.603   3.013
   61CHL1    H3 5622   5.539   2.504   3.048
   61CHL1    O3 5623   5.569   2.593   2.868
   61CHL1   H3' 5624   5.578   2.682   2.834
   61CHL1    C4 5625   5.477   2.704   3.066
   61CHL1   H4A 5626   5.501   2.802   3.020
   61CHL1   H4B 5627   5.371   2.680   3.044
   61CHL1    C5 5628   5.490   2.714   3.218
   61CHL1    C6 5629   5.387   2.694   3.298
   61CHL1    H6 5630   5.289   2.672   3.253
   61CHL1    C7 5631   5.399   2.710   3.454
   61CHL1   H7A 5632   5.305   2.754   3.493
   61CHL1   H7B 5633   5.398   2.609   3.501
   61CHL1    C8 5634   5.525   2.786   3.497
   61CHL1    H8 5635   5.528   2.885   3.446
   61CHL1   C14 5636   5.541   2.799   3.648
   61CHL1   H14 5637   5.539   2.696   3.690
   61CHL1   C15 5638   5.435   2.876   3.726
   61CHL1  H15A 5639   5.412   2.968   3.669
   61CHL1  H15B 5640   5.345   2.812   3.731
   61CHL1   C16 5641   5.503   2.917   3.859
   61CHL1  H16A 5642   5.514   3.027   3.871
   61CHL1  H16B 5643   5.458   2.863   3.945
   61CHL1   C17 5644   5.656   2.860   3.840
   61CHL1   H17 5645   5.660   2.759   3.886
   61CHL1   C13 5646   5.676   2.854   3.689
   61CHL1   C18 5647   5.696   3.001   3.626
   61CHL1  H18A 5648   5.671   3.000   3.517
   61CHL1  H18B 5649   5.614   3.057   3.675
   61CHL1  H18C 5650   5.800   3.035   3.645
   61CHL1   C12 5651   5.783   2.760   3.641
   61CHL1  H12A 5652   5.886   2.796   3.665
   61CHL1  H12B 5653   5.770   2.664   3.694
   61CHL1   C11 5654   5.784   2.738   3.486
   61CHL1  H11A 5655   5.827   2.830   3.440
   61CHL1  H11B 5656   5.843   2.648   3.459
   61CHL1    C9 5657   5.641   2.715   3.424
   61CHL1    H9 5658   5.624   2.606   3.439
   61CHL1   C10 5659   5.632   2.739   3.274
   61CHL1   C19 5660   5.678   2.880   3.237
   61CHL1  H19A 5661   5.611   2.957   3.282
   61CHL1  H19B 5662   5.784   2.909   3.246
   61CHL1  H19C 5663   5.665   2.895   3.128
   61CHL1    C1 5664   5.727   2.631   3.208
   61CHL1   H1A 5665   5.832   2.665   3.222
   61CHL1   H1B 5666   5.710   2.526   3.239
   61CHL1    C2 5667   5.716   2.623   3.053
   61CHL1   H2A 5668   5.771   2.532   3.021
   61CHL1   H2B 5669   5.768   2.713   3.013
   61CHL1   C20 5670   5.749   2.938   3.929
   61CHL1   H20 5671   5.756   3.043   3.895
   61CHL1   C21 5672   5.892   2.873   3.911
   61CHL1  H21A 5673   5.880   2.762   3.910
   61CHL1  H21B 5674   5.956   2.903   3.997
   61CHL1  H21C 5675   5.933   2.917   3.818
   61CHL1   C22 5676   5.711   2.943   4.078
   61CHL1  H22A 5677   5.774   3.018   4.130
   61CHL1  H22B 5678   5.606   2.975   4.092
   61CHL1   C23 5679   5.726   2.805   4.154
   61CHL1  H23A 5680   5.644   2.744   4.109
   61CHL1  H23B 5681   5.825   2.762   4.127
   61CHL1   C24 5682   5.708   2.809   4.304
   61CHL1  H24A 5683   5.607   2.850   4.324
   61CHL1  H24B 5684   5.717   2.710   4.353
   61CHL1   C25 5685   5.805   2.897   4.378
   61CHL1   H25 5686   5.813   2.996   4.326
   61CHL1   C26 5687   5.778   2.924   4.524
   61CHL1  H26A 5688   5.686   2.985   4.527
   61CHL1  H26B 5689   5.755   2.825   4.570
   61CHL1  H26C 5690   5.857   2.969   4.588
   61CHL1   C27 5691   5.948   2.825   4.364
   61CHL1  H27A 5692   5.934   2.722   4.406
   61CHL1  H27B 5693   5.987   2.818   4.261
   61CHL1  H27C 5694   6.022   2.888   4.418
   62CHL1    C3 5695   1.445   1.019   2.799
   62CHL1    H3 5696   1.412   1.125   2.811
   62CHL1    O3 5697   1.421   0.968   2.666
   62CHL1   H3' 5698   1.488   0.901   2.650
   62CHL1    C4 5699   1.590   1.002   2.839
   62CHL1   H4A 5700   1.618   0.895   2.823
   62CHL1   H4B 5701   1.656   1.066   2.776
   62CHL1    C5 5702   1.612   1.037   2.988
   62CHL1    C6 5703   1.700   1.130   3.034
   62CHL1    H6 5704   1.755   1.190   2.960
   62CHL1    C7 5705   1.732   1.175   3.173
   62CHL1   H7A 5706   1.840   1.185   3.197
   62CHL1   H7B 5707   1.699   1.280   3.189
   62CHL1    C8 5708   1.662   1.078   3.279
   62CHL1    H8 5709   1.732   0.992   3.286
   62CHL1   C14 5710   1.650   1.157   3.410
   62CHL1   H14 5711   1.573   1.234   3.385
   62CHL1   C15 5712   1.779   1.221   3.462
   62CHL1  H15A 5713   1.876   1.170   3.446
   62CHL1  H15B 5714   1.790   1.323   3.418
   62CHL1   C16 5715   1.753   1.223   3.618
   62CHL1  H16A 5716   1.809   1.141   3.668
   62CHL1  H16B 5717   1.776   1.317   3.673
   62CHL1   C17 5718   1.602   1.175   3.630
   62CHL1   H17 5719   1.541   1.264   3.607
   62CHL1   C13 5720   1.583   1.073   3.517
   62CHL1   C18 5721   1.658   0.950   3.559
   62CHL1  H18A 5722   1.598   0.902   3.639
   62CHL1  H18B 5723   1.659   0.885   3.469
   62CHL1  H18C 5724   1.764   0.963   3.591
   62CHL1   C12 5725   1.442   1.035   3.468
   62CHL1  H12A 5726   1.397   0.965   3.542
   62CHL1  H12B 5727   1.381   1.121   3.433
   62CHL1   C11 5728   1.452   0.950   3.334
   62CHL1  H11A 5729   1.496   0.849   3.353
   62CHL1  H11B 5730   1.351   0.920   3.299
   62CHL1    C9 5731   1.524   1.029   3.226
   62CHL1    H9 5732   1.462   1.121   3.217
   62CHL1   C10 5733   1.522   0.966   3.089
   62CHL1   C19 5734   1.564   0.821   3.114
   62CHL1  H19A 5735   1.478   0.765   3.157
   62CHL1  H19B 5736   1.577   0.766   3.018
   62CHL1  H19C 5737   1.652   0.816   3.180
   62CHL1    C1 5738   1.374   0.983   3.040
   62CHL1   H1A 5739   1.303   0.929   3.107
   62CHL1   H1B 5740   1.343   1.089   3.047
   62CHL1    C2 5741   1.358   0.938   2.895
   62CHL1   H2A 5742   1.248   0.939   2.880
   62CHL1   H2B 5743   1.379   0.830   2.880
   62CHL1   C20 5744   1.564   1.139   3.774
   62CHL1   H20 5745   1.610   1.049   3.818
   62CHL1   C21 5746   1.412   1.138   3.781
   62CHL1  H21A 5747   1.361   1.056   3.726
   62CHL1  H21B 5748   1.374   1.237   3.745
   62CHL1  H21C 5749   1.373   1.118   3.883
   62CHL1   C22 5750   1.604   1.254   3.881
   62CHL1  H22A 5751   1.545   1.233   3.972
   62CHL1  H22B 5752   1.710   1.238   3.910
   62CHL1   C23 5753   1.576   1.399   3.851
   62CHL1  H23A 5754   1.612   1.436   3.753
   62CHL1  H23B 5755   1.468   1.411   3.827
   62CHL1   C24 5756   1.612   1.492   3.966
   62CHL1  H24A 5757   1.554   1.459   4.054
   62CHL1  H24B 5758   1.720   1.482   3.990
   62CHL1   C25 5759   1.590   1.633   3.931
   62CHL1   H25 5760   1.633   1.652   3.830
   62CHL1   C26 5761   1.439   1.666   3.918
   62CHL1  H26A 5762   1.394   1.615   3.830
   62CHL1  H26B 5763   1.389   1.631   4.010
   62CHL1  H26C 5764   1.427   1.776   3.914
   62CHL1   C27 5765   1.669   1.728   4.024
   62CHL1  H27A 5766   1.775   1.730   3.990
   62CHL1  H27B 5767   1.627   1.831   4.025
   62CHL1  H27C 5768   1.657   1.686   4.126
   63CHL1    C3 5769   4.456   5.302   2.479
   63CHL1    H3 5770   4.500   5.206   2.446
   63CHL1    O3 5771   4.425   5.368   2.360
   63CHL1   H3' 5772   4.351   5.319   2.323
   63CHL1    C4 5773   4.316   5.273   2.553
   63CHL1   H4A 5774   4.270   5.375   2.561
   63CHL1   H4B 5775   4.249   5.211   2.490
   63CHL1    C5 5776   4.336   5.224   2.696
   63CHL1    C6 5777   4.273   5.118   2.742
   63CHL1    H6 5778   4.198   5.076   2.675
   63CHL1    C7 5779   4.279   5.064   2.880
   63CHL1   H7A 5780   4.177   5.070   2.924
   63CHL1   H7B 5781   4.316   4.959   2.888
   63CHL1    C8 5782   4.357   5.160   2.977
   63CHL1    H8 5783   4.283   5.242   2.991
   63CHL1   C14 5784   4.385   5.087   3.105
   63CHL1   H14 5785   4.455   5.003   3.087
   63CHL1   C15 5786   4.272   5.022   3.182
   63CHL1  H15A 5787   4.180   5.084   3.174
   63CHL1  H15B 5788   4.238   4.926   3.136
   63CHL1   C16 5789   4.338   4.979   3.319
   63CHL1  H16A 5790   4.276   5.019   3.401
   63CHL1  H16B 5791   4.360   4.870   3.317
   63CHL1   C17 5792   4.473   5.066   3.331
   63CHL1   H17 5793   4.564   5.008   3.304
   63CHL1   C13 5794   4.459   5.164   3.210
   63CHL1   C18 5795   4.373   5.281   3.252
   63CHL1  H18A 5796   4.427   5.354   3.315
   63CHL1  H18B 5797   4.336   5.344   3.168
   63CHL1  H18C 5798   4.279   5.258   3.305
   63CHL1   C12 5799   4.581   5.202   3.133
   63CHL1  H12A 5800   4.647   5.265   3.196
   63CHL1  H12B 5801   4.634   5.110   3.102
   63CHL1   C11 5802   4.561   5.293   3.012
   63CHL1  H11A 5803   4.509   5.385   3.047
   63CHL1  H11B 5804   4.651   5.344   2.973
   63CHL1    C9 5805   4.475   5.219   2.909
   63CHL1    H9 5806   4.542   5.137   2.874
   63CHL1   C10 5807   4.446   5.301   2.779
   63CHL1   C19 5808   4.380   5.436   2.804
   63CHL1  H19A 5809   4.439   5.507   2.866
   63CHL1  H19B 5810   4.353   5.485   2.708
   63CHL1  H19C 5811   4.282   5.426   2.855
   63CHL1    C1 5812   4.579   5.316   2.694
   63CHL1   H1A 5813   4.658   5.376   2.745
   63CHL1   H1B 5814   4.623   5.214   2.685
   63CHL1    C2 5815   4.557   5.385   2.559
   63CHL1   H2A 5816   4.652   5.396   2.502
   63CHL1   H2B 5817   4.522   5.490   2.567
   63CHL1   C20 5818   4.501   5.129   3.472
   63CHL1   H20 5819   4.421   5.200   3.502
   63CHL1   C21 5820   4.628   5.206   3.476
   63CHL1  H21A 5821   4.719   5.146   3.452
   63CHL1  H21B 5822   4.638   5.249   3.577
   63CHL1  H21C 5823   4.621   5.290   3.403
   63CHL1   C22 5824   4.506   5.014   3.575
   63CHL1  H22A 5825   4.412   4.956   3.583
   63CHL1  H22B 5826   4.586   4.944   3.542
   63CHL1   C23 5827   4.530   5.067   3.723
   63CHL1  H23A 5828   4.625   5.125   3.721
   63CHL1  H23B 5829   4.452   5.138   3.756
   63CHL1   C24 5830   4.552   4.953   3.827
   63CHL1  H24A 5831   4.463   4.887   3.835
   63CHL1  H24B 5832   4.637   4.891   3.794
   63CHL1   C25 5833   4.600   4.997   3.962
   63CHL1   H25 5834   4.710   5.005   3.965
   63CHL1   C26 5835   4.551   5.140   3.993
   63CHL1  H26A 5836   4.440   5.141   3.996
   63CHL1  H26B 5837   4.590   5.179   4.090
   63CHL1  H26C 5838   4.590   5.217   3.922
   63CHL1   C27 5839   4.536   4.909   4.069
   63CHL1  H27A 5840   4.425   4.907   4.064
   63CHL1  H27B 5841   4.569   4.804   4.059
   63CHL1  H27C 5842   4.560   4.956   4.167
   64CHL1    C3 5843   2.682   2.887   2.523
   64CHL1    H3 5844   2.779   2.941   2.526
   64CHL1    O3 5845   2.642   2.880   2.393
   64CHL1   H3' 5846   2.560   2.831   2.402
   64CHL1    C4 5847   2.696   2.741   2.584
   64CHL1   H4A 5848   2.601   2.686   2.566
   64CHL1   H4B 5849   2.771   2.683   2.527
   64CHL1    C5 5850   2.732   2.751   2.728
   64CHL1    C6 5851   2.849   2.689   2.766
   64CHL1    H6 5852   2.907   2.634   2.690
   64CHL1    C7 5853   2.894   2.690   2.910
   64CHL1   H7A 5854   2.918   2.586   2.942
   64CHL1   H7B 5855   2.983   2.757   2.918
   64CHL1    C8 5856   2.782   2.741   3.003
   64CHL1    H8 5857   2.710   2.657   3.007
   64CHL1   C14 5858   2.836   2.767   3.141
   64CHL1   H14 5859   2.925   2.833   3.133
   64CHL1   C15 5860   2.896   2.637   3.206
   64CHL1  H15A 5861   2.829   2.550   3.188
   64CHL1  H15B 5862   2.997   2.615   3.165
   64CHL1   C16 5863   2.888   2.670   3.354
   64CHL1  H16A 5864   2.832   2.586   3.401
   64CHL1  H16B 5865   2.981   2.661   3.413
   64CHL1   C17 5866   2.824   2.812   3.370
   64CHL1   H17 5867   2.911   2.881   3.362
   64CHL1   C13 5868   2.735   2.828   3.243
   64CHL1   C18 5869   2.619   2.733   3.255
   64CHL1  H18A 5870   2.645   2.637   3.304
   64CHL1  H18B 5871   2.538   2.779   3.315
   64CHL1  H18C 5872   2.581   2.695   3.158
   64CHL1   C12 5873   2.683   2.961   3.188
   64CHL1  H12A 5874   2.613   3.009   3.260
   64CHL1  H12B 5875   2.772   3.027   3.179
   64CHL1   C11 5876   2.612   2.937   3.056
   64CHL1  H11A 5877   2.520   2.877   3.075
   64CHL1  H11B 5878   2.577   3.039   3.027
   64CHL1    C9 5879   2.703   2.870   2.954
   64CHL1    H9 5880   2.790   2.935   2.932
   64CHL1   C10 5881   2.640   2.839   2.814
   64CHL1   C19 5882   2.511   2.758   2.837
   64CHL1  H19A 5883   2.443   2.809   2.908
   64CHL1  H19B 5884   2.460   2.747   2.738
   64CHL1  H19C 5885   2.518   2.658   2.884
   64CHL1    C1 5886   2.601   2.981   2.750
   64CHL1   H1A 5887   2.520   3.036   2.803
   64CHL1   H1B 5888   2.692   3.044   2.760
   64CHL1    C2 5889   2.573   2.967   2.604
   64CHL1   H2A 5890   2.568   3.064   2.550
   64CHL1   H2B 5891   2.472   2.923   2.596
   64CHL1   C20 5892   2.755   2.838   3.506
   64CHL1   H20 5893   2.655   2.788   3.503
   64CHL1   C21 5894   2.743   2.989   3.529
   64CHL1  H21A 5895   2.819   3.058   3.487
   64CHL1  H21B 5896   2.743   3.012   3.637
   64CHL1  H21C 5897   2.642   3.015   3.492
   64CHL1   C22 5898   2.822   2.769   3.626
   64CHL1  H22A 5899   2.822   2.659   3.605
   64CHL1  H22B 5900   2.928   2.801   3.622
   64CHL1   C23 5901   2.769   2.786   3.767
   64CHL1  H23A 5902   2.787   2.887   3.808
   64CHL1  H23B 5903   2.658   2.777   3.768
   64CHL1   C24 5904   2.817   2.681   3.868
   64CHL1  H24A 5905   2.756   2.588   3.859
   64CHL1  H24B 5906   2.920   2.653   3.836
   64CHL1   C25 5907   2.819   2.716   4.018
   64CHL1   H25 5908   2.875   2.811   4.029
   64CHL1   C26 5909   2.676   2.740   4.063
   64CHL1  H26A 5910   2.622   2.818   4.005
   64CHL1  H26B 5911   2.609   2.651   4.066
   64CHL1  H26C 5912   2.677   2.788   4.163
   64CHL1   C27 5913   2.887   2.609   4.099
   64CHL1  H27A 5914   2.997   2.607   4.081
   64CHL1  H27B 5915   2.867   2.634   4.206
   64CHL1  H27C 5916   2.846   2.507   4.083
   65CHL1    C3 5917   0.505   0.540   2.209
   65CHL1    H3 5918   0.479   0.647   2.197
   65CHL1    O3 5919   0.479   0.479   2.088
   65CHL1   H3' 5920   0.391   0.506   2.060
   65CHL1    C4 5921   0.659   0.516   2.236
   65CHL1   H4A 5922   0.684   0.408   2.235
   65CHL1   H4B 5923   0.728   0.557   2.159
   65CHL1    C5 5924   0.688   0.554   2.376
   65CHL1    C6 5925   0.798   0.634   2.392
   65CHL1    H6 5926   0.857   0.673   2.307
   65CHL1    C7 5927   0.840   0.684   2.528
   65CHL1   H7A 5928   0.951   0.687   2.537
   65CHL1   H7B 5929   0.801   0.787   2.545
   65CHL1    C8 5930   0.780   0.603   2.644
   65CHL1    H8 5931   0.827   0.502   2.640
   65CHL1   C14 5932   0.800   0.671   2.784
   65CHL1   H14 5933   0.740   0.764   2.781
   65CHL1   C15 5934   0.944   0.717   2.816
   65CHL1  H15A 5935   1.012   0.635   2.785
   65CHL1  H15B 5936   0.964   0.812   2.762
   65CHL1   C16 5937   0.941   0.731   2.971
   65CHL1  H16A 5938   1.030   0.682   3.015
   65CHL1  H16B 5939   0.943   0.840   2.994
   65CHL1   C17 5940   0.805   0.671   3.023
   65CHL1   H17 5941   0.738   0.759   3.032
   65CHL1   C13 5942   0.750   0.594   2.904
   65CHL1   C18 5943   0.821   0.456   2.910
   65CHL1  H18A 5944   0.785   0.396   2.996
   65CHL1  H18B 5945   0.810   0.393   2.820
   65CHL1  H18C 5946   0.929   0.470   2.935
   65CHL1   C12 5947   0.597   0.572   2.894
   65CHL1  H12A 5948   0.561   0.504   2.974
   65CHL1  H12B 5949   0.545   0.670   2.901
   65CHL1   C11 5950   0.568   0.507   2.755
   65CHL1  H11A 5951   0.592   0.399   2.766
   65CHL1  H11B 5952   0.458   0.523   2.756
   65CHL1    C9 5953   0.635   0.573   2.634
   65CHL1    H9 5954   0.591   0.675   2.629
   65CHL1   C10 5955   0.605   0.501   2.496
   65CHL1   C19 5956   0.639   0.344   2.514
   65CHL1  H19A 5957   0.599   0.283   2.431
   65CHL1  H19B 5958   0.749   0.327   2.523
   65CHL1  H19C 5959   0.580   0.312   2.602
   65CHL1    C1 5960   0.460   0.514   2.456
   65CHL1   H1A 5961   0.396   0.462   2.531
   65CHL1   H1B 5962   0.429   0.620   2.471
   65CHL1    C2 5963   0.411   0.477   2.313
   65CHL1   H2A 5964   0.307   0.512   2.295
   65CHL1   H2B 5965   0.411   0.366   2.308
   65CHL1   C20 5966   0.804   0.614   3.170
   65CHL1   H20 5967   0.856   0.516   3.174
   65CHL1   C21 5968   0.661   0.589   3.221
   65CHL1  H21A 5969   0.652   0.567   3.329
   65CHL1  H21B 5970   0.625   0.497   3.171
   65CHL1  H21C 5971   0.592   0.673   3.195
   65CHL1   C22 5972   0.874   0.709   3.277
   65CHL1  H22A 5973   0.977   0.729   3.242
   65CHL1  H22B 5974   0.822   0.805   3.293
   65CHL1   C23 5975   0.887   0.647   3.418
   65CHL1  H23A 5976   0.790   0.626   3.468
   65CHL1  H23B 5977   0.936   0.548   3.406
   65CHL1   C24 5978   0.966   0.731   3.518
   65CHL1  H24A 5979   1.071   0.731   3.482
   65CHL1  H24B 5980   0.927   0.835   3.510
   65CHL1   C25 5981   0.966   0.690   3.662
   65CHL1   H25 5982   0.997   0.584   3.674
   65CHL1   C26 5983   1.071   0.772   3.747
   65CHL1  H26A 5984   1.090   0.716   3.841
   65CHL1  H26B 5985   1.164   0.791   3.690
   65CHL1  H26C 5986   1.021   0.870   3.768
   65CHL1   C27 5987   0.834   0.698   3.736
   65CHL1  H27A 5988   0.769   0.632   3.675
   65CHL1  H27B 5989   0.836   0.660   3.840
   65CHL1  H27C 5990   0.788   0.799   3.737
   66CHL1    C3 5991   4.709   2.619   2.641
   66CHL1    H3 5992   4.780   2.700   2.670
   66CHL1    O3 5993   4.676   2.644   2.509
   66CHL1   H3' 5994   4.615   2.575   2.480
   66CHL1    C4 5995   4.782   2.481   2.658
   66CHL1   H4A 5996   4.726   2.409   2.594
   66CHL1   H4B 5997   4.878   2.497   2.605
   66CHL1    C5 5998   4.789   2.440   2.802
   66CHL1    C6 5999   4.904   2.406   2.859
   66CHL1    H6 6000   4.991   2.394   2.794
   66CHL1    C7 6001   4.932   2.336   2.991
   66CHL1   H7A 6002   4.999   2.251   2.967
   66CHL1   H7B 6003   4.999   2.393   3.060
   66CHL1    C8 6004   4.795   2.296   3.042
   66CHL1    H8 6005   4.763   2.208   2.983
   66CHL1   C14 6006   4.806   2.257   3.192
   66CHL1   H14 6007   4.834   2.350   3.245
   66CHL1   C15 6008   4.919   2.166   3.236
   66CHL1  H15A 6009   4.920   2.076   3.171
   66CHL1  H15B 6010   5.019   2.214   3.223
   66CHL1   C16 6011   4.876   2.118   3.376
   66CHL1  H16A 6012   4.882   2.007   3.375
   66CHL1  H16B 6013   4.937   2.169   3.453
   66CHL1   C17 6014   4.735   2.176   3.401
   66CHL1   H17 6015   4.733   2.275   3.451
   66CHL1   C13 6016   4.680   2.210   3.257
   66CHL1   C18 6017   4.641   2.077   3.189
   66CHL1  H18A 6018   4.622   2.092   3.080
   66CHL1  H18B 6019   4.721   2.000   3.189
   66CHL1  H18C 6020   4.548   2.032   3.228
   66CHL1   C12 6021   4.568   2.320   3.243
   66CHL1  H12A 6022   4.469   2.279   3.275
   66CHL1  H12B 6023   4.591   2.413   3.300
   66CHL1   C11 6024   4.549   2.377   3.100
   66CHL1  H11A 6025   4.487   2.300   3.049
   66CHL1  H11B 6026   4.485   2.467   3.103
   66CHL1    C9 6027   4.679   2.404   3.012
   66CHL1    H9 6028   4.711   2.497   3.064
   66CHL1   C10 6029   4.658   2.439   2.870
   66CHL1   C19 6030   4.564   2.328   2.806
   66CHL1  H19A 6031   4.569   2.353   2.698
   66CHL1  H19B 6032   4.603   2.225   2.820
   66CHL1  H19C 6033   4.456   2.342   2.829
   66CHL1    C1 6034   4.595   2.578   2.858
   66CHL1   H1A 6035   4.502   2.580   2.917
   66CHL1   H1B 6036   4.650   2.659   2.911
   66CHL1    C2 6037   4.582   2.624   2.713
   66CHL1   H2A 6038   4.544   2.727   2.728
   66CHL1   H2B 6039   4.502   2.564   2.664
   66CHL1   C20 6040   4.656   2.083   3.489
   66CHL1   H20 6041   4.674   1.983   3.444
   66CHL1   C21 6042   4.504   2.110   3.498
   66CHL1  H21A 6043   4.491   2.216   3.528
   66CHL1  H21B 6044   4.457   2.052   3.580
   66CHL1  H21C 6045   4.447   2.079   3.407
   66CHL1   C22 6046   4.715   2.075   3.630
   66CHL1  H22A 6047   4.645   2.003   3.679
   66CHL1  H22B 6048   4.819   2.038   3.638
   66CHL1   C23 6049   4.709   2.200   3.718
   66CHL1  H23A 6050   4.696   2.288   3.651
   66CHL1  H23B 6051   4.613   2.188   3.772
   66CHL1   C24 6052   4.826   2.219   3.820
   66CHL1  H24A 6053   4.821   2.126   3.880
   66CHL1  H24B 6054   4.922   2.214   3.765
   66CHL1   C25 6055   4.823   2.344   3.912
   66CHL1   H25 6056   4.721   2.338   3.955
   66CHL1   C26 6057   4.921   2.335   4.020
   66CHL1  H26A 6058   5.024   2.343   3.978
   66CHL1  H26B 6059   4.918   2.419   4.093
   66CHL1  H26C 6060   4.915   2.242   4.081
   66CHL1   C27 6061   4.846   2.481   3.838
   66CHL1  H27A 6062   4.872   2.557   3.915
   66CHL1  H27B 6063   4.761   2.514   3.774
   66CHL1  H27C 6064   4.941   2.484   3.781
   67CHL1    C3 6065   4.362   6.695   2.470
   67CHL1    H3 6066   4.420   6.791   2.467
   67CHL1    O3 6067   4.288   6.669   2.349
   67CHL1   H3' 6068   4.256   6.579   2.362
   67CHL1    C4 6069   4.458   6.577   2.504
   67CHL1   H4A 6070   4.410   6.477   2.509
   67CHL1   H4B 6071   4.535   6.567   2.426
   67CHL1    C5 6072   4.534   6.613   2.637
   67CHL1    C6 6073   4.662   6.629   2.633
   67CHL1    H6 6074   4.724   6.605   2.545
   67CHL1    C7 6075   4.740   6.660   2.755
   67CHL1   H7A 6076   4.846   6.625   2.750
   67CHL1   H7B 6077   4.754   6.770   2.759
   67CHL1    C8 6078   4.663   6.633   2.888
   67CHL1    H8 6079   4.642   6.524   2.898
   67CHL1   C14 6080   4.728   6.687   3.017
   67CHL1   H14 6081   4.739   6.797   3.005
   67CHL1   C15 6082   4.872   6.631   3.047
   67CHL1  H15A 6083   4.870   6.521   3.035
   67CHL1  H15B 6084   4.933   6.675   2.965
   67CHL1   C16 6085   4.892   6.671   3.196
   67CHL1  H16A 6086   4.930   6.584   3.252
   67CHL1  H16B 6087   4.955   6.762   3.182
   67CHL1   C17 6088   4.750   6.727   3.244
   67CHL1   H17 6089   4.755   6.837   3.232
   67CHL1   C13 6090   4.647   6.668   3.142
   67CHL1   C18 6091   4.620   6.521   3.175
   67CHL1  H18A 6092   4.567   6.511   3.273
   67CHL1  H18B 6093   4.576   6.463   3.091
   67CHL1  H18C 6094   4.722   6.479   3.187
   67CHL1   C12 6095   4.520   6.746   3.127
   67CHL1  H12A 6096   4.456   6.740   3.217
   67CHL1  H12B 6097   4.552   6.851   3.110
   67CHL1   C11 6098   4.437   6.695   3.007
   67CHL1  H11A 6099   4.401   6.593   3.034
   67CHL1  H11B 6100   4.348   6.761   3.002
   67CHL1    C9 6101   4.518   6.692   2.878
   67CHL1    H9 6102   4.530   6.802   2.867
   67CHL1   C10 6103   4.439   6.643   2.757
   67CHL1   C19 6104   4.367   6.509   2.791
   67CHL1  H19A 6105   4.436   6.429   2.824
   67CHL1  H19B 6106   4.296   6.528   2.875
   67CHL1  H19C 6107   4.292   6.470   2.719
   67CHL1    C1 6108   4.323   6.743   2.709
   67CHL1   H1A 6109   4.252   6.758   2.793
   67CHL1   H1B 6110   4.359   6.848   2.703
   67CHL1    C2 6111   4.251   6.707   2.578
   67CHL1   H2A 6112   4.194   6.795   2.545
   67CHL1   H2B 6113   4.191   6.614   2.587
   67CHL1   C20 6114   4.719   6.707   3.394
   67CHL1   H20 6115   4.657   6.617   3.416
   67CHL1   C21 6116   4.639   6.833   3.431
   67CHL1  H21A 6117   4.699   0.017   3.437
   67CHL1  H21B 6118   4.594   6.827   3.532
   67CHL1  H21C 6119   4.564   6.858   3.353
   67CHL1   C22 6120   4.839   6.685   3.488
   67CHL1  H22A 6121   4.882   6.585   3.466
   67CHL1  H22B 6122   4.920   6.758   3.465
   67CHL1   C23 6123   4.810   6.702   3.634
   67CHL1  H23A 6124   4.906   6.687   3.689
   67CHL1  H23B 6125   4.764   6.802   3.645
   67CHL1   C24 6126   4.705   6.602   3.693
   67CHL1  H24A 6127   4.604   6.623   3.653
   67CHL1  H24B 6128   4.737   6.500   3.664
   67CHL1   C25 6129   4.688   6.617   3.845
   67CHL1   H25 6130   4.784   6.610   3.899
   67CHL1   C26 6131   4.617   6.742   3.886
   67CHL1  H26A 6132   4.672   6.834   3.862
   67CHL1  H26B 6133   4.525   6.746   3.824
   67CHL1  H26C 6134   4.584   6.736   3.992
   67CHL1   C27 6135   4.612   6.491   3.893
   67CHL1  H27A 6136   4.650   6.395   3.851
   67CHL1  H27B 6137   4.611   6.478   4.003
   67CHL1  H27C 6138   4.510   6.520   3.859
   68CHL1    C3 6139   1.917   5.529   2.700
   68CHL1    H3 6140   1.981   5.613   2.734
   68CHL1    O3 6141   1.932   5.521   2.563
   68CHL1   H3' 6142   1.885   5.443   2.534
   68CHL1    C4 6143   1.927   5.389   2.757
   68CHL1   H4A 6144   1.848   5.323   2.715
   68CHL1   H4B 6145   2.023   5.349   2.717
   68CHL1    C5 6146   1.912   5.386   2.907
   68CHL1    C6 6147   2.014   5.348   2.991
   68CHL1    H6 6148   2.109   5.316   2.946
   68CHL1    C7 6149   2.017   5.355   3.145
   68CHL1   H7A 6150   2.068   5.259   3.168
   68CHL1   H7B 6151   2.080   5.436   3.186
   68CHL1    C8 6152   1.871   5.365   3.201
   68CHL1    H8 6153   1.819   5.271   3.173
   68CHL1   C14 6154   1.883   5.391   3.349
   68CHL1   H14 6155   1.949   5.479   3.367
   68CHL1   C15 6156   1.948   5.285   3.428
   68CHL1  H15A 6157   1.917   5.182   3.400
   68CHL1  H15B 6158   2.059   5.289   3.418
   68CHL1   C16 6159   1.926   5.319   3.573
   68CHL1  H16A 6160   1.903   5.226   3.629
   68CHL1  H16B 6161   2.020   5.359   3.616
   68CHL1   C17 6162   1.818   5.427   3.569
   68CHL1   H17 6163   1.867   5.527   3.561
   68CHL1   C13 6164   1.756   5.422   3.426
   68CHL1   C18 6165   1.650   5.309   3.429
   68CHL1  H18A 6166   1.639   5.286   3.320
   68CHL1  H18B 6167   1.682   5.224   3.493
   68CHL1  H18C 6168   1.560   5.352   3.477
   68CHL1   C12 6169   1.701   5.551   3.357
   68CHL1  H12A 6170   1.598   5.571   3.394
   68CHL1  H12B 6171   1.773   5.633   3.374
   68CHL1   C11 6172   1.673   5.523   3.208
   68CHL1  H11A 6173   1.589   5.450   3.213
   68CHL1  H11B 6174   1.642   5.617   3.158
   68CHL1    C9 6175   1.801   5.477   3.127
   68CHL1    H9 6176   1.868   5.565   3.133
   68CHL1   C10 6177   1.784   5.448   2.968
   68CHL1   C19 6178   1.668   5.353   2.948
   68CHL1  H19A 6179   1.685   5.246   2.972
   68CHL1  H19B 6180   1.584   5.387   3.013
   68CHL1  H19C 6181   1.627   5.357   2.845
   68CHL1    C1 6182   1.748   5.587   2.884
   68CHL1   H1A 6183   1.642   5.614   2.902
   68CHL1   H1B 6184   1.828   5.657   2.916
   68CHL1    C2 6185   1.777   5.577   2.729
   68CHL1   H2A 6186   1.773   5.679   2.684
   68CHL1   H2B 6187   1.709   5.510   2.672
   68CHL1   C20 6188   1.731   5.446   3.698
   68CHL1   H20 6189   1.678   5.349   3.712
   68CHL1   C21 6190   1.632   5.562   3.679
   68CHL1  H21A 6191   1.686   5.646   3.631
   68CHL1  H21B 6192   1.589   5.606   3.771
   68CHL1  H21C 6193   1.534   5.542   3.629
   68CHL1   C22 6194   1.803   5.476   3.829
   68CHL1  H22A 6195   1.889   5.407   3.837
   68CHL1  H22B 6196   1.852   5.575   3.827
   68CHL1   C23 6197   1.705   5.458   3.944
   68CHL1  H23A 6198   1.664   5.557   3.974
   68CHL1  H23B 6199   1.615   5.399   3.918
   68CHL1   C24 6200   1.762   5.386   4.061
   68CHL1  H24A 6201   1.782   5.278   4.039
   68CHL1  H24B 6202   1.858   5.437   4.084
   68CHL1   C25 6203   1.659   5.392   4.183
   68CHL1   H25 6204   1.615   5.494   4.185
   68CHL1   C26 6205   1.545   5.294   4.167
   68CHL1  H26A 6206   1.472   5.302   4.250
   68CHL1  H26B 6207   1.486   5.316   4.076
   68CHL1  H26C 6208   1.577   5.188   4.165
   68CHL1   C27 6209   1.737   5.369   4.312
   68CHL1  H27A 6210   1.824   5.436   4.328
   68CHL1  H27B 6211   1.674   5.379   4.403
   68CHL1  H27C 6212   1.782   5.267   4.309
   69CHL1    C3 6213   0.667   3.313   2.666
   69CHL1    H3 6214   0.557   3.303   2.680
   69CHL1    O3 6215   0.690   3.399   2.555
   69CHL1   H3' 6216   0.660   3.351   2.478
   69CHL1    C4 6217   0.715   3.388   2.792
   69CHL1   H4A 6218   0.823   3.411   2.778
   69CHL1   H4B 6219   0.671   3.489   2.809
   69CHL1    C5 6220   0.706   3.308   2.916
   69CHL1    C6 6221   0.636   3.342   3.028
   69CHL1    H6 6222   0.594   3.444   3.031
   69CHL1    C7 6223   0.648   3.271   3.159
   69CHL1   H7A 6224   0.678   3.349   3.231
   69CHL1   H7B 6225   0.545   3.230   3.171
   69CHL1    C8 6226   0.748   3.153   3.157
   69CHL1    H8 6227   0.846   3.195   3.188
   69CHL1   C14 6228   0.707   3.059   3.270
   69CHL1   H14 6229   0.605   3.021   3.245
   69CHL1   C15 6230   0.687   3.106   3.418
   69CHL1  H15A 6231   0.769   3.169   3.458
   69CHL1  H15B 6232   0.587   3.154   3.419
   69CHL1   C16 6233   0.684   2.979   3.504
   69CHL1  H16A 6234   0.752   2.981   3.593
   69CHL1  H16B 6235   0.584   2.963   3.550
   69CHL1   C17 6236   0.733   2.872   3.409
   69CHL1   H17 6237   0.640   2.825   3.370
   69CHL1   C13 6238   0.796   2.936   3.283
   69CHL1   C18 6239   0.938   2.974   3.313
   69CHL1  H18A 6240   0.979   3.022   3.222
   69CHL1  H18B 6241   0.961   3.048   3.393
   69CHL1  H18C 6242   1.003   2.886   3.336
   69CHL1   C12 6243   0.790   2.853   3.153
   69CHL1  H12A 6244   0.862   2.770   3.170
   69CHL1  H12B 6245   0.686   2.815   3.139
   69CHL1   C11 6246   0.820   2.943   3.032
   69CHL1  H11A 6247   0.930   2.959   3.023
   69CHL1  H11B 6248   0.791   2.879   2.946
   69CHL1    C9 6249   0.743   3.080   3.026
   69CHL1    H9 6250   0.640   3.041   3.011
   69CHL1   C10 6251   0.777   3.171   2.905
   69CHL1   C19 6252   0.929   3.193   2.908
   69CHL1  H19A 6253   0.969   3.247   2.819
   69CHL1  H19B 6254   0.964   3.243   3.001
   69CHL1  H19C 6255   0.997   3.106   2.899
   69CHL1    C1 6256   0.736   3.096   2.777
   69CHL1   H1A 6257   0.795   3.005   2.756
   69CHL1   H1B 6258   0.633   3.062   2.799
   69CHL1    C2 6259   0.744   3.179   2.648
   69CHL1   H2A 6260   0.689   3.120   2.571
   69CHL1   H2B 6261   0.847   3.198   2.610
   69CHL1   C20 6262   0.809   2.765   3.492
   69CHL1   H20 6263   0.898   2.806   3.544
   69CHL1   C21 6264   0.856   2.652   3.402
   69CHL1  H21A 6265   0.941   2.692   3.343
   69CHL1  H21B 6266   0.776   2.621   3.332
   69CHL1  H21C 6267   0.892   2.558   3.450
   69CHL1   C22 6268   0.716   2.702   3.597
   69CHL1  H22A 6269   0.656   2.780   3.649
   69CHL1  H22B 6270   0.638   2.632   3.563
   69CHL1   C23 6271   0.802   2.652   3.713
   69CHL1  H23A 6272   0.861   2.567   3.672
   69CHL1  H23B 6273   0.869   2.731   3.750
   69CHL1   C24 6274   0.728   2.605   3.834
   69CHL1  H24A 6275   0.681   2.698   3.873
   69CHL1  H24B 6276   0.637   2.544   3.815
   69CHL1   C25 6277   0.819   2.547   3.940
   69CHL1   H25 6278   0.912   2.608   3.949
   69CHL1   C26 6279   0.745   2.541   4.073
   69CHL1  H26A 6280   0.708   2.642   4.103
   69CHL1  H26B 6281   0.645   2.496   4.055
   69CHL1  H26C 6282   0.793   2.489   4.158
   69CHL1   C27 6283   0.867   2.399   3.914
   69CHL1  H27A 6284   0.936   2.363   3.993
   69CHL1  H27B 6285   0.774   2.339   3.929
   69CHL1  H27C 6286   0.912   2.388   3.813
   70CHL1    C3 6287   2.457   0.888   2.373
   70CHL1    H3 6288   2.355   0.845   2.377
   70CHL1    O3 6289   2.467   0.935   2.241
   70CHL1   H3' 6290   2.541   0.997   2.243
   70CHL1    C4 6291   2.465   1.005   2.474
   70CHL1   H4A 6292   2.552   1.065   2.442
   70CHL1   H4B 6293   2.379   1.074   2.461
   70CHL1    C5 6294   2.481   0.954   2.615
   70CHL1    C6 6295   2.403   1.010   2.710
   70CHL1    H6 6296   2.332   1.086   2.675
   70CHL1    C7 6297   2.394   0.975   2.856
   70CHL1   H7A 6298   2.385   1.058   2.929
   70CHL1   H7B 6299   2.313   0.899   2.855
   70CHL1    C8 6300   2.523   0.898   2.903
   70CHL1    H8 6301   2.602   0.975   2.918
   70CHL1   C14 6302   2.498   0.827   3.037
   70CHL1   H14 6303   2.425   0.746   3.017
   70CHL1   C15 6304   2.449   0.917   3.154
   70CHL1  H15A 6305   2.495   1.017   3.141
   70CHL1  H15B 6306   2.338   0.923   3.159
   70CHL1   C16 6307   2.504   0.848   3.279
   70CHL1  H16A 6308   2.569   0.910   3.344
   70CHL1  H16B 6309   2.423   0.821   3.350
   70CHL1   C17 6310   2.582   0.720   3.238
   70CHL1   H17 6311   2.501   0.644   3.224
   70CHL1   C13 6312   2.624   0.752   3.092
   70CHL1   C18 6313   2.745   0.850   3.104
   70CHL1  H18A 6314   2.771   0.895   3.006
   70CHL1  H18B 6315   2.705   0.937   3.161
   70CHL1  H18C 6316   2.838   0.803   3.143
   70CHL1   C12 6317   2.654   0.640   2.991
   70CHL1  H12A 6318   2.745   0.578   3.007
   70CHL1  H12B 6319   2.561   0.583   2.969
   70CHL1   C11 6320   2.674   0.699   2.849
   70CHL1  H11A 6321   2.776   0.740   2.834
   70CHL1  H11B 6322   2.691   0.607   2.789
   70CHL1    C9 6323   2.565   0.795   2.798
   70CHL1    H9 6324   2.471   0.736   2.789
   70CHL1   C10 6325   2.591   0.847   2.648
   70CHL1   C19 6326   2.722   0.924   2.630
   70CHL1  H19A 6327   2.715   1.012   2.697
   70CHL1  H19B 6328   2.811   0.864   2.660
   70CHL1  H19C 6329   2.744   0.958   2.526
   70CHL1    C1 6330   2.572   0.721   2.547
   70CHL1   H1A 6331   2.642   0.640   2.577
   70CHL1   H1B 6332   2.470   0.681   2.565
   70CHL1    C2 6333   2.568   0.777   2.403
   70CHL1   H2A 6334   2.556   0.686   2.341
   70CHL1   H2B 6335   2.672   0.811   2.383
   70CHL1   C20 6336   2.683   0.667   3.342
   70CHL1   H20 6337   2.759   0.747   3.355
   70CHL1   C21 6338   2.757   0.536   3.289
   70CHL1  H21A 6339   2.825   0.502   3.370
   70CHL1  H21B 6340   2.811   0.563   3.196
   70CHL1  H21C 6341   2.689   0.458   3.248
   70CHL1   C22 6342   2.617   0.655   3.483
   70CHL1  H22A 6343   2.569   0.753   3.502
   70CHL1  H22B 6344   2.549   0.567   3.480
   70CHL1   C23 6345   2.726   0.632   3.592
   70CHL1  H23A 6346   2.797   0.548   3.579
   70CHL1  H23B 6347   2.780   0.728   3.578
   70CHL1   C24 6348   2.673   0.627   3.734
   70CHL1  H24A 6349   2.619   0.723   3.747
   70CHL1  H24B 6350   2.591   0.553   3.746
   70CHL1   C25 6351   2.785   0.598   3.841
   70CHL1   H25 6352   2.869   0.667   3.818
   70CHL1   C26 6353   2.735   0.619   3.982
   70CHL1  H26A 6354   2.693   0.721   3.993
   70CHL1  H26B 6355   2.650   0.553   4.009
   70CHL1  H26C 6356   2.819   0.614   4.054
   70CHL1   C27 6357   2.829   0.445   3.822
   70CHL1  H27A 6358   2.732   0.392   3.819
   70CHL1  H27B 6359   2.890   0.417   3.733
   70CHL1  H27C 6360   2.885   0.420   3.915
   71CHL1    C3 6361   5.692   6.761   3.160
   71CHL1    H3 6362   5.669   6.847   3.227
   71CHL1    O3 6363   5.601   6.747   3.049
   71CHL1   H3' 6364   5.638   6.677   2.996
   71CHL1    C4 6365   5.832   6.791   3.099
   71CHL1   H4A 6366   5.862   6.718   3.021
   71CHL1   H4B 6367   5.831   6.886   3.042
   71CHL1    C5 6368   5.942   6.799   3.199
   71CHL1    C6 6369   6.034   6.902   3.208
   71CHL1    H6 6370   6.029   0.065   3.126
   71CHL1    C7 6371   6.144   0.008   3.308
   71CHL1   H7A 6372   6.239   0.037   3.258
   71CHL1   H7B 6373   6.108   0.084   3.380
   71CHL1    C8 6374   6.176   6.785   3.386
   71CHL1    H8 6375   6.254   6.724   3.335
   71CHL1   C14 6376   6.245   6.819   3.515
   71CHL1   H14 6377   6.163   6.864   3.574
   71CHL1   C15 6378   6.362   0.015   3.512
   71CHL1  H15A 6379   6.430   0.004   3.425
   71CHL1  H15B 6380   6.322   0.118   3.509
   71CHL1   C16 6381   6.433   6.886   3.645
   71CHL1  H16A 6382   6.531   6.841   3.619
   71CHL1  H16B 6383   6.443   0.064   3.714
   71CHL1   C17 6384   6.352   6.771   3.721
   71CHL1   H17 6385   6.272   6.826   3.773
   71CHL1   C13 6386   6.282   6.698   3.601
   71CHL1   C18 6387   6.395   6.607   3.544
   71CHL1  H18A 6388   6.402   6.514   3.604
   71CHL1  H18B 6389   6.377   6.578   3.438
   71CHL1  H18C 6390   6.494   6.657   3.549
   71CHL1   C12 6391   6.148   6.624   3.633
   71CHL1  H12A 6392   6.169   6.526   3.682
   71CHL1  H12B 6393   6.078   6.685   3.694
   71CHL1   C11 6394   6.066   6.595   3.508
   71CHL1  H11A 6395   6.124   6.517   3.454
   71CHL1  H11B 6396   5.966   6.555   3.535
   71CHL1    C9 6397   6.045   6.714   3.415
   71CHL1    H9 6398   5.980   6.787   3.469
   71CHL1   C10 6399   5.952   6.676   3.296
   71CHL1   C19 6400   6.006   6.559   3.208
   71CHL1  H19A 6401   5.949   6.539   3.115
   71CHL1  H19B 6402   6.108   6.580   3.169
   71CHL1  H19C 6403   6.015   6.466   3.268
   71CHL1    C1 6404   5.808   6.646   3.352
   71CHL1   H1A 6405   5.815   6.550   3.408
   71CHL1   H1B 6406   5.785   6.736   3.413
   71CHL1    C2 6407   5.697   6.632   3.244
   71CHL1   H2A 6408   5.598   6.619   3.292
   71CHL1   H2B 6409   5.717   6.543   3.182
   71CHL1   C20 6410   6.439   6.693   3.825
   71CHL1   H20 6411   6.512   6.631   3.769
   71CHL1   C21 6412   6.338   6.610   3.904
   71CHL1  H21A 6413   6.386   6.562   3.992
   71CHL1  H21B 6414   6.289   6.530   3.845
   71CHL1  H21C 6415   6.254   6.666   3.950
   71CHL1   C22 6416   6.530   6.776   3.915
   71CHL1  H22A 6417   6.623   6.798   3.858
   71CHL1  H22B 6418   6.482   6.875   3.932
   71CHL1   C23 6419   6.583   6.713   4.042
   71CHL1  H23A 6420   6.624   6.798   4.100
   71CHL1  H23B 6421   6.498   6.680   4.106
   71CHL1   C24 6422   6.687   6.612   4.029
   71CHL1  H24A 6423   6.642   6.516   3.995
   71CHL1  H24B 6424   6.749   6.643   3.943
   71CHL1   C25 6425   6.760   6.590   4.157
   71CHL1   H25 6426   6.794   6.688   4.197
   71CHL1   C26 6427   6.673   6.516   4.259
   71CHL1  H26A 6428   6.623   6.430   4.210
   71CHL1  H26B 6429   6.728   6.478   4.348
   71CHL1  H26C 6430   6.582   6.579   4.269
   71CHL1   C27 6431   6.887   6.506   4.157
   71CHL1  H27A 6432   6.874   6.396   4.144
   71CHL1  H27B 6433   0.054   6.545   4.086
   71CHL1  H27C 6434   0.021   6.518   4.258
   72CHL1    C3 6435   0.157   4.893   2.822
   72CHL1    H3 6436   0.055   4.929   2.844
   72CHL1    O3 6437   0.162   4.836   2.697
   72CHL1   H3' 6438   0.116   4.897   2.639
   72CHL1    C4 6439   0.255   5.008   2.828
   72CHL1   H4A 6440   0.349   4.958   2.795
   72CHL1   H4B 6441   0.220   5.080   2.751
   72CHL1    C5 6442   0.252   5.077   2.967
   72CHL1    C6 6443   0.232   5.214   2.983
   72CHL1    H6 6444   0.219   5.280   2.896
   72CHL1    C7 6445   0.222   5.279   3.121
   72CHL1   H7A 6446   0.278   5.375   3.124
   72CHL1   H7B 6447   0.115   5.300   3.146
   72CHL1    C8 6448   0.284   5.197   3.235
   72CHL1    H8 6449   0.394   5.206   3.221
   72CHL1   C14 6450   0.241   5.254   3.366
   72CHL1   H14 6451   0.130   5.250   3.373
   72CHL1   C15 6452   0.276   5.399   3.400
   72CHL1  H15A 6453   0.381   5.434   3.392
   72CHL1  H15B 6454   0.211   5.461   3.334
   72CHL1   C16 6455   0.244   5.414   3.548
   72CHL1  H16A 6456   0.323   5.481   3.589
   72CHL1  H16B 6457   0.150   5.469   3.572
   72CHL1   C17 6458   0.240   5.266   3.604
   72CHL1   H17 6459   0.131   5.252   3.619
   72CHL1   C13 6460   0.283   5.177   3.485
   72CHL1   C18 6461   0.436   5.173   3.494
   72CHL1  H18A 6462   0.470   5.091   3.560
   72CHL1  H18B 6463   0.465   5.148   3.390
   72CHL1  H18C 6464   0.477   5.275   3.513
   72CHL1   C12 6465   0.217   5.032   3.476
   72CHL1  H12A 6466   0.253   4.977   3.566
   72CHL1  H12B 6467   0.107   5.041   3.475
   72CHL1   C11 6468   0.275   4.967   3.344
   72CHL1  H11A 6469   0.383   4.958   3.364
   72CHL1  H11B 6470   0.235   4.863   3.335
   72CHL1    C9 6471   0.238   5.050   3.223
   72CHL1    H9 6472   0.127   5.052   3.225
   72CHL1   C10 6473   0.274   4.980   3.087
   72CHL1   C19 6474   0.427   4.943   3.089
   72CHL1  H19A 6475   0.479   5.010   3.161
   72CHL1  H19B 6476   0.437   4.841   3.134
   72CHL1  H19C 6477   0.472   4.936   2.988
   72CHL1    C1 6478   0.185   4.861   3.067
   72CHL1   H1A 6479   0.200   4.778   3.139
   72CHL1   H1B 6480   0.080   4.897   3.073
   72CHL1    C2 6481   0.188   4.791   2.929
   72CHL1   H2A 6482   0.109   4.712   2.927
   72CHL1   H2B 6483   0.289   4.749   2.909
   72CHL1   C20 6484   0.310   5.255   3.745
   72CHL1   H20 6485   0.419   5.267   3.733
   72CHL1   C21 6486   0.293   5.116   3.807
   72CHL1  H21A 6487   0.188   5.106   3.841
   72CHL1  H21B 6488   0.359   5.104   3.895
   72CHL1  H21C 6489   0.316   5.033   3.737
   72CHL1   C22 6490   0.276   5.368   3.844
   72CHL1  H22A 6491   0.288   5.469   3.801
   72CHL1  H22B 6492   0.170   5.369   3.876
   72CHL1   C23 6493   0.349   5.357   3.982
   72CHL1  H23A 6494   0.312   5.275   4.046
   72CHL1  H23B 6495   0.451   5.316   3.966
   72CHL1   C24 6496   0.365   5.490   4.059
   72CHL1  H24A 6497   0.423   5.569   4.006
   72CHL1  H24B 6498   0.269   5.541   4.077
   72CHL1   C25 6499   0.442   5.466   4.198
   72CHL1   H25 6500   0.389   5.383   4.250
   72CHL1   C26 6501   0.586   5.418   4.188
   72CHL1  H26A 6502   0.644   5.493   4.129
   72CHL1  H26B 6503   0.633   5.402   4.287
   72CHL1  H26C 6504   0.604   5.320   4.138
   72CHL1   C27 6505   0.432   5.590   4.278
   72CHL1  H27A 6506   0.329   5.629   4.270
   72CHL1  H27B 6507   0.449   5.575   4.387
   72CHL1  H27C 6508   0.498   5.671   4.240
   73CHL1    C3 6509   1.336   5.483   2.830
   73CHL1    H3 6510   1.436   5.455   2.868
   73CHL1    O3 6511   1.312   5.453   2.693
   73CHL1   H3' 6512   1.237   5.505   2.662
   73CHL1    C4 6513   1.234   5.404   2.913
   73CHL1   H4A 6514   1.134   5.434   2.877
   73CHL1   H4B 6515   1.244   5.295   2.893
   73CHL1    C5 6516   1.235   5.444   3.061
   73CHL1    C6 6517   1.258   5.357   3.155
   73CHL1    H6 6518   1.270   5.252   3.125
   73CHL1    C7 6519   1.260   5.396   3.291
   73CHL1   H7A 6520   1.187   5.329   3.341
   73CHL1   H7B 6521   1.361   5.368   3.330
   73CHL1    C8 6522   1.214   5.534   3.328
   73CHL1    H8 6523   1.104   5.531   3.343
   73CHL1   C14 6524   1.251   5.568   3.467
   73CHL1   H14 6525   1.362   5.560   3.457
   73CHL1   C15 6526   1.209   5.480   3.581
   73CHL1  H15A 6527   1.101   5.471   3.556
   73CHL1  H15B 6528   1.256   5.380   3.589
   73CHL1   C16 6529   1.226   5.569   3.703
   73CHL1  H16A 6530   1.130   5.571   3.758
   73CHL1  H16B 6531   1.304   5.530   3.771
   73CHL1   C17 6532   1.256   5.714   3.656
   73CHL1   H17 6533   1.366   5.726   3.658
   73CHL1   C13 6534   1.215   5.716   3.509
   73CHL1   C18 6535   1.061   5.739   3.508
   73CHL1  H18A 6536   1.007   5.661   3.567
   73CHL1  H18B 6537   1.030   5.840   3.540
   73CHL1  H18C 6538   1.006   5.727   3.411
   73CHL1   C12 6539   1.281   5.806   3.407
   73CHL1  H12A 6540   1.265   5.915   3.424
   73CHL1  H12B 6541   1.390   5.784   3.407
   73CHL1   C11 6542   1.237   5.780   3.265
   73CHL1  H11A 6543   1.129   5.801   3.253
   73CHL1  H11B 6544   1.291   5.861   3.211
   73CHL1    C9 6545   1.270   5.632   3.224
   73CHL1    H9 6546   1.380   5.626   3.232
   73CHL1   C10 6547   1.223   5.594   3.086
   73CHL1   C19 6548   1.072   5.639   3.064
   73CHL1  H19A 6549   1.006   5.595   3.141
   73CHL1  H19B 6550   1.057   5.749   3.051
   73CHL1  H19C 6551   1.041   5.604   2.963
   73CHL1    C1 6552   1.314   5.674   2.986
   73CHL1   H1A 6553   1.294   5.783   2.994
   73CHL1   H1B 6554   1.416   5.653   3.024
   73CHL1    C2 6555   1.311   5.634   2.834
   73CHL1   H2A 6556   1.400   5.682   2.789
   73CHL1   H2B 6557   1.211   5.664   2.796
   73CHL1   C20 6558   1.208   5.825   3.754
   73CHL1   H20 6559   1.101   5.852   3.750
   73CHL1   C21 6560   1.279   5.956   3.710
   73CHL1  H21A 6561   1.249   6.052   3.757
   73CHL1  H21B 6562   1.266   5.974   3.601
   73CHL1  H21C 6563   1.389   5.939   3.722
   73CHL1   C22 6564   1.234   5.798   3.905
   73CHL1  H22A 6565   1.176   5.868   3.968
   73CHL1  H22B 6566   1.187   5.701   3.933
   73CHL1   C23 6567   1.384   5.798   3.955
   73CHL1  H23A 6568   1.445   5.756   3.873
   73CHL1  H23B 6569   1.415   5.902   3.979
   73CHL1   C24 6570   1.393   5.705   4.086
   73CHL1  H24A 6571   1.337   5.614   4.055
   73CHL1  H24B 6572   1.500   5.678   4.098
   73CHL1   C25 6573   1.333   5.750   4.215
   73CHL1   H25 6574   1.230   5.779   4.185
   73CHL1   C26 6575   1.337   5.638   4.319
   73CHL1  H26A 6576   1.281   5.549   4.283
   73CHL1  H26B 6577   1.442   5.606   4.339
   73CHL1  H26C 6578   1.286   5.663   4.415
   73CHL1   C27 6579   1.421   5.871   4.258
   73CHL1  H27A 6580   1.525   5.835   4.272
   73CHL1  H27B 6581   1.449   5.932   4.169
   73CHL1  H27C 6582   1.393   5.923   4.352
   74CHL1    C3 6583   1.068   4.772   2.624
   74CHL1    H3 6584   0.979   4.830   2.656
   74CHL1    O3 6585   1.063   4.774   2.475
   74CHL1   H3' 6586   1.063   4.865   2.447
   74CHL1    C4 6587   1.197   4.834   2.667
   74CHL1   H4A 6588   1.273   4.765   2.625
   74CHL1   H4B 6589   1.208   4.933   2.617
   74CHL1    C5 6590   1.202   4.846   2.819
   74CHL1    C6 6591   1.223   4.960   2.880
   74CHL1    H6 6592   1.252   5.043   2.814
   74CHL1    C7 6593   1.220   4.985   3.028
   74CHL1   H7A 6594   1.305   5.049   3.060
   74CHL1   H7B 6595   1.121   5.025   3.060
   74CHL1    C8 6596   1.226   4.847   3.105
   74CHL1    H8 6597   1.332   4.816   3.095
   74CHL1   C14 6598   1.194   4.865   3.251
   74CHL1   H14 6599   1.084   4.878   3.249
   74CHL1   C15 6600   1.254   4.989   3.331
   74CHL1  H15A 6601   1.358   5.001   3.296
   74CHL1  H15B 6602   1.201   5.083   3.305
   74CHL1   C16 6603   1.221   4.953   3.478
   74CHL1  H16A 6604   1.316   4.972   3.531
   74CHL1  H16B 6605   1.141   5.019   3.517
   74CHL1   C17 6606   1.166   4.806   3.476
   74CHL1   H17 6607   1.055   4.806   3.474
   74CHL1   C13 6608   1.210   4.744   3.338
   74CHL1   C18 6609   1.354   4.695   3.347
   74CHL1  H18A 6610   1.371   4.608   3.414
   74CHL1  H18B 6611   1.390   4.663   3.247
   74CHL1  H18C 6612   1.418   4.782   3.375
   74CHL1   C12 6613   1.121   4.624   3.273
   74CHL1  H12A 6614   1.152   4.531   3.326
   74CHL1  H12B 6615   1.012   4.637   3.292
   74CHL1   C11 6616   1.153   4.607   3.123
   74CHL1  H11A 6617   1.260   4.577   3.124
   74CHL1  H11B 6618   1.095   4.519   3.091
   74CHL1    C9 6619   1.140   4.738   3.043
   74CHL1    H9 6620   1.035   4.774   3.044
   74CHL1   C10 6621   1.179   4.713   2.891
   74CHL1   C19 6622   1.313   4.630   2.874
   74CHL1  H19A 6623   1.365   4.626   2.776
   74CHL1  H19B 6624   1.393   4.679   2.933
   74CHL1  H19C 6625   1.301   4.525   2.907
   74CHL1    C1 6626   1.060   4.642   2.827
   74CHL1   H1A 6627   1.036   4.545   2.876
   74CHL1   H1B 6628   0.964   4.693   2.852
   74CHL1    C2 6629   1.057   4.626   2.681
   74CHL1   H2A 6630   0.965   4.577   2.643
   74CHL1   H2B 6631   1.153   4.582   2.647
   74CHL1   C20 6632   1.203   4.739   3.608
   74CHL1   H20 6633   1.313   4.727   3.610
   74CHL1   C21 6634   1.138   4.593   3.611
   74CHL1  H21A 6635   1.175   4.534   3.524
   74CHL1  H21B 6636   1.029   4.613   3.604
   74CHL1  H21C 6637   1.156   4.535   3.704
   74CHL1   C22 6638   1.159   4.806   3.731
   74CHL1  H22A 6639   1.204   4.906   3.749
   74CHL1  H22B 6640   1.049   4.814   3.738
   74CHL1   C23 6641   1.196   4.733   3.866
   74CHL1  H23A 6642   1.147   4.633   3.869
   74CHL1  H23B 6643   1.306   4.730   3.881
   74CHL1   C24 6644   1.130   4.814   3.975
   74CHL1  H24A 6645   1.110   4.921   3.959
   74CHL1  H24B 6646   1.033   4.769   4.005
   74CHL1   C25 6647   1.223   4.793   4.105
   74CHL1   H25 6648   1.330   4.798   4.075
   74CHL1   C26 6649   1.190   4.898   4.217
   74CHL1  H26A 6650   1.198   4.997   4.167
   74CHL1  H26B 6651   1.094   4.894   4.273
   74CHL1  H26C 6652   1.271   4.888   4.292
   74CHL1   C27 6653   1.207   4.658   4.175
   74CHL1  H27A 6654   1.281   4.645   4.256
   74CHL1  H27B 6655   1.103   4.657   4.215
   74CHL1  H27C 6656   1.218   4.581   4.095
   75CHL1    C3 6657   1.027   3.623   2.652
   75CHL1    H3 6658   0.932   3.568   2.634
   75CHL1    O3 6659   1.084   3.640   2.520
   75CHL1   H3' 6660   1.178   3.644   2.539
   75CHL1    C4 6661   0.989   3.764   2.702
   75CHL1   H4A 6662   1.076   3.834   2.703
   75CHL1   H4B 6663   0.919   3.815   2.633
   75CHL1    C5 6664   0.935   3.751   2.847
   75CHL1    C6 6665   0.817   3.801   2.886
   75CHL1    H6 6666   0.757   3.864   2.818
   75CHL1    C7 6667   0.774   3.812   3.025
   75CHL1   H7A 6668   0.724   3.906   3.055
   75CHL1   H7B 6669   0.690   3.740   3.022
   75CHL1    C8 6670   0.875   3.762   3.132
   75CHL1    H8 6671   0.933   3.853   3.157
   75CHL1   C14 6672   0.798   3.708   3.253
   75CHL1   H14 6673   0.745   3.619   3.212
   75CHL1   C15 6674   0.674   3.778   3.309
   75CHL1  H15A 6675   0.699   3.886   3.309
   75CHL1  H15B 6676   0.593   3.757   3.237
   75CHL1   C16 6677   0.656   3.722   3.441
   75CHL1  H16A 6678   0.675   3.792   3.525
   75CHL1  H16B 6679   0.561   3.672   3.468
   75CHL1   C17 6680   0.772   3.614   3.463
   75CHL1   H17 6681   0.727   3.524   3.415
   75CHL1   C13 6682   0.887   3.654   3.369
   75CHL1   C18 6683   0.955   3.776   3.430
   75CHL1  H18A 6684   1.012   3.755   3.523
   75CHL1  H18B 6685   1.024   3.819   3.353
   75CHL1  H18C 6686   0.887   3.860   3.453
   75CHL1   C12 6687   0.981   3.554   3.312
   75CHL1  H12A 6688   1.051   3.527   3.393
   75CHL1  H12B 6689   0.926   3.464   3.278
   75CHL1   C11 6690   1.062   3.597   3.189
   75CHL1  H11A 6691   1.137   3.667   3.230
   75CHL1  H11B 6692   1.115   3.508   3.148
   75CHL1    C9 6693   0.967   3.652   3.079
   75CHL1    H9 6694   0.905   3.563   3.056
   75CHL1   C10 6695   1.034   3.688   2.947
   75CHL1   C19 6696   1.160   3.781   2.973
   75CHL1  H19A 6697   1.135   3.863   3.044
   75CHL1  H19B 6698   1.237   3.716   3.018
   75CHL1  H19C 6699   1.199   3.826   2.879
   75CHL1    C1 6700   1.095   3.557   2.887
   75CHL1   H1A 6701   1.177   3.508   2.944
   75CHL1   H1B 6702   1.011   3.485   2.891
   75CHL1    C2 6703   1.132   3.560   2.741
   75CHL1   H2A 6704   1.160   3.459   2.703
   75CHL1   H2B 6705   1.224   3.623   2.737
   75CHL1   C20 6706   0.804   3.569   3.608
   75CHL1   H20 6707   0.879   3.634   3.657
   75CHL1   C21 6708   0.868   3.429   3.603
   75CHL1  H21A 6709   0.915   3.411   3.702
   75CHL1  H21B 6710   0.952   3.417   3.532
   75CHL1  H21C 6711   0.785   3.357   3.587
   75CHL1   C22 6712   0.677   3.570   3.707
   75CHL1  H22A 6713   0.638   3.674   3.715
   75CHL1  H22B 6714   0.598   3.506   3.662
   75CHL1   C23 6715   0.705   3.514   3.844
   75CHL1  H23A 6716   0.735   3.407   3.832
   75CHL1  H23B 6717   0.782   3.582   3.885
   75CHL1   C24 6718   0.589   3.522   3.948
   75CHL1  H24A 6719   0.569   3.627   3.978
   75CHL1  H24B 6720   0.495   3.485   3.901
   75CHL1   C25 6721   0.625   3.420   4.060
   75CHL1   H25 6722   0.634   3.323   4.008
   75CHL1   C26 6723   0.758   3.452   4.134
   75CHL1  H26A 6724   0.849   3.439   4.072
   75CHL1  H26B 6725   0.748   3.558   4.166
   75CHL1  H26C 6726   0.782   3.391   4.224
   75CHL1   C27 6727   0.516   3.413   4.155
   75CHL1  H27A 6728   0.477   3.514   4.182
   75CHL1  H27B 6729   0.433   3.347   4.122
   75CHL1  H27C 6730   0.558   3.368   4.247
   76CHL1    C3 6731   6.603   5.120   2.673
   76CHL1    H3 6732   6.502   5.073   2.666
   76CHL1    O3 6733   6.641   5.119   2.537
   76CHL1   H3' 6734   6.665   5.211   2.522
   76CHL1    C4 6735   6.590   5.269   2.727
   76CHL1   H4A 6736   6.681   5.323   2.693
   76CHL1   H4B 6737   6.501   5.303   2.670
   76CHL1    C5 6738   6.557   5.271   2.874
   76CHL1    C6 6739   6.454   5.337   2.926
   76CHL1    H6 6740   6.379   5.387   2.863
   76CHL1    C7 6741   6.434   5.334   3.076
   76CHL1   H7A 6742   6.386   5.431   3.097
   76CHL1   H7B 6743   6.356   5.256   3.090
   76CHL1    C8 6744   6.560   5.313   3.160
   76CHL1    H8 6745   6.614   5.409   3.144
   76CHL1   C14 6746   6.525   5.297   3.301
   76CHL1   H14 6747   6.467   5.202   3.304
   76CHL1   C15 6748   6.431   5.397   3.370
   76CHL1  H15A 6749   6.450   5.505   3.350
   76CHL1  H15B 6750   6.327   5.384   3.334
   76CHL1   C16 6751   6.448   5.364   3.518
   76CHL1  H16A 6752   6.439   5.457   3.578
   76CHL1  H16B 6753   6.369   5.292   3.551
   76CHL1   C17 6754   6.580   5.282   3.536
   76CHL1   H17 6755   6.539   5.180   3.556
   76CHL1   C13 6756   6.643   5.281   3.395
   76CHL1   C18 6757   6.740   5.397   3.378
   76CHL1  H18A 6758   6.817   5.393   3.458
   76CHL1  H18B 6759   6.788   5.403   3.278
   76CHL1  H18C 6760   6.684   5.492   3.394
   76CHL1   C12 6761   6.713   5.149   3.357
   76CHL1  H12A 6762   6.806   5.151   3.418
   76CHL1  H12B 6763   6.664   5.052   3.384
   76CHL1   C11 6764   6.755   5.145   3.210
   76CHL1  H11A 6765   6.845   5.205   3.186
   76CHL1  H11B 6766   6.793   5.042   3.194
   76CHL1    C9 6767   6.636   5.189   3.116
   76CHL1    H9 6768   6.565   5.105   3.130
   76CHL1   C10 6769   6.665   5.199   2.968
   76CHL1   C19 6770   6.797   5.280   2.947
   76CHL1  H19A 6771   6.828   5.301   2.843
   76CHL1  H19B 6772   6.785   5.372   3.008
   76CHL1  H19C 6773   6.881   5.226   2.995
   76CHL1    C1 6774   6.685   5.055   2.912
   76CHL1   H1A 6775   6.777   5.018   2.963
   76CHL1   H1B 6776   6.598   4.995   2.945
   76CHL1    C2 6777   6.704   5.042   2.759
   76CHL1   H2A 6778   6.693   4.934   2.736
   76CHL1   H2B 6779   6.809   5.074   2.737
   76CHL1   C20 6780   6.662   5.320   3.662
   76CHL1   H20 6781   6.728   5.405   3.636
   76CHL1   C21 6782   6.753   5.198   3.692
   76CHL1  H21A 6783   6.835   5.193   3.617
   76CHL1  H21B 6784   6.695   5.103   3.689
   76CHL1  H21C 6785   6.796   5.210   3.793
   76CHL1   C22 6786   6.575   5.347   3.782
   76CHL1  H22A 6787   6.635   5.358   3.875
   76CHL1  H22B 6788   6.516   5.441   3.769
   76CHL1   C23 6789   6.471   5.239   3.816
   76CHL1  H23A 6790   6.405   5.218   3.730
   76CHL1  H23B 6791   6.538   5.153   3.840
   76CHL1   C24 6792   6.389   5.279   3.943
   76CHL1  H24A 6793   6.455   5.331   4.015
   76CHL1  H24B 6794   6.317   5.361   3.919
   76CHL1   C25 6795   6.313   5.159   4.006
   76CHL1   H25 6796   6.264   5.196   4.099
   76CHL1   C26 6797   6.195   5.108   3.923
   76CHL1  H26A 6798   6.139   5.199   3.891
   76CHL1  H26B 6799   6.235   5.042   3.843
   76CHL1  H26C 6800   6.122   5.052   3.985
   76CHL1   C27 6801   6.399   5.038   4.039
   76CHL1  H27A 6802   6.455   5.011   3.946
   76CHL1  H27B 6803   6.464   5.066   4.125
   76CHL1  H27C 6804   6.343   4.953   4.081
   77SOPE     N 6805   3.282   3.132   6.522
   77SOPE   HN1 6806   3.234   3.041   6.537
   77SOPE   HN2 6807   3.236   3.177   6.440
   77SOPE   HN3 6808   3.384   3.122   6.504
   77SOPE   C12 6809   3.255   3.233   6.632
   77SOPE  H12A 6810   3.299   3.185   6.722
   77SOPE  H12B 6811   3.145   3.241   6.642
   77SOPE   C11 6812   3.314   3.371   6.608
   77SOPE  H11A 6813   3.424   3.367   6.596
   77SOPE  H11B 6814   3.291   3.438   6.693
   77SOPE     P 6815   3.132   3.468   6.452
   77SOPE   O13 6816   3.116   3.603   6.511
   77SOPE   O14 6817   3.036   3.371   6.502
   77SOPE   O12 6818   3.273   3.417   6.480
   77SOPE   O11 6819   3.118   3.471   6.297
   77SOPE    C1 6820   3.237   3.486   6.218
   77SOPE    HA 6821   3.304   3.405   6.254
   77SOPE    HB 6822   3.287   3.583   6.237
   77SOPE    C2 6823   3.209   3.474   6.070
   77SOPE    HS 6824   3.144   3.559   6.040
   77SOPE   O21 6825   3.145   3.346   6.047
   77SOPE   C21 6826   3.041   3.354   5.959
   77SOPE   O22 6827   2.998   3.453   5.910
   77SOPE   C22 6828   2.982   3.217   5.949
   77SOPE   H2R 6829   2.884   3.216   6.001
   77SOPE   H2S 6830   3.058   3.146   5.991
   77SOPE    C3 6831   3.343   3.484   5.983
   77SOPE    HX 6832   3.401   3.392   6.004
   77SOPE    HY 6833   3.402   3.574   6.012
   77SOPE   O31 6834   3.307   3.483   5.839
   77SOPE   C31 6835   3.263   3.594   5.783
   77SOPE   O32 6836   3.262   3.701   5.840
   77SOPE   C32 6837   3.217   3.570   5.641
   77SOPE   H2X 6838   3.107   3.590   5.637
   77SOPE   H2Y 6839   3.245   3.468   5.607
   77SOPE   C23 6840   2.959   3.172   5.798
   77SOPE   H3R 6841   2.920   3.256   5.736
   77SOPE   H3S 6842   2.884   3.091   5.787
   77SOPE   C24 6843   3.080   3.114   5.739
   77SOPE   H4R 6844   3.170   3.178   5.754
   77SOPE   H4S 6845   3.106   3.024   5.799
   77SOPE   C25 6846   3.072   3.093   5.587
   77SOPE   H5R 6847   3.168   3.045   5.558
   77SOPE   H5S 6848   2.987   3.030   5.553
   77SOPE   C26 6849   3.074   3.225   5.507
   77SOPE   H6R 6850   3.014   3.304   5.556
   77SOPE   H6S 6851   3.173   3.266   5.534
   77SOPE   C27 6852   3.045   3.205   5.359
   77SOPE   H7R 6853   2.941   3.167   5.352
   77SOPE   H7S 6854   3.034   3.302   5.306
   77SOPE   C28 6855   3.152   3.121   5.291
   77SOPE   H8R 6856   3.254   3.163   5.304
   77SOPE   H8S 6857   3.160   3.020   5.335
   77SOPE   C29 6858   3.109   3.096   5.147
   77SOPE   H91 6859   3.021   3.029   5.144
   77SOPE  C210 6860   3.159   3.143   5.028
   77SOPE  H101 6861   3.111   3.105   4.937
   77SOPE  C211 6862   3.272   3.238   5.005
   77SOPE  H11R 6863   3.341   3.261   5.089
   77SOPE  H11S 6864   3.234   3.336   4.968
   77SOPE  C212 6865   3.373   3.171   4.908
   77SOPE  H12R 6866   3.394   3.070   4.947
   77SOPE  H12S 6867   3.467   3.230   4.914
   77SOPE  C213 6868   3.323   3.162   4.766
   77SOPE  H13R 6869   3.231   3.100   4.767
   77SOPE  H13S 6870   3.408   3.109   4.717
   77SOPE  C214 6871   3.311   3.297   4.697
   77SOPE  H14R 6872   3.382   3.365   4.751
   77SOPE  H14S 6873   3.207   3.325   4.723
   77SOPE  C215 6874   3.338   3.283   4.546
   77SOPE  H15R 6875   3.401   3.193   4.529
   77SOPE  H15S 6876   3.399   3.370   4.516
   77SOPE  C216 6877   3.210   3.275   4.460
   77SOPE  H16R 6878   3.151   3.369   4.467
   77SOPE  H16S 6879   3.147   3.193   4.500
   77SOPE  C217 6880   3.255   3.241   4.314
   77SOPE  H17R 6881   3.328   3.320   4.287
   77SOPE  H17S 6882   3.163   3.242   4.252
   77SOPE  C218 6883   3.324   3.108   4.288
   77SOPE  H18R 6884   3.330   3.077   4.181
   77SOPE  H18S 6885   3.271   3.026   4.341
   77SOPE  H18T 6886   3.429   3.121   4.321
   77SOPE   C33 6887   3.292   3.645   5.530
   77SOPE   H3X 6888   3.399   3.615   5.532
   77SOPE   H3Y 6889   3.300   3.755   5.547
   77SOPE   C34 6890   3.230   3.615   5.396
   77SOPE   H4X 6891   3.124   3.646   5.393
   77SOPE   H4Y 6892   3.234   3.505   5.388
   77SOPE   C35 6893   3.295   3.703   5.285
   77SOPE   H5X 6894   3.399   3.724   5.318
   77SOPE   H5Y 6895   3.242   3.800   5.286
   77SOPE   C36 6896   3.283   3.647   5.138
   77SOPE   H6X 6897   3.186   3.594   5.128
   77SOPE   H6Y 6898   3.369   3.577   5.138
   77SOPE   C37 6899   3.303   3.740   5.026
   77SOPE   H7X 6900   3.398   3.788   5.057
   77SOPE   H7Y 6901   3.220   3.814   5.015
   77SOPE   C38 6902   3.324   3.664   4.896
   77SOPE   H8X 6903   3.234   3.613   4.856
   77SOPE   H8Y 6904   3.398   3.582   4.912
   77SOPE   C39 6905   3.388   3.748   4.786
   77SOPE   H9X 6906   3.481   3.793   4.826
   77SOPE   H9Y 6907   3.311   3.825   4.767
   77SOPE  C310 6908   3.438   3.668   4.667
   77SOPE  H10X 6909   3.347   3.619   4.626
   77SOPE  H10Y 6910   3.510   3.590   4.700
   77SOPE  C311 6911   3.500   3.755   4.555
   77SOPE  H11X 6912   3.605   3.779   4.584
   77SOPE  H11Y 6913   3.443   3.851   4.546
   77SOPE  C312 6914   3.486   3.685   4.411
   77SOPE  H12X 6915   3.393   3.629   4.387
   77SOPE  H12Y 6916   3.578   3.623   4.420
   77SOPE  C313 6917   3.482   3.788   4.302
   77SOPE  H13X 6918   3.573   3.852   4.308
   77SOPE  H13Y 6919   3.393   3.853   4.319
   77SOPE  C314 6920   3.494   3.727   4.162
   77SOPE  H14X 6921   3.412   3.652   4.150
   77SOPE  H14Y 6922   3.589   3.671   4.152
   77SOPE  C315 6923   3.502   3.832   4.051
   77SOPE  H15X 6924   3.592   3.897   4.059
   77SOPE  H15Y 6925   3.406   3.888   4.056
   77SOPE  C316 6926   3.501   3.769   3.911
   77SOPE  H16X 6927   3.408   3.709   3.903
   77SOPE  H16Y 6928   3.577   3.692   3.886
   77SOPE  C317 6929   3.512   3.886   3.798
   77SOPE  H17X 6930   3.413   3.935   3.807
   77SOPE  H17Y 6931   3.513   3.839   3.697
   77SOPE  C318 6932   3.633   3.975   3.808
   77SOPE  H18X 6933   3.631   4.033   3.903
   77SOPE  H18Y 6934   3.634   4.046   3.722
   77SOPE  H18Z 6935   3.723   3.910   3.804
   78SOPE     N 6936   3.000   3.767   6.309
   78SOPE   HN1 6937   2.978   3.867   6.330
   78SOPE   HN2 6938   3.049   3.726   6.391
   78SOPE   HN3 6939   3.067   3.771   6.229
   78SOPE   C12 6940   2.888   3.687   6.251
   78SOPE  H12A 6941   2.920   3.592   6.203
   78SOPE  H12B 6942   2.846   3.752   6.172
   78SOPE   C11 6943   2.790   3.664   6.366
   78SOPE  H11A 6944   2.848   3.622   6.452
   78SOPE  H11B 6945   2.724   3.579   6.338
   78SOPE     P 6946   2.627   3.795   6.529
   78SOPE   O13 6947   2.522   3.894   6.500
   78SOPE   O14 6948   2.704   3.817   6.656
   78SOPE   O12 6949   2.719   3.783   6.405
   78SOPE   O11 6950   2.560   3.650   6.538
   78SOPE    C1 6951   2.427   3.616   6.498
   78SOPE    HA 6952   2.382   3.699   6.441
   78SOPE    HB 6953   2.366   3.604   6.590
   78SOPE    C2 6954   2.421   3.493   6.407
   78SOPE    HS 6955   2.489   3.414   6.444
   78SOPE   O21 6956   2.454   3.547   6.278
   78SOPE   C21 6957   2.526   3.477   6.199
   78SOPE   O22 6958   2.564   3.362   6.221
   78SOPE   C22 6959   2.580   3.565   6.079
   78SOPE   H2R 6960   2.621   3.660   6.120
   78SOPE   H2S 6961   2.501   3.580   6.001
   78SOPE    C3 6962   2.276   3.434   6.407
   78SOPE    HX 6963   2.203   3.516   6.419
   78SOPE    HY 6964   2.273   3.367   6.496
   78SOPE   O31 6965   2.233   3.362   6.289
   78SOPE   C31 6966   2.271   3.230   6.278
   78SOPE   O32 6967   2.314   3.169   6.373
   78SOPE   C32 6968   2.230   3.161   6.150
   78SOPE   H2X 6969   2.120   3.152   6.156
   78SOPE   H2Y 6970   2.265   3.056   6.156
   78SOPE   C23 6971   2.705   3.501   6.009
   78SOPE   H3R 6972   2.764   3.450   6.089
   78SOPE   H3S 6973   2.774   3.574   5.962
   78SOPE   C24 6974   2.669   3.408   5.891
   78SOPE   H4R 6975   2.766   3.359   5.867
   78SOPE   H4S 6976   2.605   3.330   5.936
   78SOPE   C25 6977   2.621   3.475   5.763
   78SOPE   H5R 6978   2.519   3.447   5.731
   78SOPE   H5S 6979   2.622   3.586   5.777
   78SOPE   C26 6980   2.719   3.450   5.646
   78SOPE   H6R 6981   2.819   3.479   5.685
   78SOPE   H6S 6982   2.728   3.341   5.628
   78SOPE   C27 6983   2.667   3.518   5.525
   78SOPE   H7R 6984   2.559   3.494   5.517
   78SOPE   H7S 6985   2.682   3.628   5.533
   78SOPE   C28 6986   2.742   3.480   5.401
   78SOPE   H8R 6987   2.850   3.502   5.407
   78SOPE   H8S 6988   2.735   3.372   5.375
   78SOPE   C29 6989   2.692   3.567   5.294
   78SOPE   H91 6990   2.661   3.668   5.325
   78SOPE  C210 6991   2.684   3.525   5.166
   78SOPE  H101 6992   2.650   3.605   5.098
   78SOPE  C211 6993   2.746   3.402   5.118
   78SOPE  H11R 6994   2.682   3.347   5.045
   78SOPE  H11S 6995   2.790   3.337   5.196
   78SOPE  C212 6996   2.866   3.430   5.022
   78SOPE  H12R 6997   2.924   3.338   5.000
   78SOPE  H12S 6998   2.938   3.498   5.073
   78SOPE  C213 6999   2.825   3.483   4.888
   78SOPE  H13R 7000   2.760   3.572   4.901
   78SOPE  H13S 7001   2.774   3.405   4.829
   78SOPE  C214 7002   2.948   3.530   4.808
   78SOPE  H14R 7003   3.034   3.465   4.833
   78SOPE  H14S 7004   2.963   3.638   4.829
   78SOPE  C215 7005   2.918   3.521   4.658
   78SOPE  H15R 7006   2.827   3.573   4.621
   78SOPE  H15S 7007   2.894   3.414   4.638
   78SOPE  C216 7008   3.029   3.580   4.573
   78SOPE  H16R 7009   3.005   3.566   4.465
   78SOPE  H16S 7010   3.121   3.524   4.600
   78SOPE  C217 7011   3.053   3.733   4.582
   78SOPE  H17R 7012   3.119   3.746   4.671
   78SOPE  H17S 7013   2.954   3.783   4.587
   78SOPE  C218 7014   3.126   3.787   4.463
   78SOPE  H18R 7015   3.088   3.759   4.362
   78SOPE  H18S 7016   3.233   3.760   4.466
   78SOPE  H18T 7017   3.106   3.896   4.457
   78SOPE   C33 7018   2.270   3.235   6.022
   78SOPE   H3X 7019   2.378   3.222   5.995
   78SOPE   H3Y 7020   2.253   3.345   6.028
   78SOPE   C34 7021   2.183   3.191   5.908
   78SOPE   H4X 7022   2.074   3.192   5.929
   78SOPE   H4Y 7023   2.218   3.086   5.903
   78SOPE   C35 7024   2.216   3.246   5.774
   78SOPE   H5X 7025   2.167   3.180   5.699
   78SOPE   H5Y 7026   2.325   3.235   5.752
   78SOPE   C36 7027   2.151   3.382   5.731
   78SOPE   H6X 7028   2.183   3.463   5.800
   78SOPE   H6Y 7029   2.040   3.370   5.729
   78SOPE   C37 7030   2.194   3.425   5.586
   78SOPE   H7X 7031   2.158   3.354   5.509
   78SOPE   H7Y 7032   2.305   3.422   5.588
   78SOPE   C38 7033   2.149   3.566   5.565
   78SOPE   H8X 7034   2.202   3.642   5.628
   78SOPE   H8Y 7035   2.042   3.577   5.591
   78SOPE   C39 7036   2.164   3.626   5.420
   78SOPE   H9X 7037   2.125   3.729   5.405
   78SOPE   H9Y 7038   2.099   3.565   5.353
   78SOPE  C310 7039   2.308   3.612   5.367
   78SOPE  H10X 7040   2.348   3.511   5.391
   78SOPE  H10Y 7041   2.374   3.674   5.432
   78SOPE  C311 7042   2.321   3.629   5.215
   78SOPE  H11X 7043   2.423   3.664   5.189
   78SOPE  H11Y 7044   2.262   3.715   5.176
   78SOPE  C312 7045   2.290   3.497   5.141
   78SOPE  H12X 7046   2.200   3.449   5.183
   78SOPE  H12Y 7047   2.368   3.419   5.157
   78SOPE  C313 7048   2.281   3.514   4.991
   78SOPE  H13X 7049   2.382   3.544   4.958
   78SOPE  H13Y 7050   2.215   3.601   4.969
   78SOPE  C314 7051   2.243   3.387   4.917
   78SOPE  H14X 7052   2.191   3.411   4.821
   78SOPE  H14Y 7053   2.163   3.355   4.987
   78SOPE  C315 7054   2.345   3.282   4.907
   78SOPE  H15X 7055   2.395   3.262   5.004
   78SOPE  H15Y 7056   2.420   3.315   4.832
   78SOPE  C316 7057   2.289   3.143   4.858
   78SOPE  H16X 7058   2.371   3.069   4.865
   78SOPE  H16Y 7059   2.273   3.149   4.748
   78SOPE  C317 7060   2.167   3.100   4.940
   78SOPE  H17X 7061   2.074   3.146   4.901
   78SOPE  H17Y 7062   2.169   3.110   5.050
   78SOPE  C318 7063   2.151   2.949   4.917
   78SOPE  H18X 7064   2.247   2.901   4.947
   78SOPE  H18Y 7065   2.151   2.914   4.812
   78SOPE  H18Z 7066   2.070   2.910   4.981
   79SOPE     N 7067   5.034   1.108   6.197
   79SOPE   HN1 7068   5.058   1.158   6.285
   79SOPE   HN2 7069   5.025   1.007   6.221
   79SOPE   HN3 7070   5.107   1.117   6.124
   79SOPE   C12 7071   4.902   1.148   6.146
   79SOPE  H12A 7072   4.893   1.121   6.039
   79SOPE  H12B 7073   4.894   1.258   6.157
   79SOPE   C11 7074   4.789   1.070   6.211
   79SOPE  H11A 7075   4.808   0.963   6.186
   79SOPE  H11B 7076   4.688   1.086   6.166
   79SOPE     P 7077   4.724   1.223   6.409
   79SOPE   O13 7078   4.824   1.330   6.401
   79SOPE   O14 7079   4.670   1.206   6.544
   79SOPE   O12 7080   4.788   1.094   6.349
   79SOPE   O11 7081   4.609   1.257   6.312
   79SOPE    C1 7082   4.499   1.333   6.345
   79SOPE    HA 7083   4.467   1.374   6.247
   79SOPE    HB 7084   4.521   1.419   6.412
   79SOPE    C2 7085   4.383   1.237   6.396
   79SOPE    HS 7086   4.406   1.212   6.502
   79SOPE   O21 7087   4.379   1.119   6.313
   79SOPE   C21 7088   4.304   1.020   6.340
   79SOPE   O22 7089   4.242   1.002   6.448
   79SOPE   C22 7090   4.322   0.917   6.230
   79SOPE   H2R 7091   4.231   0.934   6.167
   79SOPE   H2S 7092   4.312   0.816   6.275
   79SOPE    C3 7093   4.243   1.308   6.377
   79SOPE    HX 7094   4.243   1.393   6.448
   79SOPE    HY 7095   4.159   1.246   6.415
   79SOPE   O31 7096   4.234   1.364   6.246
   79SOPE   C31 7097   4.165   1.281   6.166
   79SOPE   O32 7098   4.096   1.188   6.207
   79SOPE   C32 7099   4.173   1.315   6.018
   79SOPE   H2X 7100   4.242   1.401   6.010
   79SOPE   H2Y 7101   4.078   1.364   5.989
   79SOPE   C23 7102   4.452   0.928   6.151
   79SOPE   H3R 7103   4.535   0.914   6.223
   79SOPE   H3S 7104   4.467   1.029   6.108
   79SOPE   C24 7105   4.460   0.809   6.055
   79SOPE   H4R 7106   4.463   0.715   6.114
   79SOPE   H4S 7107   4.374   0.800   5.985
   79SOPE   C25 7108   4.589   0.821   5.985
   79SOPE   H5R 7109   4.672   0.853   6.051
   79SOPE   H5S 7110   4.619   0.727   5.934
   79SOPE   C26 7111   4.573   0.924   5.865
   79SOPE   H6R 7112   4.472   0.902   5.824
   79SOPE   H6S 7113   4.575   1.028   5.903
   79SOPE   C27 7114   4.671   0.932   5.750
   79SOPE   H7R 7115   4.690   0.832   5.707
   79SOPE   H7S 7116   4.624   0.984   5.664
   79SOPE   C28 7117   4.810   1.000   5.797
   79SOPE   H8R 7118   4.832   0.947   5.892
   79SOPE   H8S 7119   4.879   0.972   5.715
   79SOPE   C29 7120   4.788   1.142   5.813
   79SOPE   H91 7121   4.734   1.169   5.905
   79SOPE  C210 7122   4.804   1.241   5.719
   79SOPE  H101 7123   4.781   1.347   5.736
   79SOPE  C211 7124   4.830   1.196   5.578
   79SOPE  H11R 7125   4.810   1.089   5.554
   79SOPE  H11S 7126   4.941   1.204   5.569
   79SOPE  C212 7127   4.742   1.268   5.465
   79SOPE  H12R 7128   4.745   1.377   5.485
   79SOPE  H12S 7129   4.636   1.237   5.476
   79SOPE  C213 7130   4.793   1.233   5.324
   79SOPE  H13R 7131   4.781   1.122   5.319
   79SOPE  H13S 7132   4.901   1.261   5.322
   79SOPE  C214 7133   4.711   1.290   5.214
   79SOPE  H14R 7134   4.745   1.393   5.189
   79SOPE  H14S 7135   4.603   1.294   5.242
   79SOPE  C215 7136   4.710   1.204   5.082
   79SOPE  H15R 7137   4.655   1.109   5.100
   79SOPE  H15S 7138   4.816   1.173   5.072
   79SOPE  C216 7139   4.662   1.281   4.964
   79SOPE  H16R 7140   4.710   1.380   4.954
   79SOPE  H16S 7141   4.554   1.306   4.959
   79SOPE  C217 7142   4.689   1.201   4.835
   79SOPE  H17R 7143   4.683   1.092   4.858
   79SOPE  H17S 7144   4.789   1.221   4.790
   79SOPE  C218 7145   4.592   1.228   4.727
   79SOPE  H18R 7146   4.496   1.176   4.752
   79SOPE  H18S 7147   4.632   1.204   4.627
   79SOPE  H18T 7148   4.564   1.336   4.726
   79SOPE   C33 7149   4.203   1.190   5.927
   79SOPE   H3X 7150   4.288   1.127   5.961
   79SOPE   H3Y 7151   4.231   1.234   5.829
   79SOPE   C34 7152   4.079   1.102   5.907
   79SOPE   H4X 7153   3.998   1.164   5.862
   79SOPE   H4Y 7154   4.043   1.086   6.011
   79SOPE   C35 7155   4.106   0.972   5.837
   79SOPE   H5X 7156   4.010   0.921   5.812
   79SOPE   H5Y 7157   4.180   0.915   5.896
   79SOPE   C36 7158   4.168   1.003   5.703
   79SOPE   H6X 7159   4.268   1.051   5.716
   79SOPE   H6Y 7160   4.106   1.081   5.654
   79SOPE   C37 7161   4.184   0.877   5.618
   79SOPE   H7X 7162   4.082   0.850   5.583
   79SOPE   H7Y 7163   4.206   0.801   5.696
   79SOPE   C38 7164   4.279   0.875   5.508
   79SOPE   H8X 7165   4.377   0.920   5.535
   79SOPE   H8Y 7166   4.241   0.950   5.435
   79SOPE   C39 7167   4.308   0.734   5.458
   79SOPE   H9X 7168   4.218   0.668   5.451
   79SOPE   H9Y 7169   4.393   0.697   5.519
   79SOPE  C310 7170   4.368   0.731   5.315
   79SOPE  H10X 7171   4.306   0.794   5.248
   79SOPE  H10Y 7172   4.374   0.631   5.266
   79SOPE  C311 7173   4.506   0.794   5.316
   79SOPE  H11X 7174   4.569   0.757   5.400
   79SOPE  H11Y 7175   4.485   0.898   5.347
   79SOPE  C312 7176   4.564   0.773   5.172
   79SOPE  H12X 7177   4.508   0.840   5.103
   79SOPE  H12Y 7178   4.540   0.672   5.133
   79SOPE  C313 7179   4.707   0.812   5.169
   79SOPE  H13X 7180   4.719   0.904   5.230
   79SOPE  H13Y 7181   4.733   0.828   5.062
   79SOPE  C314 7182   4.788   0.694   5.230
   79SOPE  H14X 7183   4.774   0.602   5.169
   79SOPE  H14Y 7184   4.743   0.669   5.328
   79SOPE  C315 7185   4.931   0.729   5.260
   79SOPE  H15X 7186   4.982   0.781   5.176
   79SOPE  H15Y 7187   4.982   0.636   5.293
   79SOPE  C316 7188   4.951   0.834   5.376
   79SOPE  H16X 7189   4.911   0.790   5.470
   79SOPE  H16Y 7190   4.883   0.919   5.351
   79SOPE  C317 7191   5.099   0.872   5.382
   79SOPE  H17X 7192   5.129   0.919   5.286
   79SOPE  H17Y 7193   5.151   0.774   5.391
   79SOPE  C318 7194   5.129   0.967   5.494
   79SOPE  H18X 7195   5.236   0.962   5.524
   79SOPE  H18Y 7196   5.074   0.945   5.588
   79SOPE  H18Z 7197   5.106   1.072   5.465
   80SOPE     N 7198   2.068   3.971   6.404
   80SOPE   HN1 7199   2.165   3.956   6.371
   80SOPE   HN2 7200   2.026   3.886   6.361
   80SOPE   HN3 7201   2.031   4.059   6.363
   80SOPE   C12 7202   2.062   3.952   6.555
   80SOPE  H12A 7203   1.987   4.026   6.589
   80SOPE  H12B 7204   2.166   3.972   6.590
   80SOPE   C11 7205   2.018   3.804   6.576
   80SOPE  H11A 7206   1.989   3.806   6.684
   80SOPE  H11B 7207   2.104   3.738   6.551
   80SOPE     P 7208   1.794   3.681   6.546
   80SOPE   O13 7209   1.686   3.778   6.583
   80SOPE   O14 7210   1.852   3.600   6.656
   80SOPE   O12 7211   1.914   3.766   6.479
   80SOPE   O11 7212   1.751   3.585   6.439
   80SOPE    C1 7213   1.846   3.511   6.357
   80SOPE    HA 7214   1.795   3.414   6.338
   80SOPE    HB 7215   1.942   3.486   6.405
   80SOPE    C2 7216   1.871   3.589   6.224
   80SOPE    HS 7217   1.891   3.697   6.241
   80SOPE   O21 7218   1.756   3.569   6.139
   80SOPE   C21 7219   1.734   3.666   6.052
   80SOPE   O22 7220   1.800   3.773   6.049
   80SOPE   C22 7221   1.607   3.626   5.967
   80SOPE   H2R 7222   1.591   3.706   5.892
   80SOPE   H2S 7223   1.513   3.617   6.025
   80SOPE    C3 7224   2.000   3.535   6.156
   80SOPE    HX 7225   1.966   3.449   6.096
   80SOPE    HY 7226   2.075   3.502   6.230
   80SOPE   O31 7227   2.053   3.623   6.064
   80SOPE   C31 7228   2.111   3.730   6.115
   80SOPE   O32 7229   2.149   3.743   6.230
   80SOPE   C32 7230   2.128   3.830   6.001
   80SOPE   H2X 7231   2.168   3.923   6.049
   80SOPE   H2Y 7232   2.040   3.842   5.935
   80SOPE   C23 7233   1.639   3.489   5.899
   80SOPE   H3R 7234   1.581   3.414   5.956
   80SOPE   H3S 7235   1.744   3.453   5.909
   80SOPE   C24 7236   1.610   3.477   5.745
   80SOPE   H4R 7237   1.581   3.372   5.720
   80SOPE   H4S 7238   1.516   3.529   5.718
   80SOPE   C25 7239   1.721   3.532   5.654
   80SOPE   H5R 7240   1.728   3.640   5.681
   80SOPE   H5S 7241   1.820   3.489   5.683
   80SOPE   C26 7242   1.694   3.503   5.508
   80SOPE   H6R 7243   1.783   3.510   5.441
   80SOPE   H6S 7244   1.669   3.395   5.499
   80SOPE   C27 7245   1.580   3.581   5.447
   80SOPE   H7R 7246   1.493   3.534   5.497
   80SOPE   H7S 7247   1.602   3.684   5.481
   80SOPE   C28 7248   1.569   3.565   5.295
   80SOPE   H8R 7249   1.664   3.567   5.237
   80SOPE   H8S 7250   1.521   3.466   5.281
   80SOPE   C29 7251   1.463   3.663   5.249
   80SOPE   H91 7252   1.416   3.716   5.333
   80SOPE  C210 7253   1.450   3.706   5.122
   80SOPE  H101 7254   1.381   3.790   5.105
   80SOPE  C211 7255   1.530   3.641   5.010
   80SOPE  H11R 7256   1.494   3.536   5.003
   80SOPE  H11S 7257   1.640   3.633   5.016
   80SOPE  C212 7258   1.505   3.721   4.879
   80SOPE  H12R 7259   1.399   3.741   4.852
   80SOPE  H12S 7260   1.531   3.663   4.788
   80SOPE  C213 7261   1.579   3.860   4.882
   80SOPE  H13R 7262   1.679   3.835   4.925
   80SOPE  H13S 7263   1.534   3.932   4.954
   80SOPE  C214 7264   1.594   3.926   4.741
   80SOPE  H14R 7265   1.660   3.854   4.689
   80SOPE  H14S 7266   1.639   4.027   4.754
   80SOPE  C215 7267   1.468   3.941   4.660
   80SOPE  H15R 7268   1.399   4.002   4.720
   80SOPE  H15S 7269   1.429   3.837   4.657
   80SOPE  C216 7270   1.488   3.985   4.509
   80SOPE  H16R 7271   1.394   3.960   4.456
   80SOPE  H16S 7272   1.552   3.903   4.471
   80SOPE  C217 7273   1.551   4.115   4.475
   80SOPE  H17R 7274   1.656   4.114   4.509
   80SOPE  H17S 7275   1.494   4.205   4.509
   80SOPE  C218 7276   1.575   4.132   4.326
   80SOPE  H18R 7277   1.628   4.227   4.303
   80SOPE  H18S 7278   1.486   4.125   4.260
   80SOPE  H18T 7279   1.642   4.047   4.300
   80SOPE   C33 7280   2.234   3.767   5.903
   80SOPE   H3X 7281   2.217   3.808   5.801
   80SOPE   H3Y 7282   2.212   3.659   5.885
   80SOPE   C34 7283   2.382   3.794   5.944
   80SOPE   H4X 7284   2.437   3.725   5.877
   80SOPE   H4Y 7285   2.369   3.767   6.051
   80SOPE   C35 7286   2.438   3.936   5.924
   80SOPE   H5X 7287   2.532   3.954   5.981
   80SOPE   H5Y 7288   2.366   4.006   5.972
   80SOPE   C36 7289   2.451   3.986   5.777
   80SOPE   H6X 7290   2.428   4.095   5.782
   80SOPE   H6Y 7291   2.369   3.932   5.725
   80SOPE   C37 7292   2.590   3.959   5.720
   80SOPE   H7X 7293   2.589   3.849   5.700
   80SOPE   H7Y 7294   2.668   3.983   5.795
   80SOPE   C38 7295   2.607   4.023   5.588
   80SOPE   H8X 7296   2.711   4.046   5.558
   80SOPE   H8Y 7297   2.561   4.123   5.607
   80SOPE   C39 7298   2.542   3.957   5.472
   80SOPE   H9X 7299   2.435   3.937   5.489
   80SOPE   H9Y 7300   2.592   3.859   5.456
   80SOPE  C310 7301   2.558   4.038   5.338
   80SOPE  H10X 7302   2.660   4.042   5.295
   80SOPE  H10Y 7303   2.522   4.142   5.355
   80SOPE  C311 7304   2.462   3.999   5.219
   80SOPE  H11X 7305   2.356   4.019   5.247
   80SOPE  H11Y 7306   2.454   3.890   5.200
   80SOPE  C312 7307   2.510   4.069   5.090
   80SOPE  H12X 7308   2.609   4.027   5.063
   80SOPE  H12Y 7309   2.534   4.176   5.110
   80SOPE  C313 7310   2.419   4.058   4.965
   80SOPE  H13X 7311   2.432   4.135   4.887
   80SOPE  H13Y 7312   2.315   4.078   4.997
   80SOPE  C314 7313   2.415   3.914   4.900
   80SOPE  H14X 7314   2.355   3.926   4.808
   80SOPE  H14Y 7315   2.373   3.838   4.970
   80SOPE  C315 7316   2.556   3.869   4.865
   80SOPE  H15X 7317   2.622   3.850   4.952
   80SOPE  H15Y 7318   2.589   3.947   4.794
   80SOPE  C316 7319   2.571   3.735   4.785
   80SOPE  H16X 7320   2.527   3.655   4.848
   80SOPE  H16Y 7321   2.679   3.719   4.763
   80SOPE  C317 7322   2.477   3.721   4.665
   80SOPE  H17X 7323   2.509   3.794   4.587
   80SOPE  H17Y 7324   2.375   3.743   4.702
   80SOPE  C318 7325   2.487   3.580   4.613
   80SOPE  H18X 7326   2.444   3.572   4.510
   80SOPE  H18Y 7327   2.435   3.509   4.681
   80SOPE  H18Z 7328   2.590   3.537   4.612
   81SOPE     N 7329   4.924   1.374   6.664
   81SOPE   HN1 7330   4.848   1.393   6.733
   81SOPE   HN2 7331   4.875   1.372   6.573
   81SOPE   HN3 7332   4.966   1.281   6.688
   81SOPE   C12 7333   5.024   1.483   6.673
   81SOPE  H12A 7334   5.063   1.503   6.775
   81SOPE  H12B 7335   4.989   1.583   6.640
   81SOPE   C11 7336   5.144   1.441   6.578
   81SOPE  H11A 7337   5.209   1.530   6.566
   81SOPE  H11B 7338   5.088   1.436   6.482
   81SOPE     P 7339   5.185   1.188   6.515
   81SOPE   O13 7340   5.051   1.135   6.524
   81SOPE   O14 7341   5.299   1.091   6.535
   81SOPE   O12 7342   5.205   1.313   6.614
   81SOPE   O11 7343   5.199   1.251   6.367
   81SOPE    C1 7344   5.297   1.351   6.335
   81SOPE    HA 7345   5.383   1.345   6.405
   81SOPE    HB 7346   5.253   1.452   6.349
   81SOPE    C2 7347   5.346   1.345   6.188
   81SOPE    HS 7348   5.424   1.421   6.168
   81SOPE   O21 7349   5.241   1.370   6.097
   81SOPE   C21 7350   5.201   1.487   6.080
   81SOPE   O22 7351   5.257   1.591   6.119
   81SOPE   C22 7352   5.061   1.485   6.016
   81SOPE   H2R 7353   4.980   1.471   6.091
   81SOPE   H2S 7354   5.050   1.390   5.960
   81SOPE    C3 7355   5.416   1.209   6.161
   81SOPE    HX 7356   5.354   1.134   6.214
   81SOPE    HY 7357   5.516   1.217   6.209
   81SOPE   O31 7358   5.426   1.206   6.019
   81SOPE   C31 7359   5.334   1.139   5.952
   81SOPE   O32 7360   5.227   1.102   5.996
   81SOPE   C32 7361   5.373   1.128   5.801
   81SOPE   H2X 7362   5.286   1.090   5.743
   81SOPE   H2Y 7363   5.458   1.057   5.790
   81SOPE   C23 7364   5.029   1.599   5.912
   81SOPE   H3R 7365   5.061   1.695   5.958
   81SOPE   H3S 7366   4.918   1.607   5.914
   81SOPE   C24 7367   5.080   1.579   5.772
   81SOPE   H4R 7368   5.189   1.598   5.764
   81SOPE   H4S 7369   5.080   1.473   5.738
   81SOPE   C25 7370   5.009   1.675   5.678
   81SOPE   H5R 7371   4.899   1.669   5.693
   81SOPE   H5S 7372   5.028   1.782   5.702
   81SOPE   C26 7373   5.033   1.647   5.528
   81SOPE   H6R 7374   5.141   1.628   5.509
   81SOPE   H6S 7375   4.982   1.549   5.521
   81SOPE   C27 7376   4.968   1.742   5.432
   81SOPE   H7R 7377   4.865   1.762   5.467
   81SOPE   H7S 7378   5.008   1.846   5.435
   81SOPE   C28 7379   4.971   1.675   5.296
   81SOPE   H8R 7380   4.945   1.567   5.308
   81SOPE   H8S 7381   4.889   1.717   5.234
   81SOPE   C29 7382   5.104   1.689   5.221
   81SOPE   H91 7383   5.194   1.650   5.270
   81SOPE  C210 7384   5.112   1.738   5.094
   81SOPE  H101 7385   5.213   1.745   5.049
   81SOPE  C211 7386   5.000   1.806   5.008
   81SOPE  H11R 7387   5.045   1.887   4.946
   81SOPE  H11S 7388   4.934   1.864   5.076
   81SOPE  C212 7389   4.913   1.725   4.913
   81SOPE  H12R 7390   4.852   1.649   4.967
   81SOPE  H12S 7391   4.962   1.667   4.832
   81SOPE  C213 7392   4.808   1.809   4.839
   81SOPE  H13R 7393   4.735   1.851   4.912
   81SOPE  H13S 7394   4.744   1.741   4.778
   81SOPE  C214 7395   4.868   1.912   4.740
   81SOPE  H14R 7396   4.940   1.850   4.682
   81SOPE  H14S 7397   4.934   1.977   4.803
   81SOPE  C215 7398   4.775   1.985   4.645
   81SOPE  H15R 7399   4.698   2.031   4.710
   81SOPE  H15S 7400   4.737   1.914   4.569
   81SOPE  C216 7401   4.849   2.099   4.570
   81SOPE  H16R 7402   4.881   2.168   4.652
   81SOPE  H16S 7403   4.773   2.156   4.513
   81SOPE  C217 7404   4.953   2.064   4.472
   81SOPE  H17R 7405   4.918   2.008   4.383
   81SOPE  H17S 7406   5.030   1.998   4.517
   81SOPE  C218 7407   5.022   2.192   4.433
   81SOPE  H18R 7408   4.956   2.240   4.359
   81SOPE  H18S 7409   5.108   2.173   4.365
   81SOPE  H18T 7410   5.057   2.262   4.511
   81SOPE   C33 7411   5.400   1.265   5.741
   81SOPE   H3X 7412   5.502   1.301   5.765
   81SOPE   H3Y 7413   5.324   1.337   5.779
   81SOPE   C34 7414   5.396   1.269   5.594
   81SOPE   H4X 7415   5.318   1.207   5.546
   81SOPE   H4Y 7416   5.493   1.230   5.558
   81SOPE   C35 7417   5.375   1.417   5.537
   81SOPE   H5X 7418   5.442   1.486   5.592
   81SOPE   H5Y 7419   5.270   1.447   5.557
   81SOPE   C36 7420   5.402   1.415   5.385
   81SOPE   H6X 7421   5.507   1.395   5.358
   81SOPE   H6Y 7422   5.368   1.518   5.360
   81SOPE   C37 7423   5.317   1.313   5.305
   81SOPE   H7X 7424   5.222   1.292   5.360
   81SOPE   H7Y 7425   5.366   1.213   5.311
   81SOPE   C38 7426   5.305   1.346   5.162
   81SOPE   H8X 7427   5.409   1.340   5.124
   81SOPE   H8Y 7428   5.265   1.449   5.146
   81SOPE   C39 7429   5.220   1.250   5.079
   81SOPE   H9X 7430   5.115   1.253   5.117
   81SOPE   H9Y 7431   5.239   1.140   5.086
   81SOPE  C310 7432   5.203   1.288   4.928
   81SOPE  H10X 7433   5.301   1.288   4.875
   81SOPE  H10Y 7434   5.166   1.393   4.928
   81SOPE  C311 7435   5.086   1.202   4.864
   81SOPE  H11X 7436   4.988   1.201   4.917
   81SOPE  H11Y 7437   5.138   1.104   4.865
   81SOPE  C312 7438   5.063   1.239   4.721
   81SOPE  H12X 7439   4.992   1.165   4.677
   81SOPE  H12Y 7440   5.160   1.236   4.666
   81SOPE  C313 7441   5.000   1.379   4.707
   81SOPE  H13X 7442   5.080   1.456   4.720
   81SOPE  H13Y 7443   4.930   1.387   4.793
   81SOPE  C314 7444   4.925   1.387   4.573
   81SOPE  H14X 7445   4.891   1.283   4.553
   81SOPE  H14Y 7446   4.992   1.413   4.488
   81SOPE  C315 7447   4.801   1.478   4.567
   81SOPE  H15X 7448   4.839   1.582   4.572
   81SOPE  H15Y 7449   4.746   1.460   4.661
   81SOPE  C316 7450   4.724   1.458   4.440
   81SOPE  H16X 7451   4.700   1.349   4.431
   81SOPE  H16Y 7452   4.789   1.492   4.356
   81SOPE  C317 7453   4.592   1.527   4.432
   81SOPE  H17X 7454   4.608   1.637   4.426
   81SOPE  H17Y 7455   4.539   1.515   4.529
   81SOPE  C318 7456   4.510   1.496   4.305
   81SOPE  H18X 7457   4.550   1.530   4.208
   81SOPE  H18Y 7458   4.405   1.532   4.316
   81SOPE  H18Z 7459   4.493   1.386   4.304
   82SOPE     N 7460   1.959   1.005   6.611
   82SOPE   HN1 7461   2.053   0.993   6.654
   82SOPE   HN2 7462   1.952   0.965   6.516
   82SOPE   HN3 7463   1.953   1.109   6.602
   82SOPE   C12 7464   1.872   0.945   6.709
   82SOPE  H12A 7465   1.769   0.986   6.710
   82SOPE  H12B 7466   1.931   0.966   6.801
   82SOPE   C11 7467   1.880   0.789   6.702
   82SOPE  H11A 7468   1.824   0.754   6.791
   82SOPE  H11B 7469   1.981   0.747   6.719
   82SOPE     P 7470   1.893   0.695   6.462
   82SOPE   O13 7471   1.976   0.582   6.504
   82SOPE   O14 7472   1.958   0.814   6.410
   82SOPE   O12 7473   1.811   0.724   6.588
   82SOPE   O11 7474   1.787   0.644   6.361
   82SOPE    C1 7475   1.694   0.737   6.313
   82SOPE    HA 7476   1.732   0.841   6.306
   82SOPE    HB 7477   1.603   0.724   6.376
   82SOPE    C2 7478   1.656   0.703   6.164
   82SOPE    HS 7479   1.658   0.593   6.149
   82SOPE   O21 7480   1.747   0.776   6.080
   82SOPE   C21 7481   1.805   0.711   5.986
   82SOPE   O22 7482   1.787   0.597   5.958
   82SOPE   C22 7483   1.917   0.801   5.938
   82SOPE   H2R 7484   1.982   0.834   6.022
   82SOPE   H2S 7485   1.875   0.896   5.899
   82SOPE    C3 7486   1.512   0.754   6.133
   82SOPE    HX 7487   1.510   0.858   6.174
   82SOPE    HY 7488   1.448   0.686   6.194
   82SOPE   O31 7489   1.482   0.756   5.992
   82SOPE   C31 7490   1.423   0.650   5.925
   82SOPE   O32 7491   1.377   0.555   5.980
   82SOPE   C32 7492   1.411   0.680   5.777
   82SOPE   H2X 7493   1.395   0.789   5.767
   82SOPE   H2Y 7494   1.317   0.632   5.743
   82SOPE   C23 7495   2.008   0.748   5.828
   82SOPE   H3R 7496   2.028   0.642   5.853
   82SOPE   H3S 7497   2.104   0.803   5.830
   82SOPE   C24 7498   1.950   0.770   5.685
   82SOPE   H4R 7499   1.856   0.711   5.678
   82SOPE   H4S 7500   1.917   0.876   5.681
   82SOPE   C25 7501   2.047   0.730   5.582
   82SOPE   H5R 7502   2.144   0.772   5.616
   82SOPE   H5S 7503   2.062   0.620   5.587
   82SOPE   C26 7504   2.018   0.767   5.441
   82SOPE   H6R 7505   1.938   0.700   5.401
   82SOPE   H6S 7506   1.992   0.874   5.436
   82SOPE   C27 7507   2.144   0.758   5.349
   82SOPE   H7R 7508   2.219   0.832   5.383
   82SOPE   H7S 7509   2.191   0.657   5.352
   82SOPE   C28 7510   2.098   0.799   5.201
   82SOPE   H8R 7511   2.013   0.732   5.175
   82SOPE   H8S 7512   2.063   0.903   5.219
   82SOPE   C29 7513   2.208   0.783   5.103
   82SOPE   H91 7514   2.296   0.833   5.145
   82SOPE  C210 7515   2.197   0.750   4.973
   82SOPE  H101 7516   2.294   0.744   4.921
   82SOPE  C211 7517   2.080   0.711   4.894
   82SOPE  H11R 7518   2.066   0.796   4.823
   82SOPE  H11S 7519   1.990   0.689   4.956
   82SOPE  C212 7520   2.118   0.588   4.811
   82SOPE  H12R 7521   2.030   0.556   4.751
   82SOPE  H12S 7522   2.161   0.503   4.868
   82SOPE  C213 7523   2.229   0.628   4.702
   82SOPE  H13R 7524   2.322   0.672   4.742
   82SOPE  H13S 7525   2.184   0.703   4.633
   82SOPE  C214 7526   2.267   0.508   4.616
   82SOPE  H14R 7527   2.175   0.482   4.561
   82SOPE  H14S 7528   2.302   0.424   4.680
   82SOPE  C215 7529   2.370   0.534   4.512
   82SOPE  H15R 7530   2.404   0.441   4.462
   82SOPE  H15S 7531   2.456   0.576   4.569
   82SOPE  C216 7532   2.341   0.641   4.404
   82SOPE  H16R 7533   2.331   0.739   4.454
   82SOPE  H16S 7534   2.237   0.615   4.376
   82SOPE  C217 7535   2.429   0.632   4.280
   82SOPE  H17R 7536   2.468   0.530   4.263
   82SOPE  H17S 7537   2.524   0.685   4.303
   82SOPE  C218 7538   2.378   0.716   4.166
   82SOPE  H18R 7539   2.466   0.737   4.102
   82SOPE  H18S 7540   2.354   0.812   4.217
   82SOPE  H18T 7541   2.297   0.681   4.098
   82SOPE   C33 7542   1.523   0.613   5.705
   82SOPE   H3X 7543   1.507   0.503   5.703
   82SOPE   H3Y 7544   1.628   0.623   5.741
   82SOPE   C34 7545   1.531   0.649   5.556
   82SOPE   H4X 7546   1.577   0.750   5.549
   82SOPE   H4Y 7547   1.430   0.662   5.512
   82SOPE   C35 7548   1.629   0.558   5.485
   82SOPE   H5X 7549   1.604   0.452   5.508
   82SOPE   H5Y 7550   1.732   0.571   5.524
   82SOPE   C36 7551   1.626   0.586   5.337
   82SOPE   H6X 7552   1.647   0.694   5.328
   82SOPE   H6Y 7553   1.522   0.578   5.298
   82SOPE   C37 7554   1.708   0.495   5.254
   82SOPE   H7X 7555   1.673   0.392   5.234
   82SOPE   H7Y 7556   1.797   0.478   5.319
   82SOPE   C38 7557   1.753   0.564   5.125
   82SOPE   H8X 7558   1.840   0.509   5.084
   82SOPE   H8Y 7559   1.789   0.667   5.142
   82SOPE   C39 7560   1.634   0.570   5.029
   82SOPE   H9X 7561   1.571   0.654   5.065
   82SOPE   H9Y 7562   1.574   0.477   5.042
   82SOPE  C310 7563   1.673   0.587   4.876
   82SOPE  H10X 7564   1.724   0.496   4.838
   82SOPE  H10Y 7565   1.729   0.681   4.859
   82SOPE  C311 7566   1.544   0.592   4.791
   82SOPE  H11X 7567   1.465   0.658   4.830
   82SOPE  H11Y 7568   1.507   0.487   4.784
   82SOPE  C312 7569   1.578   0.637   4.648
   82SOPE  H12X 7570   1.619   0.740   4.646
   82SOPE  H12Y 7571   1.483   0.637   4.592
   82SOPE  C313 7572   1.674   0.546   4.586
   82SOPE  H13X 7573   1.643   0.440   4.603
   82SOPE  H13Y 7574   1.775   0.560   4.629
   82SOPE  C314 7575   1.679   0.567   4.434
   82SOPE  H14X 7576   1.579   0.605   4.404
   82SOPE  H14Y 7577   1.711   0.474   4.383
   82SOPE  C315 7578   1.786   0.671   4.393
   82SOPE  H15X 7579   1.791   0.753   4.468
   82SOPE  H15Y 7580   1.758   0.718   4.297
   82SOPE  C316 7581   1.928   0.604   4.390
   82SOPE  H16X 7582   1.940   0.560   4.491
   82SOPE  H16Y 7583   1.993   0.694   4.385
   82SOPE  C317 7584   1.965   0.501   4.282
   82SOPE  H17X 7585   2.058   0.537   4.232
   82SOPE  H17Y 7586   1.892   0.495   4.199
   82SOPE  C318 7587   1.999   0.365   4.339
   82SOPE  H18X 7588   1.923   0.326   4.410
   82SOPE  H18Y 7589   2.092   0.378   4.398
   82SOPE  H18Z 7590   2.023   0.298   4.254
   83SOPE     N 7591   1.625   2.963   1.608
   83SOPE   HN1 7592   1.717   3.009   1.614
   83SOPE   HN2 7593   1.611   2.921   1.702
   83SOPE   HN3 7594   1.633   2.886   1.538
   83SOPE   C12 7595   1.513   3.058   1.583
   83SOPE  H12A 7596   1.507   3.081   1.475
   83SOPE  H12B 7597   1.538   3.145   1.646
   83SOPE   C11 7598   1.386   2.988   1.618
   83SOPE  H11A 7599   1.375   2.902   1.549
   83SOPE  H11B 7600   1.294   3.048   1.603
   83SOPE     P 7601   1.337   2.807   1.808
   83SOPE   O13 7602   1.444   2.708   1.771
   83SOPE   O14 7603   1.199   2.776   1.765
   83SOPE   O12 7604   1.389   2.946   1.751
   83SOPE   O11 7605   1.338   2.838   1.962
   83SOPE    C1 7606   1.459   2.873   2.030
   83SOPE    HA 7607   1.494   2.975   2.006
   83SOPE    HB 7608   1.541   2.800   2.015
   83SOPE    C2 7609   1.444   2.883   2.189
   83SOPE    HS 7610   1.542   2.927   2.216
   83SOPE   O21 7611   1.426   2.751   2.249
   83SOPE   C21 7612   1.470   2.736   2.370
   83SOPE   O22 7613   1.516   2.821   2.444
   83SOPE   C22 7614   1.460   2.588   2.411
   83SOPE   H2R 7615   1.561   2.547   2.395
   83SOPE   H2S 7616   1.387   2.543   2.340
   83SOPE    C3 7617   1.330   2.979   2.230
   83SOPE    HX 7618   1.235   2.923   2.230
   83SOPE    HY 7619   1.321   3.040   2.137
   83SOPE   O31 7620   1.357   3.065   2.339
   83SOPE   C31 7621   1.291   3.040   2.454
   83SOPE   O32 7622   1.207   2.950   2.470
   83SOPE   C32 7623   1.328   3.141   2.561
   83SOPE   H2X 7624   1.253   3.223   2.554
   83SOPE   H2Y 7625   1.433   3.172   2.544
   83SOPE   C23 7626   1.416   2.574   2.560
   83SOPE   H3R 7627   1.366   2.475   2.563
   83SOPE   H3S 7628   1.356   2.659   2.597
   83SOPE   C24 7629   1.537   2.553   2.655
   83SOPE   H4R 7630   1.575   2.450   2.637
   83SOPE   H4S 7631   1.618   2.623   2.624
   83SOPE   C25 7632   1.501   2.557   2.803
   83SOPE   H5R 7633   1.497   2.662   2.840
   83SOPE   H5S 7634   1.408   2.500   2.819
   83SOPE   C26 7635   1.587   2.468   2.895
   83SOPE   H6R 7636   1.581   2.362   2.863
   83SOPE   H6S 7637   1.691   2.507   2.884
   83SOPE   C27 7638   1.555   2.483   3.042
   83SOPE   H7R 7639   1.555   2.591   3.068
   83SOPE   H7S 7640   1.454   2.442   3.064
   83SOPE   C28 7641   1.666   2.405   3.124
   83SOPE   H8R 7642   1.670   2.301   3.086
   83SOPE   H8S 7643   1.759   2.465   3.116
   83SOPE   C29 7644   1.627   2.416   3.272
   83SOPE   H91 7645   1.567   2.506   3.292
   83SOPE  C210 7646   1.660   2.337   3.379
   83SOPE  H101 7647   1.616   2.370   3.474
   83SOPE  C211 7648   1.755   2.221   3.381
   83SOPE  H11R 7649   1.803   2.199   3.283
   83SOPE  H11S 7650   1.693   2.132   3.406
   83SOPE  C212 7651   1.872   2.244   3.482
   83SOPE  H12R 7652   1.831   2.261   3.584
   83SOPE  H12S 7653   1.920   2.336   3.441
   83SOPE  C213 7654   1.969   2.125   3.495
   83SOPE  H13R 7655   1.911   2.040   3.536
   83SOPE  H13S 7656   2.046   2.144   3.573
   83SOPE  C214 7657   2.047   2.073   3.372
   83SOPE  H14R 7658   1.978   2.016   3.306
   83SOPE  H14S 7659   2.128   1.999   3.391
   83SOPE  C215 7660   2.102   2.190   3.290
   83SOPE  H15R 7661   2.166   2.255   3.353
   83SOPE  H15S 7662   2.020   2.256   3.253
   83SOPE  C216 7663   2.201   2.153   3.181
   83SOPE  H16R 7664   2.280   2.090   3.228
   83SOPE  H16S 7665   2.237   2.253   3.147
   83SOPE  C217 7666   2.141   2.068   3.071
   83SOPE  H17R 7667   2.099   1.975   3.115
   83SOPE  H17S 7668   2.202   2.031   2.986
   83SOPE  C218 7669   2.007   2.132   3.011
   83SOPE  H18R 7670   1.961   2.065   2.934
   83SOPE  H18S 7671   2.025   2.230   2.963
   83SOPE  H18T 7672   1.935   2.153   3.093
   83SOPE   C33 7673   1.305   3.086   2.706
   83SOPE   H3X 7674   1.362   2.991   2.706
   83SOPE   H3Y 7675   1.197   3.073   2.729
   83SOPE   C34 7676   1.371   3.172   2.821
   83SOPE   H4X 7677   1.324   3.273   2.822
   83SOPE   H4Y 7678   1.479   3.184   2.797
   83SOPE   C35 7679   1.366   3.106   2.963
   83SOPE   H5X 7680   1.442   3.025   2.971
   83SOPE   H5Y 7681   1.265   3.059   2.975
   83SOPE   C36 7682   1.374   3.208   3.075
   83SOPE   H6X 7683   1.283   3.270   3.062
   83SOPE   H6Y 7684   1.459   3.275   3.048
   83SOPE   C37 7685   1.349   3.158   3.222
   83SOPE   H7X 7686   1.435   3.103   3.266
   83SOPE   H7Y 7687   1.255   3.101   3.237
   83SOPE   C38 7688   1.344   3.280   3.325
   83SOPE   H8X 7689   1.268   3.345   3.278
   83SOPE   H8Y 7690   1.445   3.326   3.315
   83SOPE   C39 7691   1.312   3.261   3.480
   83SOPE   H9X 7692   1.391   3.204   3.533
   83SOPE   H9Y 7693   1.221   3.197   3.485
   83SOPE  C310 7694   1.296   3.393   3.558
   83SOPE  H10X 7695   1.223   3.469   3.523
   83SOPE  H10Y 7696   1.398   3.438   3.560
   83SOPE  C311 7697   1.263   3.360   3.709
   83SOPE  H11X 7698   1.339   3.290   3.749
   83SOPE  H11Y 7699   1.166   3.308   3.727
   83SOPE  C312 7700   1.256   3.489   3.794
   83SOPE  H12X 7701   1.180   3.557   3.749
   83SOPE  H12Y 7702   1.352   3.545   3.793
   83SOPE  C313 7703   1.215   3.454   3.936
   83SOPE  H13X 7704   1.281   3.368   3.963
   83SOPE  H13Y 7705   1.106   3.434   3.945
   83SOPE  C314 7706   1.232   3.568   4.042
   83SOPE  H14X 7707   1.179   3.544   4.136
   83SOPE  H14Y 7708   1.186   3.666   4.018
   83SOPE  C315 7709   1.381   3.587   4.070
   83SOPE  H15X 7710   1.434   3.644   3.991
   83SOPE  H15Y 7711   1.428   3.487   4.070
   83SOPE  C316 7712   1.411   3.652   4.204
   83SOPE  H16X 7713   1.350   3.593   4.276
   83SOPE  H16Y 7714   1.370   3.755   4.204
   83SOPE  C317 7715   1.567   3.643   4.244
   83SOPE  H17X 7716   1.617   3.545   4.227
   83SOPE  H17Y 7717   1.559   3.646   4.354
   83SOPE  C318 7718   1.658   3.765   4.206
   83SOPE  H18X 7719   1.677   3.772   4.096
   83SOPE  H18Y 7720   1.754   3.773   4.261
   83SOPE  H18Z 7721   1.599   3.855   4.234
   84SOPE     N 7722   0.719   1.122   2.316
   84SOPE   HN1 7723   0.757   1.189   2.385
   84SOPE   HN2 7724   0.800   1.069   2.276
   84SOPE   HN3 7725   0.683   1.173   2.233
   84SOPE   C12 7726   0.625   1.024   2.382
   84SOPE  H12A 7727   0.543   1.088   2.419
   84SOPE  H12B 7728   0.678   0.969   2.463
   84SOPE   C11 7729   0.571   0.923   2.284
   84SOPE  H11A 7730   0.499   0.861   2.342
   84SOPE  H11B 7731   0.660   0.860   2.266
   84SOPE     P 7732   0.368   0.972   2.124
   84SOPE   O13 7733   0.346   0.848   2.045
   84SOPE   O14 7734   0.327   1.100   2.061
   84SOPE   O12 7735   0.523   0.979   2.168
   84SOPE   O11 7736   0.294   0.969   2.268
   84SOPE    C1 7737   0.243   0.846   2.317
   84SOPE    HA 7738   0.313   0.760   2.313
   84SOPE    HB 7739   0.148   0.823   2.266
   84SOPE    C2 7740   0.210   0.850   2.471
   84SOPE    HS 7741   0.156   0.946   2.485
   84SOPE   O21 7742   0.324   0.842   2.553
   84SOPE   C21 7743   0.349   0.945   2.628
   84SOPE   O22 7744   0.301   1.055   2.623
   84SOPE   C22 7745   0.473   0.910   2.708
   84SOPE   H2R 7746   0.562   0.926   2.643
   84SOPE   H2S 7747   0.461   0.802   2.732
   84SOPE    C3 7748   0.122   0.728   2.503
   84SOPE    HX 7749   0.186   0.638   2.497
   84SOPE    HY 7750   0.040   0.717   2.428
   84SOPE   O31 7751   0.063   0.757   2.632
   84SOPE   C31 7752   0.104   0.677   2.732
   84SOPE   O32 7753   0.198   0.594   2.721
   84SOPE   C32 7754   0.034   0.707   2.858
   84SOPE   H2X 7755   6.834   0.688   2.845
   84SOPE   H2Y 7756   0.040   0.815   2.882
   84SOPE   C23 7757   0.477   0.997   2.835
   84SOPE   H3R 7758   0.460   1.106   2.818
   84SOPE   H3S 7759   0.578   0.971   2.873
   84SOPE   C24 7760   0.373   0.949   2.935
   84SOPE   H4R 7761   0.274   0.995   2.913
   84SOPE   H4S 7762   0.356   0.840   2.920
   84SOPE   C25 7763   0.419   0.975   3.085
   84SOPE   H5R 7764   0.524   0.939   3.092
   84SOPE   H5S 7765   0.419   1.084   3.108
   84SOPE   C26 7766   0.332   0.894   3.181
   84SOPE   H6R 7767   0.224   0.906   3.160
   84SOPE   H6S 7768   0.356   0.786   3.174
   84SOPE   C27 7769   0.363   0.939   3.328
   84SOPE   H7R 7770   0.462   0.988   3.338
   84SOPE   H7S 7771   0.281   1.011   3.347
   84SOPE   C28 7772   0.340   0.815   3.418
   84SOPE   H8R 7773   0.233   0.787   3.427
   84SOPE   H8S 7774   0.399   0.732   3.373
   84SOPE   C29 7775   0.388   0.826   3.560
   84SOPE   H91 7776   0.488   0.788   3.588
   84SOPE  C210 7777   0.308   0.873   3.665
   84SOPE  H101 7778   0.346   0.891   3.766
   84SOPE  C211 7779   0.179   0.935   3.627
   84SOPE  H11R 7780   0.100   0.857   3.628
   84SOPE  H11S 7781   0.178   0.964   3.520
   84SOPE  C212 7782   0.132   1.062   3.703
   84SOPE  H12R 7783   0.041   1.108   3.658
   84SOPE  H12S 7784   0.208   1.142   3.705
   84SOPE  C213 7785   0.091   1.025   3.848
   84SOPE  H13R 7786   0.165   0.967   3.905
   84SOPE  H13S 7787   0.005   0.957   3.829
   84SOPE  C214 7788   0.054   1.129   3.945
   84SOPE  H14R 7789   6.885   1.202   3.915
   84SOPE  H14S 7790   0.146   1.189   3.958
   84SOPE  C215 7791   0.002   1.058   4.066
   84SOPE  H15R 7792   0.074   0.981   4.101
   84SOPE  H15S 7793   6.828   0.991   4.036
   84SOPE  C216 7794   6.884   1.147   4.189
   84SOPE  H16R 7795   0.077   1.174   4.223
   84SOPE  H16S 7796   6.843   1.083   4.270
   84SOPE  C217 7797   6.791   1.266   4.161
   84SOPE  H17R 7798   6.690   1.227   4.137
   84SOPE  H17S 7799   6.835   1.327   4.079
   84SOPE  C218 7800   6.766   1.355   4.283
   84SOPE  H18R 7801   6.721   1.455   4.264
   84SOPE  H18S 7802   6.856   1.377   4.345
   84SOPE  H18T 7803   6.696   1.301   4.350
   84SOPE   C33 7804   0.094   0.634   2.979
   84SOPE   H3X 7805   0.198   0.663   3.005
   84SOPE   H3Y 7806   0.096   0.530   2.939
   84SOPE   C34 7807   0.004   0.626   3.102
   84SOPE   H4X 7808   6.825   0.573   3.062
   84SOPE   H4Y 7809   6.873   0.725   3.133
   84SOPE   C35 7810   0.060   0.551   3.224
   84SOPE   H5X 7811   0.159   0.597   3.247
   84SOPE   H5Y 7812   0.075   0.442   3.207
   84SOPE   C36 7813   6.886   0.575   3.341
   84SOPE   H6X 7814   6.800   0.505   3.325
   84SOPE   H6Y 7815   6.846   0.678   3.331
   84SOPE   C37 7816   0.035   0.531   3.479
   84SOPE   H7X 7817   0.133   0.583   3.487
   84SOPE   H7Y 7818   0.055   0.422   3.471
   84SOPE   C38 7819   6.853   0.561   3.590
   84SOPE   H8X 7820   6.757   0.506   3.581
   84SOPE   H8Y 7821   6.837   0.670   3.600
   84SOPE   C39 7822   0.009   0.521   3.724
   84SOPE   H9X 7823   0.111   0.565   3.724
   84SOPE   H9Y 7824   0.006   0.411   3.741
   84SOPE  C310 7825   6.849   0.596   3.837
   84SOPE  H10X 7826   6.739   0.592   3.831
   84SOPE  H10Y 7827   6.866   0.705   3.823
   84SOPE  C311 7828   6.892   0.551   3.977
   84SOPE  H11X 7829   0.086   0.509   3.978
   84SOPE  H11Y 7830   6.842   0.455   4.004
   84SOPE  C312 7831   6.865   0.638   4.101
   84SOPE  H12X 7832   6.777   0.704   4.087
   84SOPE  H12Y 7833   0.048   0.699   4.113
   84SOPE  C313 7834   6.857   0.554   4.231
   84SOPE  H13X 7835   0.043   0.497   4.232
   84SOPE  H13Y 7836   6.774   0.480   4.225
   84SOPE  C314 7837   6.852   0.639   4.360
   84SOPE  H14X 7838   0.033   0.703   4.374
   84SOPE  H14Y 7839   6.858   0.575   4.451
   84SOPE  C315 7840   6.719   0.710   4.369
   84SOPE  H15X 7841   6.633   0.641   4.379
   84SOPE  H15Y 7842   6.711   0.768   4.274
   84SOPE  C316 7843   6.705   0.812   4.485
   84SOPE  H16X 7844   6.782   0.892   4.485
   84SOPE  H16Y 7845   6.715   0.751   4.577
   84SOPE  C317 7846   6.555   0.855   4.500
   84SOPE  H17X 7847   6.533   0.862   4.609
   84SOPE  H17Y 7848   6.490   0.775   4.458
   84SOPE  C318 7849   6.535   0.984   4.419
   84SOPE  H18X 7850   6.592   0.972   4.325
   84SOPE  H18Y 7851   6.589   1.067   4.469
   84SOPE  H18Z 7852   6.436   1.033   4.410
   85SOPE     N 7853   5.910   4.085   1.687
   85SOPE   HN1 7854   5.946   4.174   1.647
   85SOPE   HN2 7855   5.991   4.051   1.742
   85SOPE   HN3 7856   5.882   4.024   1.607
   85SOPE   C12 7857   5.793   4.099   1.775
   85SOPE  H12A 7858   5.786   4.003   1.831
   85SOPE  H12B 7859   5.704   4.117   1.710
   85SOPE   C11 7860   5.809   4.214   1.874
   85SOPE  H11A 7861   5.899   4.198   1.936
   85SOPE  H11B 7862   5.730   4.219   1.952
   85SOPE     P 7863   5.727   4.441   1.767
   85SOPE   O13 7864   5.702   4.419   1.628
   85SOPE   O14 7865   5.774   4.578   1.808
   85SOPE   O12 7866   5.835   4.340   1.812
   85SOPE   O11 7867   5.596   4.391   1.853
   85SOPE    C1 7868   5.553   4.478   1.965
   85SOPE    HA 7869   5.506   4.570   1.923
   85SOPE    HB 7870   5.642   4.511   2.023
   85SOPE    C2 7871   5.471   4.398   2.069
   85SOPE    HS 7872   5.376   4.370   2.019
   85SOPE   O21 7873   5.464   4.472   2.187
   85SOPE   C21 7874   5.374   4.564   2.175
   85SOPE   O22 7875   5.292   4.573   2.080
   85SOPE   C22 7876   5.360   4.647   2.304
   85SOPE   H2R 7877   5.316   4.747   2.286
   85SOPE   H2S 7878   5.455   4.663   2.359
   85SOPE    C3 7879   5.533   4.261   2.108
   85SOPE    HX 7880   5.640   4.270   2.134
   85SOPE    HY 7881   5.528   4.199   2.016
   85SOPE   O31 7882   5.448   4.200   2.204
   85SOPE   C31 7883   5.500   4.172   2.327
   85SOPE   O32 7884   5.612   4.199   2.370
   85SOPE   C32 7885   5.390   4.107   2.409
   85SOPE   H2X 7886   5.403   3.998   2.394
   85SOPE   H2Y 7887   5.289   4.144   2.381
   85SOPE   C23 7888   5.259   4.569   2.398
   85SOPE   H3R 7889   5.297   4.465   2.410
   85SOPE   H3S 7890   5.154   4.564   2.363
   85SOPE   C24 7891   5.259   4.641   2.532
   85SOPE   H4R 7892   5.360   4.656   2.576
   85SOPE   H4S 7893   5.215   4.743   2.530
   85SOPE   C25 7894   5.184   4.555   2.639
   85SOPE   H5R 7895   5.084   4.532   2.596
   85SOPE   H5S 7896   5.232   4.456   2.646
   85SOPE   C26 7897   5.183   4.611   2.773
   85SOPE   H6R 7898   5.280   4.654   2.808
   85SOPE   H6S 7899   5.107   4.692   2.767
   85SOPE   C27 7900   5.130   4.527   2.890
   85SOPE   H7R 7901   5.028   4.501   2.854
   85SOPE   H7S 7902   5.196   4.438   2.895
   85SOPE   C28 7903   5.132   4.612   3.019
   85SOPE   H8R 7904   5.082   4.711   3.012
   85SOPE   H8S 7905   5.059   4.563   3.088
   85SOPE   C29 7906   5.265   4.657   3.062
   85SOPE   H91 7907   5.318   4.723   2.992
   85SOPE  C210 7908   5.326   4.622   3.173
   85SOPE  H101 7909   5.429   4.660   3.182
   85SOPE  C211 7910   5.283   4.521   3.279
   85SOPE  H11R 7911   5.298   4.422   3.232
   85SOPE  H11S 7912   5.173   4.537   3.291
   85SOPE  C212 7913   5.344   4.522   3.421
   85SOPE  H12R 7914   5.301   4.613   3.467
   85SOPE  H12S 7915   5.455   4.524   3.420
   85SOPE  C213 7916   5.290   4.411   3.512
   85SOPE  H13R 7917   5.301   4.316   3.457
   85SOPE  H13S 7918   5.185   4.434   3.540
   85SOPE  C214 7919   5.368   4.397   3.647
   85SOPE  H14R 7920   5.474   4.391   3.613
   85SOPE  H14S 7921   5.327   4.306   3.697
   85SOPE  C215 7922   5.349   4.516   3.742
   85SOPE  H15R 7923   5.314   4.609   3.692
   85SOPE  H15S 7924   5.450   4.532   3.785
   85SOPE  C216 7925   5.234   4.494   3.853
   85SOPE  H16R 7926   5.231   4.577   3.927
   85SOPE  H16S 7927   5.270   4.408   3.914
   85SOPE  C217 7928   5.097   4.461   3.802
   85SOPE  H17R 7929   5.093   4.358   3.762
   85SOPE  H17S 7930   5.061   4.524   3.717
   85SOPE  C218 7931   5.002   4.466   3.922
   85SOPE  H18R 7932   4.899   4.442   3.888
   85SOPE  H18S 7933   5.013   4.560   3.979
   85SOPE  H18T 7934   5.035   4.391   3.997
   85SOPE   C33 7935   5.403   4.136   2.559
   85SOPE   H3X 7936   5.387   4.246   2.571
   85SOPE   H3Y 7937   5.507   4.112   2.589
   85SOPE   C34 7938   5.299   4.074   2.646
   85SOPE   H4X 7939   5.316   3.964   2.658
   85SOPE   H4Y 7940   5.203   4.089   2.592
   85SOPE   C35 7941   5.284   4.130   2.792
   85SOPE   H5X 7942   5.203   4.068   2.836
   85SOPE   H5Y 7943   5.240   4.233   2.790
   85SOPE   C36 7944   5.405   4.119   2.872
   85SOPE   H6X 7945   5.491   4.173   2.828
   85SOPE   H6Y 7946   5.430   4.011   2.864
   85SOPE   C37 7947   5.373   4.151   3.017
   85SOPE   H7X 7948   5.287   4.092   3.055
   85SOPE   H7Y 7949   5.360   4.261   3.033
   85SOPE   C38 7950   5.489   4.113   3.111
   85SOPE   H8X 7951   5.577   4.177   3.089
   85SOPE   H8Y 7952   5.506   4.003   3.100
   85SOPE   C39 7953   5.475   4.134   3.263
   85SOPE   H9X 7954   5.445   4.237   3.291
   85SOPE   H9Y 7955   5.581   4.120   3.295
   85SOPE  C310 7956   5.395   4.028   3.339
   85SOPE  H10X 7957   5.429   3.931   3.297
   85SOPE  H10Y 7958   5.288   4.034   3.311
   85SOPE  C311 7959   5.419   4.021   3.490
   85SOPE  H11X 7960   5.343   3.958   3.541
   85SOPE  H11Y 7961   5.409   4.121   3.537
   85SOPE  C312 7962   5.557   3.973   3.533
   85SOPE  H12X 7963   5.631   4.045   3.491
   85SOPE  H12Y 7964   5.575   3.873   3.489
   85SOPE  C313 7965   5.597   3.978   3.680
   85SOPE  H13X 7966   5.580   4.079   3.722
   85SOPE  H13Y 7967   5.699   3.937   3.699
   85SOPE  C314 7968   5.509   3.886   3.770
   85SOPE  H14X 7969   5.518   3.781   3.733
   85SOPE  H14Y 7970   5.404   3.919   3.756
   85SOPE  C315 7971   5.559   3.883   3.909
   85SOPE  H15X 7972   5.544   3.978   3.964
   85SOPE  H15Y 7973   5.665   3.859   3.933
   85SOPE  C316 7974   5.494   3.776   3.991
   85SOPE  H16X 7975   5.509   3.675   3.950
   85SOPE  H16Y 7976   5.383   3.788   3.996
   85SOPE  C317 7977   5.551   3.779   4.133
   85SOPE  H17X 7978   5.553   3.884   4.170
   85SOPE  H17Y 7979   5.658   3.754   4.127
   85SOPE  C318 7980   5.477   3.691   4.228
   85SOPE  H18X 7981   5.372   3.726   4.246
   85SOPE  H18Y 7982   5.532   3.699   4.324
   85SOPE  H18Z 7983   5.476   3.581   4.217
   86SOPE     N 7984   5.043   1.830   2.322
   86SOPE   HN1 7985   5.085   1.766   2.252
   86SOPE   HN2 7986   4.983   1.776   2.387
   86SOPE   HN3 7987   4.987   1.905   2.277
   86SOPE   C12 7988   5.161   1.885   2.399
   86SOPE  H12A 7989   5.133   1.940   2.491
   86SOPE  H12B 7990   5.201   1.961   2.328
   86SOPE   C11 7991   5.271   1.780   2.426
   86SOPE  H11A 7992   5.230   1.692   2.480
   86SOPE  H11B 7993   5.353   1.815   2.492
   86SOPE     P 7994   5.471   1.778   2.254
   86SOPE   O13 7995   5.481   1.924   2.280
   86SOPE   O14 7996   5.469   1.724   2.113
   86SOPE   O12 7997   5.331   1.724   2.308
   86SOPE   O11 7998   5.584   1.699   2.326
   86SOPE    C1 7999   5.592   1.558   2.351
   86SOPE    HA 8000   5.692   1.526   2.313
   86SOPE    HB 8001   5.515   1.508   2.288
   86SOPE    C2 8002   5.585   1.530   2.506
   86SOPE    HS 8003   5.483   1.564   2.535
   86SOPE   O21 8004   5.690   1.611   2.567
   86SOPE   C21 8005   5.646   1.697   2.660
   86SOPE   O22 8006   5.529   1.714   2.685
   86SOPE   C22 8007   5.769   1.765   2.719
   86SOPE   H2R 8008   5.805   1.852   2.661
   86SOPE   H2S 8009   5.843   1.683   2.728
   86SOPE    C3 8010   5.599   1.382   2.536
   86SOPE    HX 8011   5.700   1.342   2.513
   86SOPE    HY 8012   5.523   1.328   2.475
   86SOPE   O31 8013   5.588   1.361   2.677
   86SOPE   C31 8014   5.460   1.338   2.719
   86SOPE   O32 8015   5.368   1.320   2.637
   86SOPE   C32 8016   5.446   1.329   2.873
   86SOPE   H2X 8017   5.505   1.416   2.910
   86SOPE   H2Y 8018   5.493   1.233   2.902
   86SOPE   C23 8019   5.735   1.810   2.859
   86SOPE   H3R 8020   5.639   1.863   2.874
   86SOPE   H3S 8021   5.822   1.873   2.885
   86SOPE   C24 8022   5.725   1.691   2.961
   86SOPE   H4R 8023   5.633   1.635   2.933
   86SOPE   H4S 8024   5.814   1.626   2.952
   86SOPE   C25 8025   5.715   1.757   3.105
   86SOPE   H5R 8026   5.808   1.814   3.125
   86SOPE   H5S 8027   5.631   1.830   3.107
   86SOPE   C26 8028   5.680   1.645   3.208
   86SOPE   H6R 8029   5.584   1.594   3.189
   86SOPE   H6S 8030   5.763   1.571   3.202
   86SOPE   C27 8031   5.695   1.689   3.359
   86SOPE   H7R 8032   5.696   1.594   3.418
   86SOPE   H7S 8033   5.794   1.735   3.378
   86SOPE   C28 8034   5.588   1.785   3.409
   86SOPE   H8R 8035   5.607   1.837   3.505
   86SOPE   H8S 8036   5.581   1.864   3.331
   86SOPE   C29 8037   5.456   1.705   3.408
   86SOPE   H91 8038   5.471   1.607   3.359
   86SOPE  C210 8039   5.334   1.737   3.456
   86SOPE  H101 8040   5.253   1.663   3.450
   86SOPE  C211 8041   5.291   1.856   3.531
   86SOPE  H11R 8042   5.188   1.879   3.496
   86SOPE  H11S 8043   5.361   1.943   3.524
   86SOPE  C212 8044   5.290   1.841   3.684
   86SOPE  H12R 8045   5.381   1.803   3.734
   86SOPE  H12S 8046   5.214   1.765   3.712
   86SOPE  C213 8047   5.251   1.964   3.757
   86SOPE  H13R 8048   5.161   2.013   3.713
   86SOPE  H13S 8049   5.336   2.032   3.737
   86SOPE  C214 8050   5.230   1.954   3.909
   86SOPE  H14R 8051   5.244   2.055   3.953
   86SOPE  H14S 8052   5.297   1.879   3.956
   86SOPE  C215 8053   5.082   1.908   3.950
   86SOPE  H15R 8054   5.063   1.812   3.898
   86SOPE  H15S 8055   5.002   1.981   3.924
   86SOPE  C216 8056   5.065   1.877   4.100
   86SOPE  H16R 8057   5.083   1.973   4.153
   86SOPE  H16S 8058   5.135   1.798   4.135
   86SOPE  C217 8059   4.927   1.836   4.146
   86SOPE  H17R 8060   4.844   1.901   4.111
   86SOPE  H17S 8061   4.926   1.843   4.257
   86SOPE  C218 8062   4.883   1.692   4.115
   86SOPE  H18R 8063   4.950   1.620   4.167
   86SOPE  H18S 8064   4.876   1.666   4.007
   86SOPE  H18T 8065   4.782   1.674   4.158
   86SOPE   C33 8066   5.304   1.318   2.920
   86SOPE   H3X 8067   5.256   1.220   2.902
   86SOPE   H3Y 8068   5.250   1.397   2.862
   86SOPE   C34 8069   5.297   1.344   3.068
   86SOPE   H4X 8070   5.190   1.353   3.097
   86SOPE   H4Y 8071   5.346   1.438   3.103
   86SOPE   C35 8072   5.356   1.231   3.155
   86SOPE   H5X 8073   5.467   1.238   3.159
   86SOPE   H5Y 8074   5.330   1.141   3.096
   86SOPE   C36 8075   5.295   1.215   3.291
   86SOPE   H6X 8076   5.336   1.119   3.328
   86SOPE   H6Y 8077   5.187   1.192   3.278
   86SOPE   C37 8078   5.313   1.336   3.390
   86SOPE   H7X 8079   5.271   1.422   3.335
   86SOPE   H7Y 8080   5.421   1.363   3.398
   86SOPE   C38 8081   5.246   1.315   3.525
   86SOPE   H8X 8082   5.288   1.219   3.563
   86SOPE   H8Y 8083   5.138   1.312   3.502
   86SOPE   C39 8084   5.261   1.429   3.628
   86SOPE   H9X 8085   5.221   1.528   3.598
   86SOPE   H9Y 8086   5.372   1.438   3.628
   86SOPE  C310 8087   5.238   1.400   3.776
   86SOPE  H10X 8088   5.284   1.478   3.841
   86SOPE  H10Y 8089   5.287   1.308   3.813
   86SOPE  C311 8090   5.091   1.383   3.809
   86SOPE  H11X 8091   5.052   1.295   3.755
   86SOPE  H11Y 8092   5.027   1.463   3.766
   86SOPE  C312 8093   5.072   1.382   3.964
   86SOPE  H12X 8094   4.972   1.376   4.012
   86SOPE  H12Y 8095   5.107   1.482   3.998
   86SOPE  C313 8096   5.171   1.290   4.037
   86SOPE  H13X 8097   5.278   1.311   4.014
   86SOPE  H13Y 8098   5.158   1.187   3.996
   86SOPE  C314 8099   5.166   1.300   4.183
   86SOPE  H14X 8100   5.073   1.254   4.223
   86SOPE  H14Y 8101   5.172   1.402   4.227
   86SOPE  C315 8102   5.280   1.218   4.252
   86SOPE  H15X 8103   5.379   1.265   4.233
   86SOPE  H15Y 8104   5.291   1.124   4.193
   86SOPE  C316 8105   5.264   1.178   4.398
   86SOPE  H16X 8106   5.153   1.169   4.409
   86SOPE  H16Y 8107   5.295   1.265   4.460
   86SOPE  C317 8108   5.326   1.048   4.437
   86SOPE  H17X 8109   5.430   1.033   4.401
   86SOPE  H17Y 8110   5.257   0.968   4.404
   86SOPE  C318 8111   5.330   1.028   4.590
   86SOPE  H18X 8112   5.389   1.107   4.643
   86SOPE  H18Y 8113   5.392   0.938   4.606
   86SOPE  H18Z 8114   5.230   1.010   4.636
   87SOPE     N 8115   0.221   1.240   2.279
   87SOPE   HN1 8116   0.234   1.138   2.261
   87SOPE   HN2 8117   0.298   1.293   2.234
   87SOPE   HN3 8118   0.230   1.251   2.382
   87SOPE   C12 8119   0.085   1.286   2.233
   87SOPE  H12A 8120   0.076   1.254   2.127
   87SOPE  H12B 8121   0.089   1.397   2.226
   87SOPE   C11 8122   6.885   1.233   2.312
   87SOPE  H11A 8123   6.784   1.262   2.278
   87SOPE  H11B 8124   6.873   1.274   2.414
   87SOPE     P 8125   6.761   1.003   2.262
   87SOPE   O13 8126   6.788   0.860   2.264
   87SOPE   O14 8127   6.696   1.060   2.137
   87SOPE   O12 8128   6.887   1.095   2.307
   87SOPE   O11 8129   6.658   1.051   2.373
   87SOPE    C1 8130   6.672   1.029   2.513
   87SOPE    HA 8131   6.653   1.123   2.569
   87SOPE    HB 8132   6.773   0.996   2.547
   87SOPE    C2 8133   6.585   0.899   2.551
   87SOPE    HS 8134   6.633   0.806   2.512
   87SOPE   O21 8135   6.449   0.924   2.503
   87SOPE   C21 8136   6.379   0.827   2.452
   87SOPE   O22 8137   6.418   0.713   2.429
   87SOPE   C22 8138   6.229   0.880   2.437
   87SOPE   H2R 8139   6.199   0.864   2.331
   87SOPE   H2S 8140   6.238   0.990   2.445
   87SOPE    C3 8141   6.579   0.882   2.702
   87SOPE    HX 8142   6.524   0.967   2.748
   87SOPE    HY 8143   6.683   0.896   2.739
   87SOPE   O31 8144   6.528   0.754   2.747
   87SOPE   C31 8145   6.538   0.725   2.878
   87SOPE   O32 8146   6.591   0.803   2.959
   87SOPE   C32 8147   6.464   0.592   2.907
   87SOPE   H2X 8148   6.496   0.529   2.822
   87SOPE   H2Y 8149   6.356   0.618   2.898
   87SOPE   C23 8150   6.136   0.823   2.539
   87SOPE   H3R 8151   6.148   0.713   2.548
   87SOPE   H3S 8152   6.031   0.830   2.504
   87SOPE   C24 8153   6.140   0.891   2.678
   87SOPE   H4R 8154   6.246   0.914   2.703
   87SOPE   H4S 8155   6.092   0.991   2.680
   87SOPE   C25 8156   6.079   0.811   2.789
   87SOPE   H5R 8157   5.968   0.818   2.788
   87SOPE   H5S 8158   6.100   0.703   2.774
   87SOPE   C26 8159   6.128   0.853   2.920
   87SOPE   H6R 8160   6.239   0.853   2.924
   87SOPE   H6S 8161   6.102   0.961   2.921
   87SOPE   C27 8162   6.073   0.786   3.051
   87SOPE   H7R 8163   5.976   0.838   3.070
   87SOPE   H7S 8164   6.061   0.678   3.031
   87SOPE   C28 8165   6.163   0.810   3.174
   87SOPE   H8R 8166   6.255   0.755   3.146
   87SOPE   H8S 8167   6.193   0.915   3.191
   87SOPE   C29 8168   6.099   0.758   3.303
   87SOPE   H91 8169   6.098   0.648   3.301
   87SOPE  C210 8170   6.074   0.828   3.418
   87SOPE  H101 8171   6.040   0.775   3.508
   87SOPE  C211 8172   6.111   0.974   3.441
   87SOPE  H11R 8173   6.033   1.048   3.411
   87SOPE  H11S 8174   6.202   0.992   3.379
   87SOPE  C212 8175   6.156   1.005   3.588
   87SOPE  H12R 8176   6.191   1.110   3.586
   87SOPE  H12S 8177   6.238   0.933   3.609
   87SOPE  C213 8178   6.051   0.984   3.698
   87SOPE  H13R 8179   6.003   0.884   3.698
   87SOPE  H13S 8180   5.963   1.049   3.680
   87SOPE  C214 8181   6.096   1.011   3.843
   87SOPE  H14R 8182   6.013   1.000   3.917
   87SOPE  H14S 8183   6.141   1.113   3.840
   87SOPE  C215 8184   6.201   0.908   3.892
   87SOPE  H15R 8185   6.281   0.890   3.818
   87SOPE  H15S 8186   6.147   0.810   3.895
   87SOPE  C216 8187   6.259   0.940   4.029
   87SOPE  H16R 8188   6.171   0.932   4.097
   87SOPE  H16S 8189   6.301   1.043   4.033
   87SOPE  C217 8190   6.365   0.838   4.078
   87SOPE  H17R 8191   6.306   0.744   4.085
   87SOPE  H17S 8192   6.393   0.863   4.182
   87SOPE  C218 8193   6.491   0.838   3.991
   87SOPE  H18R 8194   6.517   0.945   3.974
   87SOPE  H18S 8195   6.480   0.800   3.887
   87SOPE  H18T 8196   6.569   0.781   4.044
   87SOPE   C33 8197   6.478   0.547   3.056
   87SOPE   H3X 8198   6.432   0.621   3.124
   87SOPE   H3Y 8199   6.584   0.530   3.087
   87SOPE   C34 8200   6.403   0.409   3.072
   87SOPE   H4X 8201   6.456   0.328   3.017
   87SOPE   H4Y 8202   6.304   0.422   3.025
   87SOPE   C35 8203   6.381   0.358   3.210
   87SOPE   H5X 8204   6.473   0.320   3.258
   87SOPE   H5Y 8205   6.304   0.279   3.202
   87SOPE   C36 8206   6.335   0.465   3.315
   87SOPE   H6X 8207   6.235   0.511   3.298
   87SOPE   H6Y 8208   6.406   0.550   3.308
   87SOPE   C37 8209   6.341   0.408   3.457
   87SOPE   H7X 8210   6.442   0.376   3.487
   87SOPE   H7Y 8211   6.283   0.313   3.461
   87SOPE   C38 8212   6.288   0.501   3.576
   87SOPE   H8X 8213   6.268   0.435   3.663
   87SOPE   H8Y 8214   6.193   0.550   3.546
   87SOPE   C39 8215   6.378   0.612   3.638
   87SOPE   H9X 8216   6.455   0.554   3.693
   87SOPE   H9Y 8217   6.311   0.657   3.715
   87SOPE  C310 8218   6.433   0.712   3.538
   87SOPE  H10X 8219   6.348   0.750   3.478
   87SOPE  H10Y 8220   6.496   0.661   3.462
   87SOPE  C311 8221   6.515   0.820   3.606
   87SOPE  H11X 8222   6.602   0.768   3.651
   87SOPE  H11Y 8223   6.451   0.865   3.685
   87SOPE  C312 8224   6.567   0.921   3.507
   87SOPE  H12X 8225   6.488   0.952   3.436
   87SOPE  H12Y 8226   6.633   0.876   3.430
   87SOPE  C313 8227   6.638   1.040   3.575
   87SOPE  H13X 8228   6.678   1.093   3.486
   87SOPE  H13Y 8229   6.726   1.003   3.630
   87SOPE  C314 8230   6.538   1.120   3.662
   87SOPE  H14X 8231   6.504   1.062   3.750
   87SOPE  H14Y 8232   6.445   1.155   3.613
   87SOPE  C315 8233   6.601   1.247   3.726
   87SOPE  H15X 8234   6.635   1.313   3.644
   87SOPE  H15Y 8235   6.694   1.211   3.775
   87SOPE  C316 8236   6.505   1.327   3.796
   87SOPE  H16X 8237   6.467   1.270   3.884
   87SOPE  H16Y 8238   6.417   1.362   3.739
   87SOPE  C317 8239   6.573   1.457   3.854
   87SOPE  H17X 8240   6.607   1.532   3.779
   87SOPE  H17Y 8241   6.664   1.436   3.914
   87SOPE  C318 8242   6.480   1.533   3.947
   87SOPE  H18X 8243   6.375   1.502   3.929
   87SOPE  H18Y 8244   6.493   1.643   3.935
   87SOPE  H18Z 8245   6.511   1.517   4.052
   88SOPE     N 8246   1.386   6.418   2.215
   88SOPE   HN1 8247   1.329   6.354   2.274
   88SOPE   HN2 8248   1.444   6.357   2.154
   88SOPE   HN3 8249   1.446   6.484   2.269
   88SOPE   C12 8250   1.284   6.497   2.137
   88SOPE  H12A 8251   1.192   6.435   2.136
   88SOPE  H12B 8252   1.302   6.509   2.028
   88SOPE   C11 8253   1.260   6.633   2.211
   88SOPE  H11A 8254   1.174   6.686   2.164
   88SOPE  H11B 8255   1.350   6.694   2.193
   88SOPE     P 8256   1.107   6.605   2.422
   88SOPE   O13 8257   1.011   6.571   2.316
   88SOPE   O14 8258   1.082   6.723   2.512
   88SOPE   O12 8259   1.247   6.620   2.357
   88SOPE   O11 8260   1.122   6.468   2.495
   88SOPE    C1 8261   1.247   6.423   2.545
   88SOPE    HA 8262   1.306   6.501   2.598
   88SOPE    HB 8263   1.305   6.384   2.459
   88SOPE    C2 8264   1.219   6.300   2.637
   88SOPE    HS 8265   1.158   6.225   2.581
   88SOPE   O21 8266   1.160   6.346   2.754
   88SOPE   C21 8267   1.028   6.368   2.752
   88SOPE   O22 8268   0.949   6.324   2.669
   88SOPE   C22 8269   1.001   6.461   2.873
   88SOPE   H2R 8270   0.944   6.393   2.940
   88SOPE   H2S 8271   0.932   6.540   2.836
   88SOPE    C3 8272   1.350   6.232   2.675
   88SOPE    HX 8273   1.394   6.194   2.580
   88SOPE    HY 8274   1.339   6.143   2.741
   88SOPE   O31 8275   1.451   6.327   2.716
   88SOPE   C31 8276   1.453   6.352   2.849
   88SOPE   O32 8277   1.368   6.318   2.932
   88SOPE   C32 8278   1.563   6.459   2.864
   88SOPE   H2X 8279   1.512   6.555   2.843
   88SOPE   H2Y 8280   1.648   6.440   2.795
   88SOPE   C23 8281   1.131   6.534   2.948
   88SOPE   H3R 8282   1.198   6.584   2.875
   88SOPE   H3S 8283   1.177   6.439   2.983
   88SOPE   C24 8284   1.071   6.612   3.062
   88SOPE   H4R 8285   1.153   6.642   3.130
   88SOPE   H4S 8286   1.015   6.699   3.021
   88SOPE   C25 8287   0.970   6.536   3.149
   88SOPE   H5R 8288   0.877   6.500   3.099
   88SOPE   H5S 8289   1.013   6.443   3.193
   88SOPE   C26 8290   0.914   6.633   3.256
   88SOPE   H6R 8291   0.998   6.657   3.325
   88SOPE   H6S 8292   0.882   6.720   3.196
   88SOPE   C27 8293   0.801   6.574   3.346
   88SOPE   H7R 8294   0.717   6.533   3.285
   88SOPE   H7S 8295   0.851   6.489   3.396
   88SOPE   C28 8296   0.748   6.674   3.449
   88SOPE   H8R 8297   0.841   6.731   3.472
   88SOPE   H8S 8298   0.673   6.742   3.402
   88SOPE   C29 8299   0.681   6.611   3.567
   88SOPE   H91 8300   0.753   6.552   3.626
   88SOPE  C210 8301   0.545   6.617   3.604
   88SOPE  H101 8302   0.514   6.576   3.701
   88SOPE  C211 8303   0.431   6.691   3.532
   88SOPE  H11R 8304   0.454   6.738   3.434
   88SOPE  H11S 8305   0.402   6.784   3.584
   88SOPE  C212 8306   0.310   6.597   3.508
   88SOPE  H12R 8307   0.335   6.508   3.445
   88SOPE  H12S 8308   0.236   6.655   3.450
   88SOPE  C213 8309   0.245   6.550   3.628
   88SOPE  H13R 8310   0.215   6.641   3.685
   88SOPE  H13S 8311   0.298   6.474   3.688
   88SOPE  C214 8312   0.105   6.480   3.594
   88SOPE  H14R 8313   0.143   6.392   3.537
   88SOPE  H14S 8314   0.037   6.541   3.531
   88SOPE  C215 8315   0.045   6.435   3.730
   88SOPE  H15R 8316   0.018   6.523   3.792
   88SOPE  H15S 8317   0.125   6.385   3.788
   88SOPE  C216 8318   6.836   6.351   3.725
   88SOPE  H16R 8319   6.764   6.422   3.678
   88SOPE  H16S 8320   6.797   6.328   3.827
   88SOPE  C217 8321   6.840   6.219   3.656
   88SOPE  H17R 8322   6.845   6.231   3.545
   88SOPE  H17S 8323   6.744   6.165   3.663
   88SOPE  C218 8324   0.042   6.122   3.703
   88SOPE  H18R 8325   0.048   6.022   3.655
   88SOPE  H18S 8326   0.033   6.110   3.813
   88SOPE  H18T 8327   0.135   6.177   3.677
   88SOPE   C33 8328   1.630   6.460   3.001
   88SOPE   H3X 8329   1.725   6.518   2.998
   88SOPE   H3Y 8330   1.635   6.354   3.034
   88SOPE   C34 8331   1.547   6.522   3.117
   88SOPE   H4X 8332   1.440   6.498   3.101
   88SOPE   H4Y 8333   1.554   6.633   3.114
   88SOPE   C35 8334   1.586   6.475   3.260
   88SOPE   H5X 8335   1.580   6.364   3.263
   88SOPE   H5Y 8336   1.502   6.511   3.324
   88SOPE   C36 8337   1.716   6.524   3.318
   88SOPE   H6X 8338   1.725   6.635   3.314
   88SOPE   H6Y 8339   1.804   6.474   3.273
   88SOPE   C37 8340   1.737   6.497   3.466
   88SOPE   H7X 8341   1.842   6.524   3.490
   88SOPE   H7Y 8342   1.728   6.389   3.489
   88SOPE   C38 8343   1.635   6.563   3.556
   88SOPE   H8X 8344   1.544   6.501   3.550
   88SOPE   H8Y 8345   1.611   6.664   3.516
   88SOPE   C39 8346   1.673   6.565   3.699
   88SOPE   H9X 8347   1.699   6.461   3.728
   88SOPE   H9Y 8348   1.589   6.597   3.765
   88SOPE  C310 8349   1.794   6.653   3.732
   88SOPE  H10X 8350   1.750   6.753   3.710
   88SOPE  H10Y 8351   1.884   6.639   3.668
   88SOPE  C311 8352   1.837   6.650   3.883
   88SOPE  H11X 8353   1.887   6.744   3.916
   88SOPE  H11Y 8354   1.904   6.564   3.904
   88SOPE  C312 8355   1.721   6.650   3.990
   88SOPE  H12X 8356   1.758   6.662   4.093
   88SOPE  H12Y 8357   1.673   6.549   3.984
   88SOPE  C313 8358   1.606   6.754   3.987
   88SOPE  H13X 8359   1.578   6.796   3.888
   88SOPE  H13Y 8360   1.661   6.836   4.037
   88SOPE  C314 8361   1.492   6.698   4.080
   88SOPE  H14X 8362   1.530   6.662   4.177
   88SOPE  H14Y 8363   1.450   6.608   4.031
   88SOPE  C315 8364   1.385   6.802   4.098
   88SOPE  H15X 8365   1.351   6.836   3.998
   88SOPE  H15Y 8366   1.421   6.891   4.153
   88SOPE  C316 8367   1.260   6.759   4.184
   88SOPE  H16X 8368   1.199   6.848   4.208
   88SOPE  H16Y 8369   1.289   6.712   4.281
   88SOPE  C317 8370   1.181   6.657   4.102
   88SOPE  H17X 8371   1.245   6.570   4.077
   88SOPE  H17Y 8372   1.157   6.701   4.003
   88SOPE  C318 8373   1.065   6.598   4.176
   88SOPE  H18X 8374   1.030   6.510   4.118
   88SOPE  H18Y 8375   0.978   6.666   4.164
   88SOPE  H18Z 8376   1.076   6.571   4.283
   89SAPC     N 8377   4.534   3.634   6.776
   89SAPC   C12 8378   4.579   3.534   6.674
   89SAPC  H12A 8379   4.502   3.510   6.602
   89SAPC  H12B 8380   4.587   3.438   6.723
   89SAPC   C13 8381   4.503   3.771   6.718
   89SAPC  H13A 8382   4.426   3.758   6.643
   89SAPC  H13B 8383   4.464   3.840   6.791
   89SAPC  H13C 8384   4.595   3.810   6.675
   89SAPC   C14 8385   4.417   3.580   6.854
   89SAPC  H14A 8386   4.440   3.487   6.902
   89SAPC  H14B 8387   4.376   3.649   6.927
   89SAPC  H14C 8388   4.329   3.575   6.792
   89SAPC   C15 8389   4.651   3.658   6.875
   89SAPC  H15A 8390   4.616   3.717   6.958
   89SAPC  H15B 8391   4.673   3.571   6.934
   89SAPC  H15C 8392   4.737   3.703   6.827
   89SAPC   C11 8393   4.707   3.570   6.592
   89SAPC  H11A 8394   4.729   3.481   6.529
   89SAPC  H11B 8395   4.790   3.574   6.667
   89SAPC     P 8396   4.616   3.683   6.377
   89SAPC   O13 8397   4.481   3.621   6.395
   89SAPC   O14 8398   4.597   3.815   6.318
   89SAPC   O12 8399   4.694   3.692   6.514
   89SAPC   O11 8400   4.701   3.594   6.280
   89SAPC    C1 8401   4.844   3.614   6.272
   89SAPC    HA 8402   4.885   3.672   6.358
   89SAPC    HB 8403   4.898   3.517   6.267
   89SAPC    C2 8404   4.891   3.664   6.127
   89SAPC    HS 8405   4.826   3.746   6.091
   89SAPC   O21 8406   4.881   3.544   6.048
   89SAPC   C21 8407   4.763   3.537   5.982
   89SAPC   O22 8408   4.675   3.621   5.986
   89SAPC   C22 8409   4.767   3.409   5.901
   89SAPC   H2R 8410   4.858   3.348   5.920
   89SAPC   H2S 8411   4.679   3.346   5.927
   89SAPC    C3 8412   5.034   3.713   6.135
   89SAPC    HX 8413   5.095   3.639   6.192
   89SAPC    HY 8414   5.031   3.809   6.191
   89SAPC   O31 8415   5.094   3.733   6.000
   89SAPC   C31 8416   5.057   3.837   5.939
   89SAPC   O32 8417   4.977   3.920   5.979
   89SAPC   C32 8418   5.110   3.837   5.799
   89SAPC   H2X 8419   5.113   3.736   5.752
   89SAPC   H2Y 8420   5.220   3.855   5.793
   89SAPC   C23 8421   4.755   3.440   5.748
   89SAPC   H3R 8422   4.650   3.473   5.731
   89SAPC   H3S 8423   4.761   3.343   5.694
   89SAPC   C24 8424   4.870   3.527   5.694
   89SAPC   H4R 8425   4.860   3.627   5.742
   89SAPC   H4S 8426   4.840   3.537   5.588
   89SAPC   C25 8427   5.018   3.490   5.693
   89SAPC   H5R 8428   5.076   3.516   5.783
   89SAPC   C26 8429   5.084   3.437   5.589
   89SAPC   H6R 8430   5.192   3.414   5.596
   89SAPC   C27 8431   5.018   3.399   5.461
   89SAPC   H7R 8432   4.995   3.489   5.399
   89SAPC   H7S 8433   4.914   3.363   5.481
   89SAPC   C28 8434   5.088   3.286   5.388
   89SAPC   H8R 8435   5.085   3.190   5.440
   89SAPC   C29 8436   5.153   3.283   5.270
   89SAPC   H9R 8437   5.195   3.189   5.230
   89SAPC  C210 8438   5.166   3.400   5.165
   89SAPC  H10R 8439   5.272   3.415   5.136
   89SAPC  H10S 8440   5.127   3.497   5.203
   89SAPC  C211 8441   5.092   3.365   5.040
   89SAPC  H11R 8442   5.013   3.291   5.061
   89SAPC  C212 8443   5.113   3.390   4.914
   89SAPC  H12R 8444   5.046   3.352   4.835
   89SAPC  C213 8445   5.217   3.479   4.856
   89SAPC  H13R 8446   5.295   3.490   4.934
   89SAPC  H13S 8447   5.190   3.586   4.852
   89SAPC  C214 8448   5.271   3.425   4.719
   89SAPC  H14R 8449   5.375   3.389   4.713
   89SAPC  C215 8450   5.206   3.424   4.603
   89SAPC  H15R 8451   5.254   3.384   4.512
   89SAPC  C216 8452   5.063   3.471   4.579
   89SAPC  H16R 8453   5.002   3.496   4.668
   89SAPC  H16S 8454   4.997   3.392   4.536
   89SAPC  C217 8455   5.055   3.597   4.488
   89SAPC  H17R 8456   5.083   3.689   4.544
   89SAPC  H17S 8457   4.947   3.614   4.465
   89SAPC  C218 8458   5.135   3.592   4.351
   89SAPC  H18R 8459   5.150   3.484   4.331
   89SAPC  H18S 8460   5.233   3.640   4.372
   89SAPC  C219 8461   5.057   3.644   4.230
   89SAPC  H19R 8462   5.121   3.651   4.139
   89SAPC  H19S 8463   5.032   3.751   4.249
   89SAPC  C220 8464   4.928   3.568   4.190
   89SAPC  H20R 8465   4.939   3.470   4.139
   89SAPC  H20S 8466   4.857   3.627   4.130
   89SAPC  H20T 8467   4.870   3.545   4.282
   89SAPC   C33 8468   5.050   3.937   5.697
   89SAPC   H3X 8469   5.036   4.041   5.731
   89SAPC   H3Y 8470   4.953   3.886   5.675
   89SAPC   C34 8471   5.152   3.944   5.576
   89SAPC   H4X 8472   5.139   3.853   5.515
   89SAPC   H4Y 8473   5.256   3.955   5.615
   89SAPC   C35 8474   5.120   4.057   5.485
   89SAPC   H5X 8475   5.112   4.158   5.529
   89SAPC   H5Y 8476   5.021   4.035   5.440
   89SAPC   C36 8477   5.221   4.061   5.373
   89SAPC   H6X 8478   5.321   4.074   5.419
   89SAPC   H6Y 8479   5.198   4.155   5.318
   89SAPC   C37 8480   5.228   3.949   5.275
   89SAPC   H7X 8481   5.245   3.858   5.336
   89SAPC   H7Y 8482   5.308   3.963   5.199
   89SAPC   C38 8483   5.100   3.918   5.203
   89SAPC   H8X 8484   5.086   3.993   5.123
   89SAPC   H8Y 8485   5.011   3.924   5.269
   89SAPC   C39 8486   5.103   3.780   5.134
   89SAPC   H9X 8487   5.136   3.702   5.206
   89SAPC   H9Y 8488   5.187   3.781   5.061
   89SAPC  C310 8489   4.974   3.746   5.069
   89SAPC  H10X 8490   4.985   3.667   4.992
   89SAPC  H10Y 8491   4.938   3.834   5.012
   89SAPC  C311 8492   4.872   3.703   5.183
   89SAPC  H11X 8493   4.856   3.795   5.243
   89SAPC  H11Y 8494   4.921   3.632   5.253
   89SAPC  C312 8495   4.742   3.630   5.139
   89SAPC  H12X 8496   4.761   3.544   5.070
   89SAPC  H12Y 8497   4.687   3.713   5.091
   89SAPC  C313 8498   4.666   3.586   5.270
   89SAPC  H13X 8499   4.651   3.674   5.337
   89SAPC  H13Y 8500   4.735   3.513   5.318
   89SAPC  C314 8501   4.537   3.528   5.235
   89SAPC  H14X 8502   4.487   3.474   5.318
   89SAPC  H14Y 8503   4.551   3.464   5.145
   89SAPC  C315 8504   4.431   3.632   5.195
   89SAPC  H15X 8505   4.467   3.696   5.112
   89SAPC  H15Y 8506   4.416   3.701   5.281
   89SAPC  C316 8507   4.297   3.562   5.161
   89SAPC  H16X 8508   4.230   3.649   5.141
   89SAPC  H16Y 8509   4.263   3.514   5.255
   89SAPC  C317 8510   4.303   3.461   5.056
   89SAPC  H17X 8511   4.203   3.417   5.037
   89SAPC  H17Y 8512   4.367   3.377   5.093
   89SAPC  C318 8513   4.362   3.507   4.925
   89SAPC  H18X 8514   4.346   3.426   4.852
   89SAPC  H18Y 8515   4.472   3.521   4.933
   89SAPC  H18Z 8516   4.321   3.607   4.900
   90SAPC     N 8517   3.360   5.702   6.820
   90SAPC   C12 8518   3.293   5.718   6.685
   90SAPC  H12A 8519   3.252   5.627   6.643
   90SAPC  H12B 8520   3.371   5.746   6.616
   90SAPC   C13 8521   3.420   5.831   6.859
   90SAPC  H13A 8522   3.489   5.864   6.783
   90SAPC  H13B 8523   3.349   5.911   6.872
   90SAPC  H13C 8524   3.468   5.823   6.955
   90SAPC   C14 8525   3.262   5.662   6.919
   90SAPC  H14A 8526   3.176   5.728   6.915
   90SAPC  H14B 8527   3.233   5.558   6.907
   90SAPC  H14C 8528   3.303   5.672   7.018
   90SAPC   C15 8529   3.463   5.598   6.812
   90SAPC  H15A 8530   3.523   5.591   6.902
   90SAPC  H15B 8531   3.425   5.499   6.793
   90SAPC  H15C 8532   3.542   5.616   6.740
   90SAPC   C11 8533   3.183   5.821   6.686
   90SAPC  H11A 8534   3.101   5.785   6.752
   90SAPC  H11B 8535   3.133   5.823   6.587
   90SAPC     P 8536   3.241   6.060   6.625
   90SAPC   O13 8537   3.112   6.124   6.599
   90SAPC   O14 8538   3.349   6.149   6.681
   90SAPC   O12 8539   3.219   5.951   6.731
   90SAPC   O11 8540   3.289   5.988   6.502
   90SAPC    C1 8541   3.390   6.040   6.413
   90SAPC    HA 8542   3.485   6.055   6.468
   90SAPC    HB 8543   3.408   5.965   6.333
   90SAPC    C2 8544   3.345   6.174   6.337
   90SAPC    HS 8545   3.314   6.247   6.415
   90SAPC   O21 8546   3.226   6.146   6.258
   90SAPC   C21 8547   3.180   6.245   6.180
   90SAPC   O22 8548   3.222   6.358   6.190
   90SAPC   C22 8549   3.083   6.192   6.076
   90SAPC   H2R 8550   3.127   6.095   6.043
   90SAPC   H2S 8551   2.996   6.154   6.133
   90SAPC    C3 8552   3.461   6.227   6.254
   90SAPC    HX 8553   3.545   6.235   6.327
   90SAPC    HY 8554   3.454   6.324   6.200
   90SAPC   O31 8555   3.500   6.136   6.155
   90SAPC   C31 8556   3.593   6.176   6.061
   90SAPC   O32 8557   3.639   6.291   6.069
   90SAPC   C32 8558   3.619   6.073   5.950
   90SAPC   H2X 8559   3.564   5.979   5.968
   90SAPC   H2Y 8560   3.728   6.055   5.964
   90SAPC   C23 8561   3.028   6.285   5.967
   90SAPC   H3R 8562   2.994   6.386   5.999
   90SAPC   H3S 8563   2.936   6.240   5.924
   90SAPC   C24 8564   3.131   6.304   5.855
   90SAPC   H4R 8565   3.234   6.324   5.891
   90SAPC   H4S 8566   3.106   6.398   5.800
   90SAPC   C25 8567   3.147   6.187   5.757
   90SAPC   H5R 8568   3.198   6.102   5.805
   90SAPC   C26 8569   3.119   6.180   5.620
   90SAPC   H6R 8570   3.137   6.081   5.576
   90SAPC   C27 8571   3.067   6.288   5.534
   90SAPC   H7R 8572   3.112   6.270   5.433
   90SAPC   H7S 8573   3.113   6.383   5.569
   90SAPC   C28 8574   2.919   6.309   5.527
   90SAPC   H8R 8575   2.867   6.265   5.613
   90SAPC   C29 8576   2.850   6.372   5.429
   90SAPC   H9R 8577   2.741   6.365   5.440
   90SAPC  C210 8578   2.908   6.443   5.307
   90SAPC  H10R 8579   2.995   6.498   5.350
   90SAPC  H10S 8580   2.842   6.525   5.270
   90SAPC  C211 8581   2.950   6.354   5.196
   90SAPC  H11R 8582   2.998   6.258   5.222
   90SAPC  C212 8583   2.947   6.380   5.065
   90SAPC  H12R 8584   2.994   6.298   5.008
   90SAPC  C213 8585   2.899   6.501   4.984
   90SAPC  H13R 8586   2.931   6.588   5.045
   90SAPC  H13S 8587   2.788   6.507   4.984
   90SAPC  C214 8588   2.960   6.502   4.846
   90SAPC  H14R 8589   3.033   6.421   4.835
   90SAPC  C215 8590   2.938   6.585   4.738
   90SAPC  H15R 8591   2.986   6.563   4.642
   90SAPC  C216 8592   2.828   6.689   4.729
   90SAPC  H16R 8593   2.772   6.693   4.825
   90SAPC  H16S 8594   2.758   6.656   4.649
   90SAPC  C217 8595   2.886   6.831   4.709
   90SAPC  H17R 8596   2.951   6.847   4.798
   90SAPC  H17S 8597   2.815   0.006   4.727
   90SAPC  C218 8598   2.953   6.847   4.573
   90SAPC  H18R 8599   3.032   6.771   4.554
   90SAPC  H18S 8600   3.014   0.029   4.592
   90SAPC  C219 8601   2.854   6.857   4.459
   90SAPC  H19R 8602   2.772   0.019   4.480
   90SAPC  H19S 8603   2.808   6.758   4.441
   90SAPC  C220 8604   2.920   6.898   4.322
   90SAPC  H20R 8605   2.916   0.100   4.314
   90SAPC  H20S 8606   2.876   6.850   4.233
   90SAPC  H20T 8607   3.029   6.875   4.323
   90SAPC   C33 8608   3.590   6.130   5.808
   90SAPC   H3X 8609   3.656   6.216   5.785
   90SAPC   H3Y 8610   3.484   6.160   5.798
   90SAPC   C34 8611   3.621   6.026   5.698
   90SAPC   H4X 8612   3.573   5.928   5.719
   90SAPC   H4Y 8613   3.730   6.004   5.706
   90SAPC   C35 8614   3.588   6.064   5.554
   90SAPC   H5X 8615   3.656   6.010   5.484
   90SAPC   H5Y 8616   3.616   6.171   5.539
   90SAPC   C36 8617   3.450   6.041   5.506
   90SAPC   H6X 8618   3.378   6.099   5.567
   90SAPC   H6Y 8619   3.414   5.937   5.514
   90SAPC   C37 8620   3.439   6.085   5.356
   90SAPC   H7X 8621   3.515   6.022   5.305
   90SAPC   H7Y 8622   3.465   6.193   5.352
   90SAPC   C38 8623   3.295   6.061   5.300
   90SAPC   H8X 8624   3.226   6.099   5.378
   90SAPC   H8Y 8625   3.269   5.954   5.315
   90SAPC   C39 8626   3.271   6.100   5.155
   90SAPC   H9X 8627   3.296   6.207   5.139
   90SAPC   H9Y 8628   3.165   6.077   5.130
   90SAPC  C310 8629   3.376   6.035   5.062
   90SAPC  H10X 8630   3.350   5.927   5.055
   90SAPC  H10Y 8631   3.483   6.045   5.092
   90SAPC  C311 8632   3.374   6.109   4.924
   90SAPC  H11X 8633   3.466   6.168   4.904
   90SAPC  H11Y 8634   3.283   6.172   4.921
   90SAPC  C312 8635   3.375   5.998   4.814
   90SAPC  H12X 8636   3.285   5.936   4.831
   90SAPC  H12Y 8637   3.461   5.927   4.811
   90SAPC  C313 8638   3.374   6.066   4.669
   90SAPC  H13X 8639   3.379   5.989   4.589
   90SAPC  H13Y 8640   3.466   6.127   4.665
   90SAPC  C314 8641   3.256   6.167   4.641
   90SAPC  H14X 8642   3.270   6.191   4.533
   90SAPC  H14Y 8643   3.289   6.259   4.694
   90SAPC  C315 8644   3.119   6.108   4.678
   90SAPC  H15X 8645   3.108   6.100   4.788
   90SAPC  H15Y 8646   3.112   6.003   4.641
   90SAPC  C316 8647   3.000   6.197   4.628
   90SAPC  H16X 8648   3.003   6.179   4.518
   90SAPC  H16Y 8649   3.006   6.305   4.651
   90SAPC  C317 8650   2.859   6.149   4.676
   90SAPC  H17X 8651   2.778   6.213   4.635
   90SAPC  H17Y 8652   2.847   6.147   4.786
   90SAPC  C318 8653   2.824   6.004   4.636
   90SAPC  H18X 8654   2.901   5.940   4.686
   90SAPC  H18Y 8655   2.850   6.001   4.528
   90SAPC  H18Z 8656   2.719   5.982   4.662
   91SAPC     N 8657   0.648   5.975   6.885
   91SAPC   C12 8658   0.583   6.050   6.768
   91SAPC  H12A 8659   0.588   6.154   6.798
   91SAPC  H12B 8660   0.479   6.023   6.762
   91SAPC   C13 8661   0.794   6.002   6.908
   91SAPC  H13A 8662   0.844   5.953   6.826
   91SAPC  H13B 8663   0.811   6.109   6.907
   91SAPC  H13C 8664   0.819   5.957   7.003
   91SAPC   C14 8665   0.579   5.998   7.017
   91SAPC  H14A 8666   0.621   5.937   7.097
   91SAPC  H14B 8667   0.581   6.102   7.045
   91SAPC  H14C 8668   0.473   5.978   7.012
   91SAPC   C15 8669   0.630   5.827   6.869
   91SAPC  H15A 8670   0.686   5.774   6.944
   91SAPC  H15B 8671   0.528   5.791   6.871
   91SAPC  H15C 8672   0.673   5.799   6.774
   91SAPC   C11 8673   0.634   6.025   6.628
   91SAPC  H11A 8674   0.741   6.048   6.609
   91SAPC  H11B 8675   0.579   6.091   6.558
   91SAPC     P 8676   0.476   5.835   6.551
   91SAPC   O13 8677   0.471   5.689   6.545
   91SAPC   O14 8678   0.380   5.883   6.650
   91SAPC   O12 8679   0.619   5.885   6.596
   91SAPC   O11 8680   0.452   5.908   6.411
   91SAPC    C1 8681   0.541   5.877   6.302
   91SAPC    HA 8682   0.647   5.893   6.330
   91SAPC    HB 8683   0.528   5.771   6.271
   91SAPC    C2 8684   0.502   5.961   6.187
   91SAPC    HS 8685   0.557   5.931   6.095
   91SAPC   O21 8686   0.525   6.103   6.221
   91SAPC   C21 8687   0.649   6.137   6.199
   91SAPC   O22 8688   0.735   6.062   6.155
   91SAPC   C22 8689   0.671   6.289   6.216
   91SAPC   H2R 8690   0.682   6.311   6.324
   91SAPC   H2S 8691   0.769   6.305   6.167
   91SAPC    C3 8692   0.343   5.946   6.142
   91SAPC    HX 8693   0.296   5.986   6.235
   91SAPC    HY 8694   0.305   5.844   6.123
   91SAPC   O31 8695   0.323   6.031   6.033
   91SAPC   C31 8696   0.207   6.089   6.019
   91SAPC   O32 8697   0.119   6.080   6.100
   91SAPC   C32 8698   0.187   6.161   5.891
   91SAPC   H2X 8699   0.289   6.181   5.853
   91SAPC   H2Y 8700   0.146   6.260   5.920
   91SAPC   C23 8701   0.564   6.373   6.147
   91SAPC   H3R 8702   0.543   6.471   6.194
   91SAPC   H3S 8703   0.459   6.338   6.156
   91SAPC   C24 8704   0.606   6.403   6.009
   91SAPC   H4R 8705   0.711   6.442   6.005
   91SAPC   H4S 8706   0.534   6.486   5.991
   91SAPC   C25 8707   0.599   6.294   5.904
   91SAPC   H5R 8708   0.640   6.198   5.940
   91SAPC   C26 8709   0.521   6.297   5.795
   91SAPC   H6R 8710   0.523   6.207   5.732
   91SAPC   C27 8711   0.448   6.420   5.736
   91SAPC   H7R 8712   0.469   6.514   5.791
   91SAPC   H7S 8713   0.337   6.413   5.742
   91SAPC   C28 8714   0.483   6.445   5.589
   91SAPC   H8R 8715   0.568   6.507   5.558
   91SAPC   C29 8716   0.426   6.380   5.486
   91SAPC   H9R 8717   0.460   6.399   5.383
   91SAPC  C210 8718   0.303   6.290   5.503
   91SAPC  H10R 8719   0.213   6.352   5.526
   91SAPC  H10S 8720   0.301   6.214   5.584
   91SAPC  C211 8721   0.276   6.210   5.377
   91SAPC  H11R 8722   0.355   6.136   5.356
   91SAPC  C212 8723   0.172   6.215   5.292
   91SAPC  H12R 8724   0.179   6.155   5.199
   91SAPC  C213 8725   0.057   6.306   5.304
   91SAPC  H13R 8726   0.022   6.338   5.203
   91SAPC  H13S 8727   0.082   6.400   5.356
   91SAPC  C214 8728   6.850   6.234   5.373
   91SAPC  H14R 8729   6.876   6.181   5.466
   91SAPC  C215 8730   6.733   6.196   5.322
   91SAPC  H15R 8731   6.667   6.148   5.396
   91SAPC  C216 8732   6.672   6.232   5.190
   91SAPC  H16R 8733   6.685   6.141   5.129
   91SAPC  H16S 8734   6.733   6.314   5.146
   91SAPC  C217 8735   6.530   6.280   5.192
   91SAPC  H17R 8736   6.529   6.368   5.260
   91SAPC  H17S 8737   6.471   6.194   5.230
   91SAPC  C218 8738   6.482   6.333   5.047
   91SAPC  H18R 8739   6.538   6.425   5.020
   91SAPC  H18S 8740   6.379   6.368   5.066
   91SAPC  C219 8741   6.497   6.247   4.931
   91SAPC  H19R 8742   6.427   6.161   4.927
   91SAPC  H19S 8743   6.604   6.220   4.915
   91SAPC  C220 8744   6.450   6.324   4.810
   91SAPC  H20R 8745   6.349   6.364   4.834
   91SAPC  H20S 8746   6.440   6.262   4.718
   91SAPC  H20T 8747   6.516   6.411   4.794
   91SAPC   C33 8748   0.108   6.092   5.772
   91SAPC   H3X 8749   0.068   6.175   5.709
   91SAPC   H3Y 8750   0.026   6.034   5.819
   91SAPC   C34 8751   0.175   5.977   5.691
   91SAPC   H4X 8752   0.205   5.892   5.756
   91SAPC   H4Y 8753   0.266   6.014   5.639
   91SAPC   C35 8754   0.086   5.900   5.595
   91SAPC   H5X 8755   0.030   5.980   5.542
   91SAPC   H5Y 8756   0.012   5.838   5.650
   91SAPC   C36 8757   0.164   5.815   5.495
   91SAPC   H6X 8758   0.226   5.742   5.551
   91SAPC   H6Y 8759   0.229   5.882   5.435
   91SAPC   C37 8760   0.077   5.731   5.402
   91SAPC   H7X 8761   6.899   5.695   5.462
   91SAPC   H7Y 8762   0.143   5.650   5.365
   91SAPC   C38 8763   0.017   5.795   5.282
   91SAPC   H8X 8764   6.860   5.880   5.311
   91SAPC   H8Y 8765   6.859   5.729   5.223
   91SAPC   C39 8766   0.121   5.840   5.173
   91SAPC   H9X 8767   0.190   5.760   5.138
   91SAPC   H9Y 8768   0.193   5.904   5.228
   91SAPC  C310 8769   0.053   5.910   5.054
   91SAPC  H10X 8770   6.876   5.975   5.078
   91SAPC  H10Y 8771   0.010   5.828   4.992
   91SAPC  C311 8772   0.159   5.976   4.965
   91SAPC  H11X 8773   0.231   5.905   4.919
   91SAPC  H11Y 8774   0.231   6.033   5.028
   91SAPC  C312 8775   0.086   6.071   4.861
   91SAPC  H12X 8776   0.161   6.093   4.781
   91SAPC  H12Y 8777   0.057   6.166   4.910
   91SAPC  C313 8778   6.876   6.014   4.781
   91SAPC  H13X 8779   6.793   5.982   4.847
   91SAPC  H13Y 8780   6.897   5.924   4.719
   91SAPC  C314 8781   6.818   6.116   4.683
   91SAPC  H14X 8782   6.890   6.135   4.600
   91SAPC  H14Y 8783   6.800   6.212   4.736
   91SAPC  C315 8784   6.681   6.064   4.623
   91SAPC  H15X 8785   6.597   6.097   4.687
   91SAPC  H15Y 8786   6.681   5.953   4.620
   91SAPC  C316 8787   6.643   6.106   4.477
   91SAPC  H16X 8788   6.732   6.085   4.413
   91SAPC  H16Y 8789   6.623   6.215   4.489
   91SAPC  C317 8790   6.513   6.044   4.413
   91SAPC  H17X 8791   6.421   6.085   4.460
   91SAPC  H17Y 8792   6.511   5.934   4.430
   91SAPC  C318 8793   6.511   6.078   4.262
   91SAPC  H18X 8794   6.414   6.076   4.207
   91SAPC  H18Y 8795   6.574   6.000   4.215
   91SAPC  H18Z 8796   6.552   6.180   4.249
   92SAPC     N 8797   6.239   5.540   6.181
   92SAPC   C12 8798   6.377   5.573   6.220
   92SAPC  H12A 8799   6.401   5.569   6.325
   92SAPC  H12B 8800   6.389   5.677   6.192
   92SAPC   C13 8801   6.217   5.395   6.189
   92SAPC  H13A 8802   6.260   5.360   6.282
   92SAPC  H13B 8803   6.113   5.368   6.176
   92SAPC  H13C 8804   6.274   5.338   6.118
   92SAPC   C14 8805   6.144   5.608   6.280
   92SAPC  H14A 8806   6.120   5.547   6.366
   92SAPC  H14B 8807   6.194   5.693   6.325
   92SAPC  H14C 8808   6.047   5.633   6.240
   92SAPC   C15 8809   6.206   5.598   6.044
   92SAPC  H15A 8810   6.232   5.703   6.039
   92SAPC  H15B 8811   6.257   5.552   5.961
   92SAPC  H15C 8812   6.098   5.589   6.037
   92SAPC   C11 8813   6.490   5.504   6.140
   92SAPC  H11A 8814   6.580   5.569   6.140
   92SAPC  H11B 8815   6.465   5.493   6.032
   92SAPC     P 8816   6.596   5.347   6.310
   92SAPC   O13 8817   6.562   5.449   6.414
   92SAPC   O14 8818   6.580   5.205   6.344
   92SAPC   O12 8819   6.507   5.369   6.184
   92SAPC   O11 8820   6.742   5.380   6.250
   92SAPC    C1 8821   6.778   5.316   6.125
   92SAPC    HA 8822   6.842   5.229   6.147
   92SAPC    HB 8823   6.690   5.278   6.070
   92SAPC    C2 8824   6.845   5.409   6.027
   92SAPC    HS 8825   6.794   5.507   6.033
   92SAPC   O21 8826   6.829   5.355   5.895
   92SAPC   C21 8827   6.814   5.442   5.794
   92SAPC   O22 8828   6.831   5.560   5.808
   92SAPC   C22 8829   6.761   5.377   5.669
   92SAPC   H2R 8830   6.726   5.460   5.603
   92SAPC   H2S 8831   6.850   5.334   5.619
   92SAPC    C3 8832   0.092   5.439   6.064
   92SAPC    HX 8833   0.145   5.342   6.079
   92SAPC    HY 8834   0.095   5.500   6.157
   92SAPC   O31 8835   0.156   5.514   5.962
   92SAPC   C31 8836   0.247   5.467   5.874
   92SAPC   O32 8837   0.288   5.352   5.868
   92SAPC   C32 8838   0.303   5.584   5.802
   92SAPC   H2X 8839   0.381   5.636   5.862
   92SAPC   H2Y 8840   0.228   5.663   5.777
   92SAPC   C23 8841   6.647   5.277   5.696
   92SAPC   H3R 8842   6.688   5.191   5.753
   92SAPC   H3S 8843   6.608   5.239   5.600
   92SAPC   C24 8844   6.538   5.342   5.776
   92SAPC   H4R 8845   6.466   5.382   5.701
   92SAPC   H4S 8846   6.587   5.415   5.843
   92SAPC   C25 8847   6.469   5.242   5.862
   92SAPC   H5R 8848   6.529   5.210   5.948
   92SAPC   C26 8849   6.335   5.204   5.858
   92SAPC   H6R 8850   6.306   5.127   5.931
   92SAPC   C27 8851   6.239   5.265   5.758
   92SAPC   H7R 8852   6.299   5.277   5.665
   92SAPC   H7S 8853   6.194   5.356   5.805
   92SAPC   C28 8854   6.126   5.166   5.727
   92SAPC   H8R 8855   6.092   5.107   5.812
   92SAPC   C29 8856   6.075   5.142   5.608
   92SAPC   H9R 8857   5.998   5.063   5.606
   92SAPC  C210 8858   6.125   5.191   5.473
   92SAPC  H10R 8859   6.139   5.301   5.477
   92SAPC  H10S 8860   6.040   5.176   5.403
   92SAPC  C211 8861   6.250   5.120   5.426
   92SAPC  H11R 8862   6.259   5.014   5.454
   92SAPC  C212 8863   6.341   5.165   5.339
   92SAPC  H12R 8864   6.423   5.097   5.311
   92SAPC  C213 8865   6.353   5.308   5.288
   92SAPC  H13R 8866   6.255   5.359   5.283
   92SAPC  H13S 8867   6.401   5.306   5.188
   92SAPC  C214 8868   6.434   5.385   5.379
   92SAPC  H14R 8869   6.390   5.410   5.477
   92SAPC  C215 8870   6.559   5.428   5.353
   92SAPC  H15R 8871   6.611   5.473   5.438
   92SAPC  C216 8872   6.642   5.417   5.228
   92SAPC  H16R 8873   6.627   5.314   5.189
   92SAPC  H16S 8874   6.751   5.412   5.249
   92SAPC  C217 8875   6.611   5.522   5.124
   92SAPC  H17R 8876   6.643   5.623   5.159
   92SAPC  H17S 8877   6.503   5.526   5.098
   92SAPC  C218 8878   6.685   5.479   4.990
   92SAPC  H18R 8879   6.645   5.381   4.958
   92SAPC  H18S 8880   6.796   5.476   5.000
   92SAPC  C219 8881   6.675   5.579   4.873
   92SAPC  H19R 8882   6.710   5.681   4.902
   92SAPC  H19S 8883   6.568   5.577   4.842
   92SAPC  C220 8884   6.762   5.538   4.758
   92SAPC  H20R 8885   6.868   5.571   4.766
   92SAPC  H20S 8886   6.720   5.577   4.663
   92SAPC  H20T 8887   6.760   5.427   4.748
   92SAPC   C33 8888   0.372   5.548   5.673
   92SAPC   H3X 8889   0.473   5.501   5.680
   92SAPC   H3Y 8890   0.398   5.643   5.622
   92SAPC   C34 8891   0.286   5.466   5.581
   92SAPC   H4X 8892   0.180   5.499   5.584
   92SAPC   H4Y 8893   0.282   5.359   5.612
   92SAPC   C35 8894   0.338   5.459   5.438
   92SAPC   H5X 8895   0.448   5.446   5.431
   92SAPC   H5Y 8896   0.319   5.557   5.390
   92SAPC   C36 8897   0.257   5.358   5.358
   92SAPC   H6X 8898   0.148   5.378   5.364
   92SAPC   H6Y 8899   0.277   5.261   5.410
   92SAPC   C37 8900   0.294   5.354   5.211
   92SAPC   H7X 8901   0.301   5.254   5.162
   92SAPC   H7Y 8902   0.392   5.405   5.202
   92SAPC   C38 8903   0.186   5.424   5.120
   92SAPC   H8X 8904   0.176   5.528   5.158
   92SAPC   H8Y 8905   0.087   5.374   5.125
   92SAPC   C39 8906   0.237   5.413   4.967
   92SAPC   H9X 8907   0.348   5.403   4.968
   92SAPC   H9Y 8908   0.211   5.505   4.910
   92SAPC  C310 8909   0.180   5.295   4.893
   92SAPC  H10X 8910   0.077   5.273   4.929
   92SAPC  H10Y 8911   0.244   5.208   4.917
   92SAPC  C311 8912   0.185   5.310   4.740
   92SAPC  H11X 8913   0.159   5.416   4.722
   92SAPC  H11Y 8914   0.104   5.246   4.698
   92SAPC  C312 8915   0.324   5.273   4.682
   92SAPC  H12X 8916   0.363   5.175   4.717
   92SAPC  H12Y 8917   0.400   5.351   4.707
   92SAPC  C313 8918   0.321   5.272   4.533
   92SAPC  H13X 8919   0.417   5.278   4.477
   92SAPC  H13Y 8920   0.267   5.362   4.496
   92SAPC  C314 8921   0.233   5.155   4.487
   92SAPC  H14X 8922   0.126   5.179   4.507
   92SAPC  H14Y 8923   0.270   5.068   4.545
   92SAPC  C315 8924   0.262   5.105   4.343
   92SAPC  H15X 8925   0.371   5.111   4.327
   92SAPC  H15Y 8926   0.212   5.174   4.273
   92SAPC  C316 8927   0.212   4.967   4.301
   92SAPC  H16X 8928   0.113   4.942   4.345
   92SAPC  H16Y 8929   0.272   4.887   4.349
   92SAPC  C317 8930   0.221   4.937   4.153
   92SAPC  H17X 8931   0.322   4.967   4.118
   92SAPC  H17Y 8932   0.142   5.002   4.110
   92SAPC  C318 8933   0.210   4.791   4.124
   92SAPC  H18X 8934   0.216   4.778   4.014
   92SAPC  H18Y 8935   0.120   4.755   4.178
   92SAPC  H18Z 8936   0.284   4.722   4.168
   93SAPC     N 8937   1.441   0.202   6.741
   93SAPC   C12 8938   1.420   0.086   6.642
   93SAPC  H12A 8939   1.316   0.092   6.614
   93SAPC  H12B 8940   1.428   6.898   6.688
   93SAPC   C13 8941   1.394   0.330   6.685
   93SAPC  H13A 8942   1.451   0.368   6.601
   93SAPC  H13B 8943   1.296   0.316   6.640
   93SAPC  H13C 8944   1.391   0.411   6.757
   93SAPC   C14 8945   1.359   0.172   6.862
   93SAPC  H14A 8946   1.386   0.078   6.907
   93SAPC  H14B 8947   1.384   0.250   6.932
   93SAPC  H14C 8948   1.253   0.188   6.847
   93SAPC   C15 8949   1.581   0.241   6.798
   93SAPC  H15A 8950   1.605   0.166   6.871
   93SAPC  H15B 8951   1.653   0.251   6.718
   93SAPC  H15C 8952   1.580   0.333   6.854
   93SAPC   C11 8953   1.506   0.093   6.510
   93SAPC  H11A 8954   1.511   6.896   6.478
   93SAPC  H11B 8955   1.612   0.122   6.524
   93SAPC     P 8956   1.346   0.123   6.314
   93SAPC   O13 8957   1.237   0.089   6.413
   93SAPC   O14 8958   1.314   0.221   6.205
   93SAPC   O12 8959   1.466   0.182   6.405
   93SAPC   O11 8960   1.398   6.895   6.247
   93SAPC    C1 8961   1.522   6.888   6.177
   93SAPC    HA 8962   1.564   0.080   6.160
   93SAPC    HB 8963   1.592   6.820   6.230
   93SAPC    C2 8964   1.504   6.827   6.033
   93SAPC    HS 8965   1.598   6.819   5.974
   93SAPC   O21 8966   1.404   6.890   5.962
   93SAPC   C21 8967   1.433   0.101   5.912
   93SAPC   O22 8968   1.536   0.160   5.930
   93SAPC   C22 8969   1.316   0.142   5.826
   93SAPC   H2R 8970   1.336   0.101   5.724
   93SAPC   H2S 8971   1.229   0.085   5.862
   93SAPC    C3 8972   1.452   6.679   6.053
   93SAPC    HX 8973   1.367   6.682   6.125
   93SAPC    HY 8974   1.532   6.625   6.108
   93SAPC   O31 8975   1.406   6.607   5.934
   93SAPC   C31 8976   1.506   6.582   5.845
   93SAPC   O32 8977   1.623   6.594   5.870
   93SAPC   C32 8978   1.443   6.537   5.715
   93SAPC   H2X 8979   1.410   6.432   5.734
   93SAPC   H2Y 8980   1.521   6.529   5.636
   93SAPC   C23 8981   1.296   0.295   5.807
   93SAPC   H3R 8982   1.362   0.352   5.737
   93SAPC   H3S 8983   1.312   0.336   5.909
   93SAPC   C24 8984   1.155   0.325   5.761
   93SAPC   H4R 8985   1.144   0.432   5.733
   93SAPC   H4S 8986   1.074   0.317   5.837
   93SAPC   C25 8987   1.108   0.255   5.641
   93SAPC   H5R 8988   1.043   0.173   5.674
   93SAPC   C26 8989   1.129   0.262   5.508
   93SAPC   H6R 8990   1.117   0.176   5.442
   93SAPC   C27 8991   1.230   0.361   5.449
   93SAPC   H7R 8992   1.284   0.305   5.369
   93SAPC   H7S 8993   1.307   0.390   5.524
   93SAPC   C28 8994   1.150   0.481   5.394
   93SAPC   H8R 8995   1.088   0.522   5.476
   93SAPC   C29 8996   1.175   0.548   5.278
   93SAPC   H9R 8997   1.123   0.641   5.251
   93SAPC  C210 8998   1.270   0.503   5.168
   93SAPC  H10R 8999   1.324   0.409   5.192
   93SAPC  H10S 9000   1.356   0.572   5.173
   93SAPC  C211 9001   1.208   0.485   5.030
   93SAPC  H11R 9002   1.184   0.583   4.987
   93SAPC  C212 9003   1.187   0.367   4.966
   93SAPC  H12R 9004   1.123   0.369   4.877
   93SAPC  C213 9005   1.220   0.223   5.002
   93SAPC  H13R 9006   1.150   0.157   4.947
   93SAPC  H13S 9007   1.199   0.223   5.111
   93SAPC  C214 9008   1.359   0.191   4.957
   93SAPC  H14R 9009   1.379   0.205   4.850
   93SAPC  C215 9010   1.453   0.134   5.033
   93SAPC  H15R 9011   1.554   0.122   4.991
   93SAPC  C216 9012   1.446   0.097   5.183
   93SAPC  H16R 9013   1.473   6.901   5.207
   93SAPC  H16S 9014   1.346   0.110   5.230
   93SAPC  C217 9015   1.538   0.168   5.277
   93SAPC  H17R 9016   1.510   0.274   5.296
   93SAPC  H17S 9017   1.642   0.171   5.238
   93SAPC  C218 9018   1.536   0.085   5.402
   93SAPC  H18R 9019   1.549   6.885   5.387
   93SAPC  H18S 9020   1.436   0.095   5.448
   93SAPC  C219 9021   1.644   0.127   5.501
   93SAPC  H19R 9022   1.630   0.234   5.527
   93SAPC  H19S 9023   1.741   0.125   5.446
   93SAPC  C220 9024   1.640   0.027   5.620
   93SAPC  H20R 9025   1.669   6.834   5.590
   93SAPC  H20S 9026   1.536   0.019   5.657
   93SAPC  H20T 9027   1.708   0.060   5.702
   93SAPC   C33 9028   1.341   6.638   5.680
   93SAPC   H3X 9029   1.346   6.742   5.720
   93SAPC   H3Y 9030   1.245   6.605   5.726
   93SAPC   C34 9031   1.337   6.664   5.530
   93SAPC   H4X 9032   1.329   6.569   5.472
   93SAPC   H4Y 9033   1.431   6.709   5.493
   93SAPC   C35 9034   1.207   6.732   5.480
   93SAPC   H5X 9035   1.194   6.832   5.527
   93SAPC   H5Y 9036   1.124   6.670   5.521
   93SAPC   C36 9037   1.198   6.749   5.327
   93SAPC   H6X 9038   1.285   6.811   5.296
   93SAPC   H6Y 9039   1.099   6.795   5.309
   93SAPC   C37 9040   1.220   6.622   5.236
   93SAPC   H7X 9041   1.146   6.539   5.246
   93SAPC   H7Y 9042   1.319   6.587   5.272
   93SAPC   C38 9043   1.227   6.661   5.092
   93SAPC   H8X 9044   1.311   6.733   5.078
   93SAPC   H8Y 9045   1.133   6.709   5.058
   93SAPC   C39 9046   1.254   6.543   4.995
   93SAPC   H9X 9047   1.162   6.480   4.991
   93SAPC   H9Y 9048   1.330   6.483   5.049
   93SAPC  C310 9049   1.295   6.580   4.853
   93SAPC  H10X 9050   1.387   6.643   4.856
   93SAPC  H10Y 9051   1.208   6.641   4.819
   93SAPC  C311 9052   1.328   6.456   4.769
   93SAPC  H11X 9053   1.236   6.394   4.766
   93SAPC  H11Y 9054   1.416   6.407   4.816
   93SAPC  C312 9055   1.372   6.499   4.629
   93SAPC  H12X 9056   1.456   6.571   4.618
   93SAPC  H12Y 9057   1.286   6.558   4.591
   93SAPC  C313 9058   1.407   6.377   4.539
   93SAPC  H13X 9059   1.318   6.310   4.538
   93SAPC  H13Y 9060   1.495   6.323   4.577
   93SAPC  C314 9061   1.430   6.425   4.395
   93SAPC  H14X 9062   1.502   6.509   4.399
   93SAPC  H14Y 9063   1.326   6.453   4.371
   93SAPC  C315 9064   1.473   6.315   4.292
   93SAPC  H15X 9065   1.397   6.234   4.290
   93SAPC  H15Y 9066   1.568   6.269   4.329
   93SAPC  C316 9067   1.490   6.356   4.145
   93SAPC  H16X 9068   1.589   6.404   4.133
   93SAPC  H16Y 9069   1.403   6.420   4.117
   93SAPC  C317 9070   1.477   6.234   4.044
   93SAPC  H17X 9071   1.369   6.211   4.031
   93SAPC  H17Y 9072   1.518   6.142   4.090
   93SAPC  C318 9073   1.545   6.263   3.907
   93SAPC  H18X 9074   1.526   6.362   3.860
   93SAPC  H18Y 9075   1.510   6.188   3.833
   93SAPC  H18Z 9076   1.655   6.263   3.897
   94SAPC     N 9077   0.213   5.158   6.984
   94SAPC   C12 9078   0.127   5.093   6.874
   94SAPC  H12A 9079   0.028   5.064   6.905
   94SAPC  H12B 9080   0.163   4.994   6.850
   94SAPC   C13 9081   0.173   5.300   6.997
   94SAPC  H13A 9082   0.201   5.347   6.904
   94SAPC  H13B 9083   0.067   5.320   7.003
   94SAPC  H13C 9084   0.237   5.350   7.067
   94SAPC   C14 9085   0.189   5.091   7.114
   94SAPC  H14A 9086   0.179   4.984   7.103
   94SAPC  H14B 9087   0.267   5.116   7.184
   94SAPC  H14C 9088   0.099   5.129   7.159
   94SAPC   C15 9089   0.361   5.151   6.957
   94SAPC  H15A 9090   0.382   5.166   6.852
   94SAPC  H15B 9091   0.414   5.229   7.008
   94SAPC  H15C 9092   0.395   5.050   6.977
   94SAPC   C11 9093   0.115   5.173   6.737
   94SAPC  H11A 9094   0.061   5.265   6.769
   94SAPC  H11B 9095   0.050   5.103   6.681
   94SAPC     P 9096   0.289   5.331   6.626
   94SAPC   O13 9097   0.240   5.435   6.711
   94SAPC   O14 9098   0.435   5.325   6.606
   94SAPC   O12 9099   0.243   5.191   6.673
   94SAPC   O11 9100   0.226   5.344   6.482
   94SAPC    C1 9101   0.196   5.234   6.396
   94SAPC    HA 9102   0.134   5.153   6.439
   94SAPC    HB 9103   0.134   5.269   6.311
   94SAPC    C2 9104   0.322   5.184   6.330
   94SAPC    HS 9105   0.395   5.165   6.412
   94SAPC   O21 9106   0.368   5.293   6.247
   94SAPC   C21 9107   0.502   5.295   6.234
   94SAPC   O22 9108   0.574   5.207   6.281
   94SAPC   C22 9109   0.546   5.415   6.152
   94SAPC   H2R 9110   0.469   5.447   6.078
   94SAPC   H2S 9111   0.558   5.495   6.229
   94SAPC    C3 9112   0.309   5.052   6.253
   94SAPC    HX 9113   0.283   4.983   6.336
   94SAPC    HY 9114   0.411   5.020   6.222
   94SAPC   O31 9115   0.209   5.069   6.151
   94SAPC   C31 9116   0.249   5.056   6.027
   94SAPC   O32 9117   0.357   5.014   5.987
   94SAPC   C32 9118   0.125   5.072   5.935
   94SAPC   H2X 9119   0.118   5.177   5.901
   94SAPC   H2Y 9120   0.033   5.037   5.988
   94SAPC   C23 9121   0.677   5.379   6.081
   94SAPC   H3R 9122   0.652   5.293   6.015
   94SAPC   H3S 9123   0.764   5.358   6.147
   94SAPC   C24 9124   0.730   5.490   5.981
   94SAPC   H4R 9125   0.644   5.525   5.921
   94SAPC   H4S 9126   0.798   5.448   5.903
   94SAPC   C25 9127   0.798   5.602   6.054
   94SAPC   H5R 9128   0.837   5.578   6.154
   94SAPC   C26 9129   0.806   5.724   6.005
   94SAPC   H6R 9130   0.861   5.802   6.060
   94SAPC   C27 9131   0.744   5.769   5.875
   94SAPC   H7R 9132   0.634   5.757   5.886
   94SAPC   H7S 9133   0.779   5.703   5.793
   94SAPC   C28 9134   0.772   5.910   5.826
   94SAPC   H8R 9135   0.865   5.942   5.874
   94SAPC   C29 9136   0.698   5.979   5.738
   94SAPC   H9R 9137   0.735   6.078   5.705
   94SAPC  C210 9138   0.568   5.931   5.685
   94SAPC  H10R 9139   0.486   5.953   5.756
   94SAPC  H10S 9140   0.570   5.821   5.671
   94SAPC  C211 9141   0.539   5.983   5.547
   94SAPC  H11R 9142   0.535   6.093   5.554
   94SAPC  C212 9143   0.545   5.920   5.428
   94SAPC  H12R 9144   0.536   5.973   5.333
   94SAPC  C213 9145   0.570   5.772   5.407
   94SAPC  H13R 9146   0.478   5.738   5.355
   94SAPC  H13S 9147   0.579   5.716   5.502
   94SAPC  C214 9148   0.702   5.745   5.328
   94SAPC  H14R 9149   0.789   5.758   5.394
   94SAPC  C215 9150   0.704   5.691   5.201
   94SAPC  H15R 9151   0.800   5.657   5.160
   94SAPC  C216 9152   0.582   5.663   5.115
   94SAPC  H16R 9153   0.504   5.739   5.139
   94SAPC  H16S 9154   0.563   5.557   5.142
   94SAPC  C217 9155   0.608   5.672   4.966
   94SAPC  H17R 9156   0.671   5.587   4.931
   94SAPC  H17S 9157   0.670   5.760   4.939
   94SAPC  C218 9158   0.480   5.680   4.872
   94SAPC  H18R 9159   0.410   5.760   4.904
   94SAPC  H18S 9160   0.421   5.586   4.876
   94SAPC  C219 9161   0.524   5.700   4.722
   94SAPC  H19R 9162   0.581   5.608   4.701
   94SAPC  H19S 9163   0.591   5.789   4.720
   94SAPC  C220 9164   0.404   5.718   4.630
   94SAPC  H20R 9165   0.337   5.630   4.624
   94SAPC  H20S 9166   0.436   5.741   4.526
   94SAPC  H20T 9167   0.346   5.806   4.666
   94SAPC   C33 9168   0.130   4.991   5.803
   94SAPC   H3X 9169   0.110   4.885   5.830
   94SAPC   H3Y 9170   0.234   4.992   5.765
   94SAPC   C34 9171   0.028   5.044   5.700
   94SAPC   H4X 9172   0.028   5.154   5.691
   94SAPC   H4Y 9173   6.838   5.006   5.735
   94SAPC   C35 9174   0.052   4.986   5.553
   94SAPC   H5X 9175   0.036   4.877   5.567
   94SAPC   H5Y 9176   0.157   5.015   5.537
   94SAPC   C36 9177   6.859   5.044   5.458
   94SAPC   H6X 9178   6.868   5.155   5.452
   94SAPC   H6Y 9179   6.759   5.024   5.501
   94SAPC   C37 9180   6.885   4.997   5.318
   94SAPC   H7X 9181   6.895   4.887   5.319
   94SAPC   H7Y 9182   0.077   5.030   5.283
   94SAPC   C38 9183   6.778   5.030   5.217
   94SAPC   H8X 9184   6.758   5.139   5.224
   94SAPC   H8Y 9185   6.681   4.978   5.229
   94SAPC   C39 9186   6.826   4.993   5.078
   94SAPC   H9X 9187   6.826   4.883   5.064
   94SAPC   H9Y 9188   0.020   5.025   5.056
   94SAPC  C310 9189   6.733   5.054   4.973
   94SAPC  H10X 9190   6.724   5.162   4.994
   94SAPC  H10Y 9191   6.630   5.013   4.984
   94SAPC  C311 9192   6.787   5.032   4.832
   94SAPC  H11X 9193   6.774   4.925   4.805
   94SAPC  H11Y 9194   6.896   5.053   4.834
   94SAPC  C312 9195   6.701   5.113   4.735
   94SAPC  H12X 9196   6.706   5.221   4.759
   94SAPC  H12Y 9197   6.596   5.086   4.759
   94SAPC  C313 9198   6.738   5.083   4.585
   94SAPC  H13X 9199   6.729   4.974   4.566
   94SAPC  H13Y 9200   6.847   5.105   4.582
   94SAPC  C314 9201   6.658   5.167   4.476
   94SAPC  H14X 9202   6.645   5.274   4.501
   94SAPC  H14Y 9203   6.558   5.122   4.463
   94SAPC  C315 9204   6.740   5.182   4.345
   94SAPC  H15X 9205   6.739   5.091   4.281
   94SAPC  H15Y 9206   6.850   5.187   4.360
   94SAPC  C316 9207   6.672   5.277   4.251
   94SAPC  H16X 9208   6.624   5.368   4.293
   94SAPC  H16Y 9209   6.584   5.222   4.213
   94SAPC  C317 9210   6.751   5.323   4.132
   94SAPC  H17X 9211   6.690   5.398   4.077
   94SAPC  H17Y 9212   6.780   5.238   4.068
   94SAPC  C318 9213   6.880   5.405   4.176
   94SAPC  H18X 9214   0.046   5.353   4.239
   94SAPC  H18Y 9215   6.859   5.495   4.238
   94SAPC  H18Z 9216   0.024   5.440   4.085
   95SAPC     N 9217   4.116   5.929   1.974
   95SAPC   C12 9218   4.156   6.022   2.089
   95SAPC  H12A 9219   4.129   6.125   2.067
   95SAPC  H12B 9220   4.263   6.012   2.102
   95SAPC   C13 9221   4.159   5.790   1.988
   95SAPC  H13A 9222   4.259   5.781   2.028
   95SAPC  H13B 9223   4.091   5.731   2.046
   95SAPC  H13C 9224   4.161   5.737   1.894
   95SAPC   C14 9225   3.970   5.927   1.956
   95SAPC  H14A 9226   3.958   5.850   1.881
   95SAPC  H14B 9227   3.925   5.883   2.044
   95SAPC  H14C 9228   3.919   6.013   1.916
   95SAPC   C15 9229   4.183   5.978   1.850
   95SAPC  H15A 9230   4.121   5.960   1.763
   95SAPC  H15B 9231   4.192   6.085   1.850
   95SAPC  H15C 9232   4.284   5.944   1.832
   95SAPC   C11 9233   4.099   5.981   2.230
   95SAPC  H11A 9234   4.154   6.040   2.307
   95SAPC  H11B 9235   4.118   5.874   2.254
   95SAPC     P 9236   3.908   6.161   2.259
   95SAPC   O13 9237   4.002   6.265   2.215
   95SAPC   O14 9238   3.764   6.176   2.220
   95SAPC   O12 9239   3.957   6.005   2.228
   95SAPC   O11 9240   3.906   6.166   2.416
   95SAPC    C1 9241   3.887   6.048   2.500
   95SAPC    HA 9242   3.951   5.967   2.460
   95SAPC    HB 9243   3.920   6.069   2.604
   95SAPC    C2 9244   3.735   6.016   2.509
   95SAPC    HS 9245   3.697   6.018   2.405
   95SAPC   O21 9246   3.680   6.135   2.587
   95SAPC   C21 9247   3.548   6.150   2.583
   95SAPC   O22 9248   3.479   6.072   2.513
   95SAPC   C22 9249   3.503   6.258   2.687
   95SAPC   H2R 9250   3.594   6.318   2.704
   95SAPC   H2S 9251   3.417   6.310   2.640
   95SAPC    C3 9252   3.722   5.883   2.581
   95SAPC    HX 9253   3.766   5.803   2.517
   95SAPC    HY 9254   3.617   5.852   2.595
   95SAPC   O31 9255   3.798   5.883   2.705
   95SAPC   C31 9256   3.806   5.770   2.766
   95SAPC   O32 9257   3.783   5.661   2.712
   95SAPC   C32 9258   3.830   5.797   2.915
   95SAPC   H2X 9259   3.940   5.793   2.930
   95SAPC   H2Y 9260   3.779   5.719   2.976
   95SAPC   C23 9261   3.443   6.216   2.824
   95SAPC   H3R 9262   3.479   6.289   2.899
   95SAPC   H3S 9263   3.496   6.123   2.854
   95SAPC   C24 9264   3.295   6.188   2.843
   95SAPC   H4R 9265   3.239   6.284   2.851
   95SAPC   H4S 9266   3.270   6.135   2.937
   95SAPC   C25 9267   3.238   6.106   2.723
   95SAPC   H5R 9268   3.279   6.004   2.723
   95SAPC   C26 9269   3.165   6.148   2.615
   95SAPC   H6R 9270   3.139   6.075   2.536
   95SAPC   C27 9271   3.131   6.293   2.594
   95SAPC   H7R 9272   3.154   6.363   2.676
   95SAPC   H7S 9273   3.020   6.296   2.591
   95SAPC   C28 9274   3.176   6.361   2.471
   95SAPC   H8R 9275   3.152   6.305   2.380
   95SAPC   C29 9276   3.215   6.489   2.457
   95SAPC   H9R 9277   3.239   6.527   2.357
   95SAPC  C210 9278   3.256   6.579   2.576
   95SAPC  H10R 9279   3.361   6.610   2.556
   95SAPC  H10S 9280   3.247   6.531   2.676
   95SAPC  C211 9281   3.166   6.701   2.575
   95SAPC  H11R 9282   3.087   6.711   2.499
   95SAPC  C212 9283   3.188   6.816   2.648
   95SAPC  H12R 9284   3.127   6.906   2.630
   95SAPC  C213 9285   3.297   6.829   2.745
   95SAPC  H13R 9286   3.331   0.025   2.745
   95SAPC  H13S 9287   3.383   6.762   2.722
   95SAPC  C214 9288   3.243   6.784   2.881
   95SAPC  H14R 9289   3.166   6.852   2.922
   95SAPC  C215 9290   3.284   6.682   2.957
   95SAPC  H15R 9291   3.220   6.655   3.042
   95SAPC  C216 9292   3.407   6.595   2.941
   95SAPC  H16R 9293   3.491   6.642   2.886
   95SAPC  H16S 9294   3.381   6.511   2.872
   95SAPC  C217 9295   3.466   6.531   3.071
   95SAPC  H17R 9296   3.553   6.466   3.050
   95SAPC  H17S 9297   3.386   6.470   3.117
   95SAPC  C218 9298   3.523   6.638   3.160
   95SAPC  H18R 9299   3.446   6.717   3.171
   95SAPC  H18S 9300   3.609   6.685   3.106
   95SAPC  C219 9301   3.588   6.581   3.297
   95SAPC  H19R 9302   3.507   6.545   3.365
   95SAPC  H19S 9303   3.630   6.671   3.346
   95SAPC  C220 9304   3.685   6.457   3.291
   95SAPC  H20R 9305   3.631   6.361   3.275
   95SAPC  H20S 9306   3.727   6.447   3.393
   95SAPC  H20T 9307   3.773   6.459   3.224
   95SAPC   C33 9308   3.767   5.937   2.962
   95SAPC   H3X 9309   3.659   5.930   2.936
   95SAPC   H3Y 9310   3.817   6.018   2.905
   95SAPC   C34 9311   3.768   5.950   3.118
   95SAPC   H4X 9312   3.870   5.961   3.162
   95SAPC   H4Y 9313   3.724   5.852   3.146
   95SAPC   C35 9314   3.663   6.055   3.166
   95SAPC   H5X 9315   3.564   6.030   3.124
   95SAPC   H5Y 9316   3.687   6.158   3.131
   95SAPC   C36 9317   3.653   6.075   3.316
   95SAPC   H6X 9318   3.595   6.168   3.333
   95SAPC   H6Y 9319   3.756   6.100   3.348
   95SAPC   C37 9320   3.572   5.966   3.388
   95SAPC   H7X 9321   3.628   5.871   3.376
   95SAPC   H7Y 9322   3.471   5.965   3.342
   95SAPC   C38 9323   3.553   5.981   3.544
   95SAPC   H8X 9324   3.495   6.072   3.571
   95SAPC   H8Y 9325   3.653   5.997   3.589
   95SAPC   C39 9326   3.485   5.849   3.607
   95SAPC   H9X 9327   3.537   5.760   3.566
   95SAPC   H9Y 9328   3.379   5.843   3.575
   95SAPC  C310 9329   3.489   5.855   3.761
   95SAPC  H10X 9330   3.435   5.937   3.812
   95SAPC  H10Y 9331   3.592   5.886   3.789
   95SAPC  C311 9332   3.455   5.721   3.823
   95SAPC  H11X 9333   3.521   5.703   3.911
   95SAPC  H11Y 9334   3.470   5.641   3.748
   95SAPC  C312 9335   3.306   5.715   3.870
   95SAPC  H12X 9336   3.277   5.607   3.876
   95SAPC  H12Y 9337   3.244   5.764   3.792
   95SAPC  C313 9338   3.275   5.781   4.002
   95SAPC  H13X 9339   3.169   5.813   4.001
   95SAPC  H13Y 9340   3.343   5.867   4.017
   95SAPC  C314 9341   3.291   5.689   4.126
   95SAPC  H14X 9342   3.397   5.656   4.132
   95SAPC  H14Y 9343   3.240   5.591   4.112
   95SAPC  C315 9344   3.255   5.757   4.256
   95SAPC  H15X 9345   3.145   5.774   4.256
   95SAPC  H15Y 9346   3.299   5.859   4.259
   95SAPC  C316 9347   3.293   5.669   4.373
   95SAPC  H16X 9348   3.403   5.661   4.383
   95SAPC  H16Y 9349   3.259   5.566   4.345
   95SAPC  C317 9350   3.236   5.707   4.511
   95SAPC  H17X 9351   3.278   5.808   4.526
   95SAPC  H17Y 9352   3.288   5.633   4.576
   95SAPC  C318 9353   3.086   5.678   4.534
   95SAPC  H18X 9354   3.063   5.720   4.634
   95SAPC  H18Y 9355   3.050   5.574   4.522
   95SAPC  H18Z 9356   3.017   5.731   4.465
   96SAPC     N 9357   3.912   1.972   1.643
   96SAPC   C12 9358   4.002   1.970   1.761
   96SAPC  H12A 9359   4.067   2.056   1.764
   96SAPC  H12B 9360   4.081   1.897   1.760
   96SAPC   C13 9361   3.850   1.838   1.610
   96SAPC  H13A 9362   3.923   1.758   1.611
   96SAPC  H13B 9363   3.778   1.813   1.686
   96SAPC  H13C 9364   3.803   1.826   1.513
   96SAPC   C14 9365   3.798   2.071   1.652
   96SAPC  H14A 9366   3.726   2.058   1.731
   96SAPC  H14B 9367   3.839   2.161   1.697
   96SAPC  H14C 9368   3.746   2.092   1.560
   96SAPC   C15 9369   4.000   2.021   1.529
   96SAPC  H15A 9370   3.951   1.989   1.437
   96SAPC  H15B 9371   4.033   2.123   1.519
   96SAPC  H15C 9372   4.092   1.965   1.528
   96SAPC   C11 9373   3.942   1.956   1.897
   96SAPC  H11A 9374   4.021   1.941   1.974
   96SAPC  H11B 9375   3.878   1.866   1.899
   96SAPC     P 9376   3.918   2.190   2.026
   96SAPC   O13 9377   4.057   2.225   1.983
   96SAPC   O14 9378   3.808   2.293   2.036
   96SAPC   O12 9379   3.864   2.073   1.934
   96SAPC   O11 9380   3.938   2.119   2.164
   96SAPC    C1 9381   3.831   2.036   2.220
   96SAPC    HA 9382   3.783   1.970   2.145
   96SAPC    HB 9383   3.882   1.972   2.295
   96SAPC    C2 9384   3.726   2.112   2.321
   96SAPC    HS 9385   3.654   2.182   2.274
   96SAPC   O21 9386   3.805   2.177   2.425
   96SAPC   C21 9387   3.747   2.248   2.516
   96SAPC   O22 9388   3.637   2.293   2.513
   96SAPC   C22 9389   3.859   2.287   2.624
   96SAPC   H2R 9390   3.952   2.280   2.564
   96SAPC   H2S 9391   3.843   2.397   2.635
   96SAPC    C3 9392   3.627   2.012   2.382
   96SAPC    HX 9393   3.595   1.939   2.305
   96SAPC    HY 9394   3.539   2.070   2.417
   96SAPC   O31 9395   3.685   1.938   2.497
   96SAPC   C31 9396   3.672   1.807   2.501
   96SAPC   O32 9397   3.615   1.740   2.414
   96SAPC   C32 9398   3.765   1.745   2.609
   96SAPC   H2X 9399   3.835   1.823   2.645
   96SAPC   H2Y 9400   3.822   1.666   2.555
   96SAPC   C23 9401   3.846   2.203   2.751
   96SAPC   H3R 9402   3.919   2.228   2.831
   96SAPC   H3S 9403   3.867   2.095   2.736
   96SAPC   C24 9404   3.710   2.204   2.832
   96SAPC   H4R 9405   3.729   2.148   2.926
   96SAPC   H4S 9406   3.630   2.159   2.770
   96SAPC   C25 9407   3.666   2.350   2.843
   96SAPC   H5R 9408   3.624   2.397   2.753
   96SAPC   C26 9409   3.649   2.414   2.962
   96SAPC   H6R 9410   3.611   2.517   2.957
   96SAPC   C27 9411   3.673   2.354   3.096
   96SAPC   H7R 9412   3.710   2.431   3.167
   96SAPC   H7S 9413   3.755   2.279   3.096
   96SAPC   C28 9414   3.562   2.269   3.165
   96SAPC   H8R 9415   3.516   2.200   3.093
   96SAPC   C29 9416   3.524   2.271   3.296
   96SAPC   H9R 9417   3.442   2.204   3.327
   96SAPC  C210 9418   3.591   2.351   3.400
   96SAPC  H10R 9419   3.590   2.453   3.355
   96SAPC  H10S 9420   3.695   2.315   3.414
   96SAPC  C211 9421   3.510   2.356   3.529
   96SAPC  H11R 9422   3.407   2.391   3.511
   96SAPC  C212 9423   3.550   2.335   3.654
   96SAPC  H12R 9424   3.478   2.336   3.738
   96SAPC  C213 9425   3.682   2.284   3.694
   96SAPC  H13R 9426   3.756   2.367   3.687
   96SAPC  H13S 9427   3.723   2.206   3.626
   96SAPC  C214 9428   3.690   2.224   3.831
   96SAPC  H14R 9429   3.740   2.127   3.842
   96SAPC  C215 9430   3.642   2.269   3.948
   96SAPC  H15R 9431   3.676   2.221   4.041
   96SAPC  C216 9432   3.568   2.396   3.971
   96SAPC  H16R 9433   3.582   2.466   3.886
   96SAPC  H16S 9434   3.625   2.455   4.047
   96SAPC  C217 9435   3.418   2.391   4.007
   96SAPC  H17R 9436   3.364   2.329   3.932
   96SAPC  H17S 9437   3.372   2.492   4.002
   96SAPC  C218 9438   3.395   2.326   4.140
   96SAPC  H18R 9439   3.482   2.352   4.204
   96SAPC  H18S 9440   3.396   2.215   4.134
   96SAPC  C219 9441   3.265   2.368   4.200
   96SAPC  H19R 9442   3.268   2.475   4.230
   96SAPC  H19S 9443   3.229   2.316   4.291
   96SAPC  C220 9444   3.152   2.359   4.098
   96SAPC  H20R 9445   3.143   2.256   4.056
   96SAPC  H20S 9446   3.156   2.425   4.009
   96SAPC  H20T 9447   3.060   2.391   4.150
   96SAPC   C33 9448   3.692   1.686   2.728
   96SAPC   H3X 9449   3.760   1.636   2.800
   96SAPC   H3Y 9450   3.618   1.611   2.690
   96SAPC   C34 9451   3.630   1.790   2.826
   96SAPC   H4X 9452   3.556   1.856   2.776
   96SAPC   H4Y 9453   3.710   1.860   2.859
   96SAPC   C35 9454   3.546   1.736   2.949
   96SAPC   H5X 9455   3.603   1.682   3.028
   96SAPC   H5Y 9456   3.463   1.671   2.914
   96SAPC   C36 9457   3.483   1.855   3.020
   96SAPC   H6X 9458   3.398   1.898   2.963
   96SAPC   H6Y 9459   3.560   1.935   3.032
   96SAPC   C37 9460   3.427   1.804   3.156
   96SAPC   H7X 9461   3.496   1.730   3.200
   96SAPC   H7Y 9462   3.329   1.751   3.153
   96SAPC   C38 9463   3.409   1.917   3.257
   96SAPC   H8X 9464   3.335   1.993   3.223
   96SAPC   H8Y 9465   3.507   1.970   3.262
   96SAPC   C39 9466   3.373   1.866   3.396
   96SAPC   H9X 9467   3.426   1.769   3.406
   96SAPC   H9Y 9468   3.264   1.847   3.387
   96SAPC  C310 9469   3.404   1.960   3.510
   96SAPC  H10X 9470   3.350   2.055   3.496
   96SAPC  H10Y 9471   3.512   1.986   3.504
   96SAPC  C311 9472   3.376   1.905   3.651
   96SAPC  H11X 9473   3.449   1.824   3.670
   96SAPC  H11Y 9474   3.279   1.853   3.646
   96SAPC  C312 9475   3.377   2.015   3.750
   96SAPC  H12X 9476   3.312   2.098   3.715
   96SAPC  H12Y 9477   3.478   2.056   3.774
   96SAPC  C313 9478   3.306   1.964   3.879
   96SAPC  H13X 9479   3.206   1.931   3.846
   96SAPC  H13Y 9480   3.289   2.058   3.936
   96SAPC  C314 9481   3.365   1.853   3.966
   96SAPC  H14X 9482   3.470   1.886   3.984
   96SAPC  H14Y 9483   3.362   1.763   3.902
   96SAPC  C315 9484   3.298   1.821   4.107
   96SAPC  H15X 9485   3.288   1.916   4.163
   96SAPC  H15Y 9486   3.369   1.750   4.154
   96SAPC  C316 9487   3.162   1.745   4.103
   96SAPC  H16X 9488   3.068   1.801   4.084
   96SAPC  H16Y 9489   3.141   1.715   4.208
   96SAPC  C317 9490   3.155   1.619   4.011
   96SAPC  H17X 9491   3.159   1.652   3.905
   96SAPC  H17Y 9492   3.055   1.572   4.017
   96SAPC  C318 9493   3.257   1.515   4.044
   96SAPC  H18X 9494   3.362   1.551   4.033
   96SAPC  H18Y 9495   3.242   1.428   3.977
   96SAPC  H18Z 9496   3.229   1.490   4.148
   97SAPC     N 9497   2.592   0.854   1.869
   97SAPC   C12 9498   2.691   0.795   1.967
   97SAPC  H12A 9499   2.751   0.717   1.922
   97SAPC  H12B 9500   2.646   0.737   2.046
   97SAPC   C13 9501   2.497   0.750   1.835
   97SAPC  H13A 9502   2.448   0.716   1.925
   97SAPC  H13B 9503   2.419   0.771   1.763
   97SAPC  H13C 9504   2.551   0.665   1.795
   97SAPC   C14 9505   2.523   0.969   1.934
   97SAPC  H14A 9506   2.449   1.011   1.868
   97SAPC  H14B 9507   2.466   0.940   2.021
   97SAPC  H14C 9508   2.585   1.049   1.972
   97SAPC   C15 9509   2.656   0.909   1.748
   97SAPC  H15A 9510   2.686   0.823   1.689
   97SAPC  H15B 9511   2.594   0.980   1.695
   97SAPC  H15C 9512   2.740   0.962   1.789
   97SAPC   C11 9513   2.787   0.887   2.049
   97SAPC  H11A 9514   2.850   0.817   2.109
   97SAPC  H11B 9515   2.722   0.949   2.114
   97SAPC     P 9516   2.879   1.123   1.973
   97SAPC   O13 9517   3.001   1.164   1.904
   97SAPC   O14 9518   2.757   1.178   1.916
   97SAPC   O12 9519   2.872   0.967   1.963
   97SAPC   O11 9520   2.887   1.156   2.129
   97SAPC    C1 9521   3.007   1.175   2.194
   97SAPC    HA 9522   3.062   1.254   2.138
   97SAPC    HB 9523   2.988   1.214   2.296
   97SAPC    C2 9524   3.084   1.042   2.210
   97SAPC    HS 9525   3.097   1.003   2.107
   97SAPC   O21 9526   3.005   0.951   2.291
   97SAPC   C21 9527   3.046   0.820   2.298
   97SAPC   O22 9528   3.127   0.775   2.218
   97SAPC   C22 9529   2.968   0.744   2.408
   97SAPC   H2R 9530   2.961   0.826   2.482
   97SAPC   H2S 9531   2.869   0.711   2.369
   97SAPC    C3 9532   3.226   1.058   2.275
   97SAPC    HX 9533   3.287   1.132   2.219
   97SAPC    HY 9534   3.282   0.962   2.262
   97SAPC   O31 9535   3.233   1.103   2.409
   97SAPC   C31 9536   3.221   1.013   2.499
   97SAPC   O32 9537   3.240   0.891   2.483
   97SAPC   C32 9538   3.192   1.082   2.629
   97SAPC   H2X 9539   3.163   1.185   2.597
   97SAPC   H2Y 9540   3.283   1.106   2.688
   97SAPC   C23 9541   3.045   0.619   2.457
   97SAPC   H3R 9542   3.151   0.644   2.479
   97SAPC   H3S 9543   3.050   0.550   2.371
   97SAPC   C24 9544   2.970   0.529   2.560
   97SAPC   H4R 9545   2.872   0.517   2.508
   97SAPC   H4S 9546   2.971   0.593   2.651
   97SAPC   C25 9547   3.027   0.395   2.591
   97SAPC   H5R 9548   3.091   0.356   2.510
   97SAPC   C26 9549   3.013   0.321   2.699
   97SAPC   H6R 9550   3.073   0.231   2.716
   97SAPC   C27 9551   2.931   0.358   2.821
   97SAPC   H7R 9552   2.871   0.450   2.808
   97SAPC   H7S 9553   3.002   0.381   2.903
   97SAPC   C28 9554   2.831   0.254   2.856
   97SAPC   H8R 9555   2.733   0.261   2.807
   97SAPC   C29 9556   2.853   0.146   2.941
   97SAPC   H9R 9557   2.765   0.087   2.968
   97SAPC  C210 9558   2.979   0.120   3.021
   97SAPC  H10R 9559   3.071   0.165   2.977
   97SAPC  H10S 9560   2.989   0.010   3.031
   97SAPC  C211 9561   2.968   0.184   3.156
   97SAPC  H11R 9562   2.987   0.292   3.167
   97SAPC  C212 9563   2.956   0.120   3.278
   97SAPC  H12R 9564   2.941   0.176   3.371
   97SAPC  C213 9565   2.946   6.882   3.295
   97SAPC  H13R 9566   2.988   6.855   3.394
   97SAPC  H13S 9567   3.006   6.832   3.217
   97SAPC  C214 9568   2.805   6.827   3.274
   97SAPC  H14R 9569   2.736   6.903   3.235
   97SAPC  C215 9570   2.755   6.707   3.294
   97SAPC  H15R 9571   2.646   6.698   3.278
   97SAPC  C216 9572   2.832   6.595   3.346
   97SAPC  H16R 9573   2.893   6.633   3.431
   97SAPC  H16S 9574   2.900   6.555   3.268
   97SAPC  C217 9575   2.749   6.474   3.396
   97SAPC  H17R 9576   2.700   6.422   3.310
   97SAPC  H17S 9577   2.671   6.507   3.469
   97SAPC  C218 9578   2.832   6.371   3.465
   97SAPC  H18R 9579   2.905   6.420   3.533
   97SAPC  H18S 9580   2.873   6.301   3.389
   97SAPC  C219 9581   2.739   6.276   3.547
   97SAPC  H19R 9582   2.799   6.190   3.583
   97SAPC  H19S 9583   2.662   6.231   3.482
   97SAPC  C220 9584   2.673   6.349   3.665
   97SAPC  H20R 9585   2.624   6.283   3.740
   97SAPC  H20S 9586   2.592   6.415   3.625
   97SAPC  H20T 9587   2.753   6.417   3.702
   97SAPC   C33 9588   3.095   0.999   2.718
   97SAPC   H3X 9589   3.048   0.916   2.661
   97SAPC   H3Y 9590   3.021   1.078   2.744
   97SAPC   C34 9591   3.163   0.943   2.840
   97SAPC   H4X 9592   3.193   1.015   2.920
   97SAPC   H4Y 9593   3.260   0.905   2.802
   97SAPC   C35 9594   3.083   0.821   2.897
   97SAPC   H5X 9595   3.067   0.745   2.817
   97SAPC   H5Y 9596   2.985   0.837   2.947
   97SAPC   C36 9597   3.166   0.755   3.007
   97SAPC   H6X 9598   3.273   0.750   2.980
   97SAPC   H6Y 9599   3.118   0.655   3.019
   97SAPC   C37 9600   3.161   0.832   3.141
   97SAPC   H7X 9601   3.056   0.864   3.161
   97SAPC   H7Y 9602   3.229   0.920   3.135
   97SAPC   C38 9603   3.201   0.743   3.265
   97SAPC   H8X 9604   3.210   0.817   3.347
   97SAPC   H8Y 9605   3.305   0.705   3.257
   97SAPC   C39 9606   3.105   0.633   3.297
   97SAPC   H9X 9607   3.070   0.580   3.206
   97SAPC   H9Y 9608   3.015   0.682   3.341
   97SAPC  C310 9609   3.160   0.526   3.397
   97SAPC  H10X 9610   3.250   0.483   3.346
   97SAPC  H10Y 9611   3.086   0.444   3.409
   97SAPC  C311 9612   3.200   0.575   3.536
   97SAPC  H11X 9613   3.118   0.635   3.582
   97SAPC  H11Y 9614   3.275   0.657   3.536
   97SAPC  C312 9615   3.251   0.463   3.630
   97SAPC  H12X 9616   3.356   0.438   3.601
   97SAPC  H12Y 9617   3.197   0.369   3.606
   97SAPC  C313 9618   3.238   0.486   3.776
   97SAPC  H13X 9619   3.145   0.543   3.793
   97SAPC  H13Y 9620   3.323   0.545   3.817
   97SAPC  C314 9621   3.236   0.349   3.855
   97SAPC  H14X 9622   3.327   0.285   3.846
   97SAPC  H14Y 9623   3.155   0.292   3.804
   97SAPC  C315 9624   3.192   0.358   4.004
   97SAPC  H15X 9625   3.096   0.413   3.999
   97SAPC  H15Y 9626   3.266   0.419   4.058
   97SAPC  C316 9627   3.177   0.224   4.073
   97SAPC  H16X 9628   3.108   0.154   4.021
   97SAPC  H16Y 9629   3.121   0.240   4.168
   97SAPC  C317 9630   3.307   0.162   4.107
   97SAPC  H17X 9631   3.377   0.164   4.021
   97SAPC  H17Y 9632   3.281   0.056   4.131
   97SAPC  C318 9633   3.387   0.220   4.225
   97SAPC  H18X 9634   3.380   0.330   4.218
   97SAPC  H18Y 9635   3.492   0.186   4.221
   97SAPC  H18Z 9636   3.333   0.190   4.318
   98SAPC     N 9637   5.853   1.734   2.014
   98SAPC   C12 9638   5.934   1.791   2.129
   98SAPC  H12A 9639   5.868   1.827   2.207
   98SAPC  H12B 9640   5.980   1.885   2.103
   98SAPC   C13 9641   5.946   1.678   1.911
   98SAPC  H13A 9642   6.003   1.759   1.868
   98SAPC  H13B 9643   6.007   1.602   1.956
   98SAPC  H13C 9644   5.890   1.633   1.830
   98SAPC   C14 9645   5.773   1.621   2.064
   98SAPC  H14A 9646   5.704   1.606   1.983
   98SAPC  H14B 9647   5.831   1.532   2.087
   98SAPC  H14C 9648   5.714   1.642   2.152
   98SAPC   C15 9649   5.755   1.841   1.954
   98SAPC  H15A 9650   5.666   1.852   2.015
   98SAPC  H15B 9651   5.809   1.933   1.941
   98SAPC  H15C 9652   5.720   1.813   1.856
   98SAPC   C11 9653   6.041   1.699   2.204
   98SAPC  H11A 9654   5.980   1.614   2.240
   98SAPC  H11B 9655   6.083   1.745   2.296
   98SAPC     P 9656   6.280   1.714   2.113
   98SAPC   O13 9657   6.357   1.656   2.003
   98SAPC   O14 9658   6.254   1.866   2.105
   98SAPC   O12 9659   6.143   1.638   2.116
   98SAPC   O11 9660   6.349   1.685   2.247
   98SAPC    C1 9661   6.351   1.553   2.305
   98SAPC    HA 9662   6.334   1.473   2.229
   98SAPC    HB 9663   6.453   1.545   2.347
   98SAPC    C2 9664   6.246   1.537   2.421
   98SAPC    HS 9665   6.149   1.521   2.370
   98SAPC   O21 9666   6.253   1.642   2.518
   98SAPC   C21 9667   6.137   1.693   2.558
   98SAPC   O22 9668   6.029   1.647   2.530
   98SAPC   C22 9669   6.161   1.817   2.651
   98SAPC   H2R 9670   6.227   1.881   2.589
   98SAPC   H2S 9671   6.064   1.862   2.680
   98SAPC    C3 9672   6.248   1.397   2.489
   98SAPC    HX 9673   6.350   1.390   2.532
   98SAPC    HY 9674   6.246   1.316   2.412
   98SAPC   O31 9675   6.160   1.371   2.598
   98SAPC   C31 9676   6.046   1.318   2.571
   98SAPC   O32 9677   6.001   1.296   2.458
   98SAPC   C32 9678   5.961   1.287   2.700
   98SAPC   H2X 9679   5.906   1.192   2.679
   98SAPC   H2Y 9680   5.888   1.371   2.705
   98SAPC   C23 9681   6.246   1.775   2.770
   98SAPC   H3R 9682   6.271   1.868   2.826
   98SAPC   H3S 9683   6.339   1.723   2.736
   98SAPC   C24 9684   6.168   1.679   2.863
   98SAPC   H4R 9685   6.131   1.593   2.804
   98SAPC   H4S 9686   6.085   1.740   2.906
   98SAPC   C25 9687   6.261   1.631   2.966
   98SAPC   H5R 9688   6.356   1.588   2.931
   98SAPC   C26 9689   6.254   1.661   3.092
   98SAPC   H6R 9690   6.332   1.614   3.152
   98SAPC   C27 9691   6.136   1.732   3.159
   98SAPC   H7R 9692   6.037   1.686   3.140
   98SAPC   H7S 9693   6.130   1.837   3.124
   98SAPC   C28 9694   6.156   1.739   3.307
   98SAPC   H8R 9695   6.186   1.836   3.351
   98SAPC   C29 9696   6.147   1.634   3.392
   98SAPC   H9R 9697   6.160   1.658   3.499
   98SAPC  C210 9698   6.121   1.489   3.367
   98SAPC  H10R 9699   6.113   1.460   3.260
   98SAPC  H10S 9700   6.021   1.464   3.407
   98SAPC  C211 9701   6.237   1.404   3.424
   98SAPC  H11R 9702   6.277   1.444   3.518
   98SAPC  C212 9703   6.307   1.306   3.367
   98SAPC  H12R 9704   6.403   1.277   3.413
   98SAPC  C213 9705   6.272   1.245   3.231
   98SAPC  H13R 9706   6.253   1.335   3.169
   98SAPC  H13S 9707   6.179   1.184   3.233
   98SAPC  C214 9708   6.386   1.156   3.186
   98SAPC  H14R 9709   6.411   1.072   3.252
   98SAPC  C215 9710   6.449   1.150   3.066
   98SAPC  H15R 9711   6.524   1.070   3.055
   98SAPC  C216 9712   6.428   1.229   2.943
   98SAPC  H16R 9713   6.317   1.240   2.936
   98SAPC  H16S 9714   6.444   1.166   2.853
   98SAPC  C217 9715   6.504   1.363   2.934
   98SAPC  H17R 9716   6.609   1.339   2.964
   98SAPC  H17S 9717   6.459   1.436   3.004
   98SAPC  C218 9718   6.497   1.420   2.788
   98SAPC  H18R 9719   6.392   1.439   2.756
   98SAPC  H18S 9720   6.542   1.344   2.721
   98SAPC  C219 9721   6.586   1.544   2.761
   98SAPC  H19R 9722   6.691   1.516   2.785
   98SAPC  H19S 9723   6.556   1.618   2.839
   98SAPC  C220 9724   6.585   1.606   2.618
   98SAPC  H20R 9725   6.487   1.647   2.587
   98SAPC  H20S 9726   6.616   1.532   2.541
   98SAPC  H20T 9727   6.651   1.696   2.614
   98SAPC   C33 9728   6.045   1.273   2.831
   98SAPC   H3X 9729   6.123   1.351   2.849
   98SAPC   H3Y 9730   6.097   1.175   2.825
   98SAPC   C34 9731   5.967   1.272   2.959
   98SAPC   H4X 9732   5.930   1.375   2.972
   98SAPC   H4Y 9733   6.031   1.260   3.049
   98SAPC   C35 9734   5.863   1.155   2.966
   98SAPC   H5X 9735   5.904   1.061   2.923
   98SAPC   H5Y 9736   5.784   1.202   2.902
   98SAPC   C36 9737   5.814   1.129   3.103
   98SAPC   H6X 9738   5.880   1.075   3.174
   98SAPC   H6Y 9739   5.719   1.071   3.096
   98SAPC   C37 9740   5.779   1.252   3.192
   98SAPC   H7X 9741   5.685   1.292   3.147
   98SAPC   H7Y 9742   5.859   1.330   3.189
   98SAPC   C38 9743   5.736   1.213   3.340
   98SAPC   H8X 9744   5.822   1.156   3.381
   98SAPC   H8Y 9745   5.649   1.145   3.328
   98SAPC   C39 9746   5.710   1.334   3.429
   98SAPC   H9X 9747   5.631   1.397   3.381
   98SAPC   H9Y 9748   5.802   1.396   3.431
   98SAPC  C310 9749   5.661   1.316   3.575
   98SAPC  H10X 9750   5.598   1.225   3.561
   98SAPC  H10Y 9751   5.607   1.406   3.609
   98SAPC  C311 9752   5.774   1.279   3.670
   98SAPC  H11X 9753   5.845   1.214   3.615
   98SAPC  H11Y 9754   5.733   1.232   3.763
   98SAPC  C312 9755   5.848   1.401   3.727
   98SAPC  H12X 9756   5.776   1.469   3.777
   98SAPC  H12Y 9757   5.881   1.468   3.644
   98SAPC  C313 9758   5.974   1.353   3.808
   98SAPC  H13X 9759   6.017   1.272   3.746
   98SAPC  H13Y 9760   5.945   1.315   3.908
   98SAPC  C314 9761   6.075   1.462   3.840
   98SAPC  H14X 9762   6.118   1.511   3.750
   98SAPC  H14Y 9763   6.166   1.408   3.874
   98SAPC  C315 9764   6.026   1.557   3.944
   98SAPC  H15X 9765   5.975   1.503   4.027
   98SAPC  H15Y 9766   5.939   1.611   3.902
   98SAPC  C316 9767   6.132   1.658   3.984
   98SAPC  H16X 9768   6.167   1.718   3.897
   98SAPC  H16Y 9769   6.222   1.610   4.029
   98SAPC  C317 9770   6.081   1.755   4.083
   98SAPC  H17X 9771   5.988   1.808   4.053
   98SAPC  H17Y 9772   6.155   1.837   4.095
   98SAPC  C318 9773   6.034   1.699   4.225
   98SAPC  H18X 9774   6.017   1.790   4.286
   98SAPC  H18Y 9775   6.120   1.641   4.266
   98SAPC  H18Z 9776   5.945   1.632   4.221
   99SAPC     N 9777   2.957   6.089   1.763
   99SAPC   C12 9778   3.059   5.976   1.763
   99SAPC  H12A 9779   3.159   6.016   1.776
   99SAPC  H12B 9780   3.053   5.936   1.663
   99SAPC   C13 9781   2.922   6.137   1.900
   99SAPC  H13A 9782   2.884   6.059   1.964
   99SAPC  H13B 9783   3.011   6.173   1.951
   99SAPC  H13C 9784   2.860   6.225   1.902
   99SAPC   C14 9785   3.014   6.203   1.683
   99SAPC  H14A 9786   2.934   6.270   1.656
   99SAPC  H14B 9787   3.087   6.262   1.736
   99SAPC  H14C 9788   3.057   6.170   1.589
   99SAPC   C15 9789   2.830   6.047   1.704
   99SAPC  H15A 9790   2.815   5.950   1.748
   99SAPC  H15B 9791   2.753   6.123   1.710
   99SAPC  H15C 9792   2.853   6.041   1.598
   99SAPC   C11 9793   3.038   5.854   1.863
   99SAPC  H11A 9794   3.052   5.880   1.970
   99SAPC  H11B 9795   3.122   5.788   1.832
   99SAPC     P 9796   2.809   5.767   1.946
   99SAPC   O13 9797   2.756   5.902   1.991
   99SAPC   O14 9798   2.709   5.668   1.897
   99SAPC   O12 9799   2.913   5.790   1.829
   99SAPC   O11 9800   2.880   5.696   2.064
   99SAPC    C1 9801   2.978   5.592   2.061
   99SAPC    HA 9802   2.923   5.497   2.048
   99SAPC    HB 9803   3.041   5.601   1.969
   99SAPC    C2 9804   3.083   5.592   2.176
   99SAPC    HS 9805   3.163   5.520   2.149
   99SAPC   O21 9806   3.015   5.554   2.292
   99SAPC   C21 9807   3.012   5.416   2.306
   99SAPC   O22 9808   3.062   5.339   2.227
   99SAPC   C22 9809   2.932   5.375   2.423
   99SAPC   H2R 9810   2.830   5.418   2.409
   99SAPC   H2S 9811   2.922   5.265   2.421
   99SAPC    C3 9812   3.158   5.730   2.203
   99SAPC    HX 9813   3.084   5.808   2.231
   99SAPC    HY 9814   3.209   5.774   2.114
   99SAPC   O31 9815   3.262   5.704   2.299
   99SAPC   C31 9816   3.233   5.739   2.429
   99SAPC   O32 9817   3.126   5.786   2.464
   99SAPC   C32 9818   3.351   5.685   2.509
   99SAPC   H2X 9819   3.444   5.746   2.500
   99SAPC   H2Y 9820   3.364   5.579   2.479
   99SAPC   C23 9821   2.997   5.419   2.554
   99SAPC   H3R 9822   2.916   5.399   2.627
   99SAPC   H3S 9823   3.035   5.523   2.563
   99SAPC   C24 9824   3.122   5.329   2.597
   99SAPC   H4R 9825   3.157   5.384   2.687
   99SAPC   H4S 9826   3.201   5.355   2.524
   99SAPC   C25 9827   3.106   5.174   2.602
   99SAPC   H5R 9828   3.060   5.131   2.511
   99SAPC   C26 9829   3.110   5.105   2.716
   99SAPC   H6R 9830   3.100   4.997   2.700
   99SAPC   C27 9831   3.146   5.146   2.854
   99SAPC   H7R 9832   3.241   5.205   2.856
   99SAPC   H7S 9833   3.154   5.054   2.915
   99SAPC   C28 9834   3.044   5.239   2.919
   99SAPC   H8R 9835   2.999   5.314   2.851
   99SAPC   C29 9836   2.995   5.234   3.044
   99SAPC   H9R 9837   2.918   5.307   3.072
   99SAPC  C210 9838   3.045   5.144   3.158
   99SAPC  H10R 9839   3.079   5.048   3.112
   99SAPC  H10S 9840   2.962   5.134   3.231
   99SAPC  C211 9841   3.173   5.200   3.210
   99SAPC  H11R 9842   3.260   5.184   3.145
   99SAPC  C212 9843   3.178   5.259   3.336
   99SAPC  H12R 9844   3.276   5.285   3.377
   99SAPC  C213 9845   3.056   5.273   3.432
   99SAPC  H13R 9846   3.035   5.174   3.476
   99SAPC  H13S 9847   2.962   5.289   3.375
   99SAPC  C214 9848   3.082   5.381   3.535
   99SAPC  H14R 9849   3.143   5.469   3.508
   99SAPC  C215 9850   3.026   5.381   3.662
   99SAPC  H15R 9851   3.045   5.467   3.728
   99SAPC  C216 9852   2.939   5.280   3.732
   99SAPC  H16R 9853   2.927   5.197   3.658
   99SAPC  H16S 9854   2.843   5.323   3.767
   99SAPC  C217 9855   3.003   5.218   3.861
   99SAPC  H17R 9856   3.003   5.303   3.934
   99SAPC  H17S 9857   3.096   5.158   3.856
   99SAPC  C218 9858   2.902   5.108   3.909
   99SAPC  H18R 9859   2.902   5.024   3.836
   99SAPC  H18S 9860   2.804   5.160   3.908
   99SAPC  C219 9861   2.925   5.052   4.057
   99SAPC  H19R 9862   2.941   5.132   4.132
   99SAPC  H19S 9863   3.013   4.986   4.040
   99SAPC  C220 9864   2.791   4.982   4.094
   99SAPC  H20R 9865   2.747   4.931   4.006
   99SAPC  H20S 9866   2.718   5.058   4.128
   99SAPC  H20T 9867   2.809   4.906   4.172
   99SAPC   C33 9868   3.330   5.695   2.667
   99SAPC   H3X 9869   3.232   5.649   2.689
   99SAPC   H3Y 9870   3.337   5.800   2.704
   99SAPC   C34 9871   3.428   5.609   2.746
   99SAPC   H4X 9872   3.524   5.661   2.728
   99SAPC   H4Y 9873   3.431   5.503   2.710
   99SAPC   C35 9874   3.396   5.608   2.891
   99SAPC   H5X 9875   3.305   5.544   2.897
   99SAPC   H5Y 9876   3.376   5.712   2.926
   99SAPC   C36 9877   3.500   5.543   2.978
   99SAPC   H6X 9878   3.599   5.589   2.955
   99SAPC   H6Y 9879   3.507   5.437   2.948
   99SAPC   C37 9880   3.456   5.543   3.122
   99SAPC   H7X 9881   3.354   5.510   3.150
   99SAPC   H7Y 9882   3.451   5.647   3.161
   99SAPC   C38 9883   3.558   5.469   3.216
   99SAPC   H8X 9884   3.661   5.497   3.185
   99SAPC   H8Y 9885   3.548   5.358   3.218
   99SAPC   C39 9886   3.539   5.516   3.364
   99SAPC   H9X 9887   3.436   5.514   3.406
   99SAPC   H9Y 9888   3.570   5.623   3.368
   99SAPC  C310 9889   3.648   5.446   3.451
   99SAPC  H10X 9890   3.679   5.521   3.527
   99SAPC  H10Y 9891   3.737   5.428   3.389
   99SAPC  C311 9892   3.590   5.316   3.519
   99SAPC  H11X 9893   3.674   5.252   3.552
   99SAPC  H11Y 9894   3.539   5.249   3.447
   99SAPC  C312 9895   3.509   5.354   3.638
   99SAPC  H12X 9896   3.436   5.431   3.604
   99SAPC  H12Y 9897   3.563   5.402   3.722
   99SAPC  C313 9898   3.425   5.235   3.687
   99SAPC  H13X 9899   3.498   5.154   3.709
   99SAPC  H13Y 9900   3.350   5.201   3.613
   99SAPC  C314 9901   3.352   5.252   3.821
   99SAPC  H14X 9902   3.325   5.145   3.833
   99SAPC  H14Y 9903   3.262   5.318   3.820
   99SAPC  C315 9904   3.445   5.288   3.941
   99SAPC  H15X 9905   3.476   5.395   3.935
   99SAPC  H15Y 9906   3.523   5.209   3.952
   99SAPC  C316 9907   3.374   5.272   4.083
   99SAPC  H16X 9908   3.291   5.345   4.081
   99SAPC  H16Y 9909   3.450   5.293   4.162
   99SAPC  C317 9910   3.323   5.124   4.120
   99SAPC  H17X 9911   3.406   5.067   4.072
   99SAPC  H17Y 9912   3.235   5.101   4.057
   99SAPC  C318 9913   3.316   5.085   4.263
   99SAPC  H18X 9914   3.417   5.087   4.309
   99SAPC  H18Y 9915   3.266   4.986   4.271
   99SAPC  H18Z 9916   3.252   5.160   4.314
  100SAPC     N 9917   1.181   4.419   1.586
  100SAPC   C12 9918   1.297   4.331   1.609
  100SAPC  H12A 9919   1.381   4.383   1.565
  100SAPC  H12B 9920   1.279   4.244   1.547
  100SAPC   C13 9921   1.153   4.438   1.443
  100SAPC  H13A 9922   1.077   4.513   1.429
  100SAPC  H13B 9923   1.243   4.476   1.396
  100SAPC  H13C 9924   1.124   4.348   1.390
  100SAPC   C14 9925   1.061   4.353   1.651
  100SAPC  H14A 9926   1.100   4.321   1.746
  100SAPC  H14B 9927   0.977   4.420   1.666
  100SAPC  H14C 9928   1.020   4.273   1.592
  100SAPC   C15 9929   1.202   4.553   1.644
  100SAPC  H15A 9930   1.110   4.608   1.635
  100SAPC  H15B 9931   1.227   4.542   1.749
  100SAPC  H15C 9932   1.289   4.602   1.601
  100SAPC   C11 9933   1.341   4.276   1.743
  100SAPC  H11A 9934   1.417   4.196   1.731
  100SAPC  H11B 9935   1.255   4.222   1.789
  100SAPC     P 9936   1.512   4.437   1.863
  100SAPC   O13 9937   1.590   4.443   1.738
  100SAPC   O14 9938   1.500   4.561   1.945
  100SAPC   O12 9939   1.369   4.389   1.818
  100SAPC   O11 9940   1.584   4.337   1.953
  100SAPC    C1 9941   1.528   4.240   2.040
  100SAPC    HA 9942   1.441   4.268   2.104
  100SAPC    HB 9943   1.479   4.157   1.984
  100SAPC    C2 9944   1.649   4.184   2.122
  100SAPC    HS 9945   1.626   4.093   2.181
  100SAPC   O21 9946   1.697   4.287   2.216
  100SAPC   C21 9947   1.633   4.287   2.333
  100SAPC   O22 9948   1.524   4.236   2.349
  100SAPC   C22 9949   1.712   4.360   2.444
  100SAPC   H2R 9950   1.762   4.287   2.511
  100SAPC   H2S 9951   1.793   4.420   2.397
  100SAPC    C3 9952   1.770   4.148   2.024
  100SAPC    HX 9953   1.771   4.224   1.943
  100SAPC    HY 9954   1.761   4.047   1.979
  100SAPC   O31 9955   1.895   4.155   2.096
  100SAPC   C31 9956   1.926   4.043   2.171
  100SAPC   O32 9957   1.853   3.949   2.190
  100SAPC   C32 9958   2.070   4.048   2.223
  100SAPC   H2X 9959   2.131   4.074   2.134
  100SAPC   H2Y 9960   2.095   3.943   2.250
  100SAPC   C23 9961   1.628   4.452   2.538
  100SAPC   H3R 9962   1.552   4.396   2.597
  100SAPC   H3S 9963   1.562   4.516   2.475
  100SAPC   C24 9964   1.711   4.542   2.631
  100SAPC   H4R 9965   1.639   4.616   2.674
  100SAPC   H4S 9966   1.794   4.586   2.572
  100SAPC   C25 9967   1.777   4.449   2.728
  100SAPC   H5R 9968   1.814   4.355   2.684
  100SAPC   C26 9969   1.803   4.481   2.855
  100SAPC   H6R 9970   1.853   4.410   2.923
  100SAPC   C27 9971   1.771   4.602   2.931
  100SAPC   H7R 9972   1.732   4.685   2.868
  100SAPC   H7S 9973   1.853   4.642   2.994
  100SAPC   C28 9974   1.660   4.566   3.027
  100SAPC   H8R 9975   1.564   4.550   2.976
  100SAPC   C29 9976   1.654   4.540   3.157
  100SAPC   H9R 9977   1.561   4.510   3.208
  100SAPC  C210 9978   1.777   4.540   3.245
  100SAPC  H10R 9979   1.768   4.625   3.316
  100SAPC  H10S 9980   1.867   4.555   3.182
  100SAPC  C211 9981   1.797   4.415   3.317
  100SAPC  H11R 9982   1.769   4.328   3.256
  100SAPC  C212 9983   1.855   4.392   3.436
  100SAPC  H12R 9984   1.859   4.288   3.472
  100SAPC  C213 9985   1.898   4.497   3.534
  100SAPC  H13R 9986   1.843   4.592   3.517
  100SAPC  H13S 9987   1.999   4.536   3.511
  100SAPC  C214 9988   1.894   4.443   3.675
  100SAPC  H14R 9989   1.832   4.353   3.688
  100SAPC  C215 9990   1.939   4.495   3.787
  100SAPC  H15R 9991   1.917   4.444   3.883
  100SAPC  C216 9992   2.018   4.624   3.792
  100SAPC  H16R 9993   1.995   4.672   3.694
  100SAPC  H16S 9994   2.126   4.602   3.800
  100SAPC  C217 9995   1.968   4.713   3.904
  100SAPC  H17R 9996   1.857   4.702   3.908
  100SAPC  H17S 9997   2.002   4.815   3.875
  100SAPC  C218 9998   2.030   4.670   4.038
  100SAPC  H18R 9999   2.139   4.662   4.015
  100SAPC  H18S10000   1.993   4.568   4.063
  100SAPC  C21910001   2.003   4.766   4.159
  100SAPC  H19R10002   2.038   4.717   4.252
  100SAPC  H19S10003   1.895   4.788   4.171
  100SAPC  C22010004   2.070   4.902   4.142
  100SAPC  H20R10005   2.072   4.944   4.245
  100SAPC  H20S10006   2.011   4.969   4.077
  100SAPC  H20T10007   2.172   4.889   4.100
  100SAPC   C3310008   2.088   4.139   2.350
  100SAPC   H3X10009   2.045   4.240   2.330
  100SAPC   H3Y10010   2.198   4.152   2.351
  100SAPC   C3410011   2.040   4.074   2.477
  100SAPC   H4X10012   2.086   3.974   2.491
  100SAPC   H4Y10013   1.932   4.060   2.455
  100SAPC   C3510014   2.050   4.154   2.604
  100SAPC   H5X10015   2.004   4.254   2.592
  100SAPC   H5Y10016   2.160   4.160   2.619
  100SAPC   C3610017   1.984   4.081   2.723
  100SAPC   H6X10018   2.017   3.975   2.727
  100SAPC   H6Y10019   1.873   4.085   2.717
  100SAPC   C3710020   2.010   4.134   2.866
  100SAPC   H7X10021   1.952   4.226   2.885
  100SAPC   H7Y10022   2.117   4.162   2.880
  100SAPC   C3810023   1.956   4.032   2.968
  100SAPC   H8X10024   1.996   3.931   2.947
  100SAPC   H8Y10025   1.845   4.035   2.963
  100SAPC   C3910026   1.997   4.070   3.104
  100SAPC   H9X10027   1.975   4.179   3.107
  100SAPC   H9Y10028   2.108   4.058   3.103
  100SAPC  C31010029   1.930   3.973   3.209
  100SAPC  H10X10030   2.005   3.921   3.272
  100SAPC  H10Y10031   1.874   3.893   3.158
  100SAPC  C31110032   1.830   4.049   3.301
  100SAPC  H11X10033   1.740   4.082   3.244
  100SAPC  H11Y10034   1.870   4.141   3.348
  100SAPC  C31210035   1.790   3.956   3.421
  100SAPC  H12X10036   1.741   3.861   3.391
  100SAPC  H12Y10037   1.709   4.019   3.464
  100SAPC  C31310038   1.896   3.924   3.521
  100SAPC  H13X10039   1.931   4.026   3.547
  100SAPC  H13Y10040   1.980   3.867   3.475
  100SAPC  C31410041   1.836   3.868   3.650
  100SAPC  H14X10042   1.918   3.845   3.721
  100SAPC  H14Y10043   1.772   3.779   3.631
  100SAPC  C31510044   1.747   3.976   3.725
  100SAPC  H15X10045   1.665   4.006   3.656
  100SAPC  H15Y10046   1.808   4.069   3.722
  100SAPC  C31610047   1.694   3.942   3.861
  100SAPC  H16X10048   1.773   3.889   3.918
  100SAPC  H16Y10049   1.600   3.885   3.846
  100SAPC  C31710050   1.668   4.056   3.956
  100SAPC  H17X10051   1.615   4.021   4.048
  100SAPC  H17Y10052   1.592   4.108   3.894
  100SAPC  C31810053   1.779   4.142   4.009
  100SAPC  H18X10054   1.857   4.070   4.044
  100SAPC  H18Y10055   1.745   4.210   4.089
  100SAPC  H18Z10056   1.820   4.209   3.931
  101OSM      N10057   3.710   2.767   6.842
  101OSM    C1510058   3.614   2.876   6.845
  101OSM   H15A10059   3.660   2.973   6.854
  101OSM   H15B10060   3.552   2.880   6.933
  101OSM   H15C10061   3.559   2.882   6.752
  101OSM    C1410062   3.792   2.768   6.959
  101OSM   H14A10063   3.873   2.839   6.958
  101OSM   H14B10064   3.843   2.673   6.967
  101OSM   H14C10065   3.735   2.779   7.051
  101OSM    C1310066   3.639   2.637   6.818
  101OSM   H13A10067   3.571   2.613   6.899
  101OSM   H13B10068   3.710   2.558   6.804
  101OSM   H13C10069   3.581   2.637   6.727
  101OSM    C1210070   3.799   2.788   6.722
  101OSM   H12A10071   3.879   2.716   6.728
  101OSM   H12B10072   3.854   2.880   6.734
  101OSM    C1110073   3.734   2.775   6.585
  101OSM   H11A10074   3.698   2.671   6.566
  101OSM   H11B10075   3.805   2.796   6.502
  101OSM      P10076   3.662   3.010   6.498
  101OSM    O1310077   3.544   3.095   6.508
  101OSM    O1410078   3.785   3.068   6.553
  101OSM    O1110079   3.689   2.980   6.346
  101OSM    O1210080   3.630   2.867   6.559
  101OSM    C1S10081   3.755   3.074   6.255
  101OSM    H1S10082   3.860   3.040   6.252
  101OSM    H1T10083   3.745   3.182   6.280
  101OSM     NF10084   3.791   3.140   6.018
  101OSM    HNF10085   3.753   3.231   6.002
  101OSM    C2S10086   3.701   3.065   6.108
  101OSM    H2S10087   3.706   2.959   6.076
  101OSM    C3S10088   3.553   3.118   6.098
  101OSM    H3S10089   3.548   3.223   6.134
  101OSM     O310090   3.472   3.037   6.182
  101OSM    HO310091   3.530   3.006   6.252
  101OSM    C4S10092   3.495   3.120   5.950
  101OSM    H4S10093   3.509   3.214   5.896
  101OSM    C5S10094   3.446   3.011   5.888
  101OSM    H5S10095   3.448   2.912   5.935
  101OSM    C6S10096   3.406   3.017   5.737
  101OSM    H6S10097   3.368   3.119   5.715
  101OSM    H6T10098   3.313   2.958   5.730
  101OSM    C7S10099   3.498   2.965   5.631
  101OSM    H7S10100   3.533   2.863   5.655
  101OSM    H7T10101   3.592   3.024   5.626
  101OSM    C8S10102   3.425   2.957   5.497
  101OSM    H8S10103   3.393   3.056   5.456
  101OSM    H8T10104   3.331   2.899   5.496
  101OSM    C9S10105   3.525   2.897   5.395
  101OSM    H9S10106   3.523   2.789   5.419
  101OSM    H9T10107   3.631   2.927   5.407
  101OSM   C10S10108   3.491   2.918   5.240
  101OSM   H10S10109   3.462   3.025   5.229
  101OSM   H10T10110   3.412   2.854   5.196
  101OSM   C11S10111   3.608   2.883   5.154
  101OSM   H11S10112   3.666   2.813   5.218
  101OSM   H11T10113   3.676   2.970   5.134
  101OSM   C12S10114   3.569   2.830   5.014
  101OSM   H12S10115   3.467   2.859   4.980
  101OSM   H12T10116   3.569   2.720   5.025
  101OSM   C13S10117   3.664   2.894   4.917
  101OSM   H13S10118   3.767   2.868   4.950
  101OSM   H13T10119   3.647   3.003   4.904
  101OSM   C14S10120   3.641   2.824   4.781
  101OSM   H14S10121   3.692   2.727   4.792
  101OSM   H14T10122   3.702   2.874   4.703
  101OSM   C15S10123   3.495   2.795   4.745
  101OSM   H15S10124   3.435   2.889   4.746
  101OSM   H15T10125   3.452   2.725   4.819
  101OSM   C16S10126   3.472   2.762   4.596
  101OSM   H16S10127   3.517   2.662   4.579
  101OSM   H16T10128   3.520   2.843   4.537
  101OSM   C17S10129   3.320   2.752   4.550
  101OSM   H17S10130   3.258   2.842   4.573
  101OSM   H17T10131   3.267   2.678   4.612
  101OSM   C18S10132   3.327   2.719   4.405
  101OSM   H18S10133   3.235   2.673   4.364
  101OSM   H18T10134   3.411   2.648   4.390
  101OSM   H18U10135   3.353   2.806   4.342
  101OSM    C1F10136   3.915   3.105   5.971
  101OSM     OF10137   3.969   2.998   6.017
  101OSM    C2F10138   3.988   3.187   5.868
  101OSM    H2F10139   3.998   3.290   5.909
  101OSM    H2G10140   3.939   3.178   5.769
  101OSM    C3F10141   4.131   3.126   5.847
  101OSM    H3F10142   4.126   3.022   5.808
  101OSM    H3G10143   4.176   3.112   5.947
  101OSM    C4F10144   4.218   3.230   5.769
  101OSM    H4F10145   4.217   3.324   5.828
  101OSM    H4G10146   4.179   3.246   5.666
  101OSM    C5F10147   4.366   3.200   5.760
  101OSM    H5F10148   4.410   3.175   5.859
  101OSM    H5G10149   4.409   3.299   5.732
  101OSM    C6F10150   4.390   3.095   5.656
  101OSM    H6F10151   4.322   3.105   5.568
  101OSM    H6G10152   4.359   2.992   5.684
  101OSM    C7F10153   4.541   3.067   5.609
  101OSM    H7F10154   4.591   3.013   5.692
  101OSM    H7G10155   4.576   3.171   5.594
  101OSM    C8F10156   4.542   2.986   5.480
  101OSM    H8F10157   4.464   3.029   5.413
  101OSM    H8G10158   4.502   2.886   5.505
  101OSM    C9F10159   4.678   2.984   5.423
  101OSM    H9F10160   4.742   2.897   5.446
  101OSM   C10F10161   4.723   3.078   5.342
  101OSM   H10F10162   4.829   3.072   5.315
  101OSM   C11F10163   4.645   3.177   5.258
  101OSM   H11F10164   4.684   3.280   5.272
  101OSM   H11G10165   4.543   3.191   5.301
  101OSM   C12F10166   4.639   3.145   5.106
  101OSM   H12F10167   4.596   3.227   5.045
  101OSM   H12G10168   4.565   3.065   5.084
  101OSM   C13F10169   4.779   3.121   5.051
  101OSM   H13F10170   4.812   3.016   5.070
  101OSM   H13G10171   4.854   3.181   5.107
  101OSM   C14F10172   4.790   3.147   4.897
  101OSM   H14F10173   4.771   3.253   4.870
  101OSM   H14G10174   4.709   3.091   4.845
  101OSM   C15F10175   4.926   3.096   4.852
  101OSM   H15F10176   4.937   2.987   4.872
  101OSM   H15G10177   5.006   3.139   4.915
  101OSM   C16F10178   4.955   3.133   4.705
  101OSM   H16F10179   5.062   3.125   4.678
  101OSM   H16G10180   4.919   3.234   4.673
  101OSM   C17F10181   4.893   3.029   4.609
  101OSM   H17F10182   4.784   3.016   4.629
  101OSM   H17G10183   4.949   2.934   4.621
  101OSM   C18F10184   4.909   3.068   4.463
  101OSM   H18F10185   5.014   3.050   4.431
  101OSM   H18G10186   4.887   3.175   4.447
  101OSM   H18H10187   4.838   3.005   4.407
  102OSM      N10188   4.402   2.576   6.984
  102OSM    C1510189   4.418   2.556   7.130
  102OSM   H15A10190   4.340   2.494   7.173
  102OSM   H15B10191   4.403   2.654   7.172
  102OSM   H15C10192   4.518   2.534   7.163
  102OSM    C1410193   4.266   2.632   6.949
  102OSM   H14A10194   4.247   2.735   6.975
  102OSM   H14B10195   4.194   2.579   7.010
  102OSM   H14C10196   4.238   2.613   6.847
  102OSM    C1310197   4.518   2.665   6.939
  102OSM   H13A10198   4.543   2.736   7.017
  102OSM   H13B10199   4.492   2.715   6.847
  102OSM   H13C10200   4.612   2.612   6.936
  102OSM    C1210201   4.416   2.442   6.906
  102OSM   H12A10202   4.328   2.380   6.914
  102OSM   H12B10203   4.498   2.396   6.960
  102OSM    C1110204   4.445   2.443   6.756
  102OSM   H11A10205   4.525   2.517   6.732
  102OSM   H11B10206   4.350   2.472   6.707
  102OSM      P10207   4.394   2.189   6.697
  102OSM    O1310208   4.478   2.080   6.647
  102OSM    O1410209   4.326   2.174   6.830
  102OSM    O1110210   4.284   2.231   6.594
  102OSM    O1210211   4.483   2.315   6.712
  102OSM    C1S10212   4.325   2.241   6.453
  102OSM    H1S10213   4.365   2.144   6.415
  102OSM    H1T10214   4.401   2.322   6.453
  102OSM     NF10215   4.234   2.265   6.228
  102OSM    HNF10216   4.251   2.352   6.183
  102OSM    C2S10217   4.206   2.279   6.366
  102OSM    H2S10218   4.126   2.206   6.392
  102OSM    C3S10219   4.142   2.417   6.405
  102OSM    H3S10220   4.213   2.500   6.381
  102OSM     O310221   4.125   2.445   6.544
  102OSM    HO310222   4.172   2.375   6.590
  102OSM    C4S10223   4.019   2.452   6.314
  102OSM    H4S10224   4.036   2.460   6.206
  102OSM    C5S10225   3.891   2.450   6.358
  102OSM    H5S10226   3.860   2.421   6.459
  102OSM    C6S10227   3.764   2.499   6.283
  102OSM    H6S10228   3.697   2.532   6.365
  102OSM    H6T10229   3.714   2.411   6.237
  102OSM    C7S10230   3.788   2.610   6.175
  102OSM    H7S10231   3.867   2.683   6.204
  102OSM    H7T10232   3.692   2.666   6.169
  102OSM    C8S10233   3.824   2.566   6.032
  102OSM    H8S10234   3.748   2.499   5.986
  102OSM    H8T10235   3.924   2.519   6.020
  102OSM    C9S10236   3.826   2.688   5.936
  102OSM    H9S10237   3.891   2.771   5.971
  102OSM    H9T10238   3.722   2.725   5.924
  102OSM   C10S10239   3.856   2.658   5.790
  102OSM   H10S10240   3.776   2.584   5.769
  102OSM   H10T10241   3.955   2.612   5.770
  102OSM   C11S10242   3.832   2.784   5.707
  102OSM   H11S10243   3.880   2.876   5.745
  102OSM   H11T10244   3.727   2.819   5.717
  102OSM   C12S10245   3.877   2.766   5.561
  102OSM   H12S10246   3.785   2.774   5.499
  102OSM   H12T10247   3.917   2.663   5.547
  102OSM   C13S10248   3.976   2.878   5.520
  102OSM   H13S10249   4.050   2.886   5.602
  102OSM   H13T10250   3.912   2.969   5.525
  102OSM   C14S10251   4.044   2.865   5.384
  102OSM   H14S10252   3.962   2.849   5.311
  102OSM   H14T10253   4.113   2.778   5.385
  102OSM   C15S10254   4.107   2.999   5.340
  102OSM   H15S10255   4.196   3.008   5.405
  102OSM   H15T10256   4.039   3.082   5.371
  102OSM   C16S10257   4.133   3.005   5.186
  102OSM   H16S10258   4.037   3.005   5.129
  102OSM   H16T10259   4.173   2.903   5.172
  102OSM   C17S10260   4.225   3.111   5.124
  102OSM   H17S10261   4.318   3.115   5.185
  102OSM   H17T10262   4.178   3.211   5.140
  102OSM   C18S10263   4.260   3.091   4.971
  102OSM   H18S10264   4.308   2.993   4.949
  102OSM   H18T10265   4.318   3.177   4.932
  102OSM   H18U10266   4.167   3.089   4.910
  102OSM    C1F10267   4.271   2.161   6.152
  102OSM     OF10268   4.260   2.044   6.193
  102OSM    C2F10269   4.341   2.178   6.020
  102OSM    H2F10270   4.432   2.119   6.043
  102OSM    H2G10271   4.358   2.286   6.001
  102OSM    C3F10272   4.262   2.104   5.902
  102OSM    H3F10273   4.153   2.118   5.921
  102OSM    H3G10274   4.285   1.995   5.901
  102OSM    C4F10275   4.299   2.166   5.768
  102OSM    H4F10276   4.307   2.275   5.789
  102OSM    H4G10277   4.219   2.152   5.692
  102OSM    C5F10278   4.431   2.113   5.709
  102OSM    H5F10279   4.438   2.002   5.704
  102OSM    H5G10280   4.512   2.148   5.775
  102OSM    C6F10281   4.453   2.171   5.570
  102OSM    H6F10282   4.429   2.279   5.561
  102OSM    H6G10283   4.395   2.130   5.485
  102OSM    C7F10284   4.596   2.136   5.520
  102OSM    H7F10285   4.630   2.037   5.557
  102OSM    H7G10286   4.659   2.205   5.580
  102OSM    C8F10287   4.617   2.161   5.366
  102OSM    H8F10288   4.597   2.268   5.344
  102OSM    H8G10289   4.546   2.095   5.312
  102OSM    C9F10290   4.761   2.124   5.332
  102OSM    H9F10291   4.826   2.105   5.419
  102OSM   C10F10292   4.818   2.099   5.215
  102OSM   H10F10293   4.926   2.079   5.214
  102OSM   C11F10294   4.731   2.092   5.086
  102OSM   H11F10295   4.634   2.045   5.109
  102OSM   H11G10296   4.781   2.027   5.011
  102OSM   C12F10297   4.711   2.233   5.023
  102OSM   H12F10298   4.635   2.292   5.078
  102OSM   H12G10299   4.664   2.219   4.923
  102OSM   C13F10300   4.838   2.317   5.006
  102OSM   H13F10301   4.909   2.244   4.961
  102OSM   H13G10302   4.873   2.344   5.108
  102OSM   C14F10303   4.830   2.442   4.916
  102OSM   H14F10304   4.790   2.529   4.971
  102OSM   H14G10305   4.766   2.416   4.828
  102OSM   C15F10306   4.963   2.487   4.854
  102OSM   H15F10307   4.994   2.409   4.781
  102OSM   H15G10308   5.042   2.492   4.932
  102OSM   C16F10309   4.956   2.612   4.777
  102OSM   H16F10310   4.932   2.692   4.851
  102OSM   H16G10311   4.869   2.620   4.708
  102OSM   C17F10312   5.086   2.664   4.721
  102OSM   H17F10313   5.161   2.640   4.800
  102OSM   H17G10314   5.084   2.774   4.709
  102OSM   C18F10315   5.136   2.603   4.591
  102OSM   H18F10316   5.219   2.664   4.549
  102OSM   H18G10317   5.058   2.622   4.514
  102OSM   H18H10318   5.160   2.495   4.596
  103OSM      N10319   4.416   4.717   6.394
  103OSM    C1510320   4.553   4.701   6.450
  103OSM   H15A10321   4.556   4.603   6.497
  103OSM   H15B10322   4.591   4.784   6.508
  103OSM   H15C10323   4.622   4.707   6.367
  103OSM    C1410324   4.398   4.598   6.302
  103OSM   H14A10325   4.402   4.505   6.356
  103OSM   H14B10326   4.477   4.591   6.229
  103OSM   H14C10327   4.309   4.611   6.242
  103OSM    C1310328   4.318   4.716   6.503
  103OSM   H13A10329   4.312   4.618   6.547
  103OSM   H13B10330   4.219   4.735   6.463
  103OSM   H13C10331   4.344   4.792   6.575
  103OSM    C1210332   4.402   4.847   6.320
  103OSM   H12A10333   4.299   4.849   6.286
  103OSM   H12B10334   4.478   4.840   6.244
  103OSM    C1110335   4.437   4.973   6.406
  103OSM   H11A10336   4.391   4.966   6.507
  103OSM   H11B10337   4.395   5.057   6.346
  103OSM      P10338   4.664   5.053   6.307
  103OSM    O1310339   4.604   5.187   6.299
  103OSM    O1410340   4.804   5.045   6.350
  103OSM    O1110341   4.626   4.978   6.177
  103OSM    O1210342   4.580   4.979   6.420
  103OSM    C1S10343   4.729   4.890   6.125
  103OSM    H1S10344   4.707   4.787   6.159
  103OSM    H1T10345   4.834   4.919   6.146
  103OSM     NF10346   4.741   4.743   5.912
  103OSM    HNF10347   4.822   4.728   5.857
  103OSM    C2S10348   4.722   4.878   5.967
  103OSM    H2S10349   4.617   4.904   5.941
  103OSM    C3S10350   4.802   4.992   5.899
  103OSM    H3S10351   4.909   4.986   5.928
  103OSM     O310352   4.754   5.115   5.949
  103OSM    HO310353   4.707   5.097   6.031
  103OSM    C4S10354   4.790   5.007   5.755
  103OSM    H4S10355   4.736   5.096   5.721
  103OSM    C5S10356   4.848   4.940   5.662
  103OSM    H5S10357   4.922   4.863   5.692
  103OSM    C6S10358   4.833   4.960   5.514
  103OSM    H6S10359   4.932   5.000   5.483
  103OSM    H6T10360   4.750   5.028   5.485
  103OSM    C7S10361   4.799   4.830   5.446
  103OSM    H7S10362   4.714   4.775   5.492
  103OSM    H7T10363   4.881   4.756   5.459
  103OSM    C8S10364   4.772   4.850   5.300
  103OSM    H8S10365   4.678   4.907   5.286
  103OSM    H8T10366   4.752   4.747   5.265
  103OSM    C9S10367   4.888   4.911   5.215
  103OSM    H9S10368   4.981   4.851   5.215
  103OSM    H9T10369   4.903   5.010   5.262
  103OSM   C10S10370   4.844   4.935   5.065
  103OSM   H10S10371   4.928   4.963   4.999
  103OSM   H10T10372   4.777   5.024   5.062
  103OSM   C11S10373   4.778   4.816   4.990
  103OSM   H11S10374   4.678   4.799   5.035
  103OSM   H11T10375   4.837   4.722   4.994
  103OSM   C12S10376   4.744   4.848   4.843
  103OSM   H12S10377   4.690   4.945   4.845
  103OSM   H12T10378   4.673   4.770   4.808
  103OSM   C13S10379   4.853   4.846   4.742
  103OSM   H13S10380   4.938   4.904   4.785
  103OSM   H13T10381   4.821   4.903   4.652
  103OSM   C14S10382   4.914   4.710   4.705
  103OSM   H14S10383   4.943   4.649   4.793
  103OSM   H14T10384   5.012   4.725   4.656
  103OSM   C15S10385   4.832   4.612   4.613
  103OSM   H15S10386   4.745   4.569   4.667
  103OSM   H15T10387   4.896   4.524   4.589
  103OSM   C16S10388   4.786   4.673   4.479
  103OSM   H16S10389   4.873   4.719   4.427
  103OSM   H16T10390   4.709   4.750   4.496
  103OSM   C17S10391   4.717   4.574   4.375
  103OSM   H17S10392   4.686   4.642   4.293
  103OSM   H17T10393   4.626   4.532   4.421
  103OSM   C18S10394   4.807   4.458   4.320
  103OSM   H18S10395   4.807   4.381   4.400
  103OSM   H18T10396   4.912   4.491   4.306
  103OSM   H18U10397   4.756   4.414   4.232
  103OSM    C1F10398   4.652   4.645   5.946
  103OSM     OF10399   4.553   4.681   6.008
  103OSM    C2F10400   4.675   4.497   5.902
  103OSM    H2F10401   4.722   4.440   5.984
  103OSM    H2G10402   4.754   4.503   5.824
  103OSM    C3F10403   4.545   4.423   5.858
  103OSM    H3F10404   4.472   4.431   5.941
  103OSM    H3G10405   4.567   4.314   5.845
  103OSM    C4F10406   4.478   4.480   5.731
  103OSM    H4F10407   4.436   4.582   5.750
  103OSM    H4G10408   4.402   4.407   5.696
  103OSM    C5F10409   4.579   4.489   5.613
  103OSM    H5F10410   4.632   4.392   5.623
  103OSM    H5G10411   4.654   4.571   5.628
  103OSM    C6F10412   4.515   4.497   5.469
  103OSM    H6F10413   4.450   4.584   5.448
  103OSM    H6G10414   4.452   4.406   5.456
  103OSM    C7F10415   4.628   4.484   5.366
  103OSM    H7F10416   4.672   4.382   5.367
  103OSM    H7G10417   4.720   4.532   5.406
  103OSM    C8F10418   4.596   4.514   5.212
  103OSM    H8F10419   4.684   4.519   5.145
  103OSM    H8G10420   4.558   4.619   5.204
  103OSM    C9F10421   4.498   4.405   5.173
  103OSM    H9F10422   4.498   4.311   5.230
  103OSM   C10F10423   4.375   4.425   5.111
  103OSM   H10F10424   4.317   4.332   5.101
  103OSM   C11F10425   4.329   4.557   5.051
  103OSM   H11F10426   4.325   4.636   5.129
  103OSM   H11G10427   4.227   4.542   5.010
  103OSM   C12F10428   4.415   4.614   4.935
  103OSM   H12F10429   4.515   4.640   4.976
  103OSM   H12G10430   4.366   4.706   4.896
  103OSM   C13F10431   4.433   4.511   4.828
  103OSM   H13F10432   4.457   4.415   4.877
  103OSM   H13G10433   4.520   4.544   4.767
  103OSM   C14F10434   4.315   4.487   4.731
  103OSM   H14F10435   4.300   4.559   4.648
  103OSM   H14G10436   4.215   4.502   4.777
  103OSM   C15F10437   4.311   4.338   4.672
  103OSM   H15F10438   4.205   4.319   4.645
  103OSM   H15G10439   4.337   4.274   4.760
  103OSM   C16F10440   4.400   4.308   4.554
  103OSM   H16F10441   4.503   4.323   4.594
  103OSM   H16G10442   4.383   4.388   4.478
  103OSM   C17F10443   4.382   4.183   4.476
  103OSM   H17F10444   4.287   4.197   4.420
  103OSM   H17G10445   4.360   4.090   4.532
  103OSM   C18F10446   4.500   4.166   4.379
  103OSM   H18F10447   4.518   4.266   4.335
  103OSM   H18G10448   4.474   4.086   4.306
  103OSM   H18H10449   4.590   4.131   4.434
  104OSM      N10450   4.991   2.694   6.822
  104OSM    C1510451   5.093   2.587   6.836
  104OSM   H15A10452   5.102   2.549   6.735
  104OSM   H15B10453   5.053   2.503   6.891
  104OSM   H15C10454   5.187   2.618   6.877
  104OSM    C1410455   4.863   2.633   6.770
  104OSM   H14A10456   4.794   2.713   6.748
  104OSM   H14B10457   4.815   2.562   6.836
  104OSM   H14C10458   4.888   2.590   6.674
  104OSM    C1310459   4.967   2.731   6.970
  104OSM   H13A10460   5.050   2.786   7.013
  104OSM   H13B10461   4.962   2.643   7.033
  104OSM   H13C10462   4.879   2.790   6.989
  104OSM    C1210463   5.022   2.818   6.735
  104OSM   H12A10464   5.120   2.857   6.758
  104OSM   H12B10465   4.947   2.890   6.764
  104OSM    C1110466   5.028   2.805   6.584
  104OSM   H11A10467   5.034   2.905   6.537
  104OSM   H11B10468   4.929   2.769   6.549
  104OSM      P10469   5.280   2.744   6.541
  104OSM    O1310470   5.309   2.830   6.663
  104OSM    O1410471   5.341   2.610   6.534
  104OSM    O1110472   5.297   2.828   6.405
  104OSM    O1210473   5.128   2.711   6.539
  104OSM    C1S10474   5.215   2.822   6.290
  104OSM    H1S10475   5.128   2.889   6.308
  104OSM    H1T10476   5.183   2.718   6.267
  104OSM     NF10477   5.207   2.865   6.045
  104OSM    HNF10478   5.214   2.804   5.967
  104OSM    C2S10479   5.291   2.869   6.162
  104OSM    H2S10480   5.331   2.971   6.179
  104OSM    C3S10481   5.428   2.787   6.140
  104OSM    H3S10482   5.398   2.682   6.120
  104OSM     O310483   5.514   2.763   6.254
  104OSM    HO310484   5.466   2.798   6.329
  104OSM    C4S10485   5.503   2.828   6.014
  104OSM    H4S10486   5.476   2.755   5.936
  104OSM    C5S10487   5.610   2.906   5.981
  104OSM    H5S10488   5.668   2.950   6.064
  104OSM    C6S10489   5.660   2.909   5.841
  104OSM    H6S10490   5.743   2.982   5.838
  104OSM    H6T10491   5.585   2.919   5.760
  104OSM    C7S10492   5.711   2.775   5.791
  104OSM    H7S10493   5.642   2.690   5.808
  104OSM    H7T10494   5.798   2.737   5.849
  104OSM    C8S10495   5.761   2.769   5.641
  104OSM    H8S10496   5.833   2.853   5.627
  104OSM    H8T10497   5.668   2.786   5.583
  104OSM    C9S10498   5.822   2.637   5.604
  104OSM    H9S10499   5.742   2.563   5.627
  104OSM    H9T10500   5.913   2.620   5.665
  104OSM   C10S10501   5.856   2.609   5.454
  104OSM   H10S10502   5.898   2.507   5.446
  104OSM   H10T10503   5.940   2.680   5.436
  104OSM   C11S10504   5.747   2.646   5.358
  104OSM   H11S10505   5.713   2.750   5.379
  104OSM   H11T10506   5.671   2.570   5.385
  104OSM   C12S10507   5.784   2.615   5.209
  104OSM   H12S10508   5.737   2.521   5.172
  104OSM   H12T10509   5.891   2.615   5.180
  104OSM   C13S10510   5.729   2.728   5.124
  104OSM   H13S10511   5.803   2.809   5.143
  104OSM   H13T10512   5.632   2.765   5.164
  104OSM   C14S10513   5.732   2.702   4.975
  104OSM   H14S10514   5.706   2.795   4.922
  104OSM   H14T10515   5.653   2.627   4.952
  104OSM   C15S10516   5.866   2.653   4.923
  104OSM   H15S10517   5.884   2.544   4.928
  104OSM   H15T10518   5.941   2.713   4.978
  104OSM   C16S10519   5.885   2.690   4.779
  104OSM   H16S10520   5.883   2.800   4.762
  104OSM   H16T10521   5.805   2.647   4.714
  104OSM   C17S10522   6.012   2.639   4.711
  104OSM   H17S10523   6.106   2.679   4.754
  104OSM   H17T10524   6.018   2.681   4.608
  104OSM   C18S10525   6.030   2.487   4.713
  104OSM   H18S10526   6.107   2.451   4.642
  104OSM   H18T10527   5.938   2.437   4.676
  104OSM   H18U10528   6.043   2.439   4.813
  104OSM    C1F10529   5.098   2.948   6.036
  104OSM     OF10530   5.082   3.046   6.103
  104OSM    C2F10531   4.989   2.910   5.927
  104OSM    H2F10532   4.901   2.871   5.983
  104OSM    H2G10533   5.020   2.817   5.874
  104OSM    C3F10534   4.956   3.034   5.845
  104OSM    H3F10535   4.932   3.118   5.914
  104OSM    H3G10536   4.872   3.014   5.775
  104OSM    C4F10537   5.073   3.082   5.762
  104OSM    H4F10538   5.146   3.123   5.834
  104OSM    H4G10539   5.038   3.171   5.706
  104OSM    C5F10540   5.137   2.985   5.664
  104OSM    H5F10541   5.075   2.953   5.577
  104OSM    H5G10542   5.172   2.889   5.708
  104OSM    C6F10543   5.258   3.053   5.613
  104OSM    H6F10544   5.329   3.044   5.698
  104OSM    H6G10545   5.245   3.159   5.583
  104OSM    C7F10546   5.322   2.973   5.490
  104OSM    H7F10547   5.236   2.972   5.420
  104OSM    H7G10548   5.338   2.865   5.514
  104OSM    C8F10549   5.451   3.041   5.441
  104OSM    H8F10550   5.529   3.037   5.521
  104OSM    H8G10551   5.424   3.148   5.431
  104OSM    C9F10552   5.504   2.978   5.317
  104OSM    H9F10553   5.508   2.868   5.321
  104OSM   C10F10554   5.555   3.042   5.212
  104OSM   H10F10555   5.597   2.984   5.129
  104OSM   C11F10556   5.582   3.193   5.199
  104OSM   H11F10557   5.585   3.238   5.301
  104OSM   H11G10558   5.509   3.244   5.134
  104OSM   C12F10559   5.707   3.229   5.116
  104OSM   H12F10560   5.795   3.181   5.166
  104OSM   H12G10561   5.720   3.333   5.152
  104OSM   C13F10562   5.703   3.221   4.964
  104OSM   H13F10563   5.598   3.249   4.943
  104OSM   H13G10564   5.715   3.114   4.937
  104OSM   C14F10565   5.793   3.308   4.881
  104OSM   H14F10566   5.771   3.416   4.890
  104OSM   H14G10567   5.782   3.287   4.772
  104OSM   C15F10568   5.943   3.291   4.916
  104OSM   H15F10569   6.010   3.318   4.833
  104OSM   H15G10570   5.975   3.188   4.941
  104OSM   C16F10571   5.995   3.378   5.038
  104OSM   H16F10572   5.923   3.373   5.123
  104OSM   H16G10573   6.007   3.483   5.003
  104OSM   C17F10574   6.137   3.347   5.086
  104OSM   H17F10575   6.131   3.251   5.142
  104OSM   H17G10576   6.160   3.432   5.154
  104OSM   C18F10577   6.253   3.336   4.982
  104OSM   H18F10578   6.225   3.267   4.899
  104OSM   H18G10579   6.343   3.295   5.033
  104OSM   H18H10580   6.273   3.438   4.943
  105OSM      N10581   5.380   3.857   6.712
  105OSM    C1510582   5.506   3.825   6.793
  105OSM   H15A10583   5.577   3.779   6.726
  105OSM   H15B10584   5.477   3.764   6.877
  105OSM   H15C10585   5.550   3.916   6.832
  105OSM    C1410586   5.309   3.731   6.664
  105OSM   H14A10587   5.208   3.737   6.628
  105OSM   H14B10588   5.301   3.659   6.744
  105OSM   H14C10589   5.369   3.674   6.594
  105OSM    C1310590   5.270   3.933   6.785
  105OSM   H13A10591   5.315   4.026   6.816
  105OSM   H13B10592   5.228   3.881   6.869
  105OSM   H13C10593   5.184   3.949   6.722
  105OSM    C1210594   5.425   3.936   6.587
  105OSM   H12A10595   5.433   4.039   6.616
  105OSM   H12B10596   5.353   3.923   6.508
  105OSM    C1110597   5.560   3.900   6.519
  105OSM   H11A10598   5.564   3.927   6.411
  105OSM   H11B10599   5.567   3.789   6.517
  105OSM      P10600   5.683   4.122   6.588
  105OSM    O1310601   5.548   4.184   6.599
  105OSM    O1410602   5.782   4.173   6.686
  105OSM    O1110603   5.744   4.142   6.443
  105OSM    O1210604   5.674   3.960   6.596
  105OSM    C1S10605   5.828   4.043   6.386
  105OSM    H1S10606   5.769   3.949   6.393
  105OSM    H1T10607   5.921   4.036   6.446
  105OSM     NF10608   5.954   3.962   6.201
  105OSM    HNF10609   6.053   3.963   6.209
  105OSM    C2S10610   5.879   4.077   6.246
  105OSM    H2S10611   5.782   4.087   6.192
  105OSM    C3S10612   5.962   4.207   6.239
  105OSM    H3S10613   6.058   4.185   6.291
  105OSM     O310614   5.907   4.314   6.311
  105OSM    HO310615   5.833   4.278   6.360
  105OSM    C4S10616   5.998   4.234   6.092
  105OSM    H4S10617   6.094   4.186   6.068
  105OSM    C5S10618   5.952   4.326   6.001
  105OSM    H5S10619   5.871   4.389   6.040
  105OSM    C6S10620   5.999   4.339   5.863
  105OSM    H6S10621   6.099   4.386   5.851
  105OSM    H6T10622   5.936   4.416   5.813
  105OSM    C7S10623   5.992   4.206   5.785
  105OSM    H7S10624   5.888   4.166   5.788
  105OSM    H7T10625   6.059   4.130   5.830
  105OSM    C8S10626   6.057   4.210   5.645
  105OSM    H8S10627   6.076   4.103   5.618
  105OSM    H8T10628   6.153   4.264   5.645
  105OSM    C9S10629   5.958   4.256   5.534
  105OSM    H9S10630   5.911   4.355   5.552
  105OSM    H9T10631   5.877   4.180   5.527
  105OSM   C10S10632   6.017   4.262   5.396
  105OSM   H10S10633   6.080   4.173   5.373
  105OSM   H10T10634   6.078   4.354   5.382
  105OSM   C11S10635   5.913   4.265   5.281
  105OSM   H11S10636   5.856   4.360   5.289
  105OSM   H11T10637   5.850   4.175   5.294
  105OSM   C12S10638   5.998   4.251   5.152
  105OSM   H12S10639   6.057   4.157   5.164
  105OSM   H12T10640   6.066   4.338   5.159
  105OSM   C13S10641   5.920   4.280   5.030
  105OSM   H13S10642   5.856   4.363   5.068
  105OSM   H13T10643   5.860   4.192   4.996
  105OSM   C14S10644   6.004   4.325   4.910
  105OSM   H14S10645   6.092   4.258   4.903
  105OSM   H14T10646   6.041   4.428   4.927
  105OSM   C15S10647   5.926   4.309   4.782
  105OSM   H15S10648   5.822   4.349   4.792
  105OSM   H15T10649   5.927   4.199   4.765
  105OSM   C16S10650   5.985   4.366   4.655
  105OSM   H16S10651   6.002   4.474   4.671
  105OSM   H16T10652   5.921   4.348   4.566
  105OSM   C17S10653   6.118   4.309   4.613
  105OSM   H17S10654   6.110   4.200   4.594
  105OSM   H17T10655   6.190   4.331   4.696
  105OSM   C18S10656   6.178   4.378   4.484
  105OSM   H18S10657   6.220   4.476   4.515
  105OSM   H18T10658   6.092   4.408   4.421
  105OSM   H18U10659   6.257   4.314   4.438
  105OSM    C1F10660   5.896   3.841   6.186
  105OSM     OF10661   5.775   3.827   6.170
  105OSM    C2F10662   5.986   3.722   6.213
  105OSM    H2F10663   5.960   3.669   6.307
  105OSM    H2G10664   6.089   3.762   6.225
  105OSM    C3F10665   5.991   3.629   6.092
  105OSM    H3F10666   5.895   3.578   6.073
  105OSM    H3G10667   6.064   3.548   6.115
  105OSM    C4F10668   6.049   3.692   5.968
  105OSM    H4F10669   6.155   3.718   5.987
  105OSM    H4G10670   5.994   3.787   5.954
  105OSM    C5F10671   6.050   3.598   5.843
  105OSM    H5F10672   5.945   3.572   5.819
  105OSM    H5G10673   6.112   3.507   5.859
  105OSM    C6F10674   6.092   3.668   5.715
  105OSM    H6F10675   6.201   3.682   5.732
  105OSM    H6G10676   6.048   3.771   5.715
  105OSM    C7F10677   6.067   3.595   5.582
  105OSM    H7F10678   5.964   3.624   5.553
  105OSM    H7G10679   6.061   3.490   5.617
  105OSM    C8F10680   6.169   3.623   5.474
  105OSM    H8F10681   6.130   3.570   5.385
  105OSM    H8G10682   6.269   3.586   5.505
  105OSM    C9F10683   6.158   3.768   5.445
  105OSM    H9F10684   6.115   3.831   5.525
  105OSM   C10F10685   6.199   3.835   5.334
  105OSM   H10F10686   6.183   3.943   5.341
  105OSM   C11F10687   6.263   3.778   5.214
  105OSM   H11F10688   6.289   3.674   5.246
  105OSM   H11G10689   6.358   3.827   5.184
  105OSM   C12F10690   6.178   3.778   5.084
  105OSM   H12F10691   6.127   3.877   5.086
  105OSM   H12G10692   6.093   3.709   5.102
  105OSM   C13F10693   6.240   3.744   4.945
  105OSM   H13F10694   6.268   3.636   4.941
  105OSM   H13G10695   6.331   3.803   4.922
  105OSM   C14F10696   6.130   3.756   4.833
  105OSM   H14F10697   6.085   3.857   4.838
  105OSM   H14G10698   6.045   3.686   4.846
  105OSM   C15F10699   6.177   3.734   4.694
  105OSM   H15F10700   6.246   3.647   4.689
  105OSM   H15G10701   6.239   3.823   4.669
  105OSM   C16F10702   6.071   3.704   4.587
  105OSM   H16F10703   6.122   3.728   4.492
  105OSM   H16G10704   5.984   3.772   4.603
  105OSM   C17F10705   6.026   3.558   4.574
  105OSM   H17F10706   5.996   3.519   4.673
  105OSM   H17G10707   6.113   3.492   4.556
  105OSM   C18F10708   5.924   3.539   4.462
  105OSM   H18F10709   5.986   3.541   4.369
  105OSM   H18G10710   5.849   3.620   4.450
  105OSM   H18H10711   5.873   3.443   4.483
  106OSM      N10712   4.246   1.857   7.068
  106OSM    C1510713   4.371   1.772   7.083
  106OSM   H15A10714   4.394   1.758   7.188
  106OSM   H15B10715   4.454   1.815   7.029
  106OSM   H15C10716   4.353   1.671   7.049
  106OSM    C1410717   4.120   1.779   7.111
  106OSM   H14A10718   4.038   1.847   7.127
  106OSM   H14B10719   4.137   1.734   7.207
  106OSM   H14C10720   4.097   1.700   7.042
  106OSM    C1310721   4.254   1.980   7.152
  106OSM   H13A10722   4.243   1.955   7.257
  106OSM   H13B10723   4.170   2.041   7.124
  106OSM   H13C10724   4.339   2.047   7.153
  106OSM    C1210725   4.240   1.899   6.913
  106OSM   H12A10726   4.343   1.924   6.893
  106OSM   H12B10727   4.182   1.989   6.902
  106OSM    C1110728   4.210   1.794   6.800
  106OSM   H11A10729   4.172   1.844   6.708
  106OSM   H11B10730   4.131   1.721   6.829
  106OSM      P10731   4.331   1.575   6.711
  106OSM    O1310732   4.465   1.517   6.709
  106OSM    O1410733   4.224   1.494   6.781
  106OSM    O1110734   4.274   1.603   6.563
  106OSM    O1210735   4.333   1.729   6.759
  106OSM    C1S10736   4.366   1.684   6.486
  106OSM    H1S10737   4.460   1.627   6.467
  106OSM    H1T10738   4.399   1.777   6.537
  106OSM     NF10739   4.383   1.793   6.262
  106OSM    HNF10740   4.345   1.883   6.244
  106OSM    C2S10741   4.294   1.713   6.347
  106OSM    H2S10742   4.290   1.613   6.298
  106OSM    C3S10743   4.149   1.775   6.362
  106OSM    H3S10744   4.161   1.880   6.396
  106OSM     O310745   4.064   1.718   6.471
  106OSM    HO310746   4.119   1.651   6.511
  106OSM    C4S10747   4.081   1.776   6.227
  106OSM    H4S10748   4.123   1.860   6.170
  106OSM    C5S10749   3.999   1.688   6.168
  106OSM    H5S10750   3.952   1.608   6.226
  106OSM    C6S10751   3.957   1.692   6.023
  106OSM    H6S10752   3.855   1.735   6.018
  106OSM    H6T10753   3.934   1.589   5.989
  106OSM    C7S10754   4.043   1.774   5.931
  106OSM    H7S10755   4.144   1.726   5.927
  106OSM    H7T10756   4.078   1.872   5.970
  106OSM    C8S10757   3.991   1.792   5.790
  106OSM    H8S10758   3.891   1.840   5.799
  106OSM    H8T10759   3.980   1.688   5.755
  106OSM    C9S10760   4.086   1.875   5.706
  106OSM    H9S10761   4.187   1.833   5.727
  106OSM    H9T10762   4.083   1.979   5.746
  106OSM   C10S10763   4.049   1.850   5.556
  106OSM   H10S10764   3.942   1.877   5.544
  106OSM   H10T10765   4.077   1.747   5.525
  106OSM   C11S10766   4.131   1.944   5.461
  106OSM   H11S10767   4.239   1.917   5.457
  106OSM   H11T10768   4.117   2.048   5.498
  106OSM   C12S10769   4.096   1.933   5.306
  106OSM   H12S10770   3.987   1.947   5.290
  106OSM   H12T10771   4.132   1.834   5.270
  106OSM   C13S10772   4.159   2.054   5.233
  106OSM   H13S10773   4.269   2.055   5.250
  106OSM   H13T10774   4.104   2.141   5.276
  106OSM   C14S10775   4.138   2.056   5.082
  106OSM   H14S10776   4.032   2.083   5.058
  106OSM   H14T10777   4.157   1.955   5.041
  106OSM   C15S10778   4.247   2.159   5.022
  106OSM   H15S10779   4.335   2.091   5.027
  106OSM   H15T10780   4.271   2.253   5.075
  106OSM   C16S10781   4.210   2.201   4.883
  106OSM   H16S10782   4.117   2.261   4.882
  106OSM   H16T10783   4.173   2.112   4.827
  106OSM   C17S10784   4.311   2.281   4.810
  106OSM   H17S10785   4.404   2.221   4.801
  106OSM   H17T10786   4.340   2.366   4.876
  106OSM   C18S10787   4.259   2.345   4.685
  106OSM   H18S10788   4.254   2.266   4.607
  106OSM   H18T10789   4.307   2.436   4.644
  106OSM   H18U10790   4.155   2.380   4.699
  106OSM    C1F10791   4.496   1.749   6.209
  106OSM     OF10792   4.547   1.642   6.234
  106OSM    C2F10793   4.562   1.845   6.117
  106OSM    H2F10794   4.614   1.916   6.186
  106OSM    H2G10795   4.487   1.901   6.057
  106OSM    C3F10796   4.670   1.793   6.023
  106OSM    H3F10797   4.749   1.733   6.074
  106OSM    H3G10798   4.728   1.881   5.990
  106OSM    C4F10799   4.628   1.691   5.916
  106OSM    H4F10800   4.556   1.612   5.946
  106OSM    H4G10801   4.716   1.625   5.906
  106OSM    C5F10802   4.587   1.751   5.779
  106OSM    H5F10803   4.657   1.828   5.741
  106OSM    H5G10804   4.482   1.786   5.790
  106OSM    C6F10805   4.578   1.647   5.662
  106OSM    H6F10806   4.541   1.546   5.691
  106OSM    H6G10807   4.678   1.640   5.615
  106OSM    C7F10808   4.486   1.691   5.546
  106OSM    H7F10809   4.483   1.800   5.527
  106OSM    H7G10810   4.381   1.678   5.580
  106OSM    C8F10811   4.508   1.609   5.423
  106OSM    H8F10812   4.408   1.598   5.375
  106OSM    H8G10813   4.535   1.504   5.447
  106OSM    C9F10814   4.612   1.661   5.323
  106OSM    H9F10815   4.705   1.682   5.376
  106OSM   C10F10816   4.595   1.684   5.191
  106OSM   H10F10817   4.684   1.722   5.140
  106OSM   C11F10818   4.465   1.684   5.112
  106OSM   H11F10819   4.441   1.784   5.071
  106OSM   H11G10820   4.381   1.658   5.180
  106OSM   C12F10821   4.458   1.589   4.990
  106OSM   H12F10822   4.439   1.486   5.025
  106OSM   H12G10823   4.553   1.593   4.932
  106OSM   C13F10824   4.343   1.638   4.890
  106OSM   H13F10825   4.249   1.669   4.940
  106OSM   H13G10826   4.314   1.551   4.827
  106OSM   C14F10827   4.390   1.742   4.794
  106OSM   H14F10828   4.460   1.705   4.717
  106OSM   H14G10829   4.439   1.825   4.849
  106OSM   C15F10830   4.278   1.809   4.712
  106OSM   H15F10831   4.211   1.864   4.782
  106OSM   H15G10832   4.215   1.725   4.675
  106OSM   C16F10833   4.321   1.906   4.602
  106OSM   H16F10834   4.396   1.853   4.540
  106OSM   H16G10835   4.369   1.991   4.655
  106OSM   C17F10836   4.203   1.957   4.518
  106OSM   H17F10837   4.245   2.048   4.470
  106OSM   H17G10838   4.125   1.990   4.589
  106OSM   C18F10839   4.161   1.854   4.413
  106OSM   H18F10840   4.248   1.828   4.348
  106OSM   H18G10841   4.085   1.906   4.350
  106OSM   H18H10842   4.108   1.769   4.462
  107OSM      N10843   3.439   6.862   6.915
  107OSM    C1510844   3.293   6.873   6.885
  107OSM   H15A10845   3.260   6.860   6.783
  107OSM   H15B10846   3.254   0.059   6.917
  107OSM   H15C10847   3.248   6.799   6.949
  107OSM    C1410848   3.468   6.875   7.060
  107OSM   H14A10849   3.570   6.839   7.071
  107OSM   H14B10850   3.422   6.799   7.122
  107OSM   H14C10851   3.464   0.063   7.106
  107OSM    C1310852   3.487   6.726   6.872
  107OSM   H13A10853   3.590   6.709   6.903
  107OSM   H13B10854   3.479   6.727   6.765
  107OSM   H13C10855   3.424   6.646   6.908
  107OSM    C1210856   3.514   0.063   6.837
  107OSM   H12A10857   3.619   0.054   6.858
  107OSM   H12B10858   3.482   0.161   6.871
  107OSM    C1110859   3.512   0.070   6.684
  107OSM   H11A10860   3.580   0.152   6.650
  107OSM   H11B10861   3.413   0.101   6.646
  107OSM      P10862   3.682   6.819   6.569
  107OSM    O1310863   3.780   6.906   6.637
  107OSM    O1410864   3.705   6.671   6.584
  107OSM    O1110865   3.678   6.860   6.417
  107OSM    O1210866   3.541   6.855   6.618
  107OSM    C1S10867   3.693   6.761   6.320
  107OSM    H1S10868   3.603   6.697   6.308
  107OSM    H1T10869   3.777   6.694   6.349
  107OSM     NF10870   3.714   6.709   6.083
  107OSM    HNF10871   3.784   6.640   6.066
  107OSM    C2S10872   3.738   6.811   6.181
  107OSM    H2S10873   3.679   6.900   6.149
  107OSM    C3S10874   3.888   6.850   6.204
  107OSM    H3S10875   3.943   6.762   6.244
  107OSM     O310876   3.898   0.035   6.312
  107OSM    HO310877   3.819   0.024   6.364
  107OSM    C4S10878   3.960   6.904   6.085
  107OSM    H4S10879   3.891   0.023   6.004
  107OSM    C5S10880   4.092   6.898   6.059
  107OSM    H5S10881   4.160   6.845   6.127
  107OSM    C6S10882   4.152   0.022   5.930
  107OSM    H6S10883   4.229   0.100   5.950
  107OSM    H6T10884   4.082   0.058   5.851
  107OSM    C7S10885   4.215   6.807   5.864
  107OSM    H7S10886   4.154   6.714   5.857
  107OSM    H7T10887   4.309   6.777   5.916
  107OSM    C8S10888   4.267   6.841   5.719
  107OSM    H8S10889   4.327   0.025   5.717
  107OSM    H8T10890   4.170   6.863   5.669
  107OSM    C9S10891   4.344   6.726   5.652
  107OSM    H9S10892   4.285   6.633   5.671
  107OSM    H9T10893   4.443   6.719   5.702
  107OSM   C10S10894   4.373   6.737   5.505
  107OSM   H10S10895   4.447   6.659   5.476
  107OSM   H10T10896   4.422   6.836   5.491
  107OSM   C11S10897   4.255   6.716   5.413
  107OSM   H11S10898   4.174   6.787   5.439
  107OSM   H11T10899   4.202   6.621   5.437
  107OSM   C12S10900   4.287   6.711   5.259
  107OSM   H12S10901   4.369   6.639   5.236
  107OSM   H12T10902   4.335   6.808   5.235
  107OSM   C13S10903   4.167   6.692   5.160
  107OSM   H13S10904   4.121   6.790   5.136
  107OSM   H13T10905   4.101   6.629   5.224
  107OSM   C14S10906   4.210   6.624   5.025
  107OSM   H14S10907   4.121   6.620   4.958
  107OSM   H14T10908   4.259   6.527   5.050
  107OSM   C15S10909   4.316   6.715   4.953
  107OSM   H15S10910   4.410   6.695   5.009
  107OSM   H15T10911   4.274   6.817   4.971
  107OSM   C16S10912   4.338   6.674   4.806
  107OSM   H16S10913   4.257   6.694   4.733
  107OSM   H16T10914   4.357   6.565   4.798
  107OSM   C17S10915   4.459   6.748   4.753
  107OSM   H17S10916   4.549   6.745   4.818
  107OSM   H17T10917   4.433   6.855   4.741
  107OSM   C18S10918   4.517   6.693   4.616
  107OSM   H18S10919   4.596   6.763   4.580
  107OSM   H18T10920   4.433   6.692   4.543
  107OSM   H18U10921   4.569   6.595   4.622
  107OSM    C1F10922   3.591   6.689   6.027
  107OSM     OF10923   3.505   6.767   6.065
  107OSM    C2F10924   3.569   6.572   5.937
  107OSM    H2F10925   3.529   6.491   6.002
  107OSM    H2G10926   3.667   6.556   5.886
  107OSM    C3F10927   3.463   6.594   5.828
  107OSM    H3F10928   3.485   6.696   5.788
  107OSM    H3G10929   3.363   6.601   5.875
  107OSM    C4F10930   3.472   6.491   5.718
  107OSM    H4F10931   3.433   6.392   5.751
  107OSM    H4G10932   3.577   6.473   5.688
  107OSM    C5F10933   3.407   6.542   5.586
  107OSM    H5F10934   3.460   6.628   5.540
  107OSM    H5G10935   3.300   6.567   5.603
  107OSM    C6F10936   3.388   6.437   5.478
  107OSM    H6F10937   3.339   6.351   5.529
  107OSM    H6G10938   3.485   6.386   5.456
  107OSM    C7F10939   3.309   6.480   5.357
  107OSM    H7F10940   3.252   6.572   5.383
  107OSM    H7G10941   3.243   6.396   5.325
  107OSM    C8F10942   3.396   6.530   5.241
  107OSM    H8F10943   3.458   6.452   5.192
  107OSM    H8G10944   3.462   6.608   5.284
  107OSM    C9F10945   3.303   6.581   5.134
  107OSM    H9F10946   3.202   6.539   5.123
  107OSM   C10F10947   3.315   6.700   5.074
  107OSM   H10F10948   3.240   6.729   4.999
  107OSM   C11F10949   3.445   6.784   5.082
  107OSM   H11F10950   3.506   6.752   4.994
  107OSM   H11G10951   3.499   6.757   5.175
  107OSM   C12F10952   3.411   0.031   5.092
  107OSM   H12F10953   3.499   0.098   5.102
  107OSM   H12G10954   3.370   0.047   5.195
  107OSM   C13F10955   3.320   0.087   4.981
  107OSM   H13F10956   3.222   0.035   4.984
  107OSM   H13G10957   3.360   0.063   4.880
  107OSM   C14F10958   3.300   0.234   4.990
  107OSM   H14F10959   3.390   0.294   5.016
  107OSM   H14G10960   3.238   0.254   5.080
  107OSM   C15F10961   3.244   0.293   4.859
  107OSM   H15F10962   3.315   0.265   4.778
  107OSM   H15G10963   3.227   0.402   4.872
  107OSM   C16F10964   3.105   0.235   4.824
  107OSM   H16F10965   3.040   0.234   4.914
  107OSM   H16G10966   3.110   0.127   4.797
  107OSM   C17F10967   3.033   0.328   4.720
  107OSM   H17F10968   3.088   0.335   4.624
  107OSM   H17G10969   3.035   0.434   4.752
  107OSM   C18F10970   2.892   0.296   4.703
  107OSM   H18F10971   2.829   0.291   4.794
  107OSM   H18G10972   2.881   0.203   4.642
  107OSM   H18H10973   2.831   0.369   4.646
  108OSM      N10974   6.668   6.023   6.622
  108OSM    C1510975   6.758   5.926   6.698
  108OSM   H15A10976   6.796   5.959   6.793
  108OSM   H15B10977   6.845   5.889   6.646
  108OSM   H15C10978   6.697   5.838   6.714
  108OSM    C1410979   6.544   6.038   6.708
  108OSM   H14A10980   6.487   5.950   6.732
  108OSM   H14B10981   6.482   6.116   6.666
  108OSM   H14C10982   6.576   6.077   6.804
  108OSM    C1310983   6.734   6.160   6.627
  108OSM   H13A10984   6.833   6.150   6.585
  108OSM   H13B10985   6.740   6.202   6.726
  108OSM   H13C10986   6.692   6.238   6.565
  108OSM    C1210987   6.647   5.976   6.487
  108OSM   H12A10988   6.601   5.878   6.490
  108OSM   H12B10989   6.739   5.961   6.433
  108OSM    C1110990   6.558   6.065   6.394
  108OSM   H11A10991   6.560   6.013   6.296
  108OSM   H11B10992   6.596   6.170   6.395
  108OSM      P10993   6.313   5.963   6.424
  108OSM    O1310994   6.362   5.828   6.460
  108OSM    O1410995   6.192   6.011   6.491
  108OSM    O1110996   6.275   5.962   6.263
  108OSM    O1210997   6.421   6.073   6.443
  108OSM    C1S10998   6.256   6.080   6.183
  108OSM    H1S10999   6.244   6.172   6.245
  108OSM    H1T11000   6.160   6.074   6.128
  108OSM     NF11001   6.324   6.228   6.005
  108OSM    HNF11002   6.259   6.228   5.929
  108OSM    C2S11003   6.358   6.103   6.066
  108OSM    H2S11004   6.460   6.116   6.108
  108OSM    C3S11005   6.357   5.976   5.973
  108OSM    H3S11006   6.260   5.960   5.922
  108OSM     O311007   6.382   5.855   6.044
  108OSM    HO311008   6.365   5.878   6.136
  108OSM    C4S11009   6.463   5.992   5.868
  108OSM    H4S11010   6.563   5.987   5.915
  108OSM    C5S11011   6.446   6.001   5.736
  108OSM    H5S11012   6.346   6.003   5.691
  108OSM    C6S11013   6.565   6.013   5.642
  108OSM    H6S11014   6.659   6.031   5.698
  108OSM    H6T11015   6.547   6.095   5.569
  108OSM    C7S11016   6.609   5.884   5.567
  108OSM    H7S11017   6.622   5.806   5.644
  108OSM    H7T11018   6.706   5.891   5.514
  108OSM    C8S11019   6.508   5.822   5.465
  108OSM    H8S11020   6.404   5.828   5.503
  108OSM    H8T11021   6.539   5.716   5.449
  108OSM    C9S11022   6.513   5.895   5.328
  108OSM    H9S11023   6.611   5.888   5.276
  108OSM    H9T11024   6.491   6.002   5.348
  108OSM   C10S11025   6.424   5.838   5.216
  108OSM   H10S11026   6.320   5.858   5.251
  108OSM   H10T11027   6.439   5.728   5.223
  108OSM   C11S11028   6.454   5.882   5.071
  108OSM   H11S11029   6.560   5.871   5.038
  108OSM   H11T11030   6.436   5.991   5.065
  108OSM   C12S11031   6.356   5.816   4.975
  108OSM   H12S11032   6.260   5.858   5.012
  108OSM   H12T11033   6.358   5.706   4.986
  108OSM   C13S11034   6.354   5.869   4.831
  108OSM   H13S11035   6.453   5.861   4.780
  108OSM   H13T11036   6.345   5.980   4.835
  108OSM   C14S11037   6.237   5.819   4.738
  108OSM   H14S11038   6.140   5.829   4.790
  108OSM   H14T11039   6.246   5.710   4.719
  108OSM   C15S11040   6.222   5.897   4.604
  108OSM   H15S11041   6.306   5.882   4.532
  108OSM   H15T11042   6.214   6.002   4.639
  108OSM   C16S11043   6.088   5.873   4.531
  108OSM   H16S11044   6.001   5.920   4.583
  108OSM   H16T11045   6.067   5.765   4.513
  108OSM   C17S11046   6.094   5.954   4.400
  108OSM   H17S11047   6.195   5.942   4.356
  108OSM   H17T11048   6.088   6.062   4.425
  108OSM   C18S11049   6.003   5.907   4.286
  108OSM   H18S11050   6.004   5.796   4.282
  108OSM   H18T11051   6.050   5.925   4.187
  108OSM   H18U11052   5.903   5.951   4.303
  108OSM    C1F11053   6.350   6.350   6.053
  108OSM     OF11054   6.408   6.355   6.158
  108OSM    C2F11055   6.293   6.473   5.986
  108OSM    H2F11056   6.242   6.535   6.063
  108OSM    H2G11057   6.205   6.440   5.928
  108OSM    C3F11058   6.400   6.547   5.906
  108OSM    H3F11059   6.485   6.574   5.972
  108OSM    H3G11060   6.357   6.644   5.874
  108OSM    C4F11061   6.463   6.474   5.783
  108OSM    H4F11062   6.379   6.459   5.712
  108OSM    H4G11063   6.498   6.373   5.814
  108OSM    C5F11064   6.567   6.555   5.709
  108OSM    H5F11065   6.641   6.593   5.782
  108OSM    H5G11066   6.528   6.653   5.672
  108OSM    C6F11067   6.632   6.469   5.600
  108OSM    H6F11068   6.567   6.409   5.533
  108OSM    H6G11069   6.687   6.391   5.658
  108OSM    C7F11070   6.737   6.554   5.520
  108OSM    H7F11071   6.818   6.487   5.484
  108OSM    H7G11072   6.788   6.627   5.586
  108OSM    C8F11073   6.674   6.626   5.397
  108OSM    H8F11074   6.566   6.625   5.421
  108OSM    H8G11075   6.703   6.570   5.306
  108OSM    C9F11076   6.724   6.771   5.386
  108OSM    H9F11077   6.739   6.810   5.487
  108OSM   C10F11078   6.768   6.837   5.275
  108OSM   H10F11079   6.811   0.029   5.278
  108OSM   C11F11080   6.764   6.767   5.138
  108OSM   H11F11081   6.717   6.667   5.133
  108OSM   H11G11082   6.863   6.754   5.088
  108OSM   C12F11083   6.687   6.860   5.053
  108OSM   H12F11084   6.746   0.043   5.036
  108OSM   H12G11085   6.587   6.886   5.093
  108OSM   C13F11086   6.678   6.800   4.909
  108OSM   H13F11087   6.595   6.725   4.911
  108OSM   H13G11088   6.772   6.748   4.881
  108OSM   C14F11089   6.635   6.902   4.796
  108OSM   H14F11090   6.715   0.069   4.783
  108OSM   H14G11091   6.544   0.046   4.831
  108OSM   C15F11092   6.602   6.826   4.664
  108OSM   H15F11093   6.538   6.736   4.680
  108OSM   H15G11094   6.700   6.799   4.619
  108OSM   C16F11095   6.529   6.903   4.556
  108OSM   H16F11096   6.592   0.084   4.542
  108OSM   H16G11097   6.436   0.038   4.597
  108OSM   C17F11098   6.503   6.826   4.426
  108OSM   H17F11099   6.438   6.743   4.463
  108OSM   H17G11100   6.597   6.773   4.401
  108OSM   C18F11101   6.425   6.907   4.326
  108OSM   H18F11102   6.329   0.030   4.371
  108OSM   H18G11103   6.411   6.850   4.232
  108OSM   H18H11104   6.487   0.085   4.298
  109OSM      N11105   2.843   2.655   6.851
  109OSM    C1511106   2.850   2.711   6.714
  109OSM   H15A11107   2.949   2.742   6.686
  109OSM   H15B11108   2.789   2.800   6.710
  109OSM   H15C11109   2.806   2.659   6.630
  109OSM    C1411110   2.951   2.720   6.932
  109OSM   H14A11111   2.969   2.654   7.016
  109OSM   H14B11112   2.932   2.818   6.974
  109OSM   H14C11113   3.033   2.731   6.863
  109OSM    C1311114   2.710   2.686   6.909
  109OSM   H13A11115   2.678   2.789   6.903
  109OSM   H13B11116   2.692   2.657   7.012
  109OSM   H13C11117   2.641   2.638   6.842
  109OSM    C1211118   2.872   2.505   6.853
  109OSM   H12A11119   2.838   2.465   6.947
  109OSM   H12B11120   2.977   2.480   6.849
  109OSM    C1111121   2.801   2.420   6.746
  109OSM   H11A11122   2.809   2.310   6.759
  109OSM   H11B11123   2.853   2.447   6.651
  109OSM      P11124   2.573   2.493   6.608
  109OSM    O1311125   2.479   2.384   6.577
  109OSM    O1411126   2.513   2.625   6.637
  109OSM    O1111127   2.683   2.494   6.492
  109OSM    O1211128   2.655   2.459   6.739
  109OSM    C1S11129   2.694   2.406   6.385
  109OSM    H1S11130   2.603   2.345   6.369
  109OSM    H1T11131   2.784   2.348   6.417
  109OSM     NF11132   2.708   2.385   6.137
  109OSM    HNF11133   2.790   2.351   6.092
  109OSM    C2S11134   2.715   2.487   6.247
  109OSM    H2S11135   2.636   2.565   6.236
  109OSM    C3S11136   2.842   2.570   6.251
  109OSM    H3S11137   2.928   2.503   6.272
  109OSM     O311138   2.850   2.668   6.352
  109OSM    HO311139   2.785   2.642   6.419
  109OSM    C4S11140   2.856   2.625   6.112
  109OSM    H4S11141   2.882   2.550   6.035
  109OSM    C5S11142   2.829   2.747   6.066
  109OSM    H5S11143   2.794   2.824   6.136
  109OSM    C6S11144   2.852   2.795   5.924
  109OSM    H6S11145   2.901   2.895   5.926
  109OSM    H6T11146   2.750   2.820   5.886
  109OSM    C7S11147   2.933   2.695   5.836
  109OSM    H7S11148   2.865   2.609   5.815
  109OSM    H7T11149   3.022   2.666   5.895
  109OSM    C8S11150   2.955   2.751   5.693
  109OSM    H8S11151   2.995   2.854   5.698
  109OSM    H8T11152   2.852   2.765   5.654
  109OSM    C9S11153   3.035   2.667   5.593
  109OSM    H9S11154   2.979   2.571   5.593
  109OSM    H9T11155   3.134   2.639   5.634
  109OSM   C10S11156   3.046   2.736   5.457
  109OSM   H10S11157   3.111   2.823   5.482
  109OSM   H10T11158   2.948   2.782   5.431
  109OSM   C11S11159   3.097   2.645   5.342
  109OSM   H11S11160   3.072   2.539   5.362
  109OSM   H11T11161   3.208   2.642   5.340
  109OSM   C12S11162   3.046   2.699   5.216
  109OSM   H12S11163   3.084   2.802   5.204
  109OSM   H12T11164   2.936   2.688   5.204
  109OSM   C13S11165   3.111   2.620   5.092
  109OSM   H13S11166   3.109   2.512   5.118
  109OSM   H13T11167   3.219   2.644   5.088
  109OSM   C14S11168   3.051   2.647   4.951
  109OSM   H14S11169   3.078   2.749   4.915
  109OSM   H14T11170   2.941   2.634   4.960
  109OSM   C15S11171   3.106   2.562   4.839
  109OSM   H15S11172   3.089   2.456   4.871
  109OSM   H15T11173   3.215   2.578   4.826
  109OSM   C16S11174   3.035   2.582   4.705
  109OSM   H16S11175   3.043   2.687   4.671
  109OSM   H16T11176   2.925   2.570   4.711
  109OSM   C17S11177   3.081   2.488   4.590
  109OSM   H17S11178   3.066   2.379   4.603
  109OSM   H17T11179   3.190   2.501   4.573
  109OSM   C18S11180   3.004   2.519   4.459
  109OSM   H18S11181   3.059   2.494   4.366
  109OSM   H18T11182   2.983   2.628   4.455
  109OSM   H18U11183   2.907   2.465   4.450
  109OSM    C1F11184   2.588   2.337   6.103
  109OSM     OF11185   2.485   2.400   6.132
  109OSM    C2F11186   2.580   2.196   6.040
  109OSM    H2F11187   2.499   2.142   6.094
  109OSM    H2G11188   2.683   2.157   6.053
  109OSM    C3F11189   2.538   2.197   5.887
  109OSM    H3F11190   2.435   2.235   5.870
  109OSM    H3G11191   2.541   2.089   5.860
  109OSM    C4F11192   2.642   2.265   5.804
  109OSM    H4F11193   2.740   2.213   5.801
  109OSM    H4G11194   2.655   2.364   5.854
  109OSM    C5F11195   2.589   2.293   5.659
  109OSM    H5F11196   2.493   2.349   5.662
  109OSM    H5G11197   2.558   2.198   5.611
  109OSM    C6F11198   2.696   2.356   5.564
  109OSM    H6F11199   2.790   2.298   5.554
  109OSM    H6G11200   2.724   2.450   5.616
  109OSM    C7F11201   2.643   2.383   5.425
  109OSM    H7F11202   2.568   2.464   5.436
  109OSM    H7G11203   2.593   2.295   5.378
  109OSM    C8F11204   2.748   2.432   5.323
  109OSM    H8F11205   2.806   2.514   5.371
  109OSM    H8G11206   2.684   2.475   5.243
  109OSM    C9F11207   2.844   2.324   5.264
  109OSM    H9F11208   2.901   2.268   5.340
  109OSM   C10F11209   2.859   2.300   5.133
  109OSM   H10F11210   2.926   2.219   5.101
  109OSM   C11F11211   2.798   2.379   5.014
  109OSM   H11F11212   2.846   2.475   4.986
  109OSM   H11G11213   2.695   2.403   5.048
  109OSM   C12F11214   2.802   2.294   4.884
  109OSM   H12F11215   2.759   2.193   4.905
  109OSM   H12G11216   2.907   2.287   4.850
  109OSM   C13F11217   2.725   2.345   4.768
  109OSM   H13F11218   2.781   2.436   4.738
  109OSM   H13G11219   2.618   2.364   4.791
  109OSM   C14F11220   2.705   2.249   4.651
  109OSM   H14F11221   2.647   2.160   4.682
  109OSM   H14G11222   2.807   2.215   4.621
  109OSM   C15F11223   2.629   2.313   4.535
  109OSM   H15F11224   2.706   2.383   4.495
  109OSM   H15G11225   2.543   2.361   4.585
  109OSM   C16F11226   2.574   2.217   4.425
  109OSM   H16F11227   2.494   2.153   4.467
  109OSM   H16G11228   2.653   2.155   4.377
  109OSM   C17F11229   2.517   2.295   4.302
  109OSM   H17F11230   2.415   2.329   4.330
  109OSM   H17G11231   2.496   2.227   4.216
  109OSM   C18F11232   2.599   2.414   4.257
  109OSM   H18F11233   2.695   2.379   4.213
  109OSM   H18G11234   2.631   2.483   4.338
  109OSM   H18H11235   2.547   2.480   4.184
  110OSM      N11236   6.131   0.866   6.332
  110OSM    C1511237   6.189   0.829   6.199
  110OSM   H15A11238   6.116   0.864   6.128
  110OSM   H15B11239   6.188   0.723   6.181
  110OSM   H15C11240   6.293   0.861   6.200
  110OSM    C1411241   6.165   0.755   6.419
  110OSM   H14A11242   6.272   0.747   6.422
  110OSM   H14B11243   6.121   0.664   6.379
  110OSM   H14C11244   6.125   0.774   6.517
  110OSM    C1311245   6.187   0.992   6.384
  110OSM   H13A11246   6.140   1.072   6.328
  110OSM   H13B11247   6.293   1.009   6.368
  110OSM   H13C11248   6.156   0.996   6.487
  110OSM    C1211249   5.974   0.864   6.330
  110OSM   H12A11250   5.943   0.899   6.427
  110OSM   H12B11251   5.934   0.764   6.317
  110OSM    C1111252   5.905   0.968   6.225
  110OSM   H11A11253   5.935   0.934   6.124
  110OSM   H11B11254   5.950   1.067   6.244
  110OSM      P11255   5.667   0.852   6.243
  110OSM    O1311256   5.681   0.807   6.380
  110OSM    O1411257   5.531   0.894   6.200
  110OSM    O1111258   5.731   0.750   6.131
  110OSM    O1211259   5.762   0.982   6.238
  110OSM    C1S11260   5.707   0.785   5.995
  110OSM    H1S11261   5.793   0.849   5.967
  110OSM    H1T11262   5.612   0.840   5.980
  110OSM     NF11263   5.671   0.707   5.773
  110OSM    HNF11264   5.577   0.723   5.744
  110OSM    C2S11265   5.703   0.657   5.899
  110OSM    H2S11266   5.799   0.602   5.900
  110OSM    C3S11267   5.597   0.552   5.950
  110OSM    H3S11268   5.499   0.605   5.954
  110OSM     O311269   5.634   0.506   6.082
  110OSM    HO311270   5.691   0.578   6.110
  110OSM    C4S11271   5.593   0.425   5.860
  110OSM    H4S11272   5.689   0.371   5.866
  110OSM    C5S11273   5.492   0.398   5.781
  110OSM    H5S11274   5.401   0.460   5.778
  110OSM    C6S11275   5.512   0.276   5.682
  110OSM    H6S11276   5.426   0.206   5.687
  110OSM    H6T11277   5.604   0.216   5.702
  110OSM    C7S11278   5.524   0.311   5.534
  110OSM    H7S11279   5.543   0.215   5.482
  110OSM    H7T11280   5.609   0.373   5.501
  110OSM    C8S11281   5.397   0.372   5.466
  110OSM    H8S11282   5.400   0.483   5.474
  110OSM    H8T11283   5.307   0.331   5.516
  110OSM    C9S11284   5.384   0.320   5.325
  110OSM    H9S11285   5.393   0.210   5.314
  110OSM    H9T11286   5.456   0.359   5.249
  110OSM   C10S11287   5.247   0.354   5.256
  110OSM   H10S11288   5.208   0.455   5.280
  110OSM   H10T11289   5.171   0.287   5.302
  110OSM   C11S11290   5.246   0.332   5.103
  110OSM   H11S11291   5.238   0.223   5.084
  110OSM   H11T11292   5.343   0.356   5.054
  110OSM   C12S11293   5.126   0.397   5.035
  110OSM   H12S11294   5.118   0.355   4.932
  110OSM   H12T11295   5.138   0.508   5.038
  110OSM   C13S11296   4.992   0.359   5.097
  110OSM   H13S11297   4.976   0.404   5.197
  110OSM   H13T11298   5.008   0.251   5.118
  110OSM   C14S11299   4.876   0.369   5.004
  110OSM   H14S11300   4.882   0.465   4.949
  110OSM   H14T11301   4.788   0.369   5.072
  110OSM   C15S11302   4.867   0.260   4.905
  110OSM   H15S11303   4.878   0.162   4.958
  110OSM   H15T11304   4.954   0.265   4.837
  110OSM   C16S11305   4.740   0.270   4.807
  110OSM   H16S11306   4.754   0.181   4.741
  110OSM   H16T11307   4.747   0.362   4.745
  110OSM   C17S11308   4.602   0.262   4.867
  110OSM   H17S11309   4.526   0.285   4.790
  110OSM   H17T11310   4.600   0.344   4.942
  110OSM   C18S11311   4.574   0.125   4.938
  110OSM   H18S11312   4.644   0.122   5.025
  110OSM   H18T11313   4.578   0.033   4.877
  110OSM   H18U11314   4.472   0.123   4.982
  110OSM    C1F11315   5.755   0.766   5.694
  110OSM     OF11316   5.870   0.777   5.729
  110OSM    C2F11317   5.712   0.829   5.570
  110OSM    H2F11318   5.796   0.853   5.502
  110OSM    H2G11319   5.660   0.925   5.588
  110OSM    C3F11320   5.612   0.738   5.504
  110OSM    H3F11321   5.509   0.745   5.545
  110OSM    H3G11322   5.636   0.630   5.517
  110OSM    C4F11323   5.599   0.771   5.353
  110OSM    H4F11324   5.692   0.761   5.293
  110OSM    H4G11325   5.582   0.881   5.364
  110OSM    C5F11326   5.465   0.716   5.297
  110OSM    H5F11327   5.389   0.725   5.378
  110OSM    H5G11328   5.470   0.606   5.281
  110OSM    C6F11329   5.410   0.806   5.186
  110OSM    H6F11330   5.484   0.825   5.104
  110OSM    H6G11331   5.374   0.901   5.229
  110OSM    C7F11332   5.294   0.742   5.111
  110OSM    H7F11333   5.219   0.704   5.184
  110OSM    H7G11334   5.337   0.654   5.059
  110OSM    C8F11335   5.229   0.837   5.006
  110OSM    H8F11336   5.314   0.884   4.953
  110OSM    H8G11337   5.166   0.915   5.054
  110OSM    C9F11338   5.147   0.775   4.900
  110OSM    H9F11339   5.040   0.759   4.918
  110OSM   C10F11340   5.196   0.718   4.791
  110OSM   H10F11341   5.132   0.676   4.712
  110OSM   C11F11342   5.342   0.706   4.749
  110OSM   H11F11343   5.404   0.775   4.811
  110OSM   H11G11344   5.354   0.750   4.647
  110OSM   C12F11345   5.386   0.557   4.746
  110OSM   H12F11346   5.374   0.500   4.840
  110OSM   H12G11347   5.495   0.566   4.727
  110OSM   C13F11348   5.332   0.475   4.623
  110OSM   H13F11349   5.356   0.539   4.536
  110OSM   H13G11350   5.223   0.463   4.640
  110OSM   C14F11351   5.393   0.341   4.600
  110OSM   H14F11352   5.387   0.289   4.699
  110OSM   H14G11353   5.502   0.353   4.584
  110OSM   C15F11354   5.338   0.249   4.489
  110OSM   H15F11355   5.355   0.307   4.395
  110OSM   H15G11356   5.228   0.238   4.491
  110OSM   C16F11357   5.410   0.114   4.482
  110OSM   H16F11358   5.350   0.067   4.402
  110OSM   H16G11359   5.386   0.050   4.570
  110OSM   C17F11360   5.560   0.113   4.443
  110OSM   H17F11361   5.624   0.180   4.506
  110OSM   H17G11362   5.583   0.161   4.346
  110OSM   C18F11363   5.615   6.883   4.423
  110OSM   H18F11364   5.724   6.883   4.401
  110OSM   H18G11365   5.559   6.817   4.353
  110OSM   H18H11366   5.595   6.820   4.512
  111OSM      N11367   0.987   3.589   6.497
  111OSM    C1511368   1.065   3.672   6.410
  111OSM   H15A11369   1.167   3.685   6.440
  111OSM   H15B11370   1.018   3.770   6.410
  111OSM   H15C11371   1.063   3.627   6.311
  111OSM    C1411372   1.048   3.451   6.507
  111OSM   H14A11373   1.149   3.455   6.544
  111OSM   H14B11374   1.046   3.404   6.410
  111OSM   H14C11375   1.004   3.383   6.579
  111OSM    C1311376   0.994   3.654   6.633
  111OSM   H13A11377   0.963   3.757   6.623
  111OSM   H13B11378   1.092   3.654   6.680
  111OSM   H13C11379   0.937   3.592   6.701
  111OSM    C1211380   0.844   3.586   6.447
  111OSM   H12A11381   0.790   3.532   6.524
  111OSM   H12B11382   0.839   3.526   6.358
  111OSM    C1111383   0.767   3.716   6.420
  111OSM   H11A11384   0.668   3.669   6.401
  111OSM   H11B11385   0.812   3.760   6.329
  111OSM      P11386   0.670   3.928   6.520
  111OSM    O1311387   0.529   3.882   6.525
  111OSM    O1411388   0.704   4.018   6.634
  111OSM    O1111389   0.701   3.993   6.374
  111OSM    O1211390   0.773   3.805   6.531
  111OSM    C1S11391   0.817   4.075   6.353
  111OSM    H1S11392   0.913   4.029   6.385
  111OSM    H1T11393   0.799   4.166   6.414
  111OSM     NF11394   0.957   4.189   6.185
  111OSM    HNF11395   0.957   4.288   6.197
  111OSM    C2S11396   0.825   4.122   6.207
  111OSM    H2S11397   0.818   4.034   6.139
  111OSM    C3S11398   0.696   4.213   6.189
  111OSM    H3S11399   0.703   4.300   6.257
  111OSM     O311400   0.568   4.156   6.246
  111OSM    HO311401   0.596   4.077   6.294
  111OSM    C4S11402   0.672   4.254   6.051
  111OSM    H4S11403   0.619   4.182   5.987
  111OSM    C5S11404   0.707   4.377   6.004
  111OSM    H5S11405   0.746   4.447   6.079
  111OSM    C6S11406   0.697   4.426   5.858
  111OSM    H6S11407   0.799   4.450   5.823
  111OSM    H6T11408   0.633   4.516   5.851
  111OSM    C7S11409   0.623   4.331   5.761
  111OSM    H7S11410   0.518   4.310   5.793
  111OSM    H7T11411   0.671   4.231   5.752
  111OSM    C8S11412   0.614   4.384   5.615
  111OSM    H8S11413   0.635   4.493   5.612
  111OSM    H8T11414   0.514   4.366   5.570
  111OSM    C9S11415   0.732   4.329   5.529
  111OSM    H9S11416   0.711   4.220   5.534
  111OSM    H9T11417   0.825   4.356   5.583
  111OSM   C10S11418   0.720   4.381   5.386
  111OSM   H10S11419   0.814   4.365   5.329
  111OSM   H10T11420   0.706   4.491   5.394
  111OSM   C11S11421   0.596   4.331   5.316
  111OSM   H11S11422   0.508   4.323   5.383
  111OSM   H11T11423   0.609   4.227   5.280
  111OSM   C12S11424   0.557   4.419   5.191
  111OSM   H12S11425   0.566   4.529   5.205
  111OSM   H12T11426   0.451   4.399   5.166
  111OSM   C13S11427   0.634   4.372   5.061
  111OSM   H13S11428   0.637   4.262   5.075
  111OSM   H13T11429   0.739   4.403   5.077
  111OSM   C14S11430   0.568   4.425   4.935
  111OSM   H14S11431   0.611   4.527   4.924
  111OSM   H14T11432   0.458   4.420   4.954
  111OSM   C15S11433   0.597   4.348   4.808
  111OSM   H15S11434   0.541   4.378   4.716
  111OSM   H15T11435   0.576   4.240   4.822
  111OSM   C16S11436   0.740   4.355   4.761
  111OSM   H16S11437   0.775   4.266   4.704
  111OSM   H16T11438   0.802   4.358   4.852
  111OSM   C17S11439   0.774   4.484   4.675
  111OSM   H17S11440   0.876   4.465   4.635
  111OSM   H17T11441   0.777   4.572   4.742
  111OSM   C18S11442   0.677   4.515   4.558
  111OSM   H18S11443   0.649   4.420   4.509
  111OSM   H18T11444   0.736   4.570   4.482
  111OSM   H18U11445   0.580   4.562   4.586
  111OSM    C1F11446   1.065   4.115   6.169
  111OSM     OF11447   1.058   3.995   6.174
  111OSM    C2F11448   1.192   4.191   6.156
  111OSM    H2F11449   1.268   4.142   6.221
  111OSM    H2G11450   1.166   4.295   6.184
  111OSM    C3F11451   1.236   4.193   6.006
  111OSM    H3F11452   1.236   4.088   5.970
  111OSM    H3G11453   1.341   4.231   6.003
  111OSM    C4F11454   1.157   4.287   5.905
  111OSM    H4F11455   1.171   4.394   5.931
  111OSM    H4G11456   1.048   4.268   5.910
  111OSM    C5F11457   1.210   4.265   5.758
  111OSM    H5F11458   1.208   4.157   5.735
  111OSM    H5G11459   1.318   4.289   5.751
  111OSM    C6F11460   1.130   4.342   5.652
  111OSM    H6F11461   1.022   4.320   5.668
  111OSM    H6G11462   1.144   4.286   5.557
  111OSM    C7F11463   1.155   4.488   5.650
  111OSM    H7F11464   1.265   4.492   5.667
  111OSM    H7G11465   1.111   4.545   5.734
  111OSM    C8F11466   1.121   4.553   5.509
  111OSM    H8F11467   1.134   4.472   5.433
  111OSM    H8G11468   1.200   4.629   5.495
  111OSM    C9F11469   0.981   4.606   5.506
  111OSM    H9F11470   0.915   4.568   5.585
  111OSM   C10F11471   0.938   4.705   5.436
  111OSM   H10F11472   0.830   4.729   5.432
  111OSM   C11F11473   1.026   4.791   5.348
  111OSM   H11F11474   1.112   4.824   5.410
  111OSM   H11G11475   0.982   4.888   5.317
  111OSM   C12F11476   1.070   4.711   5.226
  111OSM   H12F11477   1.125   4.622   5.266
  111OSM   H12G11478   1.145   4.775   5.175
  111OSM   C13F11479   0.955   4.681   5.133
  111OSM   H13F11480   0.924   4.772   5.078
  111OSM   H13G11481   0.870   4.641   5.193
  111OSM   C14F11482   0.978   4.562   5.044
  111OSM   H14F11483   0.886   4.536   4.987
  111OSM   H14G11484   0.997   4.472   5.106
  111OSM   C15F11485   1.094   4.587   4.944
  111OSM   H15F11486   1.084   4.486   4.900
  111OSM   H15G11487   1.192   4.594   4.996
  111OSM   C16F11488   1.062   4.697   4.830
  111OSM   H16F11489   1.084   4.799   4.867
  111OSM   H16G11490   0.953   4.687   4.810
  111OSM   C17F11491   1.140   4.676   4.702
  111OSM   H17F11492   1.151   4.567   4.682
  111OSM   H17G11493   1.250   4.679   4.719
  111OSM   C18F11494   1.089   4.748   4.578
  111OSM   H18F11495   1.137   4.710   4.484
  111OSM   H18G11496   1.095   4.858   4.589
  111OSM   H18H11497   0.980   4.733   4.567
  112OSM      N11498   3.445   1.643   6.981
  112OSM    C1511499   3.551   1.633   6.879
  112OSM   H15A11500   3.547   1.544   6.818
  112OSM   H15B11501   3.653   1.629   6.912
  112OSM   H15C11502   3.545   1.711   6.804
  112OSM    C1411503   3.310   1.597   6.926
  112OSM   H14A11504   3.287   1.662   6.843
  112OSM   H14B11505   3.236   1.617   7.002
  112OSM   H14C11506   3.305   1.496   6.888
  112OSM    C1311507   3.484   1.557   7.096
  112OSM   H13A11508   3.413   1.564   7.177
  112OSM   H13B11509   3.584   1.584   7.128
  112OSM   H13C11510   3.494   1.454   7.064
  112OSM    C1211511   3.434   1.790   7.036
  112OSM   H12A11512   3.527   1.827   7.076
  112OSM   H12B11513   3.358   1.786   7.112
  112OSM    C1111514   3.393   1.904   6.945
  112OSM   H11A11515   3.368   1.996   7.003
  112OSM   H11B11516   3.307   1.876   6.881
  112OSM      P11517   3.617   2.039   6.904
  112OSM    O1311518   3.572   2.178   6.910
  112OSM    O1411519   3.677   1.968   7.023
  112OSM    O1111520   3.713   2.020   6.779
  112OSM    O1211521   3.494   1.945   6.850
  112OSM    C1S11522   3.768   1.909   6.720
  112OSM    H1S11523   3.709   1.817   6.741
  112OSM    H1T11524   3.870   1.902   6.763
  112OSM     NF11525   3.796   1.767   6.516
  112OSM    HNF11526   3.893   1.743   6.507
  112OSM    C2S11527   3.770   1.907   6.560
  112OSM    H2S11528   3.668   1.936   6.526
  112OSM    C3S11529   3.879   2.013   6.518
  112OSM    H3S11530   3.980   1.987   6.556
  112OSM     O311531   3.858   2.140   6.580
  112OSM    HO311532   3.794   2.116   6.648
  112OSM    C4S11533   3.889   2.025   6.367
  112OSM    H4S11534   3.989   1.994   6.334
  112OSM    C5S11535   3.799   2.060   6.278
  112OSM    H5S11536   3.708   2.117   6.304
  112OSM    C6S11537   3.829   2.066   6.131
  112OSM    H6S11538   3.780   1.981   6.079
  112OSM    H6T11539   3.934   2.038   6.106
  112OSM    C7S11540   3.807   2.192   6.054
  112OSM    H7S11541   3.856   2.283   6.096
  112OSM    H7T11542   3.701   2.222   6.063
  112OSM    C8S11543   3.851   2.172   5.906
  112OSM    H8S11544   3.786   2.097   5.858
  112OSM    H8T11545   3.955   2.132   5.908
  112OSM    C9S11546   3.854   2.296   5.807
  112OSM    H9S11547   3.931   2.365   5.848
  112OSM    H9T11548   3.756   2.348   5.811
  112OSM   C10S11549   3.890   2.256   5.658
  112OSM   H10S11550   3.802   2.205   5.614
  112OSM   H10T11551   3.973   2.181   5.659
  112OSM   C11S11552   3.920   2.381   5.569
  112OSM   H11S11553   4.003   2.431   5.623
  112OSM   H11T11554   3.836   2.453   5.568
  112OSM   C12S11555   3.958   2.331   5.430
  112OSM   H12S11556   3.905   2.242   5.391
  112OSM   H12T11557   4.060   2.289   5.429
  112OSM   C13S11558   3.943   2.447   5.328
  112OSM   H13S11559   4.012   2.527   5.365
  112OSM   H13T11560   3.842   2.493   5.336
  112OSM   C14S11561   3.974   2.405   5.183
  112OSM   H14S11562   3.917   2.317   5.145
  112OSM   H14T11563   4.081   2.376   5.176
  112OSM   C15S11564   3.948   2.530   5.101
  112OSM   H15S11565   4.001   2.619   5.140
  112OSM   H15T11566   3.839   2.549   5.112
  112OSM   C16S11567   3.985   2.500   4.958
  112OSM   H16S11568   3.940   2.404   4.925
  112OSM   H16T11569   4.096   2.488   4.955
  112OSM   C17S11570   3.953   2.611   4.871
  112OSM   H17S11571   3.850   2.640   4.899
  112OSM   H17T11572   3.945   2.581   4.764
  112OSM   C18S11573   4.035   2.740   4.882
  112OSM   H18S11574   4.042   2.776   4.987
  112OSM   H18T11575   3.985   2.820   4.823
  112OSM   H18U11576   4.132   2.718   4.832
  112OSM    C1F11577   3.707   1.665   6.514
  112OSM     OF11578   3.591   1.688   6.544
  112OSM    C2F11579   3.740   1.533   6.459
  112OSM    H2F11580   3.725   1.452   6.533
  112OSM    H2G11581   3.849   1.539   6.437
  112OSM    C3F11582   3.656   1.498   6.335
  112OSM    H3F11583   3.683   1.562   6.248
  112OSM    H3G11584   3.547   1.514   6.352
  112OSM    C4F11585   3.676   1.351   6.297
  112OSM    H4F11586   3.612   1.289   6.362
  112OSM    H4G11587   3.783   1.340   6.326
  112OSM    C5F11588   3.649   1.330   6.144
  112OSM    H5F11589   3.550   1.377   6.126
  112OSM    H5G11590   3.641   1.222   6.122
  112OSM    C6F11591   3.751   1.403   6.053
  112OSM    H6F11592   3.856   1.379   6.081
  112OSM    H6G11593   3.725   1.511   6.042
  112OSM    C7F11594   3.730   1.350   5.905
  112OSM    H7F11595   3.624   1.345   5.872
  112OSM    H7G11596   3.769   1.247   5.920
  112OSM    C8F11597   3.820   1.425   5.807
  112OSM    H8F11598   3.922   1.424   5.852
  112OSM    H8G11599   3.788   1.532   5.810
  112OSM    C9F11600   3.811   1.375   5.659
  112OSM    H9F11601   3.706   1.357   5.630
  112OSM   C10F11602   3.904   1.368   5.566
  112OSM   H10F11603   3.872   1.338   5.465
  112OSM   C11F11604   4.050   1.395   5.589
  112OSM   H11F11605   4.088   1.356   5.685
  112OSM   H11G11606   4.069   1.503   5.600
  112OSM   C12F11607   4.137   1.339   5.475
  112OSM   H12F11608   4.128   1.228   5.475
  112OSM   H12G11609   4.246   1.345   5.496
  112OSM   C13F11610   4.112   1.388   5.332
  112OSM   H13F11611   4.180   1.474   5.319
  112OSM   H13G11612   4.010   1.430   5.325
  112OSM   C14F11613   4.144   1.290   5.224
  112OSM   H14F11614   4.079   1.200   5.219
  112OSM   H14G11615   4.248   1.252   5.238
  112OSM   C15F11616   4.173   1.358   5.085
  112OSM   H15F11617   4.207   1.284   5.009
  112OSM   H15G11618   4.256   1.429   5.105
  112OSM   C16F11619   4.055   1.431   5.017
  112OSM   H16F11620   4.105   1.466   4.924
  112OSM   H16G11621   4.032   1.512   5.090
  112OSM   C17F11622   3.952   1.331   4.984
  112OSM   H17F11623   3.897   1.293   5.072
  112OSM   H17G11624   4.011   1.252   4.933
  112OSM   C18F11625   3.845   1.369   4.876
  112OSM   H18F11626   3.776   1.451   4.905
  112OSM   H18G11627   3.786   1.275   4.869
  112OSM   H18H11628   3.885   1.384   4.773
  113OSM      N11629   0.389   1.572   6.744
  113OSM    C1511630   0.266   1.636   6.683
  113OSM   H15A11631   0.168   1.611   6.720
  113OSM   H15B11632   0.255   1.612   6.578
  113OSM   H15C11633   0.269   1.744   6.693
  113OSM    C1411634   0.398   1.617   6.882
  113OSM   H14A11635   0.490   1.587   6.931
  113OSM   H14B11636   0.312   1.583   6.937
  113OSM   H14C11637   0.414   1.724   6.888
  113OSM    C1311638   0.380   1.426   6.741
  113OSM   H13A11639   0.400   1.391   6.640
  113OSM   H13B11640   0.294   1.379   6.786
  113OSM   H13C11641   0.462   1.387   6.800
  113OSM    C1211642   0.507   1.629   6.669
  113OSM   H12A11643   0.598   1.605   6.722
  113OSM   H12B11644   0.505   1.736   6.676
  113OSM    C1111645   0.527   1.609   6.523
  113OSM   H11A11646   0.601   1.673   6.470
  113OSM   H11B11647   0.432   1.633   6.471
  113OSM      P11648   0.704   1.425   6.480
  113OSM    O1311649   0.789   1.497   6.583
  113OSM    O1411650   0.710   1.276   6.473
  113OSM    O1111651   0.737   1.481   6.335
  113OSM    O1211652   0.556   1.466   6.501
  113OSM    C1S11653   0.653   1.468   6.226
  113OSM    H1S11654   0.561   1.409   6.242
  113OSM    H1T11655   0.702   1.411   6.144
  113OSM     NF11656   0.514   1.581   6.061
  113OSM    HNF11657   0.547   1.565   5.968
  113OSM    C2S11658   0.620   1.604   6.160
  113OSM    H2S11659   0.585   1.668   6.243
  113OSM    C3S11660   0.745   1.675   6.108
  113OSM    H3S11661   0.793   1.623   6.021
  113OSM     O311662   0.852   1.671   6.201
  113OSM    HO311663   0.817   1.602   6.258
  113OSM    C4S11664   0.715   1.814   6.057
  113OSM    H4S11665   0.686   1.822   5.951
  113OSM    C5S11666   0.719   1.928   6.124
  113OSM    H5S11667   0.760   1.927   6.226
  113OSM    C6S11668   0.676   2.057   6.065
  113OSM    H6S11669   0.612   2.115   6.135
  113OSM    H6T11670   0.621   2.052   5.968
  113OSM    C7S11671   0.790   2.153   6.026
  113OSM    H7S11672   0.853   2.167   6.116
  113OSM    H7T11673   0.742   2.252   6.019
  113OSM    C8S11674   0.869   2.131   5.890
  113OSM    H8S11675   0.879   2.023   5.865
  113OSM    H8T11676   0.971   2.165   5.919
  113OSM    C9S11677   0.826   2.215   5.765
  113OSM    H9S11678   0.904   2.206   5.687
  113OSM    H9T11679   0.818   2.325   5.784
  113OSM   C10S11680   0.699   2.163   5.702
  113OSM   H10S11681   0.609   2.184   5.764
  113OSM   H10T11682   0.702   2.052   5.701
  113OSM   C11S11683   0.665   2.219   5.565
  113OSM   H11S11684   0.567   2.172   5.542
  113OSM   H11T11685   0.733   2.180   5.487
  113OSM   C12S11686   0.655   2.370   5.548
  113OSM   H12S11687   0.755   2.415   5.567
  113OSM   H12T11688   0.591   2.410   5.629
  113OSM   C13S11689   0.620   2.420   5.402
  113OSM   H13S11690   0.643   2.528   5.408
  113OSM   H13T11691   0.510   2.408   5.389
  113OSM   C14S11692   0.706   2.356   5.296
  113OSM   H14S11693   0.693   2.246   5.298
  113OSM   H14T11694   0.811   2.372   5.332
  113OSM   C15S11695   0.677   2.416   5.156
  113OSM   H15S11696   0.770   2.395   5.098
  113OSM   H15T11697   0.672   2.527   5.154
  113OSM   C16S11698   0.549   2.351   5.093
  113OSM   H16S11699   0.460   2.377   5.152
  113OSM   H16T11700   0.569   2.242   5.102
  113OSM   C17S11701   0.529   2.377   4.945
  113OSM   H17S11702   0.436   2.323   4.919
  113OSM   H17T11703   0.617   2.337   4.891
  113OSM   C18S11704   0.518   2.526   4.909
  113OSM   H18S11705   0.614   2.578   4.926
  113OSM   H18T11706   0.431   2.567   4.965
  113OSM   H18U11707   0.491   2.549   4.803
  113OSM    C1F11708   0.383   1.542   6.087
  113OSM     OF11709   0.332   1.566   6.198
  113OSM    C2F11710   0.306   1.474   5.983
  113OSM    H2F11711   0.361   1.383   5.949
  113OSM    H2G11712   0.294   1.544   5.898
  113OSM    C3F11713   0.164   1.423   6.022
  113OSM    H3F11714   0.121   1.518   6.059
  113OSM    H3G11715   0.170   1.353   6.108
  113OSM    C4F11716   0.084   1.359   5.914
  113OSM    H4F11717   0.054   1.439   5.843
  113OSM    H4G11718   6.899   1.316   5.954
  113OSM    C5F11719   0.157   1.245   5.835
  113OSM    H5F11720   0.082   1.167   5.811
  113OSM    H5G11721   0.222   1.192   5.908
  113OSM    C6F11722   0.241   1.298   5.718
  113OSM    H6F11723   0.301   1.212   5.682
  113OSM    H6G11724   0.307   1.383   5.749
  113OSM    C7F11725   0.152   1.339   5.595
  113OSM    H7F11726   0.106   1.434   5.631
  113OSM    H7G11727   0.073   1.268   5.562
  113OSM    C8F11728   0.248   1.375   5.481
  113OSM    H8F11729   0.308   1.284   5.459
  113OSM    H8G11730   0.328   1.442   5.519
  113OSM    C9F11731   0.186   1.441   5.354
  113OSM    H9F11732   0.112   1.519   5.373
  113OSM   C10F11733   0.221   1.395   5.230
  113OSM   H10F11734   0.176   1.438   5.139
  113OSM   C11F11735   0.314   1.281   5.192
  113OSM   H11F11736   0.286   1.237   5.094
  113OSM   H11G11737   0.313   1.197   5.264
  113OSM   C12F11738   0.460   1.326   5.194
  113OSM   H12F11739   0.519   1.249   5.140
  113OSM   H12G11740   0.494   1.339   5.299
  113OSM   C13F11741   0.483   1.463   5.117
  113OSM   H13F11742   0.591   1.488   5.109
  113OSM   H13G11743   0.447   1.545   5.183
  113OSM   C14F11744   0.428   1.472   4.980
  113OSM   H14F11745   0.480   1.549   4.920
  113OSM   H14G11746   0.319   1.494   4.975
  113OSM   C15F11747   0.457   1.344   4.897
  113OSM   H15F11748   0.434   1.249   4.949
  113OSM   H15G11749   0.568   1.344   4.888
  113OSM   C16F11750   0.378   1.345   4.773
  113OSM   H16F11751   0.392   1.437   4.712
  113OSM   H16G11752   0.276   1.342   4.817
  113OSM   C17F11753   0.406   1.225   4.675
  113OSM   H17F11754   0.333   1.233   4.592
  113OSM   H17G11755   0.388   1.135   4.738
  113OSM   C18F11756   0.554   1.225   4.633
  113OSM   H18F11757   0.619   1.212   4.721
  113OSM   H18G11758   0.574   1.313   4.567
  113OSM   H18H11759   0.580   1.144   4.562
  114OSM      N11760   6.568   0.235   6.888
  114OSM    C1511761   6.656   0.117   6.915
  114OSM   H15A11762   6.624   0.026   6.867
  114OSM   H15B11763   6.645   0.091   7.020
  114OSM   H15C11764   6.761   0.134   6.893
  114OSM    C1411765   6.425   0.182   6.858
  114OSM   H14A11766   6.363   0.260   6.817
  114OSM   H14B11767   6.364   0.139   6.936
  114OSM   H14C11768   6.437   0.102   6.786
  114OSM    C1311769   6.571   0.309   7.019
  114OSM   H13A11770   6.668   0.341   7.054
  114OSM   H13B11771   6.526   0.246   7.094
  114OSM   H13C11772   6.512   0.399   7.008
  114OSM    C1211773   6.629   0.327   6.784
  114OSM   H12A11774   6.730   0.349   6.814
  114OSM   H12B11775   6.575   0.420   6.788
  114OSM    C1111776   6.626   0.275   6.640
  114OSM   H11A11777   6.672   0.174   6.630
  114OSM   H11B11778   6.700   0.321   6.571
  114OSM      P11779   6.427   0.430   6.555
  114OSM    O1311780   6.282   0.422   6.540
  114OSM    O1411781   6.467   0.528   6.656
  114OSM    O1111782   6.478   0.479   6.423
  114OSM    O1211783   6.493   0.285   6.593
  114OSM    C1S11784   6.567   0.403   6.341
  114OSM    H1S11785   6.573   0.295   6.365
  114OSM    H1T11786   6.664   0.451   6.367
  114OSM     NF11787   6.599   0.320   6.111
  114OSM    HNF11788   6.682   0.335   6.058
  114OSM    C2S11789   6.528   0.415   6.187
  114OSM    H2S11790   6.420   0.392   6.184
  114OSM    C3S11791   6.557   0.558   6.140
  114OSM    H3S11792   6.667   0.572   6.146
  114OSM     O311793   6.502   0.664   6.214
  114OSM    HO311794   6.467   0.628   6.296
  114OSM    C4S11795   6.525   0.579   5.993
  114OSM    H4S11796   6.623   0.574   5.942
  114OSM    C5S11797   6.407   0.627   5.937
  114OSM    H5S11798   6.332   0.663   6.009
  114OSM    C6S11799   6.380   0.649   5.789
  114OSM    H6S11800   6.335   0.749   5.774
  114OSM    H6T11801   6.306   0.572   5.758
  114OSM    C7S11802   6.510   0.650   5.701
  114OSM    H7S11803   6.557   0.550   5.694
  114OSM    H7T11804   6.583   0.726   5.736
  114OSM    C8S11805   6.472   0.670   5.555
  114OSM    H8S11806   6.411   0.760   5.535
  114OSM    H8T11807   6.402   0.584   5.548
  114OSM    C9S11808   6.591   0.668   5.449
  114OSM    H9S11809   6.652   0.576   5.457
  114OSM    H9T11810   6.649   0.755   5.487
  114OSM   C10S11811   6.546   0.697   5.309
  114OSM   H10S11812   6.500   0.798   5.296
  114OSM   H10T11813   6.470   0.622   5.279
  114OSM   C11S11814   6.663   0.671   5.207
  114OSM   H11S11815   6.705   0.570   5.229
  114OSM   H11T11816   6.745   0.741   5.233
  114OSM   C12S11817   6.628   0.689   5.065
  114OSM   H12S11818   6.591   0.794   5.058
  114OSM   H12T11819   6.546   0.618   5.042
  114OSM   C13S11820   6.758   0.694   4.975
  114OSM   H13S11821   6.838   0.635   5.026
  114OSM   H13T11822   6.801   0.796   4.983
  114OSM   C14S11823   6.728   0.656   4.826
  114OSM   H14S11824   6.813   0.698   4.768
  114OSM   H14T11825   6.642   0.714   4.788
  114OSM   C15S11826   6.709   0.507   4.796
  114OSM   H15S11827   6.661   0.455   4.882
  114OSM   H15T11828   6.814   0.473   4.801
  114OSM   C16S11829   6.650   0.469   4.665
  114OSM   H16S11830   6.706   0.390   4.609
  114OSM   H16T11831   6.644   0.566   4.611
  114OSM   C17S11832   6.511   0.417   4.673
  114OSM   H17S11833   6.435   0.476   4.728
  114OSM   H17T11834   6.515   0.319   4.726
  114OSM   C18S11835   6.455   0.395   4.528
  114OSM   H18S11836   6.352   0.355   4.543
  114OSM   H18T11837   6.515   0.314   4.482
  114OSM   H18U11838   6.471   0.485   4.464
  114OSM    C1F11839   6.555   0.197   6.115
  114OSM     OF11840   6.465   0.163   6.196
  114OSM    C2F11841   6.638   0.092   6.043
  114OSM    H2F11842   6.633   0.001   6.107
  114OSM    H2G11843   6.738   0.142   6.040
  114OSM    C3F11844   6.585   0.056   5.900
  114OSM    H3F11845   6.498   6.897   5.912
  114OSM    H3G11846   6.668   6.905   5.857
  114OSM    C4F11847   6.578   0.175   5.799
  114OSM    H4F11848   6.676   0.226   5.806
  114OSM    H4G11849   6.505   0.252   5.832
  114OSM    C5F11850   6.531   0.125   5.657
  114OSM    H5F11851   6.451   0.049   5.663
  114OSM    H5G11852   6.620   0.068   5.621
  114OSM    C6F11853   6.482   0.228   5.563
  114OSM    H6F11854   6.549   0.315   5.577
  114OSM    H6G11855   6.381   0.263   5.592
  114OSM    C7F11856   6.494   0.186   5.411
  114OSM    H7F11857   6.427   0.103   5.383
  114OSM    H7G11858   6.595   0.141   5.401
  114OSM    C8F11859   6.478   0.304   5.311
  114OSM    H8F11860   6.531   0.393   5.351
  114OSM    H8G11861   6.371   0.335   5.306
  114OSM    C9F11862   6.530   0.261   5.171
  114OSM    H9F11863   6.626   0.207   5.171
  114OSM   C10F11864   6.466   0.262   5.058
  114OSM   H10F11865   6.511   0.210   4.972
  114OSM   C11F11866   6.335   0.323   5.016
  114OSM   H11F11867   6.339   0.361   4.912
  114OSM   H11G11868   6.306   0.401   5.088
  114OSM   C12F11869   6.241   0.203   5.020
  114OSM   H12F11870   6.257   0.146   5.114
  114OSM   H12G11871   6.251   0.140   4.929
  114OSM   C13F11872   6.097   0.258   5.015
  114OSM   H13F11873   6.034   0.206   4.940
  114OSM   H13G11874   6.102   0.366   4.991
  114OSM   C14F11875   6.027   0.256   5.150
  114OSM   H14F11876   5.939   0.323   5.161
  114OSM   H14G11877   6.105   0.287   5.223
  114OSM   C15F11878   5.981   0.114   5.181
  114OSM   H15F11879   6.072   0.052   5.171
  114OSM   H15G11880   5.909   0.080   5.104
  114OSM   C16F11881   5.936   0.102   5.331
  114OSM   H16F11882   6.010   0.145   5.402
  114OSM   H16G11883   5.942   6.903   5.352
  114OSM   C17F11884   5.790   0.144   5.354
  114OSM   H17F11885   5.769   0.252   5.340
  114OSM   H17G11886   5.772   0.126   5.462
  114OSM   C18F11887   5.686   0.064   5.278
  114OSM   H18F11888   5.710   0.053   5.170
  114OSM   H18G11889   5.587   0.113   5.286
  114OSM   H18H11890   5.679   6.872   5.324
  115OSM      N11891   6.277   3.026   6.774
  115OSM    C1511892   6.246   2.875   6.771
  115OSM   H15A11893   6.340   2.824   6.761
  115OSM   H15B11894   6.174   2.848   6.695
  115OSM   H15C11895   6.213   2.852   6.872
  115OSM    C1411896   6.153   3.098   6.817
  115OSM   H14A11897   6.173   3.204   6.823
  115OSM   H14B11898   6.125   3.053   6.911
  115OSM   H14C11899   6.063   3.093   6.758
  115OSM    C1311900   6.372   3.052   6.883
  115OSM   H13A11901   6.328   3.036   6.981
  115OSM   H13B11902   6.418   3.150   6.876
  115OSM   H13C11903   6.460   2.992   6.869
  115OSM    C1211904   6.310   3.071   6.633
  115OSM   H12A11905   6.226   3.055   6.568
  115OSM   H12B11906   6.385   3.005   6.592
  115OSM    C1111907   6.356   3.217   6.611
  115OSM   H11A11908   6.282   3.286   6.656
  115OSM   H11B11909   6.352   3.235   6.501
  115OSM      P11910   6.554   3.385   6.664
  115OSM    O1311911   6.460   3.490   6.717
  115OSM    O1411912   6.692   3.385   6.725
  115OSM    O1111913   6.579   3.415   6.511
  115OSM    O1211914   6.490   3.244   6.656
  115OSM    C1S11915   6.637   3.309   6.427
  115OSM    H1S11916   6.582   3.215   6.446
  115OSM    H1T11917   6.746   3.303   6.446
  115OSM     NF11918   6.652   3.252   6.177
  115OSM    HNF11919   6.731   3.268   6.118
  115OSM    C2S11920   6.628   3.358   6.273
  115OSM    H2S11921   6.525   3.393   6.253
  115OSM    C3S11922   6.719   3.489   6.261
  115OSM    H3S11923   6.822   3.446   6.270
  115OSM     O311924   6.713   3.589   6.366
  115OSM    HO311925   6.664   3.536   6.430
  115OSM    C4S11926   6.718   3.545   6.126
  115OSM    H4S11927   6.809   3.523   6.068
  115OSM    C5S11928   6.619   3.612   6.068
  115OSM    H5S11929   6.529   3.627   6.128
  115OSM    C6S11930   6.601   3.668   5.926
  115OSM    H6S11931   6.601   3.779   5.927
  115OSM    H6T11932   6.504   3.635   5.882
  115OSM    C7S11933   6.721   3.648   5.829
  115OSM    H7S11934   6.742   3.540   5.817
  115OSM    H7T11935   6.810   3.707   5.861
  115OSM    C8S11936   6.685   3.700   5.682
  115OSM    H8S11937   6.782   3.676   5.633
  115OSM    H8T11938   6.658   3.808   5.690
  115OSM    C9S11939   6.586   3.607   5.612
  115OSM    H9S11940   6.486   3.642   5.646
  115OSM    H9T11941   6.594   3.501   5.641
  115OSM   C10S11942   6.591   3.612   5.457
  115OSM   H10S11943   6.581   3.721   5.439
  115OSM   H10T11944   6.507   3.549   5.419
  115OSM   C11S11945   6.721   3.553   5.403
  115OSM   H11S11946   6.712   3.443   5.414
  115OSM   H11T11947   6.805   3.592   5.464
  115OSM   C12S11948   6.735   3.597   5.259
  115OSM   H12S11949   6.823   3.549   5.211
  115OSM   H12T11950   6.744   3.707   5.245
  115OSM   C13S11951   6.611   3.553   5.181
  115OSM   H13S11952   6.526   3.622   5.197
  115OSM   H13T11953   6.587   3.446   5.202
  115OSM   C14S11954   6.632   3.549   5.027
  115OSM   H14S11955   6.552   3.492   4.975
  115OSM   H14T11956   6.724   3.489   5.012
  115OSM   C15S11957   6.641   3.693   4.965
  115OSM   H15S11958   6.725   3.733   5.026
  115OSM   H15T11959   6.547   3.746   4.991
  115OSM   C16S11960   6.661   3.680   4.817
  115OSM   H16S11961   6.643   3.783   4.778
  115OSM   H16T11962   6.583   3.614   4.774
  115OSM   C17S11963   6.798   3.635   4.776
  115OSM   H17S11964   6.823   3.535   4.815
  115OSM   H17T11965   6.872   3.704   4.822
  115OSM   C18S11966   6.819   3.641   4.629
  115OSM   H18S11967   6.806   3.744   4.592
  115OSM   H18T11968   6.742   3.588   4.569
  115OSM   H18U11969   0.009   3.598   4.605
  115OSM    C1F11970   6.589   3.140   6.167
  115OSM     OF11971   6.483   3.106   6.222
  115OSM    C2F11972   6.665   3.042   6.084
  115OSM    H2F11973   6.773   3.070   6.079
  115OSM    H2G11974   6.638   3.062   5.978
  115OSM    C3F11975   6.646   2.896   6.112
  115OSM    H3F11976   6.546   2.852   6.089
  115OSM    H3G11977   6.656   2.874   6.220
  115OSM    C4F11978   6.750   2.818   6.023
  115OSM    H4F11979   6.743   2.714   6.060
  115OSM    H4G11980   6.851   2.865   6.029
  115OSM    C5F11981   6.702   2.819   5.870
  115OSM    H5F11982   6.716   2.925   5.838
  115OSM    H5G11983   6.594   2.793   5.861
  115OSM    C6F11984   6.795   2.743   5.774
  115OSM    H6F11985   6.779   2.635   5.794
  115OSM    H6G11986   6.902   2.753   5.805
  115OSM    C7F11987   6.789   2.772   5.625
  115OSM    H7F11988   6.822   2.872   5.590
  115OSM    H7G11989   6.678   2.772   5.620
  115OSM    C8F11990   6.844   2.656   5.543
  115OSM    H8F11991   6.831   2.560   5.597
  115OSM    H8G11992   0.045   2.670   5.545
  115OSM    C9F11993   6.786   2.668   5.405
  115OSM    H9F11994   6.678   2.648   5.397
  115OSM   C10F11995   6.852   2.710   5.298
  115OSM   H10F11996   6.796   2.720   5.204
  115OSM   C11F11997   0.088   2.748   5.282
  115OSM   H11F11998   0.151   2.702   5.361
  115OSM   H11G11999   0.098   2.858   5.287
  115OSM   C12F12000   0.145   2.718   5.141
  115OSM   H12F12001   0.144   2.607   5.131
  115OSM   H12G12002   0.252   2.744   5.131
  115OSM   C13F12003   0.073   2.781   5.025
  115OSM   H13F12004   0.075   2.892   5.036
  115OSM   H13G12005   6.877   2.748   5.021
  115OSM   C14F12006   0.149   2.735   4.894
  115OSM   H14F12007   0.107   2.635   4.869
  115OSM   H14G12008   0.257   2.718   4.909
  115OSM   C15F12009   0.157   2.838   4.779
  115OSM   H15F12010   0.210   2.933   4.800
  115OSM   H15G12011   0.055   2.872   4.750
  115OSM   C16F12012   0.227   2.781   4.655
  115OSM   H16F12013   0.173   2.693   4.613
  115OSM   H16G12014   0.329   2.746   4.680
  115OSM   C17F12015   0.230   2.898   4.558
  115OSM   H17F12016   0.296   2.973   4.608
  115OSM   H17G12017   0.127   2.936   4.545
  115OSM   C18F12018   0.289   2.862   4.423
  115OSM   H18F12019   0.306   2.962   4.377
  115OSM   H18G12020   0.213   2.805   4.365
  115OSM   H18H12021   0.384   2.806   4.426
  116OSM      N12022   1.543   1.637   7.082
  116OSM    C1512023   1.430   1.674   7.181
  116OSM   H15A12024   1.405   1.779   7.189
  116OSM   H15B12025   1.450   1.629   7.277
  116OSM   H15C12026   1.343   1.628   7.136
  116OSM    C1412027   1.670   1.678   7.138
  116OSM   H14A12028   1.756   1.641   7.083
  116OSM   H14B12029   1.678   1.627   7.233
  116OSM   H14C12030   1.678   1.785   7.146
  116OSM    C1312031   1.546   1.490   7.068
  116OSM   H13A12032   1.626   1.460   7.003
  116OSM   H13B12033   1.455   1.466   7.016
  116OSM   H13C12034   1.560   1.448   7.167
  116OSM    C1212035   1.522   1.700   6.947
  116OSM   H12A12036   1.605   1.671   6.884
  116OSM   H12B12037   1.536   1.806   6.957
  116OSM    C1112038   1.389   1.672   6.867
  116OSM   H11A12039   1.387   1.751   6.789
  116OSM   H11B12040   1.311   1.702   6.941
  116OSM      P12041   1.257   1.481   6.756
  116OSM    O1312042   1.266   1.338   6.779
  116OSM    O1412043   1.138   1.547   6.818
  116OSM    O1112044   1.267   1.506   6.602
  116OSM    O1212045   1.393   1.537   6.829
  116OSM    C1S12046   1.205   1.621   6.544
  116OSM    H1S12047   1.258   1.716   6.568
  116OSM    H1T12048   1.099   1.626   6.575
  116OSM     NF12049   1.117   1.728   6.335
  116OSM    HNF12050   1.028   1.708   6.295
  116OSM    C2S12051   1.183   1.606   6.385
  116OSM    H2S12052   1.286   1.601   6.344
  116OSM    C3S12053   1.109   1.468   6.357
  116OSM    H3S12054   1.001   1.490   6.373
  116OSM     O312055   1.139   1.359   6.439
  116OSM    HO312056   1.179   1.397   6.518
  116OSM    C4S12057   1.093   1.439   6.210
  116OSM    H4S12058   1.012   1.494   6.159
  116OSM    C5S12059   1.168   1.355   6.135
  116OSM    H5S12060   1.246   1.304   6.192
  116OSM    C6S12061   1.160   1.314   5.986
  116OSM    H6S12062   1.121   1.210   5.984
  116OSM    H6T12063   1.259   1.309   5.937
  116OSM    C7S12064   1.067   1.405   5.900
  116OSM    H7S12065   1.104   1.510   5.908
  116OSM    H7T12066   0.962   1.409   5.936
  116OSM    C8S12067   1.083   1.377   5.749
  116OSM    H8S12068   1.192   1.365   5.729
  116OSM    H8T12069   1.057   1.468   5.691
  116OSM    C9S12070   1.000   1.259   5.695
  116OSM    H9S12071   0.896   1.297   5.686
  116OSM    H9T12072   1.002   1.169   5.760
  116OSM   C10S12073   1.029   1.216   5.552
  116OSM   H10S12074   0.963   1.128   5.537
  116OSM   H10T12075   1.132   1.176   5.549
  116OSM   C11S12076   0.994   1.330   5.446
  116OSM   H11S12077   1.079   1.402   5.455
  116OSM   H11T12078   0.898   1.378   5.473
  116OSM   C12S12079   0.982   1.277   5.306
  116OSM   H12S12080   0.906   1.197   5.293
  116OSM   H12T12081   1.077   1.232   5.270
  116OSM   C13S12082   0.955   1.386   5.194
  116OSM   H13S12083   1.022   1.474   5.204
  116OSM   H13T12084   0.851   1.417   5.218
  116OSM   C14S12085   0.947   1.326   5.059
  116OSM   H14S12086   0.883   1.235   5.068
  116OSM   H14T12087   1.042   1.289   5.016
  116OSM   C15S12088   0.860   1.413   4.962
  116OSM   H15S12089   0.908   1.513   4.955
  116OSM   H15T12090   0.754   1.425   4.995
  116OSM   C16S12091   0.866   1.351   4.820
  116OSM   H16S12092   0.802   1.417   4.757
  116OSM   H16T12093   0.820   1.250   4.828
  116OSM   C17S12094   1.003   1.360   4.754
  116OSM   H17S12095   1.073   1.294   4.810
  116OSM   H17T12096   1.042   1.464   4.761
  116OSM   C18S12097   1.010   1.309   4.607
  116OSM   H18S12098   0.932   1.359   4.546
  116OSM   H18T12099   1.001   1.199   4.619
  116OSM   H18U12100   1.115   1.320   4.575
  116OSM    C1F12101   1.177   1.844   6.335
  116OSM     OF12102   1.297   1.854   6.361
  116OSM    C2F12103   1.088   1.971   6.301
  116OSM    H2F12104   1.058   2.025   6.393
  116OSM    H2G12105   1.000   1.941   6.240
  116OSM    C3F12106   1.176   2.065   6.207
  116OSM    H3F12107   1.270   2.094   6.259
  116OSM    H3G12108   1.110   2.152   6.189
  116OSM    C4F12109   1.213   1.998   6.071
  116OSM    H4F12110   1.118   2.004   6.013
  116OSM    H4G12111   1.246   1.893   6.084
  116OSM    C5F12112   1.319   2.079   5.995
  116OSM    H5F12113   1.411   2.074   6.058
  116OSM    H5G12114   1.277   2.182   5.994
  116OSM    C6F12115   1.351   2.043   5.852
  116OSM    H6F12116   1.266   2.059   5.782
  116OSM    H6G12117   1.385   1.938   5.851
  116OSM    C7F12118   1.469   2.115   5.788
  116OSM    H7F12119   1.559   2.107   5.853
  116OSM    H7G12120   1.452   2.225   5.780
  116OSM    C8F12121   1.501   2.048   5.657
  116OSM    H8F12122   1.549   1.952   5.685
  116OSM    H8G12123   1.586   2.104   5.612
  116OSM    C9F12124   1.397   2.005   5.562
  116OSM    H9F12125   1.342   1.917   5.600
  116OSM   C10F12126   1.353   2.071   5.451
  116OSM   H10F12127   1.269   2.029   5.394
  116OSM   C11F12128   1.420   2.194   5.395
  116OSM   H11F12129   1.518   2.219   5.443
  116OSM   H11G12130   1.354   2.282   5.406
  116OSM   C12F12131   1.436   2.168   5.249
  116OSM   H12F12132   1.336   2.152   5.205
  116OSM   H12G12133   1.508   2.090   5.215
  116OSM   C13F12134   1.506   2.293   5.189
  116OSM   H13F12135   1.598   2.303   5.251
  116OSM   H13G12136   1.452   2.386   5.217
  116OSM   C14F12137   1.530   2.276   5.037
  116OSM   H14F12138   1.434   2.286   4.982
  116OSM   H14G12139   1.562   2.170   5.026
  116OSM   C15F12140   1.635   2.374   4.984
  116OSM   H15F12141   1.727   2.363   5.047
  116OSM   H15G12142   1.592   2.474   5.003
  116OSM   C16F12143   1.657   2.363   4.825
  116OSM   H16F12144   1.558   2.367   4.775
  116OSM   H16G12145   1.705   2.267   4.794
  116OSM   C17F12146   1.728   2.482   4.758
  116OSM   H17F12147   1.833   2.483   4.794
  116OSM   H17G12148   1.674   2.571   4.797
  116OSM   C18F12149   1.718   2.480   4.613
  116OSM   H18F12150   1.614   2.498   4.580
  116OSM   H18G12151   1.740   2.377   4.579
  116OSM   H18H12152   1.789   2.552   4.567
  117OSM      N12153   0.459   4.339   6.614
  117OSM    C1512154   0.415   4.473   6.668
  117OSM   H15A12155   0.475   4.549   6.620
  117OSM   H15B12156   0.416   4.471   6.776
  117OSM   H15C12157   0.313   4.498   6.645
  117OSM    C1412158   0.363   4.236   6.652
  117OSM   H14A12159   0.355   4.233   6.760
  117OSM   H14B12160   0.387   4.137   6.618
  117OSM   H14C12161   0.266   4.253   6.608
  117OSM    C1312162   0.466   4.353   6.459
  117OSM   H13A12163   0.382   4.408   6.421
  117OSM   H13B12164   0.465   4.253   6.417
  117OSM   H13C12165   0.553   4.409   6.427
  117OSM    C1212166   0.591   4.300   6.662
  117OSM   H12A12167   0.622   4.202   6.629
  117OSM   H12B12168   0.581   4.308   6.770
  117OSM    C1112169   0.712   4.399   6.622
  117OSM   H11A12170   0.720   4.403   6.512
  117OSM   H11B12171   0.803   4.347   6.660
  117OSM      P12172   0.777   4.651   6.605
  117OSM    O1312173   0.767   4.766   6.693
  117OSM    O1412174   0.912   4.613   6.559
  117OSM    O1112175   0.688   4.664   6.481
  117OSM    O1212176   0.715   4.526   6.686
  117OSM    C1S12177   0.725   4.756   6.371
  117OSM    H1S12178   0.836   4.764   6.370
  117OSM    H1T12179   0.701   4.861   6.396
  117OSM     NF12180   0.734   4.771   6.123
  117OSM    HNF12181   0.704   4.856   6.079
  117OSM    C2S12182   0.665   4.702   6.233
  117OSM    H2S12183   0.696   4.595   6.231
  117OSM    C3S12184   0.503   4.716   6.238
  117OSM    H3S12185   0.477   4.823   6.252
  117OSM     O312186   0.450   4.658   6.356
  117OSM    HO312187   0.528   4.651   6.412
  117OSM    C4S12188   0.436   4.670   6.110
  117OSM    H4S12189   0.420   4.753   6.039
  117OSM    C5S12190   0.378   4.552   6.084
  117OSM    H5S12191   0.367   4.476   6.163
  117OSM    C6S12192   0.317   4.509   5.953
  117OSM    H6S12193   0.208   4.492   5.965
  117OSM    H6T12194   0.347   4.405   5.930
  117OSM    C7S12195   0.339   4.598   5.829
  117OSM    H7S12196   0.448   4.611   5.812
  117OSM    H7T12197   0.298   4.698   5.851
  117OSM    C8S12198   0.277   4.530   5.704
  117OSM    H8S12199   0.167   4.517   5.714
  117OSM    H8T12200   0.330   4.437   5.675
  117OSM    C9S12201   0.315   4.623   5.589
  117OSM    H9S12202   0.426   4.629   5.580
  117OSM    H9T12203   0.271   4.722   5.612
  117OSM   C10S12204   0.261   4.563   5.459
  117OSM   H10S12205   0.152   4.550   5.472
  117OSM   H10T12206   0.300   4.463   5.432
  117OSM   C11S12207   0.287   4.653   5.336
  117OSM   H11S12208   0.396   4.650   5.314
  117OSM   H11T12209   0.257   4.756   5.365
  117OSM   C12S12210   0.208   4.598   5.216
  117OSM   H12S12211   0.100   4.624   5.220
  117OSM   H12T12212   0.233   4.490   5.206
  117OSM   C13S12213   0.260   4.660   5.093
  117OSM   H13S12214   0.370   4.644   5.085
  117OSM   H13T12215   0.246   4.769   5.107
  117OSM   C14S12216   0.199   4.592   4.969
  117OSM   H14S12217   0.088   4.590   4.961
  117OSM   H14T12218   0.243   4.491   4.958
  117OSM   C15S12219   0.231   4.676   4.841
  117OSM   H15S12220   0.341   4.678   4.823
  117OSM   H15T12221   0.196   4.781   4.837
  117OSM   C16S12222   0.175   4.609   4.714
  117OSM   H16S12223   0.094   4.536   4.739
  117OSM   H16T12224   0.265   4.556   4.677
  117OSM   C17S12225   0.119   4.710   4.613
  117OSM   H17S12226   0.201   4.781   4.585
  117OSM   H17T12227   0.032   4.763   4.657
  117OSM   C18S12228   0.079   4.636   4.488
  117OSM   H18S12229   0.171   4.587   4.449
  117OSM   H18T12230   0.034   4.700   4.409
  117OSM   H18U12231   0.003   4.561   4.516
  117OSM    C1F12232   0.861   4.734   6.099
  117OSM     OF12233   0.892   4.620   6.131
  117OSM    C2F12234   0.951   4.840   6.033
  117OSM    H2F12235   1.019   4.868   6.116
  117OSM    H2G12236   0.896   4.929   5.996
  117OSM    C3F12237   1.039   4.773   5.920
  117OSM    H3F12238   0.968   4.732   5.845
  117OSM    H3G12239   1.099   4.692   5.965
  117OSM    C4F12240   1.132   4.882   5.868
  117OSM    H4F12241   1.200   4.915   5.949
  117OSM    H4G12242   1.081   4.977   5.838
  117OSM    C5F12243   1.209   4.828   5.743
  117OSM    H5F12244   1.134   4.797   5.667
  117OSM    H5G12245   1.250   4.731   5.778
  117OSM    C6F12246   1.321   4.910   5.675
  117OSM    H6F12247   1.360   4.838   5.599
  117OSM    H6G12248   1.406   4.932   5.742
  117OSM    C7F12249   1.252   5.028   5.600
  117OSM    H7F12250   1.214   5.097   5.678
  117OSM    H7G12251   1.165   4.988   5.543
  117OSM    C8F12252   1.350   5.092   5.486
  117OSM    H8F12253   1.372   5.010   5.415
  117OSM    H8G12254   1.441   5.127   5.539
  117OSM    C9F12255   1.291   5.214   5.427
  117OSM    H9F12256   1.334   5.310   5.458
  117OSM   C10F12257   1.203   5.217   5.321
  117OSM   H10F12258   1.187   5.317   5.278
  117OSM   C11F12259   1.148   5.105   5.230
  117OSM   H11F12260   1.043   5.093   5.262
  117OSM   H11G12261   1.202   5.007   5.234
  117OSM   C12F12262   1.163   5.152   5.087
  117OSM   H12F12263   1.270   5.170   5.062
  117OSM   H12G12264   1.104   5.246   5.078
  117OSM   C13F12265   1.114   5.049   4.982
  117OSM   H13F12266   1.007   5.022   5.000
  117OSM   H13G12267   1.171   4.958   5.009
  117OSM   C14F12268   1.155   5.075   4.835
  117OSM   H14F12269   1.146   4.981   4.777
  117OSM   H14G12270   1.263   5.100   4.842
  117OSM   C15F12271   1.079   5.195   4.769
  117OSM   H15F12272   1.102   5.286   4.829
  117OSM   H15G12273   0.971   5.173   4.779
  117OSM   C16F12274   1.113   5.210   4.621
  117OSM   H16F12275   1.095   5.114   4.568
  117OSM   H16G12276   1.223   5.212   4.607
  117OSM   C17F12277   1.044   5.324   4.555
  117OSM   H17F12278   1.090   5.422   4.581
  117OSM   H17G12279   0.934   5.324   4.570
  117OSM   C18F12280   1.048   5.314   4.406
  117OSM   H18F12281   1.150   5.323   4.364
  117OSM   H18G12282   0.979   5.389   4.360
  117OSM   H18H12283   1.007   5.213   4.385
  118OSM      N12284   0.104   3.544   6.624
  118OSM    C1512285   0.018   3.633   6.698
  118OSM   H15A12286   6.824   3.635   6.668
  118OSM   H15B12287   0.050   3.736   6.694
  118OSM   H15C12288   0.006   3.595   6.799
  118OSM    C1412289   0.103   3.583   6.476
  118OSM   H14A12290   0.147   3.680   6.461
  118OSM   H14B12291   0.002   3.580   6.438
  118OSM   H14C12292   0.163   3.508   6.426
  118OSM    C1312293   0.247   3.555   6.664
  118OSM   H13A12294   0.281   3.657   6.668
  118OSM   H13B12295   0.308   3.494   6.599
  118OSM   H13C12296   0.261   3.505   6.759
  118OSM    C1212297   0.057   3.398   6.641
  118OSM   H12A12298   6.869   3.386   6.596
  118OSM   H12B12299   0.040   3.374   6.745
  118OSM    C1112300   0.137   3.282   6.574
  118OSM   H11A12301   0.097   3.184   6.608
  118OSM   H11B12302   0.240   3.283   6.616
  118OSM      P12303   0.236   3.226   6.339
  118OSM    O1312304   0.256   3.088   6.390
  118OSM    O1412305   0.193   3.236   6.199
  118OSM    O1112306   0.370   3.300   6.365
  118OSM    O1212307   0.130   3.293   6.431
  118OSM    C1S12308   0.481   3.259   6.278
  118OSM    H1S12309   0.492   3.149   6.268
  118OSM    H1T12310   0.575   3.291   6.329
  118OSM     NF12311   0.636   3.311   6.097
  118OSM    HNF12312   0.696   3.391   6.103
  118OSM    C2S12313   0.500   3.327   6.138
  118OSM    H2S12314   0.438   3.272   6.063
  118OSM    C3S12315   0.449   3.474   6.143
  118OSM    H3S12316   0.490   3.524   6.233
  118OSM     O312317   0.299   3.493   6.150
  118OSM    HO312318   0.263   3.407   6.170
  118OSM    C4S12319   0.488   3.560   6.021
  118OSM    H4S12320   0.457   3.513   5.926
  118OSM    C5S12321   0.581   3.654   6.020
  118OSM    H5S12322   0.616   3.682   6.120
  118OSM    C6S12323   0.629   3.728   5.894
  118OSM    H6S12324   0.717   3.680   5.845
  118OSM    H6T12325   0.670   3.830   5.912
  118OSM    C7S12326   0.525   3.743   5.788
  118OSM    H7S12327   0.447   3.812   5.827
  118OSM    H7T12328   0.476   3.646   5.765
  118OSM    C8S12329   0.582   3.805   5.661
  118OSM    H8S12330   0.670   3.746   5.627
  118OSM    H8T12331   0.629   3.904   5.675
  118OSM    C9S12332   0.477   3.831   5.554
  118OSM    H9S12333   0.403   3.904   5.593
  118OSM    H9T12334   0.426   3.734   5.534
  118OSM   C10S12335   0.530   3.909   5.434
  118OSM   H10S12336   0.584   3.991   5.486
  118OSM   H10T12337   0.450   3.948   5.369
  118OSM   C11S12338   0.647   3.837   5.354
  118OSM   H11S12339   0.618   3.736   5.321
  118OSM   H11T12340   0.734   3.827   5.423
  118OSM   C12S12341   0.673   3.914   5.224
  118OSM   H12S12342   0.762   3.866   5.178
  118OSM   H12T12343   0.706   4.016   5.251
  118OSM   C13S12344   0.557   3.933   5.131
  118OSM   H13S12345   0.495   4.014   5.176
  118OSM   H13T12346   0.502   3.836   5.133
  118OSM   C14S12347   0.608   3.962   4.989
  118OSM   H14S12348   0.677   3.880   4.961
  118OSM   H14T12349   0.663   4.058   4.991
  118OSM   C15S12350   0.503   3.979   4.881
  118OSM   H15S12351   0.451   4.076   4.898
  118OSM   H15T12352   0.431   3.895   4.894
  118OSM   C16S12353   0.550   3.970   4.735
  118OSM   H16S12354   0.637   4.039   4.727
  118OSM   H16T12355   0.471   4.000   4.662
  118OSM   C17S12356   0.603   3.833   4.690
  118OSM   H17S12357   0.515   3.765   4.685
  118OSM   H17T12358   0.669   3.789   4.768
  118OSM   C18S12359   0.680   3.836   4.561
  118OSM   H18S12360   0.781   3.873   4.587
  118OSM   H18T12361   0.624   3.893   4.483
  118OSM   H18U12362   0.696   3.733   4.521
  118OSM    C1F12363   0.686   3.192   6.053
  118OSM     OF12364   0.598   3.105   6.035
  118OSM    C2F12365   0.836   3.178   6.032
  118OSM    H2F12366   0.866   3.139   6.131
  118OSM    H2G12367   0.882   3.275   6.001
  118OSM    C3F12368   0.876   3.064   5.927
  118OSM    H3F12369   0.849   2.967   5.973
  118OSM    H3G12370   0.987   3.063   5.925
  118OSM    C4F12371   0.815   3.095   5.789
  118OSM    H4F12372   0.713   3.052   5.781
  118OSM    H4G12373   0.876   3.047   5.710
  118OSM    C5F12374   0.814   3.242   5.755
  118OSM    H5F12375   0.921   3.261   5.778
  118OSM    H5G12376   0.742   3.306   5.811
  118OSM    C6F12377   0.799   3.278   5.608
  118OSM    H6F12378   0.694   3.282   5.572
  118OSM    H6G12379   0.853   3.199   5.550
  118OSM    C7F12380   0.859   3.417   5.583
  118OSM    H7F12381   0.964   3.425   5.619
  118OSM    H7G12382   0.804   3.493   5.642
  118OSM    C8F12383   0.856   3.482   5.442
  118OSM    H8F12384   0.863   3.592   5.452
  118OSM    H8G12385   0.756   3.469   5.394
  118OSM    C9F12386   0.956   3.439   5.336
  118OSM    H9F12387   1.047   3.400   5.384
  118OSM   C10F12388   0.951   3.459   5.206
  118OSM   H10F12389   1.028   3.414   5.143
  118OSM   C11F12390   0.836   3.521   5.126
  118OSM   H11F12391   0.749   3.553   5.187
  118OSM   H11G12392   0.801   3.460   5.040
  118OSM   C12F12393   0.885   3.647   5.043
  118OSM   H12F12394   0.929   3.727   5.106
  118OSM   H12G12395   0.790   3.697   5.014
  118OSM   C13F12396   0.970   3.613   4.914
  118OSM   H13F12397   0.913   3.538   4.855
  118OSM   H13G12398   1.069   3.575   4.948
  118OSM   C14F12399   0.986   3.730   4.821
  118OSM   H14F12400   1.068   3.791   4.865
  118OSM   H14G12401   0.895   3.793   4.823
  118OSM   C15F12402   1.019   3.691   4.680
  118OSM   H15F12403   0.927   3.652   4.631
  118OSM   H15G12404   1.087   3.604   4.677
  118OSM   C16F12405   1.088   3.805   4.604
  118OSM   H16F12406   1.148   3.870   4.672
  118OSM   H16G12407   1.007   3.869   4.563
  118OSM   C17F12408   1.150   3.751   4.472
  118OSM   H17F12409   1.230   3.681   4.504
  118OSM   H17G12410   1.211   3.832   4.426
  118OSM   C18F12411   1.053   3.688   4.367
  118OSM   H18F12412   0.995   3.601   4.405
  118OSM   H18G12413   1.107   3.652   4.277
  118OSM   H18H12414   0.982   3.764   4.329
  119OSM      N12415   2.985   0.520   6.465
  119OSM    C1512416   2.867   0.564   6.384
  119OSM   H15A12417   2.880   0.548   6.278
  119OSM   H15B12418   2.849   0.670   6.396
  119OSM   H15C12419   2.772   0.520   6.410
  119OSM    C1412420   2.999   0.373   6.452
  119OSM   H14A12421   2.911   0.333   6.499
  119OSM   H14B12422   3.086   0.329   6.499
  119OSM   H14C12423   2.988   0.341   6.349
  119OSM    C1312424   3.108   0.582   6.404
  119OSM   H13A12425   3.128   0.539   6.307
  119OSM   H13B12426   3.186   0.543   6.468
  119OSM   H13C12427   3.093   0.689   6.415
  119OSM    C1212428   2.968   0.566   6.609
  119OSM   H12A12429   3.031   0.505   6.671
  119OSM   H12B12430   2.864   0.547   6.634
  119OSM    C1112431   2.989   0.712   6.642
  119OSM   H11A12432   3.098   0.730   6.631
  119OSM   H11B12433   2.965   0.737   6.748
  119OSM      P12434   2.968   0.951   6.545
  119OSM    O1312435   2.861   1.034   6.482
  119OSM    O1412436   3.010   0.995   6.681
  119OSM    O1112437   3.088   0.943   6.444
  119OSM    O1212438   2.922   0.800   6.553
  119OSM    C1S12439   3.044   0.915   6.304
  119OSM    H1S12440   2.939   0.884   6.287
  119OSM    H1T12441   3.101   0.830   6.262
  119OSM     NF12442   3.052   0.976   6.076
  119OSM    HNF12443   3.135   0.963   6.022
  119OSM    C2S12444   3.058   1.038   6.206
  119OSM    H2S12445   2.967   1.100   6.222
  119OSM    C3S12446   3.190   1.115   6.226
  119OSM    H3S12447   3.273   1.042   6.220
  119OSM     O312448   3.190   1.189   6.349
  119OSM    HO312449   3.131   1.136   6.404
  119OSM    C4S12450   3.204   1.220   6.112
  119OSM    H4S12451   3.123   1.293   6.103
  119OSM    C5S12452   3.301   1.226   6.023
  119OSM    H5S12453   3.382   1.153   6.029
  119OSM    C6S12454   3.322   1.326   5.907
  119OSM    H6S12455   3.425   1.364   5.922
  119OSM    H6T12456   3.247   1.408   5.911
  119OSM    C7S12457   3.318   1.253   5.767
  119OSM    H7S12458   3.213   1.221   5.748
  119OSM    H7T12459   3.395   1.172   5.775
  119OSM    C8S12460   3.363   1.349   5.659
  119OSM    H8S12461   3.469   1.382   5.672
  119OSM    H8T12462   3.298   1.438   5.671
  119OSM    C9S12463   3.348   1.306   5.516
  119OSM    H9S12464   3.239   1.291   5.502
  119OSM    H9T12465   3.400   1.214   5.481
  119OSM   C10S12466   3.368   1.414   5.420
  119OSM   H10S12467   3.473   1.450   5.425
  119OSM   H10T12468   3.301   1.499   5.445
  119OSM   C11S12469   3.341   1.361   5.275
  119OSM   H11S12470   3.234   1.339   5.254
  119OSM   H11T12471   3.388   1.261   5.269
  119OSM   C12S12472   3.396   1.446   5.158
  119OSM   H12S12473   3.506   1.459   5.164
  119OSM   H12T12474   3.341   1.542   5.173
  119OSM   C13S12475   3.364   1.392   5.017
  119OSM   H13S12476   3.257   1.415   4.996
  119OSM   H13T12477   3.377   1.282   5.005
  119OSM   C14S12478   3.450   1.465   4.910
  119OSM   H14S12479   3.553   1.431   4.936
  119OSM   H14T12480   3.436   1.573   4.934
  119OSM   C15S12481   3.419   1.431   4.763
  119OSM   H15S12482   3.325   1.372   4.764
  119OSM   H15T12483   3.485   1.348   4.730
  119OSM   C16S12484   3.439   1.549   4.667
  119OSM   H16S12485   3.541   1.589   4.680
  119OSM   H16T12486   3.369   1.632   4.693
  119OSM   C17S12487   3.436   1.514   4.518
  119OSM   H17S12488   3.337   1.465   4.503
  119OSM   H17T12489   3.516   1.441   4.495
  119OSM   C18S12490   3.459   1.638   4.429
  119OSM   H18S12491   3.453   1.612   4.321
  119OSM   H18T12492   3.563   1.671   4.449
  119OSM   H18U12493   3.389   1.720   4.456
  119OSM    C1F12494   2.937   0.922   6.028
  119OSM     OF12495   2.830   0.935   6.085
  119OSM    C2F12496   2.941   0.846   5.903
  119OSM    H2F12497   2.883   0.755   5.931
  119OSM    H2G12498   3.046   0.820   5.878
  119OSM    C3F12499   2.862   0.906   5.782
  119OSM    H3F12500   2.928   0.978   5.729
  119OSM    H3G12501   2.771   0.957   5.821
  119OSM    C4F12502   2.831   0.805   5.670
  119OSM    H4F12503   2.785   0.851   5.580
  119OSM    H4G12504   2.767   0.722   5.707
  119OSM    C5F12505   2.954   0.726   5.631
  119OSM    H5F12506   2.924   0.657   5.550
  119OSM    H5G12507   2.994   0.671   5.719
  119OSM    C6F12508   3.069   0.808   5.565
  119OSM    H6F12509   3.137   0.735   5.515
  119OSM    H6G12510   3.123   0.860   5.646
  119OSM    C7F12511   3.016   0.906   5.455
  119OSM    H7F12512   2.953   0.985   5.501
  119OSM    H7G12513   2.957   0.849   5.380
  119OSM    C8F12514   3.136   0.974   5.387
  119OSM    H8F12515   3.201   1.010   5.470
  119OSM    H8G12516   3.103   1.071   5.344
  119OSM    C9F12517   3.229   0.896   5.300
  119OSM    H9F12518   3.268   0.806   5.351
  119OSM   C10F12519   3.270   0.924   5.173
  119OSM   H10F12520   3.333   0.858   5.111
  119OSM   C11F12521   3.230   1.048   5.097
  119OSM   H11F12522   3.321   1.081   5.042
  119OSM   H11G12523   3.213   1.136   5.163
  119OSM   C12F12524   3.104   1.035   5.006
  119OSM   H12F12525   3.022   1.012   5.078
  119OSM   H12G12526   3.135   0.948   4.944
  119OSM   C13F12527   3.077   1.162   4.923
  119OSM   H13F12528   3.167   1.196   4.867
  119OSM   H13G12529   3.035   1.245   4.984
  119OSM   C14F12530   2.986   1.126   4.805
  119OSM   H14F12531   2.879   1.104   4.827
  119OSM   H14G12532   3.028   1.028   4.776
  119OSM   C15F12533   3.000   1.206   4.676
  119OSM   H15F12534   2.941   1.163   4.592
  119OSM   H15G12535   3.107   1.206   4.647
  119OSM   C16F12536   2.961   1.353   4.699
  119OSM   H16F12537   3.030   1.406   4.767
  119OSM   H16G12538   2.860   1.348   4.745
  119OSM   C17F12539   2.914   1.425   4.566
  119OSM   H17F12540   2.916   1.530   4.602
  119OSM   H17G12541   2.811   1.401   4.534
  119OSM   C18F12542   3.020   1.411   4.459
  119OSM   H18F12543   3.071   1.312   4.457
  119OSM   H18G12544   3.100   1.484   4.482
  119OSM   H18H12545   2.985   1.435   4.356
  120OSM      N12546   5.921   5.908   6.710
  120OSM    C1512547   5.787   5.881   6.769
  120OSM   H15A12548   5.789   5.836   6.868
  120OSM   H15B12549   5.732   5.809   6.709
  120OSM   H15C12550   5.723   5.968   6.771
  120OSM    C1412551   5.986   6.002   6.808
  120OSM   H14A12552   6.090   6.018   6.783
  120OSM   H14B12553   5.983   5.944   6.899
  120OSM   H14C12554   5.926   6.089   6.832
  120OSM    C1312555   6.005   5.785   6.703
  120OSM   H13A12556   5.950   5.703   6.658
  120OSM   H13B12557   6.033   5.756   6.803
  120OSM   H13C12558   6.093   5.805   6.644
  120OSM    C1212559   5.912   5.971   6.579
  120OSM   H12A12560   6.010   5.992   6.539
  120OSM   H12B12561   5.868   6.067   6.599
  120OSM    C1112562   5.830   5.896   6.479
  120OSM   H11A12563   5.816   5.955   6.386
  120OSM   H11B12564   5.728   5.877   6.518
  120OSM      P12565   5.802   5.645   6.436
  120OSM    O1312566   5.878   5.543   6.361
  120OSM    O1412567   5.765   5.604   6.573
  120OSM    O1112568   5.679   5.689   6.345
  120OSM    O1212569   5.886   5.774   6.441
  120OSM    C1S12570   5.681   5.735   6.214
  120OSM    H1S12571   5.786   5.762   6.190
  120OSM    H1T12572   5.620   5.828   6.210
  120OSM     NF12573   5.670   5.667   5.975
  120OSM    HNF12574   5.615   5.729   5.918
  120OSM    C2S12575   5.634   5.632   6.111
  120OSM    H2S12576   5.688   5.535   6.126
  120OSM    C3S12577   5.487   5.602   6.135
  120OSM    H3S12578   5.437   5.700   6.116
  120OSM     O312579   5.460   5.573   6.269
  120OSM    HO312580   5.546   5.588   6.310
  120OSM    C4S12581   5.440   5.491   6.049
  120OSM    H4S12582   5.466   5.387   6.071
  120OSM    C5S12583   5.353   5.505   5.954
  120OSM    H5S12584   5.308   5.603   5.931
  120OSM    C6S12585   5.310   5.393   5.869
  120OSM    H6S12586   5.216   5.350   5.909
  120OSM    H6T12587   5.383   5.309   5.867
  120OSM    C7S12588   5.294   5.449   5.728
  120OSM    H7S12589   5.386   5.507   5.702
  120OSM    H7T12590   5.218   5.529   5.725
  120OSM    C8S12591   5.261   5.347   5.617
  120OSM    H8S12592   5.160   5.302   5.627
  120OSM    H8T12593   5.327   5.257   5.623
  120OSM    C9S12594   5.290   5.407   5.479
  120OSM    H9S12595   5.396   5.432   5.462
  120OSM    H9T12596   5.234   5.503   5.481
  120OSM   C10S12597   5.236   5.318   5.363
  120OSM   H10S12598   5.144   5.264   5.394
  120OSM   H10T12599   5.313   5.243   5.335
  120OSM   C11S12600   5.217   5.396   5.234
  120OSM   H11S12601   5.312   5.446   5.208
  120OSM   H11T12602   5.133   5.469   5.237
  120OSM   C12S12603   5.176   5.304   5.114
  120OSM   H12S12604   5.094   5.235   5.143
  120OSM   H12T12605   5.263   5.239   5.090
  120OSM   C13S12606   5.137   5.366   4.980
  120OSM   H13S12607   5.218   5.434   4.945
  120OSM   H13T12608   5.041   5.421   4.980
  120OSM   C14S12609   5.138   5.253   4.881
  120OSM   H14S12610   5.046   5.191   4.891
  120OSM   H14T12611   5.228   5.187   4.879
  120OSM   C15S12612   5.115   5.299   4.739
  120OSM   H15S12613   5.030   5.370   4.738
  120OSM   H15T12614   5.091   5.209   4.679
  120OSM   C16S12615   5.250   5.368   4.684
  120OSM   H16S12616   5.339   5.331   4.739
  120OSM   H16T12617   5.235   5.473   4.716
  120OSM   C17S12618   5.260   5.347   4.530
  120OSM   H17S12619   5.164   5.378   4.483
  120OSM   H17T12620   5.256   5.238   4.509
  120OSM   C18S12621   5.376   5.403   4.452
  120OSM   H18S12622   5.371   5.513   4.455
  120OSM   H18T12623   5.376   5.379   4.343
  120OSM   H18U12624   5.474   5.366   4.489
  120OSM    C1F12625   5.800   5.649   5.934
  120OSM     OF12626   5.885   5.601   6.005
  120OSM    C2F12627   5.841   5.703   5.801
  120OSM    H2F12628   5.864   5.809   5.823
  120OSM    H2G12629   5.757   5.677   5.733
  120OSM    C3F12630   5.974   5.635   5.751
  120OSM    H3F12631   5.956   5.525   5.741
  120OSM    H3G12632   6.055   5.654   5.825
  120OSM    C4F12633   6.009   5.692   5.612
  120OSM    H4F12634   6.047   5.794   5.632
  120OSM    H4G12635   5.917   5.705   5.551
  120OSM    C5F12636   6.103   5.598   5.536
  120OSM    H5F12637   6.058   5.497   5.522
  120OSM    H5G12638   6.195   5.580   5.595
  120OSM    C6F12639   6.142   5.641   5.397
  120OSM    H6F12640   6.195   5.559   5.344
  120OSM    H6G12641   6.196   5.737   5.393
  120OSM    C7F12642   6.018   5.663   5.313
  120OSM    H7F12643   5.970   5.756   5.348
  120OSM    H7G12644   5.949   5.578   5.333
  120OSM    C8F12645   6.065   5.680   5.164
  120OSM    H8F12646   6.158   5.740   5.170
  120OSM    H8G12647   5.997   5.750   5.111
  120OSM    C9F12648   6.095   5.557   5.087
  120OSM    H9F12649   6.167   5.489   5.136
  120OSM   C10F12650   6.032   5.516   4.970
  120OSM   H10F12651   6.047   5.416   4.927
  120OSM   C11F12652   5.930   5.594   4.896
  120OSM   H11F12653   5.954   5.702   4.905
  120OSM   H11G12654   5.827   5.571   4.931
  120OSM   C12F12655   5.918   5.570   4.745
  120OSM   H12F12656   6.020   5.580   4.702
  120OSM   H12G12657   5.860   5.654   4.703
  120OSM   C13F12658   5.864   5.434   4.710
  120OSM   H13F12659   5.760   5.424   4.748
  120OSM   H13G12660   5.915   5.347   4.756
  120OSM   C14F12661   5.862   5.405   4.553
  120OSM   H14F12662   5.810   5.309   4.532
  120OSM   H14G12663   5.969   5.396   4.524
  120OSM   C15F12664   5.803   5.518   4.469
  120OSM   H15F12665   5.870   5.606   4.473
  120OSM   H15G12666   5.703   5.540   4.511
  120OSM   C16F12667   5.770   5.477   4.322
  120OSM   H16F12668   5.707   5.555   4.273
  120OSM   H16G12669   5.706   5.387   4.336
  120OSM   C17F12670   5.882   5.449   4.219
  120OSM   H17F12671   5.952   5.375   4.264
  120OSM   H17G12672   5.941   5.539   4.190
  120OSM   C18F12673   5.837   5.386   4.085
  120OSM   H18F12674   5.761   5.446   4.030
  120OSM   H18G12675   5.791   5.286   4.097
  120OSM   H18H12676   5.922   5.380   4.014
  121OSM      N12677   6.189   1.733   6.996
  121OSM    C1512678   6.170   1.819   7.109
  121OSM   H15A12679   6.110   1.905   7.080
  121OSM   H15B12680   6.260   1.869   7.139
  121OSM   H15C12681   6.118   1.775   7.194
  121OSM    C1412682   6.224   1.597   7.045
  121OSM   H14A12683   6.147   1.543   7.099
  121OSM   H14B12684   6.312   1.600   7.107
  121OSM   H14C12685   6.248   1.534   6.960
  121OSM    C1312686   6.051   1.719   6.932
  121OSM   H13A12687   5.985   1.695   7.015
  121OSM   H13B12688   6.065   1.640   6.860
  121OSM   H13C12689   6.011   1.802   6.877
  121OSM    C1212690   6.290   1.792   6.899
  121OSM   H12A12691   6.366   1.836   6.962
  121OSM   H12B12692   6.245   1.876   6.847
  121OSM    C1112693   6.338   1.703   6.789
  121OSM   H11A12694   6.379   1.770   6.710
  121OSM   H11B12695   6.253   1.650   6.741
  121OSM      P12696   6.510   1.508   6.757
  121OSM    O1312697   6.633   1.561   6.696
  121OSM    O1412698   6.521   1.386   6.840
  121OSM    O1112699   6.412   1.466   6.638
  121OSM    O1212700   6.440   1.618   6.838
  121OSM    C1S12701   6.408   1.545   6.516
  121OSM    H1S12702   6.481   1.628   6.519
  121OSM    H1T12703   6.310   1.589   6.489
  121OSM     NF12704   6.476   1.546   6.273
  121OSM    HNF12705   6.407   1.531   6.203
  121OSM    C2S12706   6.461   1.467   6.393
  121OSM    H2S12707   6.563   1.439   6.427
  121OSM    C3S12708   6.381   1.339   6.384
  121OSM    H3S12709   6.282   1.368   6.342
  121OSM     O312710   6.350   1.270   6.505
  121OSM    HO312711   6.367   1.338   6.570
  121OSM    C4S12712   6.445   1.241   6.284
  121OSM    H4S12713   6.546   1.211   6.315
  121OSM    C5S12714   6.384   1.191   6.176
  121OSM    H5S12715   6.284   1.222   6.142
  121OSM    C6S12716   6.443   1.088   6.090
  121OSM    H6S12717   6.374   1.025   6.029
  121OSM    H6T12718   6.517   1.026   6.145
  121OSM    C7S12719   6.520   1.164   5.979
  121OSM    H7S12720   6.622   1.198   6.009
  121OSM    H7T12721   6.468   1.254   5.940
  121OSM    C8S12722   6.539   1.069   5.864
  121OSM    H8S12723   6.437   1.048   5.826
  121OSM    H8T12724   6.563   0.967   5.899
  121OSM    C9S12725   6.631   1.136   5.752
  121OSM    H9S12726   6.735   1.132   5.790
  121OSM    H9T12727   6.593   1.240   5.745
  121OSM   C10S12728   6.612   1.062   5.609
  121OSM   H10S12729   6.506   1.065   5.574
  121OSM   H10T12730   6.638   0.957   5.633
  121OSM   C11S12731   6.720   1.115   5.517
  121OSM   H11S12732   6.819   1.132   5.564
  121OSM   H11T12733   6.688   1.219   5.495
  121OSM   C12S12734   6.726   1.027   5.383
  121OSM   H12S12735   6.621   1.004   5.354
  121OSM   H12T12736   6.770   0.926   5.392
  121OSM   C13S12737   6.789   1.116   5.269
  121OSM   H13S12738   6.898   1.130   5.288
  121OSM   H13T12739   6.735   1.213   5.270
  121OSM   C14S12740   6.774   1.046   5.136
  121OSM   H14S12741   6.670   1.021   5.106
  121OSM   H14T12742   6.822   0.947   5.128
  121OSM   C15S12743   6.836   1.133   5.024
  121OSM   H15S12744   0.034   1.143   5.049
  121OSM   H15T12745   6.792   1.235   5.031
  121OSM   C16S12746   6.831   1.078   4.885
  121OSM   H16S12747   6.878   0.978   4.888
  121OSM   H16T12748   6.885   1.154   4.825
  121OSM   C17S12749   6.692   1.079   4.821
  121OSM   H17S12750   6.611   1.045   4.888
  121OSM   H17T12751   6.693   1.010   4.734
  121OSM   C18S12752   6.647   1.218   4.769
  121OSM   H18S12753   6.543   1.212   4.729
  121OSM   H18T12754   6.718   1.264   4.698
  121OSM   H18U12755   6.648   1.294   4.850
  121OSM    C1F12756   6.559   1.652   6.261
  121OSM     OF12757   6.658   1.669   6.328
  121OSM    C2F12758   6.523   1.757   6.158
  121OSM    H2F12759   6.467   1.839   6.208
  121OSM    H2G12760   6.453   1.714   6.083
  121OSM    C3F12761   6.638   1.824   6.081
  121OSM    H3F12762   6.714   1.876   6.144
  121OSM    H3G12763   6.601   1.901   6.011
  121OSM    C4F12764   6.705   1.737   5.973
  121OSM    H4F12765   6.774   1.662   6.017
  121OSM    H4G12766   6.767   1.805   5.911
  121OSM    C5F12767   6.615   1.668   5.867
  121OSM    H5F12768   6.532   1.720   5.816
  121OSM    H5G12769   6.572   1.578   5.917
  121OSM    C6F12770   6.701   1.609   5.750
  121OSM    H6F12771   6.775   1.538   5.793
  121OSM    H6G12772   6.751   1.700   5.711
  121OSM    C7F12773   6.629   1.549   5.627
  121OSM    H7F12774   6.539   1.608   5.601
  121OSM    H7G12775   6.589   1.451   5.661
  121OSM    C8F12776   6.714   1.538   5.499
  121OSM    H8F12777   6.802   1.476   5.528
  121OSM    H8G12778   6.749   1.641   5.480
  121OSM    C9F12779   6.639   1.485   5.383
  121OSM    H9F12780   6.551   1.422   5.400
  121OSM   C10F12781   6.658   1.506   5.254
  121OSM   H10F12782   6.598   1.454   5.178
  121OSM   C11F12783   6.772   1.593   5.202
  121OSM   H11F12784   6.864   1.587   5.264
  121OSM   H11G12785   6.744   1.700   5.203
  121OSM   C12F12786   6.805   1.550   5.060
  121OSM   H12F12787   6.720   1.531   4.990
  121OSM   H12G12788   6.870   1.460   5.051
  121OSM   C13F12789   6.883   1.661   4.983
  121OSM   H13F12790   0.077   1.669   5.021
  121OSM   H13G12791   6.840   1.761   5.006
  121OSM   C14F12792   6.872   1.650   4.828
  121OSM   H14F12793   6.871   1.752   4.785
  121OSM   H14G12794   6.774   1.610   4.795
  121OSM   C15F12795   0.081   1.582   4.755
  121OSM   H15F12796   0.103   1.481   4.795
  121OSM   H15G12797   0.169   1.644   4.781
  121OSM   C16F12798   0.055   1.564   4.602
  121OSM   H16F12799   6.883   1.491   4.584
  121OSM   H16G12800   0.149   1.524   4.559
  121OSM   C17F12801   0.026   1.693   4.540
  121OSM   H17F12802   0.113   1.763   4.539
  121OSM   H17G12803   6.855   1.746   4.596
  121OSM   C18F12804   6.897   1.687   4.393
  121OSM   H18F12805   0.057   1.613   4.348
  121OSM   H18G12806   6.901   1.786   4.344
  121OSM   H18H12807   6.793   1.648   4.390
  122OSM      N12808   6.448   4.818   6.812
  122OSM    C1512809   6.375   4.844   6.935
  122OSM   H15A12810   6.285   4.786   6.949
  122OSM   H15B12811   6.333   4.944   6.933
  122OSM   H15C12812   6.435   4.840   7.025
  122OSM    C1412813   6.541   4.938   6.797
  122OSM   H14A12814   6.485   5.029   6.784
  122OSM   H14B12815   6.609   4.928   6.713
  122OSM   H14C12816   6.602   4.956   6.884
  122OSM    C1312817   6.531   4.697   6.832
  122OSM   H13A12818   6.589   4.719   6.920
  122OSM   H13B12819   6.595   4.688   6.745
  122OSM   H13C12820   6.471   4.608   6.845
  122OSM    C1212821   6.358   4.806   6.691
  122OSM   H12A12822   6.285   4.884   6.701
  122OSM   H12B12823   6.313   4.709   6.709
  122OSM    C1112824   6.422   4.781   6.553
  122OSM   H11A12825   6.505   4.853   6.536
  122OSM   H11B12826   6.345   4.806   6.478
  122OSM      P12827   6.381   4.529   6.502
  122OSM    O1312828   6.450   4.407   6.474
  122OSM    O1412829   6.266   4.523   6.589
  122OSM    O1112830   6.315   4.583   6.368
  122OSM    O1212831   6.472   4.646   6.551
  122OSM    C1S12832   6.382   4.563   6.246
  122OSM    H1S12833   6.433   4.464   6.249
  122OSM    H1T12834   6.457   4.642   6.225
  122OSM     NF12835   6.330   4.488   6.005
  122OSM    HNF12836   6.346   4.533   5.917
  122OSM    C2S12837   6.282   4.564   6.123
  122OSM    H2S12838   6.198   4.508   6.170
  122OSM    C3S12839   6.227   4.708   6.099
  122OSM    H3S12840   6.309   4.767   6.052
  122OSM     O312841   6.211   4.773   6.222
  122OSM    HO312842   6.263   4.719   6.282
  122OSM    C4S12843   6.111   4.722   6.002
  122OSM    H4S12844   6.017   4.673   6.031
  122OSM    C5S12845   6.111   4.795   5.892
  122OSM    H5S12846   6.198   4.857   5.867
  122OSM    C6S12847   5.982   4.816   5.807
  122OSM    H6S12848   5.966   4.924   5.785
  122OSM    H6T12849   5.889   4.784   5.859
  122OSM    C7S12850   5.979   4.750   5.663
  122OSM    H7S12851   5.994   4.641   5.676
  122OSM    H7T12852   6.072   4.792   5.620
  122OSM    C8S12853   5.851   4.796   5.591
  122OSM    H8S12854   5.834   4.904   5.578
  122OSM    H8T12855   5.770   4.744   5.647
  122OSM    C9S12856   5.849   4.752   5.446
  122OSM    H9S12857   5.752   4.785   5.402
  122OSM    H9T12858   5.853   4.641   5.451
  122OSM   C10S12859   5.971   4.786   5.349
  122OSM   H10S12860   6.052   4.714   5.372
  122OSM   H10T12861   6.015   4.884   5.379
  122OSM   C11S12862   5.953   4.780   5.205
  122OSM   H11S12863   6.049   4.816   5.164
  122OSM   H11T12864   5.876   4.857   5.181
  122OSM   C12S12865   5.905   4.648   5.144
  122OSM   H12S12866   5.833   4.600   5.213
  122OSM   H12T12867   5.997   4.587   5.135
  122OSM   C13S12868   5.855   4.658   4.996
  122OSM   H13S12869   5.771   4.731   5.005
  122OSM   H13T12870   5.812   4.556   4.989
  122OSM   C14S12871   5.957   4.707   4.888
  122OSM   H14S12872   6.024   4.626   4.854
  122OSM   H14T12873   6.025   4.781   4.934
  122OSM   C15S12874   5.898   4.778   4.765
  122OSM   H15S12875   5.812   4.834   4.806
  122OSM   H15T12876   5.850   4.696   4.707
  122OSM   C16S12877   5.992   4.853   4.673
  122OSM   H16S12878   6.057   4.789   4.610
  122OSM   H16T12879   6.062   4.907   4.740
  122OSM   C17S12880   5.921   4.957   4.587
  122OSM   H17S12881   5.861   5.027   4.649
  122OSM   H17T12882   5.857   4.904   4.514
  122OSM   C18S12883   6.020   5.046   4.507
  122OSM   H18S12884   5.953   5.091   4.432
  122OSM   H18T12885   6.098   4.979   4.464
  122OSM   H18U12886   6.066   5.125   4.570
  122OSM    C1F12887   6.363   4.363   6.013
  122OSM     OF12888   6.335   4.298   6.113
  122OSM    C2F12889   6.427   4.306   5.886
  122OSM    H2F12890   6.527   4.353   5.894
  122OSM    H2G12891   6.370   4.329   5.793
  122OSM    C3F12892   6.435   4.152   5.894
  122OSM    H3F12893   6.336   4.102   5.885
  122OSM    H3G12894   6.479   4.124   5.992
  122OSM    C4F12895   6.515   4.088   5.781
  122OSM    H4F12896   6.529   3.982   5.809
  122OSM    H4G12897   6.611   4.144   5.784
  122OSM    C5F12898   6.455   4.104   5.646
  122OSM    H5F12899   6.455   4.212   5.622
  122OSM    H5G12900   6.349   4.072   5.642
  122OSM    C6F12901   6.543   4.040   5.528
  122OSM    H6F12902   6.547   3.929   5.533
  122OSM    H6G12903   6.651   4.065   5.535
  122OSM    C7F12904   6.482   4.070   5.387
  122OSM    H7F12905   6.376   4.037   5.390
  122OSM    H7G12906   6.536   3.996   5.324
  122OSM    C8F12907   6.498   4.214   5.350
  122OSM    H8F12908   6.607   4.234   5.338
  122OSM    H8G12909   6.454   4.278   5.430
  122OSM    C9F12910   6.424   4.249   5.226
  122OSM    H9F12911   6.328   4.299   5.246
  122OSM   C10F12912   6.458   4.241   5.091
  122OSM   H10F12913   6.380   4.262   5.016
  122OSM   C11F12914   6.585   4.178   5.046
  122OSM   H11F12915   6.645   4.135   5.129
  122OSM   H11G12916   6.656   4.244   4.991
  122OSM   C12F12917   6.564   4.065   4.944
  122OSM   H12F12918   6.504   3.979   4.979
  122OSM   H12G12919   6.662   4.025   4.909
  122OSM   C13F12920   6.486   4.103   4.815
  122OSM   H13F12921   6.529   4.192   4.764
  122OSM   H13G12922   6.379   4.123   4.838
  122OSM   C14F12923   6.486   3.988   4.708
  122OSM   H14F12924   6.464   3.885   4.745
  122OSM   H14G12925   6.586   3.972   4.664
  122OSM   C15F12926   6.384   4.043   4.597
  122OSM   H15F12927   6.399   4.152   4.581
  122OSM   H15G12928   6.279   4.035   4.632
  122OSM   C16F12929   6.401   3.966   4.464
  122OSM   H16F12930   6.370   3.859   4.467
  122OSM   H16G12931   6.503   3.985   4.422
  122OSM   C17F12932   6.310   4.048   4.368
  122OSM   H17F12933   6.333   4.157   4.372
  122OSM   H17G12934   6.202   4.035   4.390
  122OSM   C18F12935   6.336   3.999   4.227
  122OSM   H18F12936   6.353   3.890   4.221
  122OSM   H18G12937   6.435   4.037   4.193
  122OSM   H18H12938   6.253   4.021   4.156
  123OSM      N12939   2.682   2.610   2.084
  123OSM    C1512940   2.786   2.535   1.999
  123OSM   H15A12941   2.876   2.531   2.059
  123OSM   H15B12942   2.803   2.587   1.906
  123OSM   H15C12943   2.748   2.439   1.967
  123OSM    C1412944   2.658   2.520   2.205
  123OSM   H14A12945   2.758   2.489   2.234
  123OSM   H14B12946   2.602   2.430   2.182
  123OSM   H14C12947   2.612   2.569   2.290
  123OSM    C1312948   2.731   2.741   2.115
  123OSM   H13A12949   2.767   2.799   2.031
  123OSM   H13B12950   2.822   2.727   2.170
  123OSM   H13C12951   2.661   2.799   2.172
  123OSM    C1212952   2.559   2.618   1.992
  123OSM   H12A12953   2.524   2.520   1.964
  123OSM   H12B12954   2.591   2.673   1.904
  123OSM    C1112955   2.434   2.688   2.044
  123OSM   H11A12956   2.377   2.613   2.104
  123OSM   H11B12957   2.368   2.696   1.955
  123OSM      P12958   2.421   2.951   2.046
  123OSM    O1312959   2.553   3.010   2.007
  123OSM    O1412960   2.321   2.954   1.945
  123OSM    O1112961   2.363   3.022   2.178
  123OSM    O1212962   2.448   2.812   2.114
  123OSM    C1S12963   2.236   2.978   2.223
  123OSM    H1S12964   2.209   2.875   2.191
  123OSM    H1T12965   2.163   3.056   2.192
  123OSM     NF12966   2.108   2.912   2.426
  123OSM    HNF12967   2.035   2.975   2.452
  123OSM    C2S12968   2.230   2.974   2.377
  123OSM    H2S12969   2.319   2.924   2.419
  123OSM    C3S12970   2.242   3.133   2.415
  123OSM    H3S12971   2.148   3.176   2.374
  123OSM     O312972   2.361   3.198   2.362
  123OSM    HO312973   2.393   3.138   2.294
  123OSM    C4S12974   2.249   3.148   2.564
  123OSM    H4S12975   2.334   3.090   2.601
  123OSM    C5S12976   2.161   3.219   2.640
  123OSM    H5S12977   2.088   3.282   2.588
  123OSM    C6S12978   2.151   3.228   2.791
  123OSM    H6S12979   2.041   3.226   2.805
  123OSM    H6T12980   2.176   3.331   2.823
  123OSM    C7S12981   2.217   3.122   2.873
  123OSM    H7S12982   2.328   3.128   2.873
  123OSM    H7T12983   2.184   3.021   2.838
  123OSM    C8S12984   2.179   3.145   3.020
  123OSM    H8S12985   2.077   3.101   3.025
  123OSM    H8T12986   2.172   3.253   3.047
  123OSM    C9S12987   2.282   3.074   3.106
  123OSM    H9S12988   2.375   3.133   3.096
  123OSM    H9T12989   2.305   2.973   3.067
  123OSM   C10S12990   2.235   3.066   3.248
  123OSM   H10S12991   2.137   3.014   3.257
  123OSM   H10T12992   2.211   3.169   3.284
  123OSM   C11S12993   2.333   3.014   3.353
  123OSM   H11S12994   2.429   3.067   3.334
  123OSM   H11T12995   2.350   2.905   3.356
  123OSM   C12S12996   2.291   3.043   3.502
  123OSM   H12S12997   2.183   3.031   3.522
  123OSM   H12T12998   2.302   3.154   3.510
  123OSM   C13S12999   2.362   2.966   3.613
  123OSM   H13S13000   2.468   2.999   3.621
  123OSM   H13T13001   2.354   2.855   3.607
  123OSM   C14S13002   2.304   2.995   3.756
  123OSM   H14S13003   2.195   2.979   3.766
  123OSM   H14T13004   2.327   3.102   3.771
  123OSM   C15S13005   2.378   2.927   3.872
  123OSM   H15S13006   2.488   2.935   3.860
  123OSM   H15T13007   2.351   2.822   3.896
  123OSM   C16S13008   2.366   2.997   4.004
  123OSM   H16S13009   2.423   3.092   4.010
  123OSM   H16T13010   2.415   2.932   4.080
  123OSM   C17S13011   2.221   3.037   4.051
  123OSM   H17S13012   2.139   2.969   4.020
  123OSM   H17T13013   2.191   3.128   3.994
  123OSM   C18S13014   2.214   3.062   4.198
  123OSM   H18S13015   2.203   2.968   4.255
  123OSM   H18T13016   2.125   3.119   4.233
  123OSM   H18U13017   2.303   3.121   4.229
  123OSM    C1F13018   2.087   2.777   2.420
  123OSM     OF13019   2.168   2.702   2.363
  123OSM    C2F13020   1.956   2.718   2.473
  123OSM    H2F13021   1.916   2.672   2.381
  123OSM    H2G13022   1.894   2.808   2.494
  123OSM    C3F13023   1.984   2.631   2.591
  123OSM    H3F13024   2.056   2.546   2.583
  123OSM    H3G13025   1.886   2.588   2.621
  123OSM    C4F13026   2.028   2.696   2.722
  123OSM    H4F13027   1.946   2.767   2.750
  123OSM    H4G13028   2.119   2.758   2.707
  123OSM    C5F13029   2.055   2.594   2.836
  123OSM    H5F13030   2.131   2.521   2.800
  123OSM    H5G13031   1.955   2.546   2.840
  123OSM    C6F13032   2.092   2.647   2.966
  123OSM    H6F13033   2.008   2.701   3.014
  123OSM    H6G13034   2.171   2.721   2.942
  123OSM    C7F13035   2.162   2.548   3.057
  123OSM    H7F13036   2.247   2.513   2.995
  123OSM    H7G13037   2.101   2.464   3.096
  123OSM    C8F13038   2.228   2.616   3.182
  123OSM    H8F13039   2.283   2.701   3.137
  123OSM    H8G13040   2.308   2.557   3.232
  123OSM    C9F13041   2.125   2.672   3.275
  123OSM    H9F13042   2.055   2.752   3.246
  123OSM   C10F13043   2.113   2.627   3.403
  123OSM   H10F13044   2.035   2.677   3.463
  123OSM   C11F13045   2.173   2.513   3.480
  123OSM   H11F13046   2.260   2.469   3.427
  123OSM   H11G13047   2.099   2.431   3.491
  123OSM   C12F13048   2.210   2.563   3.618
  123OSM   H12F13049   2.123   2.581   3.685
  123OSM   H12G13050   2.259   2.663   3.621
  123OSM   C13F13051   2.307   2.468   3.697
  123OSM   H13F13052   2.411   2.464   3.656
  123OSM   H13G13053   2.266   2.367   3.671
  123OSM   C14F13054   2.313   2.480   3.850
  123OSM   H14F13055   2.358   2.580   3.870
  123OSM   H14G13056   2.385   2.403   3.884
  123OSM   C15F13057   2.187   2.447   3.931
  123OSM   H15F13058   2.173   2.342   3.896
  123OSM   H15G13059   2.096   2.498   3.890
  123OSM   C16F13060   2.191   2.449   4.083
  123OSM   H16F13061   2.184   2.555   4.114
  123OSM   H16G13062   2.287   2.400   4.112
  123OSM   C17F13063   2.074   2.368   4.143
  123OSM   H17F13064   2.055   2.284   4.073
  123OSM   H17G13065   1.991   2.441   4.136
  123OSM   C18F13066   2.083   2.321   4.288
  123OSM   H18F13067   2.132   2.397   4.353
  123OSM   H18G13068   2.132   2.222   4.293
  123OSM   H18H13069   1.980   2.317   4.331
  124OSM      N13070   2.959   3.314   1.607
  124OSM    C1513071   2.988   3.453   1.576
  124OSM   H15A13072   2.912   3.497   1.513
  124OSM   H15B13073   3.076   3.446   1.513
  124OSM   H15C13074   2.996   3.517   1.663
  124OSM    C1413075   2.928   3.238   1.486
  124OSM   H14A13076   2.841   3.273   1.432
  124OSM   H14B13077   2.929   3.132   1.504
  124OSM   H14C13078   3.010   3.245   1.416
  124OSM    C1313079   3.076   3.245   1.667
  124OSM   H13A13080   3.119   3.305   1.746
  124OSM   H13B13081   3.152   3.226   1.593
  124OSM   H13C13082   3.041   3.162   1.726
  124OSM    C1213083   2.846   3.309   1.712
  124OSM   H12A13084   2.811   3.206   1.714
  124OSM   H12B13085   2.766   3.368   1.672
  124OSM    C1113086   2.865   3.358   1.854
  124OSM   H11A13087   2.954   3.305   1.894
  124OSM   H11B13088   2.786   3.324   1.924
  124OSM      P13089   2.758   3.592   1.857
  124OSM    O1313090   2.806   3.733   1.864
  124OSM    O1413091   2.667   3.554   1.744
  124OSM    O1113092   2.695   3.549   1.997
  124OSM    O1213093   2.882   3.497   1.846
  124OSM    C1S13094   2.773   3.537   2.116
  124OSM    H1S13095   2.878   3.512   2.090
  124OSM    H1T13096   2.733   3.446   2.166
  124OSM     NF13097   2.826   3.624   2.337
  124OSM    HNF13098   2.774   3.564   2.398
  124OSM    C2S13099   2.748   3.653   2.218
  124OSM    H2S13100   2.772   3.755   2.181
  124OSM    C3S13101   2.590   3.667   2.239
  124OSM    H3S13102   2.553   3.564   2.259
  124OSM     O313103   2.509   3.695   2.124
  124OSM    HO313104   2.567   3.689   2.047
  124OSM    C4S13105   2.550   3.761   2.355
  124OSM    H4S13106   2.530   3.705   2.447
  124OSM    C5S13107   2.523   3.896   2.347
  124OSM    H5S13108   2.532   3.953   2.254
  124OSM    C6S13109   2.469   3.977   2.467
  124OSM    H6S13110   2.358   3.983   2.471
  124OSM    H6T13111   2.501   4.082   2.479
  124OSM    C7S13112   2.508   3.919   2.604
  124OSM    H7S13113   2.618   3.904   2.602
  124OSM    H7T13114   2.455   3.822   2.612
  124OSM    C8S13115   2.463   4.016   2.713
  124OSM    H8S13116   2.355   4.006   2.688
  124OSM    H8T13117   2.501   4.120   2.705
  124OSM    C9S13118   2.485   3.956   2.858
  124OSM    H9S13119   2.586   3.961   2.903
  124OSM    H9T13120   2.463   3.847   2.854
  124OSM   C10S13121   2.395   4.018   2.968
  124OSM   H10S13122   2.289   4.021   2.933
  124OSM   H10T13123   2.426   4.122   2.993
  124OSM   C11S13124   2.425   3.932   3.100
  124OSM   H11S13125   2.523   3.972   3.134
  124OSM   H11T13126   2.433   3.822   3.085
  124OSM   C12S13127   2.326   3.964   3.212
  124OSM   H12S13128   2.226   3.923   3.188
  124OSM   H12T13129   2.322   4.074   3.225
  124OSM   C13S13130   2.371   3.902   3.351
  124OSM   H13S13131   2.474   3.923   3.388
  124OSM   H13T13132   2.367   3.793   3.328
  124OSM   C14S13133   2.266   3.932   3.456
  124OSM   H14S13134   2.161   3.924   3.421
  124OSM   H14T13135   2.281   4.037   3.487
  124OSM   C15S13136   2.285   3.853   3.586
  124OSM   H15S13137   2.392   3.847   3.615
  124OSM   H15T13138   2.241   3.751   3.572
  124OSM   C16S13139   2.222   3.923   3.696
  124OSM   H16S13140   2.113   3.928   3.675
  124OSM   H16T13141   2.264   4.024   3.712
  124OSM   C17S13142   2.240   3.860   3.834
  124OSM   H17S13143   2.345   3.877   3.866
  124OSM   H17T13144   2.221   3.750   3.831
  124OSM   C18S13145   2.141   3.911   3.940
  124OSM   H18S13146   2.190   4.002   3.983
  124OSM   H18T13147   2.116   3.832   4.015
  124OSM   H18U13148   2.045   3.953   3.905
  124OSM    C1F13149   2.957   3.631   2.334
  124OSM     OF13150   3.019   3.714   2.269
  124OSM    C2F13151   3.034   3.537   2.409
  124OSM    H2F13152   3.070   3.459   2.339
  124OSM    H2G13153   2.968   3.480   2.478
  124OSM    C3F13154   3.142   3.604   2.483
  124OSM    H3F13155   3.204   3.656   2.407
  124OSM    H3G13156   3.209   3.527   2.527
  124OSM    C4F13157   3.087   3.699   2.586
  124OSM    H4F13158   2.998   3.653   2.633
  124OSM    H4G13159   3.048   3.793   2.542
  124OSM    C5F13160   3.193   3.741   2.689
  124OSM    H5F13161   3.263   3.800   2.625
  124OSM    H5G13162   3.252   3.654   2.724
  124OSM    C6F13163   3.144   3.809   2.817
  124OSM    H6F13164   3.065   3.751   2.869
  124OSM    H6G13165   3.106   3.912   2.799
  124OSM    C7F13166   3.269   3.822   2.913
  124OSM    H7F13167   3.359   3.873   2.873
  124OSM    H7G13168   3.309   3.724   2.946
  124OSM    C8F13169   3.244   3.889   3.052
  124OSM    H8F13170   3.205   3.990   3.029
  124OSM    H8G13171   3.344   3.894   3.100
  124OSM    C9F13172   3.138   3.825   3.132
  124OSM    H9F13173   3.047   3.798   3.075
  124OSM   C10F13174   3.140   3.775   3.261
  124OSM   H10F13175   3.043   3.736   3.295
  124OSM   C11F13176   3.252   3.790   3.352
  124OSM   H11F13177   3.335   3.848   3.307
  124OSM   H11G13178   3.301   3.694   3.378
  124OSM   C12F13179   3.204   3.864   3.472
  124OSM   H12F13180   3.144   3.952   3.442
  124OSM   H12G13181   3.288   3.916   3.522
  124OSM   C13F13182   3.135   3.773   3.577
  124OSM   H13F13183   3.202   3.686   3.593
  124OSM   H13G13184   3.039   3.726   3.544
  124OSM   C14F13185   3.108   3.836   3.715
  124OSM   H14F13186   3.023   3.909   3.713
  124OSM   H14G13187   3.202   3.895   3.723
  124OSM   C15F13188   3.103   3.741   3.829
  124OSM   H15F13189   3.186   3.667   3.829
  124OSM   H15G13190   3.019   3.676   3.798
  124OSM   C16F13191   3.082   3.794   3.966
  124OSM   H16F13192   3.033   3.894   3.963
  124OSM   H16G13193   3.180   3.819   4.011
  124OSM   C17F13194   2.983   3.719   4.059
  124OSM   H17F13195   2.885   3.741   4.010
  124OSM   H17G13196   2.995   3.753   4.164
  124OSM   C18F13197   3.003   3.570   4.072
  124OSM   H18F13198   3.084   3.546   4.144
  124OSM   H18G13199   3.016   3.518   3.974
  124OSM   H18H13200   2.918   3.519   4.123
  125OSM      N13201   4.426   0.956   2.431
  125OSM    C1513202   4.502   1.081   2.406
  125OSM   H15A13203   4.444   1.161   2.448
  125OSM   H15B13204   4.525   1.094   2.301
  125OSM   H15C13205   4.594   1.087   2.462
  125OSM    C1413206   4.527   0.850   2.380
  125OSM   H14A13207   4.626   0.866   2.420
  125OSM   H14B13208   4.525   0.854   2.272
  125OSM   H14C13209   4.488   0.754   2.408
  125OSM    C1313210   4.401   0.935   2.573
  125OSM   H13A13211   4.338   1.011   2.616
  125OSM   H13B13212   4.487   0.933   2.638
  125OSM   H13C13213   4.355   0.839   2.591
  125OSM    C1213214   4.290   0.962   2.350
  125OSM   H12A13215   4.310   0.988   2.247
  125OSM   H12B13216   4.226   1.039   2.391
  125OSM    C1113217   4.208   0.829   2.349
  125OSM   H11A13218   4.115   0.855   2.295
  125OSM   H11B13219   4.170   0.810   2.452
  125OSM      P13220   4.271   0.578   2.350
  125OSM    O1313221   4.298   0.482   2.245
  125OSM    O1413222   4.357   0.570   2.470
  125OSM    O1113223   4.120   0.575   2.397
  125OSM    O1213224   4.285   0.721   2.290
  125OSM    C1S13225   4.063   0.454   2.439
  125OSM    H1S13226   4.130   0.367   2.456
  125OSM    H1T13227   3.985   0.415   2.370
  125OSM     NF13228   3.934   0.338   2.618
  125OSM    HNF13229   3.837   0.320   2.627
  125OSM    C2S13230   3.983   0.468   2.569
  125OSM    H2S13231   4.060   0.505   2.641
  125OSM    C3S13232   3.882   0.588   2.567
  125OSM    H3S13233   3.807   0.568   2.488
  125OSM     O313234   3.939   0.712   2.526
  125OSM    HO313235   4.022   0.668   2.505
  125OSM    C4S13236   3.834   0.601   2.707
  125OSM    H4S13237   3.899   0.666   2.767
  125OSM    C5S13238   3.712   0.565   2.765
  125OSM    H5S13239   3.630   0.516   2.711
  125OSM    C6S13240   3.694   0.604   2.909
  125OSM    H6S13241   3.587   0.633   2.921
  125OSM    H6T13242   3.761   0.683   2.951
  125OSM    C7S13243   3.711   0.482   2.999
  125OSM    H7S13244   3.815   0.444   2.987
  125OSM    H7T13245   3.644   0.396   2.976
  125OSM    C8S13246   3.677   0.525   3.147
  125OSM    H8S13247   3.573   0.564   3.152
  125OSM    H8T13248   3.746   0.610   3.162
  125OSM    C9S13249   3.693   0.415   3.252
  125OSM    H9S13250   3.801   0.390   3.247
  125OSM    H9T13251   3.633   0.326   3.224
  125OSM   C10S13252   3.672   0.463   3.399
  125OSM   H10S13253   3.563   0.468   3.419
  125OSM   H10T13254   3.718   0.563   3.416
  125OSM   C11S13255   3.733   0.366   3.497
  125OSM   H11S13256   3.839   0.349   3.469
  125OSM   H11T13257   3.669   0.275   3.497
  125OSM   C12S13258   3.734   0.412   3.646
  125OSM   H12S13259   3.695   0.515   3.653
  125OSM   H12T13260   3.840   0.406   3.680
  125OSM   C13S13261   3.636   0.333   3.736
  125OSM   H13S13262   3.644   0.223   3.724
  125OSM   H13T13263   3.534   0.354   3.699
  125OSM   C14S13264   3.652   0.369   3.886
  125OSM   H14S13265   3.554   0.336   3.927
  125OSM   H14T13266   3.665   0.478   3.902
  125OSM   C15S13267   3.779   0.300   3.942
  125OSM   H15S13268   3.871   0.337   3.892
  125OSM   H15T13269   3.777   0.192   3.915
  125OSM   C16S13270   3.780   0.328   4.089
  125OSM   H16S13271   3.680   0.325   4.139
  125OSM   H16T13272   3.822   0.430   4.104
  125OSM   C17S13273   3.874   0.242   4.173
  125OSM   H17S13274   3.859   0.283   4.275
  125OSM   H17T13275   3.977   0.260   4.135
  125OSM   C18S13276   3.852   0.090   4.187
  125OSM   H18S13277   3.820   0.040   4.093
  125OSM   H18T13278   3.771   0.073   4.261
  125OSM   H18U13279   3.939   0.034   4.226
  125OSM    C1F13280   4.008   0.237   2.655
  125OSM     OF13281   4.129   0.243   2.674
  125OSM    C2F13282   3.936   0.106   2.667
  125OSM    H2F13283   3.987   0.026   2.609
  125OSM    H2G13284   3.836   0.113   2.621
  125OSM    C3F13285   3.930   0.075   2.822
  125OSM    H3F13286   4.032   0.074   2.865
  125OSM    H3G13287   3.882   6.885   2.838
  125OSM    C4F13288   3.842   0.178   2.901
  125OSM    H4F13289   3.753   0.213   2.845
  125OSM    H4G13290   3.897   0.263   2.946
  125OSM    C5F13291   3.773   0.114   3.022
  125OSM    H5F13292   3.704   0.035   2.985
  125OSM    H5G13293   3.707   0.192   3.065
  125OSM    C6F13294   3.875   0.044   3.128
  125OSM    H6F13295   3.956   0.119   3.145
  125OSM    H6G13296   3.933   6.868   3.086
  125OSM    C7F13297   3.797   0.013   3.261
  125OSM    H7F13298   3.712   6.854   3.242
  125OSM    H7G13299   3.763   0.115   3.289
  125OSM    C8F13300   3.888   6.866   3.367
  125OSM    H8F13301   3.991   6.906   3.356
  125OSM    H8G13302   3.914   6.764   3.331
  125OSM    C9F13303   3.842   6.876   3.510
  125OSM    H9F13304   3.796   0.063   3.538
  125OSM   C10F13305   3.828   6.784   3.608
  125OSM   H10F13306   3.784   6.806   3.706
  125OSM   C11F13307   3.870   6.638   3.587
  125OSM   H11F13308   3.941   6.624   3.503
  125OSM   H11G13309   3.777   6.582   3.563
  125OSM   C12F13310   3.919   6.579   3.725
  125OSM   H12F13311   3.835   6.605   3.792
  125OSM   H12G13312   4.011   6.628   3.762
  125OSM   C13F13313   3.938   6.422   3.730
  125OSM   H13F13314   4.045   6.404   3.704
  125OSM   H13G13315   3.882   6.362   3.655
  125OSM   C14F13316   3.884   6.374   3.866
  125OSM   H14F13317   3.798   6.437   3.895
  125OSM   H14G13318   3.960   6.392   3.946
  125OSM   C15F13319   3.841   6.228   3.871
  125OSM   H15F13320   3.921   6.166   3.824
  125OSM   H15G13321   3.755   6.217   3.801
  125OSM   C16F13322   3.783   6.186   4.006
  125OSM   H16F13323   3.704   6.252   4.048
  125OSM   H16G13324   3.863   6.207   4.079
  125OSM   C17F13325   3.720   6.051   4.019
  125OSM   H17F13326   3.801   5.979   3.996
  125OSM   H17G13327   3.645   6.053   3.937
  125OSM   C18F13328   3.659   6.019   4.159
  125OSM   H18F13329   3.599   6.109   4.186
  125OSM   H18G13330   3.742   6.010   4.232
  125OSM   H18H13331   3.582   5.940   4.149
  126OSM      N13332   2.314   1.778   1.501
  126OSM    C1513333   2.289   1.737   1.360
  126OSM   H15A13334   2.243   1.640   1.346
  126OSM   H15B13335   2.377   1.735   1.298
  126OSM   H15C13336   2.214   1.803   1.321
  126OSM    C1413337   2.345   1.919   1.499
  126OSM   H14A13338   2.323   1.959   1.597
  126OSM   H14B13339   2.304   1.972   1.414
  126OSM   H14C13340   2.453   1.919   1.487
  126OSM    C1313341   2.190   1.755   1.584
  126OSM   H13A13342   2.185   1.652   1.613
  126OSM   H13B13343   2.099   1.782   1.532
  126OSM   H13C13344   2.188   1.814   1.674
  126OSM    C1213345   2.435   1.704   1.564
  126OSM   H12A13346   2.522   1.719   1.502
  126OSM   H12B13347   2.418   1.597   1.565
  126OSM    C1113348   2.463   1.744   1.709
  126OSM   H11A13349   2.530   1.665   1.750
  126OSM   H11B13350   2.373   1.725   1.771
  126OSM      P13351   2.660   1.905   1.760
  126OSM    O1313352   2.749   1.840   1.656
  126OSM    O1413353   2.686   2.055   1.785
  126OSM    O1113354   2.674   1.829   1.899
  126OSM    O1213355   2.509   1.879   1.722
  126OSM    C1S13356   2.806   1.804   1.957
  126OSM    H1S13357   2.849   1.901   1.991
  126OSM    H1T13358   2.884   1.751   1.899
  126OSM     NF13359   2.940   1.724   2.144
  126OSM    HNF13360   2.999   1.645   2.129
  126OSM    C2S13361   2.803   1.734   2.093
  126OSM    H2S13362   2.736   1.797   2.155
  126OSM    C3S13363   2.747   1.594   2.081
  126OSM    H3S13364   2.826   1.540   2.026
  126OSM     O313365   2.631   1.589   1.998
  126OSM    HO313366   2.625   1.677   1.959
  126OSM    C4S13367   2.722   1.540   2.209
  126OSM    H4S13368   2.630   1.578   2.257
  126OSM    C5S13369   2.794   1.451   2.278
  126OSM    H5S13370   2.890   1.415   2.240
  126OSM    C6S13371   2.768   1.401   2.418
  126OSM    H6S13372   2.858   1.425   2.479
  126OSM    H6T13373   2.766   1.290   2.415
  126OSM    C7S13374   2.646   1.453   2.490
  126OSM    H7S13375   2.560   1.424   2.426
  126OSM    H7T13376   2.642   1.562   2.509
  126OSM    C8S13377   2.619   1.379   2.620
  126OSM    H8S13378   2.613   1.271   2.593
  126OSM    H8T13379   2.518   1.414   2.650
  126OSM    C9S13380   2.718   1.403   2.736
  126OSM    H9S13381   2.727   1.513   2.745
  126OSM    H9T13382   2.812   1.352   2.706
  126OSM   C10S13383   2.663   1.349   2.868
  126OSM   H10S13384   2.634   1.243   2.853
  126OSM   H10T13385   2.572   1.410   2.887
  126OSM   C11S13386   2.758   1.363   2.981
  126OSM   H11S13387   2.768   1.472   3.001
  126OSM   H11T13388   2.860   1.322   2.966
  126OSM   C12S13389   2.687   1.292   3.092
  126OSM   H12S13390   2.638   1.196   3.065
  126OSM   H12T13391   2.618   1.365   3.141
  126OSM   C13S13392   2.780   1.255   3.209
  126OSM   H13S13393   2.852   1.337   3.229
  126OSM   H13T13394   2.841   1.173   3.166
  126OSM   C14S13395   2.711   1.218   3.338
  126OSM   H14S13396   2.628   1.147   3.318
  126OSM   H14T13397   2.662   1.312   3.373
  126OSM   C15S13398   2.806   1.166   3.446
  126OSM   H15S13399   2.750   1.145   3.540
  126OSM   H15T13400   2.891   1.230   3.479
  126OSM   C16S13401   2.856   1.023   3.413
  126OSM   H16S13402   2.901   1.020   3.311
  126OSM   H16T13403   2.769   0.955   3.413
  126OSM   C17S13404   2.969   0.969   3.502
  126OSM   H17S13405   3.050   1.042   3.484
  126OSM   H17T13406   2.995   0.867   3.468
  126OSM   C18S13407   2.939   0.985   3.650
  126OSM   H18S13408   2.926   1.090   3.684
  126OSM   H18T13409   3.031   0.957   3.705
  126OSM   H18U13410   2.863   0.911   3.685
  126OSM    C1F13411   3.011   1.831   2.196
  126OSM     OF13412   2.946   1.935   2.198
  126OSM    C2F13413   3.152   1.808   2.241
  126OSM    H2F13414   3.222   1.844   2.163
  126OSM    H2G13415   3.175   1.700   2.258
  126OSM    C3F13416   3.173   1.881   2.373
  126OSM    H3F13417   3.102   1.841   2.449
  126OSM    H3G13418   3.139   1.986   2.360
  126OSM    C4F13419   3.317   1.890   2.427
  126OSM    H4F13420   3.368   1.964   2.361
  126OSM    H4G13421   3.367   1.793   2.405
  126OSM    C5F13422   3.338   1.918   2.577
  126OSM    H5F13423   3.441   1.896   2.611
  126OSM    H5G13424   3.269   1.859   2.641
  126OSM    C6F13425   3.302   2.065   2.614
  126OSM    H6F13426   3.195   2.087   2.591
  126OSM    H6G13427   3.367   2.130   2.551
  126OSM    C7F13428   3.304   2.097   2.763
  126OSM    H7F13429   3.400   2.052   2.795
  126OSM    H7G13430   3.221   2.042   2.813
  126OSM    C8F13431   3.297   2.251   2.790
  126OSM    H8F13432   3.382   2.306   2.743
  126OSM    H8G13433   3.316   2.260   2.899
  126OSM    C9F13434   3.172   2.311   2.747
  126OSM    H9F13435   3.169   2.314   2.637
  126OSM   C10F13436   3.069   2.348   2.824
  126OSM   H10F13437   2.976   2.386   2.780
  126OSM   C11F13438   3.072   2.338   2.976
  126OSM   H11F13439   2.992   2.402   3.020
  126OSM   H11G13440   3.166   2.378   3.019
  126OSM   C12F13441   3.048   2.191   3.038
  126OSM   H12F13442   3.142   2.135   3.024
  126OSM   H12G13443   2.981   2.130   2.973
  126OSM   C13F13444   2.997   2.179   3.177
  126OSM   H13F13445   2.974   2.081   3.224
  126OSM   H13G13446   2.896   2.225   3.185
  126OSM   C14F13447   3.089   2.251   3.283
  126OSM   H14F13448   3.100   2.361   3.270
  126OSM   H14G13449   3.183   2.192   3.278
  126OSM   C15F13450   3.018   2.276   3.419
  126OSM   H15F13451   2.992   2.177   3.461
  126OSM   H15G13452   2.919   2.326   3.408
  126OSM   C16F13453   3.108   2.351   3.519
  126OSM   H16F13454   3.148   2.443   3.472
  126OSM   H16G13455   3.197   2.292   3.550
  126OSM   C17F13456   3.043   2.400   3.646
  126OSM   H17F13457   2.955   2.465   3.625
  126OSM   H17G13458   3.116   2.462   3.702
  126OSM   C18F13459   2.997   2.283   3.738
  126OSM   H18F13460   3.079   2.229   3.790
  126OSM   H18G13461   2.943   2.197   3.692
  126OSM   H18H13462   2.925   2.338   3.803
  127OSM      N13463   2.341   3.340   1.958
  127OSM    C1513464   2.462   3.287   1.893
  127OSM   H15A13465   2.503   3.202   1.945
  127OSM   H15B13466   2.524   3.376   1.895
  127OSM   H15C13467   2.445   3.264   1.788
  127OSM    C1413468   2.378   3.377   2.097
  127OSM   H14A13469   2.466   3.439   2.100
  127OSM   H14B13470   2.399   3.297   2.167
  127OSM   H14C13471   2.303   3.445   2.135
  127OSM    C1313472   2.308   3.469   1.892
  127OSM   H13A13473   2.227   3.518   1.946
  127OSM   H13B13474   2.276   3.447   1.791
  127OSM   H13C13475   2.390   3.538   1.889
  127OSM    C1213476   2.218   3.247   1.961
  127OSM   H12A13477   2.263   3.158   2.003
  127OSM   H12B13478   2.178   3.215   1.866
  127OSM    C1113479   2.108   3.283   2.051
  127OSM   H11A13480   2.072   3.379   2.010
  127OSM   H11B13481   2.143   3.296   2.156
  127OSM      P13482   1.865   3.187   2.009
  127OSM    O1313483   1.858   3.246   1.874
  127OSM    O1413484   1.798   3.056   2.033
  127OSM    O1113485   1.821   3.290   2.116
  127OSM    O1213486   2.014   3.172   2.052
  127OSM    C1S13487   1.757   3.270   2.239
  127OSM    H1S13488   1.732   3.164   2.260
  127OSM    H1T13489   1.657   3.319   2.234
  127OSM     NF13490   1.805   3.276   2.483
  127OSM    HNF13491   1.780   3.344   2.551
  127OSM    C2S13492   1.844   3.321   2.351
  127OSM    H2S13493   1.945   3.283   2.328
  127OSM    C3S13494   1.841   3.478   2.327
  127OSM    H3S13495   1.749   3.521   2.372
  127OSM     O313496   1.859   3.524   2.195
  127OSM    HO313497   1.850   3.446   2.140
  127OSM    C4S13498   1.957   3.527   2.409
  127OSM    H4S13499   2.055   3.489   2.377
  127OSM    C5S13500   1.957   3.601   2.522
  127OSM    H5S13501   1.859   3.636   2.558
  127OSM    C6S13502   2.084   3.634   2.599
  127OSM    H6S13503   2.107   3.743   2.589
  127OSM    H6T13504   2.170   3.577   2.558
  127OSM    C7S13505   2.072   3.610   2.750
  127OSM    H7S13506   2.069   3.499   2.755
  127OSM    H7T13507   1.975   3.660   2.770
  127OSM    C8S13508   2.197   3.654   2.825
  127OSM    H8S13509   2.201   3.765   2.823
  127OSM    H8T13510   2.292   3.622   2.777
  127OSM    C9S13511   2.208   3.598   2.966
  127OSM    H9S13512   2.299   3.639   3.013
  127OSM    H9T13513   2.216   3.487   2.973
  127OSM   C10S13514   2.084   3.641   3.048
  127OSM   H10S13515   1.986   3.612   3.005
  127OSM   H10T13516   2.074   3.751   3.058
  127OSM   C11S13517   2.088   3.579   3.191
  127OSM   H11S13518   2.168   3.626   3.253
  127OSM   H11T13519   2.105   3.469   3.196
  127OSM   C12S13520   1.958   3.606   3.270
  127OSM   H12S13521   1.875   3.569   3.205
  127OSM   H12T13522   1.945   3.713   3.296
  127OSM   C13S13523   1.939   3.518   3.394
  127OSM   H13S13524   1.945   3.415   3.354
  127OSM   H13T13525   1.842   3.541   3.443
  127OSM   C14S13526   2.039   3.539   3.513
  127OSM   H14S13527   2.027   3.644   3.547
  127OSM   H14T13528   2.139   3.529   3.467
  127OSM   C15S13529   2.010   3.441   3.636
  127OSM   H15S13530   2.074   3.350   3.624
  127OSM   H15T13531   1.903   3.410   3.639
  127OSM   C16S13532   2.033   3.505   3.775
  127OSM   H16S13533   1.974   3.599   3.787
  127OSM   H16T13534   2.137   3.538   3.799
  127OSM   C17S13535   2.012   3.409   3.888
  127OSM   H17S13536   2.094   3.336   3.874
  127OSM   H17T13537   1.910   3.364   3.893
  127OSM   C18S13538   2.024   3.479   4.026
  127OSM   H18S13539   1.953   3.564   4.021
  127OSM   H18T13540   2.129   3.516   4.034
  127OSM   H18U13541   2.012   3.420   4.119
  127OSM    C1F13542   1.810   3.151   2.519
  127OSM     OF13543   1.876   3.070   2.451
  127OSM    C2F13544   1.743   3.113   2.646
  127OSM    H2F13545   1.635   3.104   2.619
  127OSM    H2G13546   1.768   3.187   2.726
  127OSM    C3F13547   1.769   2.970   2.706
  127OSM    H3F13548   1.877   2.946   2.714
  127OSM    H3G13549   1.731   2.898   2.631
  127OSM    C4F13550   1.703   2.932   2.837
  127OSM    H4F13551   1.698   2.822   2.846
  127OSM    H4G13552   1.602   2.978   2.837
  127OSM    C5F13553   1.778   2.986   2.956
  127OSM    H5F13554   1.771   3.094   2.981
  127OSM    H5G13555   1.887   2.971   2.947
  127OSM    C6F13556   1.726   2.915   3.084
  127OSM    H6F13557   1.735   2.806   3.068
  127OSM    H6G13558   1.617   2.936   3.084
  127OSM    C7F13559   1.798   2.954   3.210
  127OSM    H7F13560   1.903   2.960   3.175
  127OSM    H7G13561   1.787   2.883   3.295
  127OSM    C8F13562   1.769   3.090   3.271
  127OSM    H8F13563   1.671   3.087   3.324
  127OSM    H8G13564   1.747   3.159   3.186
  127OSM    C9F13565   1.880   3.149   3.352
  127OSM    H9F13566   1.968   3.192   3.302
  127OSM   C10F13567   1.899   3.138   3.487
  127OSM   H10F13568   1.988   3.186   3.529
  127OSM   C11F13569   1.802   3.066   3.583
  127OSM   H11F13570   1.697   3.101   3.578
  127OSM   H11G13571   1.855   3.105   3.672
  127OSM   C12F13572   1.799   2.911   3.592
  127OSM   H12F13573   1.905   2.880   3.584
  127OSM   H12G13574   1.732   2.871   3.512
  127OSM   C13F13575   1.745   2.848   3.722
  127OSM   H13F13576   1.679   2.761   3.700
  127OSM   H13G13577   1.682   2.930   3.762
  127OSM   C14F13578   1.861   2.817   3.822
  127OSM   H14F13579   1.917   2.909   3.851
  127OSM   H14G13580   1.937   2.748   3.782
  127OSM   C15F13581   1.811   2.764   3.958
  127OSM   H15F13582   1.782   2.657   3.949
  127OSM   H15G13583   1.718   2.819   3.983
  127OSM   C16F13584   1.904   2.789   4.074
  127OSM   H16F13585   1.907   2.898   4.095
  127OSM   H16G13586   2.006   2.746   4.056
  127OSM   C17F13587   1.850   2.723   4.199
  127OSM   H17F13588   1.835   2.616   4.174
  127OSM   H17G13589   1.745   2.756   4.212
  127OSM   C18F13590   1.935   2.735   4.323
  127OSM   H18F13591   2.040   2.713   4.296
  127OSM   H18G13592   1.911   2.658   4.399
  127OSM   H18H13593   1.929   2.835   4.370
  128OSM      N13594   1.444   0.936   1.891
  128OSM    C1513595   1.534   0.849   1.810
  128OSM   H15A13596   1.606   0.794   1.870
  128OSM   H15B13597   1.585   0.907   1.734
  128OSM   H15C13598   1.466   0.775   1.770
  128OSM    C1413599   1.346   1.001   1.793
  128OSM   H14A13600   1.279   1.064   1.849
  128OSM   H14B13601   1.288   0.933   1.733
  128OSM   H14C13602   1.391   1.066   1.719
  128OSM    C1313603   1.367   0.850   1.985
  128OSM   H13A13604   1.285   0.795   1.942
  128OSM   H13B13605   1.329   0.916   2.062
  128OSM   H13C13606   1.438   0.782   2.030
  128OSM    C1213607   1.526   1.044   1.961
  128OSM   H12A13608   1.588   0.996   2.036
  128OSM   H12B13609   1.461   1.113   2.012
  128OSM    C1113610   1.627   1.127   1.879
  128OSM   H11A13611   1.646   1.226   1.927
  128OSM   H11B13612   1.571   1.150   1.786
  128OSM      P13613   1.860   1.044   1.970
  128OSM    O1313614   1.897   0.899   1.985
  128OSM    O1413615   1.974   1.133   1.937
  128OSM    O1113616   1.788   1.089   2.102
  128OSM    O1213617   1.748   1.056   1.856
  128OSM    C1S13618   1.777   0.995   2.217
  128OSM    H1S13619   1.872   0.941   2.237
  128OSM    H1T13620   1.706   0.912   2.195
  128OSM     NF13621   1.769   0.963   2.471
  128OSM    HNF13622   1.694   0.914   2.515
  128OSM    C2S13623   1.739   1.058   2.361
  128OSM    H2S13624   1.807   1.144   2.378
  128OSM    C3S13625   1.592   1.115   2.350
  128OSM    H3S13626   1.520   1.031   2.356
  128OSM     O313627   1.565   1.184   2.224
  128OSM    HO313628   1.641   1.161   2.171
  128OSM    C4S13629   1.550   1.206   2.462
  128OSM    H4S13630   1.493   1.155   2.541
  128OSM    C5S13631   1.578   1.337   2.486
  128OSM    H5S13632   1.654   1.385   2.423
  128OSM    C6S13633   1.527   1.411   2.611
  128OSM    H6S13634   1.480   1.339   2.681
  128OSM    H6T13635   1.458   1.495   2.587
  128OSM    C7S13636   1.635   1.484   2.697
  128OSM    H7S13637   1.589   1.535   2.785
  128OSM    H7T13638   1.682   1.563   2.634
  128OSM    C8S13639   1.752   1.395   2.749
  128OSM    H8S13640   1.723   1.289   2.760
  128OSM    H8T13641   1.772   1.433   2.852
  128OSM    C9S13642   1.873   1.405   2.672
  128OSM    H9S13643   1.920   1.505   2.668
  128OSM    H9T13644   1.843   1.375   2.569
  128OSM   C10S13645   1.984   1.307   2.723
  128OSM   H10S13646   2.060   1.299   2.643
  128OSM   H10T13647   1.939   1.206   2.731
  128OSM   C11S13648   2.042   1.354   2.861
  128OSM   H11S13649   1.962   1.335   2.936
  128OSM   H11T13650   2.044   1.465   2.865
  128OSM   C12S13651   2.166   1.281   2.919
  128OSM   H12S13652   2.246   1.305   2.845
  128OSM   H12T13653   2.142   1.173   2.925
  128OSM   C13S13654   2.214   1.347   3.051
  128OSM   H13S13655   2.241   1.452   3.025
  128OSM   H13T13656   2.317   1.306   3.065
  128OSM   C14S13657   2.117   1.322   3.166
  128OSM   H14S13658   2.078   1.218   3.165
  128OSM   H14T13659   2.029   1.385   3.142
  128OSM   C15S13660   2.172   1.368   3.306
  128OSM   H15S13661   2.095   1.346   3.382
  128OSM   H15T13662   2.192   1.477   3.312
  128OSM   C16S13663   2.303   1.296   3.350
  128OSM   H16S13664   2.343   1.338   3.444
  128OSM   H16T13665   2.378   1.328   3.275
  128OSM   C17S13666   2.295   1.143   3.362
  128OSM   H17S13667   2.396   1.097   3.364
  128OSM   H17T13668   2.239   1.097   3.276
  128OSM   C18S13669   2.219   1.106   3.499
  128OSM   H18S13670   2.221   0.996   3.513
  128OSM   H18T13671   2.113   1.138   3.501
  128OSM   H18U13672   2.276   1.161   3.577
  128OSM    C1F13673   1.891   0.937   2.513
  128OSM     OF13674   1.994   0.998   2.466
  128OSM    C2F13675   1.913   0.840   2.614
  128OSM    H2F13676   1.852   0.751   2.586
  128OSM    H2G13677   1.861   0.885   2.701
  128OSM    C3F13678   2.051   0.803   2.652
  128OSM    H3F13679   2.101   0.901   2.664
  128OSM    H3G13680   2.105   0.742   2.576
  128OSM    C4F13681   2.051   0.742   2.787
  128OSM    H4F13682   2.156   0.711   2.802
  128OSM    H4G13683   1.995   0.647   2.773
  128OSM    C5F13684   2.016   0.834   2.903
  128OSM    H5F13685   1.916   0.882   2.894
  128OSM    H5G13686   2.075   0.928   2.892
  128OSM    C6F13687   2.032   0.772   3.040
  128OSM    H6F13688   2.138   0.747   3.062
  128OSM    H6G13689   1.968   0.682   3.051
  128OSM    C7F13690   1.984   0.868   3.159
  128OSM    H7F13691   1.873   0.862   3.149
  128OSM    H7G13692   2.009   0.973   3.130
  128OSM    C8F13693   2.034   0.839   3.300
  128OSM    H8F13694   1.982   0.905   3.374
  128OSM    H8G13695   2.144   0.854   3.303
  128OSM    C9F13696   1.982   0.704   3.343
  128OSM    H9F13697   1.878   0.683   3.314
  128OSM   C10F13698   2.054   0.611   3.413
  128OSM   H10F13699   2.003   0.527   3.463
  128OSM   C11F13700   2.200   0.628   3.455
  128OSM   H11F13701   2.246   0.717   3.408
  128OSM   H11G13702   2.268   0.545   3.426
  128OSM   C12F13703   2.204   0.654   3.604
  128OSM   H12F13704   2.131   0.729   3.638
  128OSM   H12G13705   2.300   0.707   3.624
  128OSM   C13F13706   2.190   0.527   3.692
  128OSM   H13F13707   2.252   0.451   3.640
  128OSM   H13G13708   2.084   0.501   3.676
  128OSM   C14F13709   2.224   0.546   3.845
  128OSM   H14F13710   2.153   0.616   3.894
  128OSM   H14G13711   2.324   0.595   3.841
  128OSM   C15F13712   2.213   0.423   3.926
  128OSM   H15F13713   2.124   0.363   3.896
  128OSM   H15G13714   2.194   0.452   4.032
  128OSM   C16F13715   2.339   0.340   3.943
  128OSM   H16F13716   2.416   0.411   3.980
  128OSM   H16G13717   2.370   0.299   3.844
  128OSM   C17F13718   2.319   0.219   4.043
  128OSM   H17F13719   2.248   0.251   4.122
  128OSM   H17G13720   2.415   0.194   4.092
  128OSM   C18F13721   2.256   0.101   3.968
  128OSM   H18F13722   2.334   0.055   3.903
  128OSM   H18G13723   2.163   0.130   3.913
  128OSM   H18H13724   2.231   0.026   4.045
  129OSM      N13725   3.972   0.537   2.001
  129OSM    C1513726   4.026   0.404   2.042
  129OSM   H15A13727   4.058   0.342   1.959
  129OSM   H15B13728   3.965   0.334   2.097
  129OSM   H15C13729   4.103   0.416   2.116
  129OSM    C1413730   3.950   0.620   2.120
  129OSM   H14A13731   3.938   0.721   2.084
  129OSM   H14B13732   4.038   0.621   2.183
  129OSM   H14C13733   3.858   0.596   2.173
  129OSM    C1313734   4.073   0.614   1.929
  129OSM   H13A13735   4.094   0.568   1.833
  129OSM   H13B13736   4.166   0.630   1.981
  129OSM   H13C13737   4.032   0.708   1.895
  129OSM    C1213738   3.845   0.517   1.913
  129OSM   H12A13739   3.768   0.483   1.981
  129OSM   H12B13740   3.861   0.451   1.829
  129OSM    C1113741   3.780   0.641   1.864
  129OSM   H11A13742   3.716   0.603   1.782
  129OSM   H11B13743   3.854   0.716   1.829
  129OSM      P13744   3.565   0.638   2.018
  129OSM    O1313745   3.450   0.697   1.944
  129OSM    O1413746   3.582   0.493   2.010
  129OSM    O1113747   3.567   0.675   2.166
  129OSM    O1213748   3.703   0.700   1.970
  129OSM    C1S13749   3.458   0.672   2.266
  129OSM    H1S13750   3.404   0.575   2.260
  129OSM    H1T13751   3.389   0.756   2.244
  129OSM     NF13752   3.436   0.675   2.515
  129OSM    HNF13753   3.383   0.745   2.562
  129OSM    C2S13754   3.518   0.710   2.403
  129OSM    H2S13755   3.612   0.650   2.415
  129OSM    C3S13756   3.560   0.856   2.395
  129OSM    H3S13757   3.472   0.919   2.369
  129OSM     O313758   3.647   0.891   2.282
  129OSM    HO313759   3.646   0.806   2.238
  129OSM    C4S13760   3.612   0.900   2.530
  129OSM    H4S13761   3.711   0.854   2.541
  129OSM    C5S13762   3.569   0.994   2.612
  129OSM    H5S13763   3.477   1.041   2.575
  129OSM    C6S13764   3.640   1.027   2.747
  129OSM    H6S13765   3.656   1.136   2.764
  129OSM    H6T13766   3.741   0.982   2.758
  129OSM    C7S13767   3.555   0.974   2.864
  129OSM    H7S13768   3.552   0.864   2.847
  129OSM    H7T13769   3.453   1.017   2.855
  129OSM    C8S13770   3.620   0.997   3.005
  129OSM    H8S13771   3.608   1.105   3.030
  129OSM    H8T13772   3.726   0.973   2.984
  129OSM    C9S13773   3.542   0.926   3.113
  129OSM    H9S13774   3.492   0.836   3.072
  129OSM    H9T13775   3.469   0.999   3.154
  129OSM   C10S13776   3.636   0.892   3.226
  129OSM   H10S13777   3.694   0.985   3.246
  129OSM   H10T13778   3.716   0.822   3.192
  129OSM   C11S13779   3.580   0.828   3.347
  129OSM   H11S13780   3.667   0.805   3.412
  129OSM   H11T13781   3.530   0.730   3.329
  129OSM   C12S13782   3.495   0.917   3.437
  129OSM   H12S13783   3.403   0.933   3.376
  129OSM   H12T13784   3.539   1.019   3.449
  129OSM   C13S13785   3.483   0.855   3.578
  129OSM   H13S13786   3.583   0.863   3.625
  129OSM   H13T13787   3.477   0.745   3.571
  129OSM   C14S13788   3.381   0.926   3.664
  129OSM   H14S13789   3.285   0.919   3.607
  129OSM   H14T13790   3.408   1.033   3.673
  129OSM   C15S13791   3.357   0.863   3.800
  129OSM   H15S13792   3.307   0.765   3.783
  129OSM   H15T13793   3.281   0.918   3.859
  129OSM   C16S13794   3.476   0.838   3.887
  129OSM   H16S13795   3.512   0.942   3.905
  129OSM   H16T13796   3.552   0.782   3.828
  129OSM   C17S13797   3.461   0.744   4.010
  129OSM   H17S13798   3.446   0.643   3.969
  129OSM   H17T13799   3.369   0.782   4.060
  129OSM   C18S13800   3.586   0.759   4.094
  129OSM   H18S13801   3.619   0.864   4.103
  129OSM   H18T13802   3.671   0.702   4.052
  129OSM   H18U13803   3.560   0.725   4.197
  129OSM    C1F13804   3.409   0.553   2.554
  129OSM     OF13805   3.444   0.451   2.493
  129OSM    C2F13806   3.338   0.543   2.680
  129OSM    H2F13807   3.227   0.548   2.680
  129OSM    H2G13808   3.361   0.634   2.740
  129OSM    C3F13809   3.373   0.415   2.762
  129OSM    H3F13810   3.481   0.393   2.770
  129OSM    H3G13811   3.326   0.323   2.719
  129OSM    C4F13812   3.320   0.415   2.905
  129OSM    H4F13813   3.211   0.435   2.895
  129OSM    H4G13814   3.373   0.490   2.968
  129OSM    C5F13815   3.334   0.282   2.973
  129OSM    H5F13816   3.437   0.240   2.966
  129OSM    H5G13817   3.261   0.212   2.926
  129OSM    C6F13818   3.323   0.292   3.127
  129OSM    H6F13819   3.217   0.315   3.148
  129OSM    H6G13820   3.380   0.383   3.154
  129OSM    C7F13821   3.370   0.165   3.200
  129OSM    H7F13822   3.474   0.136   3.176
  129OSM    H7G13823   3.291   0.095   3.164
  129OSM    C8F13824   3.366   0.176   3.351
  129OSM    H8F13825   3.256   0.189   3.362
  129OSM    H8G13826   3.423   0.265   3.387
  129OSM    C9F13827   3.418   0.047   3.411
  129OSM    H9F13828   3.513   0.005   3.374
  129OSM   C10F13829   3.376   6.899   3.526
  129OSM   H10F13830   3.426   6.804   3.554
  129OSM   C11F13831   3.262   0.031   3.615
  129OSM   H11F13832   3.196   0.102   3.561
  129OSM   H11G13833   3.294   0.074   3.712
  129OSM   C12F13834   3.167   6.816   3.650
  129OSM   H12F13835   3.232   6.733   3.687
  129OSM   H12G13836   3.118   6.772   3.560
  129OSM   C13F13837   3.053   6.852   3.752
  129OSM   H13F13838   2.966   6.891   3.696
  129OSM   H13G13839   3.083   0.023   3.822
  129OSM   C14F13840   3.009   6.730   3.832
  129OSM   H14F13841   2.983   6.647   3.762
  129OSM   H14G13842   2.914   6.737   3.888
  129OSM   C15F13843   3.117   6.682   3.936
  129OSM   H15F13844   3.153   6.780   3.973
  129OSM   H15G13845   3.209   6.632   3.896
  129OSM   C16F13846   3.056   6.607   4.058
  129OSM   H16F13847   2.997   6.521   4.019
  129OSM   H16G13848   2.981   6.674   4.106
  129OSM   C17F13849   3.168   6.564   4.150
  129OSM   H17F13850   3.226   6.650   4.190
  129OSM   H17G13851   3.228   6.502   4.080
  129OSM   C18F13852   3.125   6.490   4.273
  129OSM   H18F13853   3.061   6.401   4.254
  129OSM   H18G13854   3.081   6.561   4.346
  129OSM   H18H13855   3.210   6.448   4.331
  130OSM      N13856   3.296   4.887   2.063
  130OSM    C1513857   3.155   4.952   2.054
  130OSM   H15A13858   3.111   4.929   1.958
  130OSM   H15B13859   3.160   5.059   2.061
  130OSM   H15C13860   3.080   4.900   2.112
  130OSM    C1413861   3.398   4.946   1.972
  130OSM   H14A13862   3.500   4.910   1.977
  130OSM   H14B13863   3.422   5.048   1.999
  130OSM   H14C13864   3.359   4.946   1.871
  130OSM    C1313865   3.345   4.896   2.210
  130OSM   H13A13866   3.444   4.853   2.209
  130OSM   H13B13867   3.292   4.834   2.281
  130OSM   H13C13868   3.342   4.998   2.247
  130OSM    C1213869   3.265   4.743   2.029
  130OSM   H12A13870   3.196   4.706   2.103
  130OSM   H12B13871   3.363   4.697   2.033
  130OSM    C1113872   3.205   4.699   1.891
  130OSM   H11A13873   3.113   4.761   1.886
  130OSM   H11B13874   3.173   4.592   1.889
  130OSM      P13875   3.389   4.617   1.732
  130OSM    O1313876   3.350   4.569   1.600
  130OSM    O1413877   3.523   4.682   1.739
  130OSM    O1113878   3.383   4.502   1.842
  130OSM    O1213879   3.288   4.733   1.781
  130OSM    C1S13880   3.498   4.495   1.936
  130OSM    H1S13881   3.498   4.595   1.984
  130OSM    H1T13882   3.593   4.467   1.885
  130OSM     NF13883   3.564   4.425   2.165
  130OSM    HNF13884   3.638   4.359   2.180
  130OSM    C2S13885   3.479   4.398   2.053
  130OSM    H2S13886   3.372   4.419   2.076
  130OSM    C3S13887   3.477   4.253   2.005
  130OSM    H3S13888   3.574   4.215   1.967
  130OSM     O313889   3.390   4.232   1.895
  130OSM    HO313890   3.363   4.321   1.872
  130OSM    C4S13891   3.432   4.166   2.120
  130OSM    H4S13892   3.326   4.179   2.145
  130OSM    C5S13893   3.508   4.083   2.195
  130OSM    H5S13894   3.614   4.055   2.186
  130OSM    C6S13895   3.448   3.997   2.299
  130OSM    H6S13896   3.412   3.900   2.257
  130OSM    H6T13897   3.351   4.034   2.339
  130OSM    C7S13898   3.533   3.963   2.420
  130OSM    H7S13899   3.625   3.904   2.399
  130OSM    H7T13900   3.480   3.894   2.489
  130OSM    C8S13901   3.579   4.082   2.505
  130OSM    H8S13902   3.634   4.143   2.431
  130OSM    H8T13903   3.650   4.056   2.587
  130OSM    C9S13904   3.469   4.171   2.553
  130OSM    H9S13905   3.398   4.193   2.470
  130OSM    H9T13906   3.515   4.269   2.576
  130OSM   C10S13907   3.401   4.124   2.681
  130OSM   H10S13908   3.371   4.018   2.663
  130OSM   H10T13909   3.314   4.189   2.706
  130OSM   C11S13910   3.488   4.126   2.813
  130OSM   H11S13911   3.526   4.023   2.824
  130OSM   H11T13912   3.423   4.139   2.902
  130OSM   C12S13913   3.592   4.238   2.838
  130OSM   H12S13914   3.530   4.330   2.832
  130OSM   H12T13915   3.673   4.229   2.763
  130OSM   C13S13916   3.662   4.253   2.971
  130OSM   H13S13917   3.601   4.259   3.063
  130OSM   H13T13918   3.729   4.343   2.967
  130OSM   C14S13919   3.756   4.138   2.986
  130OSM   H14S13920   3.823   4.138   2.898
  130OSM   H14T13921   3.706   4.039   2.980
  130OSM   C15S13922   3.855   4.148   3.107
  130OSM   H15S13923   3.905   4.247   3.100
  130OSM   H15T13924   3.922   4.063   3.082
  130OSM   C16S13925   3.792   4.128   3.245
  130OSM   H16S13926   3.744   4.215   3.294
  130OSM   H16T13927   3.873   4.090   3.311
  130OSM   C17S13928   3.698   4.007   3.244
  130OSM   H17S13929   3.751   3.918   3.204
  130OSM   H17T13930   3.607   4.011   3.179
  130OSM   C18S13931   3.652   3.976   3.389
  130OSM   H18S13932   3.567   3.906   3.394
  130OSM   H18T13933   3.629   4.062   3.455
  130OSM   H18U13934   3.731   3.916   3.440
  130OSM    C1F13935   3.578   4.541   2.232
  130OSM     OF13936   3.502   4.636   2.218
  130OSM    C2F13937   3.697   4.547   2.323
  130OSM    H2F13938   3.702   4.653   2.356
  130OSM    H2G13939   3.793   4.536   2.268
  130OSM    C3F13940   3.691   4.443   2.438
  130OSM    H3F13941   3.724   4.338   2.421
  130OSM    H3G13942   3.581   4.443   2.458
  130OSM    C4F13943   3.761   4.482   2.563
  130OSM    H4F13944   3.856   4.531   2.534
  130OSM    H4G13945   3.788   4.391   2.621
  130OSM    C5F13946   3.690   4.587   2.650
  130OSM    H5F13947   3.595   4.549   2.693
  130OSM    H5G13948   3.666   4.677   2.590
  130OSM    C6F13949   3.770   4.644   2.767
  130OSM    H6F13950   3.856   4.706   2.735
  130OSM    H6G13951   3.814   4.568   2.836
  130OSM    C7F13952   3.673   4.719   2.864
  130OSM    H7F13953   3.602   4.648   2.913
  130OSM    H7G13954   3.610   4.788   2.804
  130OSM    C8F13955   3.742   4.812   2.969
  130OSM    H8F13956   3.667   4.867   3.030
  130OSM    H8G13957   3.791   4.901   2.925
  130OSM    C9F13958   3.850   4.744   3.044
  130OSM    H9F13959   3.918   4.683   2.983
  130OSM   C10F13960   3.859   4.743   3.177
  130OSM   H10F13961   3.948   4.693   3.218
  130OSM   C11F13962   3.783   4.816   3.290
  130OSM   H11F13963   3.696   4.877   3.256
  130OSM   H11G13964   3.857   4.870   3.352
  130OSM   C12F13965   3.719   4.706   3.378
  130OSM   H12F13966   3.791   4.624   3.398
  130OSM   H12G13967   3.644   4.660   3.309
  130OSM   C13F13968   3.656   4.757   3.508
  130OSM   H13F13969   3.700   4.858   3.523
  130OSM   H13G13970   3.689   4.690   3.590
  130OSM   C14F13971   3.499   4.783   3.501
  130OSM   H14F13972   3.461   4.679   3.496
  130OSM   H14G13973   3.481   4.840   3.407
  130OSM   C15F13974   3.444   4.852   3.627
  130OSM   H15F13975   3.481   4.956   3.637
  130OSM   H15G13976   3.484   4.798   3.716
  130OSM   C16F13977   3.288   4.870   3.632
  130OSM   H16F13978   3.246   4.933   3.713
  130OSM   H16G13979   3.244   4.768   3.640
  130OSM   C17F13980   3.226   4.923   3.502
  130OSM   H17F13981   3.278   4.885   3.412
  130OSM   H17G13982   3.246   5.032   3.494
  130OSM   C18F13983   3.072   4.910   3.501
  130OSM   H18F13984   3.029   4.961   3.590
  130OSM   H18G13985   3.048   4.803   3.511
  130OSM   H18H13986   3.028   4.939   3.403
  131OSM      N13987   0.732   0.843   1.831
  131OSM    C1513988   0.738   0.858   1.682
  131OSM   H15A13989   0.659   0.926   1.652
  131OSM   H15B13990   0.731   0.766   1.626
  131OSM   H15C13991   0.832   0.903   1.654
  131OSM    C1413992   0.730   0.982   1.888
  131OSM   H14A13993   0.826   1.029   1.877
  131OSM   H14B13994   0.708   0.970   1.993
  131OSM   H14C13995   0.646   1.037   1.847
  131OSM    C1313996   0.604   0.783   1.866
  131OSM   H13A13997   0.520   0.844   1.836
  131OSM   H13B13998   0.600   0.763   1.972
  131OSM   H13C13999   0.581   0.688   1.820
  131OSM    C1214000   0.849   0.756   1.886
  131OSM   H12A14001   0.851   0.664   1.830
  131OSM   H12B14002   0.833   0.709   1.982
  131OSM    C1114003   0.991   0.812   1.874
  131OSM   H11A14004   1.009   0.840   1.768
  131OSM   H11B14005   1.075   0.742   1.892
  131OSM      P14006   1.014   0.903   2.112
  131OSM    O1314007   0.902   0.974   2.175
  131OSM    O1414008   1.022   0.760   2.136
  131OSM    O1114009   1.151   0.974   2.152
  131OSM    O1214010   1.016   0.928   1.959
  131OSM    C1S14011   1.158   1.022   2.290
  131OSM    H1S14012   1.092   1.109   2.311
  131OSM    H1T14013   1.259   1.068   2.293
  131OSM     NF14014   1.140   0.984   2.531
  131OSM    HNF14015   1.228   0.984   2.579
  131OSM    C2S14016   1.152   0.914   2.406
  131OSM    H2S14017   1.063   0.851   2.388
  131OSM    C3S14018   1.274   0.813   2.396
  131OSM    H3S14019   1.369   0.870   2.405
  131OSM     O314020   1.288   0.748   2.271
  131OSM    HO314021   1.200   0.769   2.239
  131OSM    C4S14022   1.271   0.718   2.519
  131OSM    H4S14023   1.328   0.756   2.604
  131OSM    C5S14024   1.215   0.596   2.531
  131OSM    H5S14025   1.160   0.549   2.447
  131OSM    C6S14026   1.226   0.500   2.652
  131OSM    H6S14027   1.291   0.416   2.620
  131OSM    H6T14028   1.125   0.458   2.672
  131OSM    C7S14029   1.289   0.561   2.781
  131OSM    H7S14030   1.260   0.668   2.790
  131OSM    H7T14031   1.398   0.579   2.771
  131OSM    C8S14032   1.253   0.481   2.899
  131OSM    H8S14033   1.265   0.371   2.887
  131OSM    H8T14034   1.147   0.500   2.926
  131OSM    C9S14035   1.333   0.530   3.023
  131OSM    H9S14036   1.345   0.641   3.018
  131OSM    H9T14037   1.434   0.485   3.012
  131OSM   C10S14038   1.272   0.481   3.162
  131OSM   H10S14039   1.269   0.370   3.155
  131OSM   H10T14040   1.173   0.525   3.186
  131OSM   C11S14041   1.367   0.532   3.272
  131OSM   H11S14042   1.363   0.641   3.252
  131OSM   H11T14043   1.468   0.492   3.250
  131OSM   C12S14044   1.322   0.493   3.416
  131OSM   H12S14045   1.312   0.384   3.439
  131OSM   H12T14046   1.224   0.540   3.439
  131OSM   C13S14047   1.427   0.543   3.514
  131OSM   H13S14048   1.435   0.652   3.500
  131OSM   H13T14049   1.527   0.503   3.488
  131OSM   C14S14050   1.395   0.519   3.664
  131OSM   H14S14051   1.422   0.415   3.692
  131OSM   H14T14052   1.284   0.523   3.672
  131OSM   C15S14053   1.461   0.615   3.763
  131OSM   H15S14054   1.442   0.575   3.866
  131OSM   H15T14055   1.421   0.718   3.763
  131OSM   C16S14056   1.610   0.622   3.740
  131OSM   H16S14057   1.620   0.683   3.648
  131OSM   H16T14058   1.640   0.516   3.727
  131OSM   C17S14059   1.697   0.684   3.848
  131OSM   H17S14060   1.683   0.631   3.945
  131OSM   H17T14061   1.661   0.788   3.856
  131OSM   C18S14062   1.847   0.696   3.809
  131OSM   H18S14063   1.886   0.759   3.891
  131OSM   H18T14064   1.875   0.750   3.716
  131OSM   H18U14065   1.895   0.595   3.815
  131OSM    C1F14066   1.038   1.059   2.562
  131OSM     OF14067   0.936   1.038   2.499
  131OSM    C2F14068   1.059   1.176   2.658
  131OSM    H2F14069   1.072   1.275   2.607
  131OSM    H2G14070   1.140   1.147   2.727
  131OSM    C3F14071   0.938   1.201   2.759
  131OSM    H3F14072   0.855   1.135   2.727
  131OSM    H3G14073   0.905   1.307   2.759
  131OSM    C4F14074   0.966   1.155   2.911
  131OSM    H4F14075   1.069   1.190   2.931
  131OSM    H4G14076   0.974   1.044   2.910
  131OSM    C5F14077   0.868   1.199   3.012
  131OSM    H5F14078   0.763   1.190   2.976
  131OSM    H5G14079   0.874   1.308   3.035
  131OSM    C6F14080   0.862   1.131   3.155
  131OSM    H6F14081   0.866   1.021   3.139
  131OSM    H6G14082   0.777   1.166   3.216
  131OSM    C7F14083   0.982   1.169   3.245
  131OSM    H7F14084   0.980   1.280   3.259
  131OSM    H7G14085   1.076   1.141   3.193
  131OSM    C8F14086   0.974   1.109   3.385
  131OSM    H8F14087   0.953   1.000   3.390
  131OSM    H8G14088   0.884   1.158   3.428
  131OSM    C9F14089   1.090   1.136   3.474
  131OSM    H9F14090   1.177   1.081   3.434
  131OSM   C10F14091   1.094   1.219   3.578
  131OSM   H10F14092   1.194   1.225   3.623
  131OSM   C11F14093   0.986   1.299   3.647
  131OSM   H11F14094   0.893   1.239   3.657
  131OSM   H11G14095   0.981   1.395   3.591
  131OSM   C12F14096   1.023   1.343   3.789
  131OSM   H12F14097   1.129   1.376   3.794
  131OSM   H12G14098   1.003   1.261   3.861
  131OSM   C13F14099   0.944   1.465   3.840
  131OSM   H13F14100   0.841   1.475   3.799
  131OSM   H13G14101   0.997   1.559   3.815
  131OSM   C14F14102   0.940   1.463   3.991
  131OSM   H14F14103   0.908   1.362   4.023
  131OSM   H14G14104   0.869   1.545   4.020
  131OSM   C15F14105   1.072   1.481   4.065
  131OSM   H15F14106   1.111   1.580   4.033
  131OSM   H15G14107   1.143   1.406   4.025
  131OSM   C16F14108   1.047   1.479   4.217
  131OSM   H16F14109   1.029   1.371   4.237
  131OSM   H16G14110   0.945   1.516   4.242
  131OSM   C17F14111   1.159   1.546   4.297
  131OSM   H17F14112   1.256   1.494   4.283
  131OSM   H17G14113   1.130   1.527   4.403
  131OSM   C18F14114   1.165   1.698   4.293
  131OSM   H18F14115   1.247   1.737   4.356
  131OSM   H18G14116   1.069   1.750   4.317
  131OSM   H18H14117   1.183   1.732   4.189
  132OSM      N14118   6.215   0.152   1.928
  132OSM    C1514119   6.240   0.005   1.933
  132OSM   H15A14120   6.345   6.895   1.918
  132OSM   H15B14121   6.185   6.847   1.868
  132OSM   H15C14122   6.215   6.876   2.031
  132OSM    C1414123   6.283   0.187   1.803
  132OSM   H14A14124   6.273   0.293   1.785
  132OSM   H14B14125   6.249   0.129   1.718
  132OSM   H14C14126   6.391   0.181   1.802
  132OSM    C1314127   6.068   0.163   1.923
  132OSM   H13A14128   6.015   0.137   2.013
  132OSM   H13B14129   6.020   0.102   1.848
  132OSM   H13C14130   6.033   0.265   1.911
  132OSM    C1214131   6.288   0.230   2.040
  132OSM   H12A14132   6.270   0.337   2.040
  132OSM   H12B14133   6.395   0.218   2.032
  132OSM    C1114134   6.257   0.179   2.183
  132OSM   H11A14135   6.313   0.223   2.268
  132OSM   H11B14136   6.278   0.070   2.189
  132OSM      P14137   6.065   0.353   2.244
  132OSM    O1314138   6.134   0.452   2.159
  132OSM    O1414139   5.912   0.347   2.240
  132OSM    O1114140   6.108   0.381   2.397
  132OSM    O1214141   6.117   0.210   2.209
  132OSM    C1S14142   6.124   0.274   2.487
  132OSM    H1S14143   6.225   0.228   2.481
  132OSM    H1T14144   6.049   0.195   2.467
  132OSM     NF14145   6.111   0.201   2.724
  132OSM    HNF14146   6.033   0.164   2.772
  132OSM    C2S14147   6.101   0.313   2.631
  132OSM    H2S14148   6.183   0.385   2.656
  132OSM    C3S14149   5.968   0.389   2.641
  132OSM    H3S14150   5.890   0.329   2.589
  132OSM     O314151   5.975   0.519   2.585
  132OSM    HO314152   6.067   0.522   2.560
  132OSM    C4S14153   5.926   0.417   2.780
  132OSM    H4S14154   5.987   0.496   2.827
  132OSM    C5S14155   5.824   0.364   2.853
  132OSM    H5S14156   5.745   0.294   2.820
  132OSM    C6S14157   5.795   0.420   2.991
  132OSM    H6S14158   5.687   0.444   2.993
  132OSM    H6T14159   5.834   0.522   3.013
  132OSM    C7S14160   5.831   0.319   3.106
  132OSM    H7S14161   5.941   0.310   3.114
  132OSM    H7T14162   5.786   0.220   3.085
  132OSM    C8S14163   5.780   0.381   3.244
  132OSM    H8S14164   5.669   0.371   3.239
  132OSM    H8T14165   5.813   0.487   3.238
  132OSM    C9S14166   5.822   0.309   3.368
  132OSM    H9S14167   5.932   0.301   3.374
  132OSM    H9T14168   5.782   0.205   3.373
  132OSM   C10S14169   5.781   0.379   3.499
  132OSM   H10S14170   5.672   0.396   3.490
  132OSM   H10T14171   5.838   0.474   3.500
  132OSM   C11S14172   5.810   0.301   3.626
  132OSM   H11S14173   5.769   0.200   3.604
  132OSM   H11T14174   5.745   0.331   3.711
  132OSM   C12S14175   5.961   0.296   3.665
  132OSM   H12S14176   5.993   0.400   3.686
  132OSM   H12T14177   6.028   0.259   3.585
  132OSM   C13S14178   5.984   0.203   3.781
  132OSM   H13S14179   5.932   0.107   3.756
  132OSM   H13T14180   5.930   0.230   3.874
  132OSM   C14S14181   6.134   0.179   3.813
  132OSM   H14S14182   6.199   0.181   3.723
  132OSM   H14T14183   6.145   0.081   3.865
  132OSM   C15S14184   6.186   0.301   3.895
  132OSM   H15S14185   6.122   0.322   3.984
  132OSM   H15T14186   6.182   0.399   3.843
  132OSM   C16S14187   6.331   0.278   3.953
  132OSM   H16S14188   6.399   0.253   3.869
  132OSM   H16T14189   6.323   0.197   4.029
  132OSM   C17S14190   6.390   0.403   4.026
  132OSM   H17S14191   6.349   0.410   4.129
  132OSM   H17T14192   6.367   0.489   3.959
  132OSM   C18S14193   6.543   0.410   4.028
  132OSM   H18S14194   6.587   0.413   3.926
  132OSM   H18T14195   6.591   0.327   4.084
  132OSM   H18U14196   6.564   0.506   4.080
  132OSM    C1F14197   6.226   0.138   2.746
  132OSM     OF14198   6.326   0.176   2.693
  132OSM    C2F14199   6.220   0.030   2.849
  132OSM    H2F14200   6.132   6.873   2.835
  132OSM    H2G14201   6.197   0.085   2.942
  132OSM    C3F14202   6.341   6.845   2.876
  132OSM    H3F14203   6.437   6.892   2.907
  132OSM    H3G14204   6.369   6.795   2.781
  132OSM    C4F14205   6.299   6.740   2.976
  132OSM    H4F14206   6.228   6.666   2.932
  132OSM    H4G14207   6.247   6.790   3.061
  132OSM    C5F14208   6.422   6.661   3.021
  132OSM    H5F14209   6.489   6.715   3.092
  132OSM    H5G14210   6.476   6.640   2.927
  132OSM    C6F14211   6.373   6.534   3.089
  132OSM    H6F14212   6.298   6.484   3.024
  132OSM    H6G14213   6.322   6.550   3.186
  132OSM    C7F14214   6.492   6.437   3.104
  132OSM    H7F14215   6.567   6.445   3.022
  132OSM    H7G14216   6.448   6.335   3.096
  132OSM    C8F14217   6.561   6.450   3.239
  132OSM    H8F14218   6.632   6.364   3.229
  132OSM    H8G14219   6.495   6.430   3.326
  132OSM    C9F14220   6.641   6.576   3.263
  132OSM    H9F14221   6.582   6.653   3.314
  132OSM   C10F14222   6.776   6.597   3.240
  132OSM   H10F14223   6.808   6.696   3.275
  132OSM   C11F14224   6.874   6.496   3.197
  132OSM   H11F14225   6.835   6.435   3.114
  132OSM   H11G14226   6.883   6.424   3.282
  132OSM   C12F14227   0.109   6.521   3.175
  132OSM   H12F14228   0.173   6.431   3.160
  132OSM   H12G14229   0.156   6.563   3.267
  132OSM   C13F14230   0.131   6.618   3.055
  132OSM   H13F14231   0.109   6.724   3.083
  132OSM   H13G14232   0.058   6.581   2.980
  132OSM   C14F14233   0.274   6.612   3.007
  132OSM   H14F14234   0.275   6.682   2.921
  132OSM   H14G14235   0.291   6.506   2.979
  132OSM   C15F14236   0.390   6.653   3.105
  132OSM   H15F14237   0.396   6.576   3.184
  132OSM   H15G14238   0.360   6.749   3.153
  132OSM   C16F14239   0.526   6.651   3.047
  132OSM   H16F14240   0.602   6.672   3.126
  132OSM   H16G14241   0.546   6.745   2.991
  132OSM   C17F14242   0.569   6.531   2.964
  132OSM   H17F14243   0.643   6.571   2.892
  132OSM   H17G14244   0.481   6.513   2.898
  132OSM   C18F14245   0.605   6.396   3.032
  132OSM   H18F14246   0.686   6.415   3.105
  132OSM   H18G14247   0.617   6.310   2.962
  132OSM   H18H14248   0.513   6.366   3.087
  133OSM      N14249   4.621   2.989   1.806
  133OSM    C1514250   4.562   3.007   1.671
  133OSM   H15A14251   4.516   2.916   1.636
  133OSM   H15B14252   4.637   3.023   1.595
  133OSM   H15C14253   4.492   3.089   1.674
  133OSM    C1414254   4.511   2.949   1.892
  133OSM   H14A14255   4.462   2.866   1.844
  133OSM   H14B14256   4.433   3.024   1.897
  133OSM   H14C14257   4.529   2.926   1.996
  133OSM    C1314258   4.713   2.869   1.799
  133OSM   H13A14259   4.746   2.851   1.900
  133OSM   H13B14260   4.801   2.886   1.739
  133OSM   H13C14261   4.668   2.776   1.767
  133OSM    C1214262   4.681   3.113   1.865
  133OSM   H12A14263   4.617   3.199   1.871
  133OSM   H12B14264   4.756   3.137   1.790
  133OSM    C1114265   4.752   3.094   1.999
  133OSM   H11A14266   4.689   3.025   2.060
  133OSM   H11B14267   4.762   3.193   2.047
  133OSM      P14268   5.016   3.113   1.996
  133OSM    O1314269   5.130   3.019   1.975
  133OSM    O1414270   5.000   3.216   1.889
  133OSM    O1114271   5.019   3.183   2.136
  133OSM    O1214272   4.878   3.032   1.993
  133OSM    C1S14273   4.986   3.114   2.258
  133OSM    H1S14274   5.062   3.034   2.269
  133OSM    H1T14275   4.883   3.072   2.256
  133OSM     NF14276   4.974   3.113   2.504
  133OSM    HNF14277   4.886   3.101   2.551
  133OSM    C2S14278   4.992   3.200   2.385
  133OSM    H2S14279   5.094   3.242   2.393
  133OSM    C3S14280   4.891   3.309   2.367
  133OSM    H3S14281   4.795   3.261   2.337
  133OSM     O314282   4.901   3.393   2.257
  133OSM    HO314283   4.961   3.349   2.197
  133OSM    C4S14284   4.875   3.390   2.490
  133OSM    H4S14285   4.962   3.458   2.500
  133OSM    C5S14286   4.779   3.405   2.583
  133OSM    H5S14287   4.685   3.351   2.563
  133OSM    C6S14288   4.781   3.489   2.713
  133OSM    H6S14289   4.705   3.570   2.700
  133OSM    H6T14290   4.879   3.538   2.729
  133OSM    C7S14291   4.744   3.397   2.833
  133OSM    H7S14292   4.825   3.322   2.841
  133OSM    H7T14293   4.640   3.364   2.809
  133OSM    C8S14294   4.753   3.468   2.969
  133OSM    H8S14295   4.690   3.557   2.951
  133OSM    H8T14296   4.858   3.501   2.986
  133OSM    C9S14297   4.703   3.379   3.082
  133OSM    H9S14298   4.597   3.348   3.067
  133OSM    H9T14299   4.697   3.442   3.173
  133OSM   C10S14300   4.791   3.254   3.110
  133OSM   H10S14301   4.894   3.280   3.079
  133OSM   H10T14302   4.755   3.164   3.058
  133OSM   C11S14303   4.813   3.212   3.252
  133OSM   H11S14304   4.855   3.291   3.318
  133OSM   H11T14305   4.883   3.126   3.245
  133OSM   C12S14306   4.689   3.178   3.331
  133OSM   H12S14307   4.621   3.111   3.274
  133OSM   H12T14308   4.631   3.273   3.332
  133OSM   C13S14309   4.722   3.120   3.471
  133OSM   H13S14310   4.815   3.163   3.514
  133OSM   H13T14311   4.753   3.015   3.452
  133OSM   C14S14312   4.615   3.128   3.569
  133OSM   H14S14313   4.516   3.104   3.525
  133OSM   H14T14314   4.605   3.229   3.615
  133OSM   C15S14315   4.646   3.038   3.686
  133OSM   H15S14316   4.743   3.075   3.726
  133OSM   H15T14317   4.654   2.930   3.662
  133OSM   C16S14318   4.545   3.064   3.804
  133OSM   H16S14319   4.452   3.012   3.772
  133OSM   H16T14320   4.522   3.173   3.810
  133OSM   C17S14321   4.587   3.013   3.945
  133OSM   H17S14322   4.696   3.021   3.965
  133OSM   H17T14323   4.570   2.904   3.938
  133OSM   C18S14324   4.509   3.073   4.064
  133OSM   H18S14325   4.527   3.182   4.072
  133OSM   H18T14326   4.542   3.031   4.161
  133OSM   H18U14327   4.400   3.061   4.045
  133OSM    C1F14328   5.068   3.026   2.539
  133OSM     OF14329   5.178   3.035   2.478
  133OSM    C2F14330   5.037   2.914   2.637
  133OSM    H2F14331   5.062   2.815   2.595
  133OSM    H2G14332   4.928   2.924   2.656
  133OSM    C3F14333   5.116   2.931   2.766
  133OSM    H3F14334   5.081   3.020   2.824
  133OSM    H3G14335   5.224   2.942   2.745
  133OSM    C4F14336   5.076   2.818   2.858
  133OSM    H4F14337   5.140   2.809   2.949
  133OSM    H4G14338   5.095   2.717   2.815
  133OSM    C5F14339   4.931   2.822   2.919
  133OSM    H5F14340   4.855   2.795   2.842
  133OSM    H5G14341   4.908   2.927   2.946
  133OSM    C6F14342   4.910   2.732   3.047
  133OSM    H6F14343   4.974   2.641   3.042
  133OSM    H6G14344   4.803   2.706   3.062
  133OSM    C7F14345   4.951   2.799   3.175
  133OSM    H7F14346   4.878   2.876   3.210
  133OSM    H7G14347   5.046   2.848   3.145
  133OSM    C8F14348   4.993   2.708   3.290
  133OSM    H8F14349   5.062   2.754   3.363
  133OSM    H8G14350   5.042   2.617   3.248
  133OSM    C9F14351   4.876   2.644   3.362
  133OSM    H9F14352   4.786   2.622   3.302
  133OSM   C10F14353   4.862   2.642   3.496
  133OSM   H10F14354   4.782   2.581   3.542
  133OSM   C11F14355   4.952   2.697   3.608
  133OSM   H11F14356   5.043   2.637   3.626
  133OSM   H11G14357   4.893   2.689   3.702
  133OSM   C12F14358   4.996   2.847   3.607
  133OSM   H12F14359   4.904   2.906   3.589
  133OSM   H12G14360   5.065   2.873   3.524
  133OSM   C13F14361   5.065   2.885   3.742
  133OSM   H13F14362   5.125   2.978   3.734
  133OSM   H13G14363   5.144   2.807   3.750
  133OSM   C14F14364   4.994   2.881   3.872
  133OSM   H14F14365   4.972   2.775   3.894
  133OSM   H14G14366   4.902   2.942   3.861
  133OSM   C15F14367   5.077   2.932   3.994
  133OSM   H15F14368   5.102   3.038   3.975
  133OSM   H15G14369   5.179   2.887   3.999
  133OSM   C16F14370   5.000   2.925   4.134
  133OSM   H16F14371   4.893   2.925   4.105
  133OSM   H16G14372   5.028   3.017   4.191
  133OSM   C17F14373   5.025   2.792   4.211
  133OSM   H17F14374   5.017   2.711   4.136
  133OSM   H17G14375   4.957   2.793   4.299
  133OSM   C18F14376   5.172   2.777   4.265
  133OSM   H18F14377   5.202   2.871   4.316
  133OSM   H18G14378   5.234   2.755   4.175
  133OSM   H18H14379   5.181   2.691   4.335
  134OSM      N14380   4.929   5.427   2.187
  134OSM    C1514381   4.847   5.438   2.057
  134OSM   H15A14382   4.801   5.535   2.051
  134OSM   H15B14383   4.779   5.355   2.054
  134OSM   H15C14384   4.918   5.419   1.978
  134OSM    C1414385   4.839   5.421   2.308
  134OSM   H14A14386   4.779   5.511   2.314
  134OSM   H14B14387   4.903   5.423   2.395
  134OSM   H14C14388   4.772   5.337   2.298
  134OSM    C1314389   5.005   5.293   2.181
  134OSM   H13A14390   4.948   5.201   2.179
  134OSM   H13B14391   5.067   5.285   2.268
  134OSM   H13C14392   5.061   5.298   2.089
  134OSM    C1214393   5.019   5.542   2.188
  134OSM   H12A14394   4.959   5.630   2.173
  134OSM   H12B14395   5.088   5.540   2.105
  134OSM    C1114396   5.101   5.574   2.312
  134OSM   H11A14397   5.192   5.635   2.291
  134OSM   H11B14398   5.138   5.474   2.345
  134OSM      P14399   4.977   5.788   2.400
  134OSM    O1314400   5.000   5.844   2.267
  134OSM    O1414401   4.842   5.803   2.452
  134OSM    O1114402   5.074   5.862   2.500
  134OSM    O1214403   5.017   5.636   2.408
  134OSM    C1S14404   5.077   5.844   2.644
  134OSM    H1S14405   4.987   5.798   2.691
  134OSM    H1T14406   5.097   5.946   2.682
  134OSM     NF14407   5.169   5.741   2.838
  134OSM    HNF14408   5.212   5.812   2.893
  134OSM    C2S14409   5.189   5.748   2.693
  134OSM    H2S14410   5.176   5.646   2.652
  134OSM    C3S14411   5.326   5.805   2.653
  134OSM    H3S14412   5.342   5.906   2.697
  134OSM     O314413   5.328   5.833   2.511
  134OSM    HO314414   5.236   5.854   2.499
  134OSM    C4S14415   5.438   5.714   2.693
  134OSM    H4S14416   5.427   5.604   2.686
  134OSM    C5S14417   5.568   5.757   2.706
  134OSM    H5S14418   5.586   5.865   2.701
  134OSM    C6S14419   5.686   5.669   2.748
  134OSM    H6S14420   5.693   5.571   2.696
  134OSM    H6T14421   5.681   5.658   2.859
  134OSM    C7S14422   5.817   5.741   2.712
  134OSM    H7S14423   5.811   5.843   2.755
  134OSM    H7T14424   5.820   5.757   2.602
  134OSM    C8S14425   5.951   5.682   2.764
  134OSM    H8S14426   6.017   5.694   2.676
  134OSM    H8T14427   5.947   5.578   2.803
  134OSM    C9S14428   6.008   5.748   2.887
  134OSM    H9S14429   5.977   5.853   2.870
  134OSM    H9T14430   6.118   5.759   2.872
  134OSM   C10S14431   5.965   5.687   3.024
  134OSM   H10S14432   6.001   5.582   3.021
  134OSM   H10T14433   5.855   5.678   3.036
  134OSM   C11S14434   6.022   5.781   3.127
  134OSM   H11S14435   5.952   5.865   3.150
  134OSM   H11T14436   6.115   5.829   3.090
  134OSM   C12S14437   6.053   5.716   3.259
  134OSM   H12S14438   6.124   5.633   3.239
  134OSM   H12T14439   5.966   5.667   3.308
  134OSM   C13S14440   6.109   5.813   3.356
  134OSM   H13S14441   6.036   5.880   3.408
  134OSM   H13T14442   6.178   5.886   3.310
  134OSM   C14S14443   6.187   5.742   3.470
  134OSM   H14S14444   6.251   5.822   3.513
  134OSM   H14T14445   6.256   5.670   3.420
  134OSM   C15S14446   6.102   5.674   3.575
  134OSM   H15S14447   6.039   5.592   3.535
  134OSM   H15T14448   6.032   5.752   3.611
  134OSM   C16S14449   6.192   5.614   3.687
  134OSM   H16S14450   6.262   5.688   3.732
  134OSM   H16T14451   6.246   5.527   3.644
  134OSM   C17S14452   6.094   5.567   3.795
  134OSM   H17S14453   6.160   5.496   3.849
  134OSM   H17T14454   6.005   5.518   3.749
  134OSM   C18S14455   6.046   5.677   3.883
  134OSM   H18S14456   6.028   5.640   3.986
  134OSM   H18T14457   5.952   5.723   3.847
  134OSM   H18U14458   6.127   5.751   3.901
  134OSM    C1F14459   5.073   5.665   2.887
  134OSM     OF14460   5.012   5.588   2.808
  134OSM    C2F14461   5.053   5.665   3.031
  134OSM    H2F14462   5.090   5.761   3.075
  134OSM    H2G14463   5.110   5.577   3.068
  134OSM    C3F14464   4.905   5.639   3.070
  134OSM    H3F14465   4.915   5.633   3.181
  134OSM    H3G14466   4.866   5.543   3.030
  134OSM    C4F14467   4.809   5.760   3.052
  134OSM    H4F14468   4.821   5.806   2.952
  134OSM    H4G14469   4.853   5.826   3.131
  134OSM    C5F14470   4.666   5.732   3.084
  134OSM    H5F14471   4.635   5.634   3.041
  134OSM    H5G14472   4.594   5.810   3.054
  134OSM    C6F14473   4.642   5.709   3.233
  134OSM    H6F14474   4.714   5.634   3.272
  134OSM    H6G14475   4.537   5.674   3.241
  134OSM    C7F14476   4.676   5.825   3.333
  134OSM    H7F14477   4.630   5.923   3.306
  134OSM    H7G14478   4.787   5.830   3.329
  134OSM    C8F14479   4.646   5.803   3.479
  134OSM    H8F14480   4.536   5.817   3.488
  134OSM    H8G14481   4.692   5.889   3.532
  134OSM    C9F14482   4.696   5.679   3.551
  134OSM    H9F14483   4.805   5.661   3.542
  134OSM   C10F14484   4.625   5.583   3.617
  134OSM   H10F14485   4.673   5.499   3.671
  134OSM   C11F14486   4.476   5.592   3.634
  134OSM   H11F14487   4.424   5.496   3.616
  134OSM   H11G14488   4.430   5.671   3.572
  134OSM   C12F14489   4.446   5.632   3.782
  134OSM   H12F14490   4.339   5.663   3.787
  134OSM   H12G14491   4.504   5.722   3.810
  134OSM   C13F14492   4.450   5.529   3.898
  134OSM   H13F14493   4.540   5.466   3.885
  134OSM   H13G14494   4.367   5.455   3.897
  134OSM   C14F14495   4.432   5.599   4.032
  134OSM   H14F14496   4.334   5.649   4.047
  134OSM   H14G14497   4.515   5.673   4.031
  134OSM   C15F14498   4.455   5.511   4.151
  134OSM   H15F14499   4.479   5.579   4.235
  134OSM   H15G14500   4.544   5.445   4.144
  134OSM   C16F14501   4.333   5.423   4.190
  134OSM   H16F14502   4.319   5.344   4.113
  134OSM   H16G14503   4.245   5.490   4.193
  134OSM   C17F14504   4.345   5.356   4.322
  134OSM   H17F14505   4.351   5.439   4.397
  134OSM   H17G14506   4.437   5.295   4.324
  134OSM   C18F14507   4.228   5.272   4.373
  134OSM   H18F14508   4.135   5.332   4.382
  134OSM   H18G14509   4.242   5.231   4.475
  134OSM   H18H14510   4.219   5.187   4.301
  135OSM      N14511   0.468   2.145   2.208
  135OSM    C1514512   0.455   2.295   2.236
  135OSM   H15A14513   0.499   2.354   2.157
  135OSM   H15B14514   0.502   2.319   2.330
  135OSM   H15C14515   0.353   2.327   2.246
  135OSM    C1414516   0.612   2.114   2.217
  135OSM   H14A14517   0.672   2.153   2.136
  135OSM   H14B14518   0.635   2.008   2.210
  135OSM   H14C14519   0.659   2.142   2.309
  135OSM    C1314520   0.401   2.068   2.310
  135OSM   H13A14521   0.445   2.082   2.407
  135OSM   H13B14522   0.403   1.962   2.288
  135OSM   H13C14523   0.301   2.107   2.322
  135OSM    C1214524   0.411   2.105   2.072
  135OSM   H12A14525   0.458   2.170   1.999
  135OSM   H12B14526   0.304   2.120   2.074
  135OSM    C1114527   0.438   1.955   2.021
  135OSM   H11A14528   0.549   1.964   2.010
  135OSM   H11B14529   0.395   1.940   1.920
  135OSM      P14530   0.503   1.741   2.169
  135OSM    O1314531   0.461   1.609   2.111
  135OSM    O1414532   0.647   1.785   2.152
  135OSM    O1114533   0.470   1.745   2.321
  135OSM    O1214534   0.404   1.848   2.111
  135OSM    C1S14535   0.352   1.688   2.376
  135OSM    H1S14536   0.341   1.583   2.340
  135OSM    H1T14537   0.262   1.744   2.345
  135OSM     NF14538   0.226   1.629   2.565
  135OSM    HNF14539   0.154   1.697   2.583
  135OSM    C2S14540   0.352   1.685   2.528
  135OSM    H2S14541   0.437   1.624   2.567
  135OSM    C3S14542   0.372   1.833   2.594
  135OSM    H3S14543   0.285   1.889   2.554
  135OSM     O314544   0.496   1.897   2.553
  135OSM    HO314545   0.526   1.843   2.479
  135OSM    C4S14546   0.377   1.819   2.744
  135OSM    H4S14547   0.457   1.759   2.789
  135OSM    C5S14548   0.302   1.894   2.826
  135OSM    H5S14549   0.232   1.963   2.778
  135OSM    C6S14550   0.305   1.878   2.972
  135OSM    H6S14551   0.334   1.974   3.021
  135OSM    H6T14552   0.378   1.799   3.000
  135OSM    C7S14553   0.168   1.831   3.028
  135OSM    H7S14554   0.089   1.903   2.998
  135OSM    H7T14555   0.184   1.835   3.138
  135OSM    C8S14556   0.130   1.689   2.998
  135OSM    H8S14557   0.180   1.607   3.055
  135OSM    H8T14558   0.149   1.678   2.889
  135OSM    C9S14559   6.884   1.655   3.016
  135OSM    H9S14560   6.861   1.555   2.973
  135OSM    H9T14561   6.816   1.721   2.958
  135OSM   C10S14562   6.835   1.648   3.156
  135OSM   H10S14563   6.864   1.742   3.207
  135OSM   H10T14564   6.895   1.572   3.212
  135OSM   C11S14565   6.691   1.626   3.173
  135OSM   H11S14566   6.650   1.538   3.119
  135OSM   H11T14567   6.637   1.712   3.127
  135OSM   C12S14568   6.641   1.602   3.328
  135OSM   H12S14569   6.698   1.521   3.379
  135OSM   H12T14570   6.540   1.558   3.341
  135OSM   C13S14571   6.636   1.728   3.412
  135OSM   H13S14572   6.588   1.811   3.357
  135OSM   H13T14573   6.739   1.770   3.420
  135OSM   C14S14574   6.555   1.714   3.544
  135OSM   H14S14575   6.595   1.631   3.606
  135OSM   H14T14576   6.449   1.691   3.522
  135OSM   C15S14577   6.573   1.845   3.625
  135OSM   H15S14578   6.477   1.841   3.682
  135OSM   H15T14579   6.564   1.929   3.553
  135OSM   C16S14580   6.703   1.835   3.709
  135OSM   H16S14581   6.785   1.806   3.641
  135OSM   H16T14582   6.690   1.758   3.788
  135OSM   C17S14583   6.752   1.973   3.766
  135OSM   H17S14584   6.663   2.026   3.807
  135OSM   H17T14585   6.785   2.036   3.681
  135OSM   C18S14586   6.861   1.953   3.864
  135OSM   H18S14587   0.006   2.048   3.886
  135OSM   H18T14588   0.028   1.880   3.831
  135OSM   H18U14589   6.811   1.913   3.954
  135OSM    C1F14590   0.196   1.499   2.558
  135OSM     OF14591   0.261   1.427   2.484
  135OSM    C2F14592   0.066   1.452   2.618
  135OSM    H2F14593   6.896   1.447   2.540
  135OSM    H2G14594   0.043   1.535   2.688
  135OSM    C3F14595   0.087   1.324   2.700
  135OSM    H3F14596   0.175   1.340   2.766
  135OSM    H3G14597   0.104   1.242   2.627
  135OSM    C4F14598   6.879   1.280   2.785
  135OSM    H4F14599   6.799   1.281   2.708
  135OSM    H4G14600   6.862   1.356   2.864
  135OSM    C5F14601   6.887   1.143   2.848
  135OSM    H5F14602   0.033   1.079   2.777
  135OSM    H5G14603   6.784   1.104   2.865
  135OSM    C6F14604   0.049   1.149   2.981
  135OSM    H6F14605   0.153   1.188   2.981
  135OSM    H6G14606   0.065   1.047   3.022
  135OSM    C7F14607   6.869   1.216   3.086
  135OSM    H7F14608   6.773   1.160   3.093
  135OSM    H7G14609   6.846   1.323   3.069
  135OSM    C8F14610   0.018   1.202   3.229
  135OSM    H8F14611   0.065   1.102   3.244
  135OSM    H8G14612   6.842   1.221   3.297
  135OSM    C9F14613   0.125   1.310   3.242
  135OSM    H9F14614   0.178   1.321   3.146
  135OSM   C10F14615   0.148   1.387   3.353
  135OSM   H10F14616   0.229   1.462   3.352
  135OSM   C11F14617   0.066   1.387   3.481
  135OSM   H11F14618   0.026   1.285   3.502
  135OSM   H11G14619   6.889   1.454   3.462
  135OSM   C12F14620   0.144   1.430   3.600
  135OSM   H12F14621   0.204   1.520   3.574
  135OSM   H12G14622   0.221   1.355   3.627
  135OSM   C13F14623   0.057   1.472   3.718
  135OSM   H13F14624   6.898   1.395   3.762
  135OSM   H13G14625   6.895   1.550   3.683
  135OSM   C14F14626   0.148   1.527   3.824
  135OSM   H14F14627   0.202   1.618   3.790
  135OSM   H14G14628   0.227   1.451   3.842
  135OSM   C15F14629   0.086   1.568   3.959
  135OSM   H15F14630   0.058   1.475   4.011
  135OSM   H15G14631   6.901   1.624   3.945
  135OSM   C16F14632   0.176   1.661   4.046
  135OSM   H16F14633   0.108   1.689   4.129
  135OSM   H16G14634   0.207   1.749   3.987
  135OSM   C17F14635   0.304   1.595   4.097
  135OSM   H17F14636   0.358   1.674   4.154
  135OSM   H17G14637   0.378   1.574   4.017
  135OSM   C18F14638   0.294   1.474   4.185
  135OSM   H18F14639   0.230   1.396   4.138
  135OSM   H18G14640   0.240   1.499   4.279
  135OSM   H18H14641   0.389   1.424   4.213
  136OSM      N14642   2.492   5.305   1.615
  136OSM    C1514643   2.391   5.214   1.550
  136OSM   H15A14644   2.428   5.136   1.486
  136OSM   H15B14645   2.333   5.284   1.491
  136OSM   H15C14646   2.346   5.161   1.632
  136OSM    C1414647   2.574   5.370   1.511
  136OSM   H14A14648   2.641   5.301   1.464
  136OSM   H14B14649   2.636   5.446   1.556
  136OSM   H14C14650   2.521   5.418   1.430
  136OSM    C1314651   2.410   5.409   1.685
  136OSM   H13A14652   2.328   5.370   1.743
  136OSM   H13B14653   2.373   5.490   1.623
  136OSM   H13C14654   2.479   5.470   1.743
  136OSM    C1214655   2.577   5.237   1.713
  136OSM   H12A14656   2.518   5.208   1.799
  136OSM   H12B14657   2.652   5.301   1.757
  136OSM    C1114658   2.658   5.111   1.666
  136OSM   H11A14659   2.698   5.080   1.765
  136OSM   H11B14660   2.751   5.127   1.607
  136OSM      P14661   2.599   4.853   1.687
  136OSM    O1314662   2.517   4.761   1.607
  136OSM    O1414663   2.746   4.828   1.690
  136OSM    O1114664   2.554   4.864   1.841
  136OSM    O1214665   2.573   5.000   1.627
  136OSM    C1S14666   2.429   4.924   1.890
  136OSM    H1S14667   2.342   4.865   1.855
  136OSM    H1T14668   2.431   5.030   1.858
  136OSM     NF14669   2.293   4.932   2.101
  136OSM    HNF14670   2.271   5.023   2.136
  136OSM    C2S14671   2.433   4.914   2.048
  136OSM    H2S14672   2.469   4.811   2.070
  136OSM    C3S14673   2.531   5.023   2.095
  136OSM    H3S14674   2.506   5.118   2.043
  136OSM     O314675   2.660   4.995   2.038
  136OSM    HO314676   2.659   4.912   1.989
  136OSM    C4S14677   2.537   5.033   2.245
  136OSM    H4S14678   2.506   5.127   2.292
  136OSM    C5S14679   2.610   4.949   2.330
  136OSM    H5S14680   2.667   4.864   2.290
  136OSM    C6S14681   2.630   4.973   2.477
  136OSM    H6S14682   2.561   5.049   2.518
  136OSM    H6T14683   2.731   5.014   2.501
  136OSM    C7S14684   2.600   4.857   2.571
  136OSM    H7S14685   2.668   4.774   2.543
  136OSM    H7T14686   2.500   4.813   2.552
  136OSM    C8S14687   2.611   4.910   2.720
  136OSM    H8S14688   2.557   5.005   2.740
  136OSM    H8T14689   2.720   4.930   2.736
  136OSM    C9S14690   2.577   4.813   2.835
  136OSM    H9S14691   2.645   4.725   2.827
  136OSM    H9T14692   2.469   4.789   2.845
  136OSM   C10S14693   2.626   4.872   2.970
  136OSM   H10S14694   2.573   4.967   2.990
  136OSM   H10T14695   2.733   4.894   2.950
  136OSM   C11S14696   2.592   4.791   3.095
  136OSM   H11S14697   2.628   4.687   3.079
  136OSM   H11T14698   2.484   4.772   3.117
  136OSM   C12S14699   2.665   4.845   3.220
  136OSM   H12S14700   2.660   4.955   3.234
  136OSM   H12T14701   2.770   4.820   3.193
  136OSM   C13S14702   2.633   4.765   3.346
  136OSM   H13S14703   2.590   4.668   3.313
  136OSM   H13T14704   2.562   4.818   3.413
  136OSM   C14S14705   2.754   4.742   3.433
  136OSM   H14S14706   2.774   4.848   3.460
  136OSM   H14T14707   2.832   4.698   3.368
  136OSM   C15S14708   2.740   4.643   3.553
  136OSM   H15S14709   2.735   4.542   3.505
  136OSM   H15T14710   2.639   4.667   3.592
  136OSM   C16S14711   2.852   4.660   3.654
  136OSM   H16S14712   2.869   4.768   3.673
  136OSM   H16T14713   2.950   4.609   3.639
  136OSM   C17S14714   2.804   4.606   3.790
  136OSM   H17S14715   2.784   4.497   3.779
  136OSM   H17T14716   2.710   4.660   3.814
  136OSM   C18S14717   2.890   4.635   3.902
  136OSM   H18S14718   2.862   4.582   3.996
  136OSM   H18T14719   2.888   4.745   3.913
  136OSM   H18U14720   2.990   4.608   3.863
  136OSM    C1F14721   2.194   4.847   2.089
  136OSM     OF14722   2.209   4.737   2.042
  136OSM    C2F14723   2.061   4.890   2.145
  136OSM    H2F14724   1.980   4.888   2.069
  136OSM    H2G14725   2.062   4.991   2.191
  136OSM    C3F14726   2.027   4.785   2.254
  136OSM    H3F14727   2.039   4.681   2.218
  136OSM    H3G14728   1.918   4.801   2.271
  136OSM    C4F14729   2.096   4.813   2.384
  136OSM    H4F14730   2.071   4.918   2.412
  136OSM    H4G14731   2.206   4.811   2.376
  136OSM    C5F14732   2.037   4.726   2.497
  136OSM    H5F14733   2.047   4.624   2.453
  136OSM    H5G14734   1.929   4.749   2.499
  136OSM    C6F14735   2.095   4.730   2.641
  136OSM    H6F14736   2.204   4.712   2.630
  136OSM    H6G14737   2.056   4.648   2.706
  136OSM    C7F14738   2.052   4.850   2.721
  136OSM    H7F14739   1.946   4.845   2.757
  136OSM    H7G14740   2.061   4.947   2.668
  136OSM    C8F14741   2.140   4.864   2.845
  136OSM    H8F14742   2.238   4.896   2.804
  136OSM    H8G14743   2.166   4.763   2.885
  136OSM    C9F14744   2.101   4.964   2.950
  136OSM    H9F14745   2.114   5.065   2.908
  136OSM   C10F14746   2.069   4.940   3.075
  136OSM   H10F14747   2.029   5.026   3.131
  136OSM   C11F14748   2.060   4.809   3.148
  136OSM   H11F14749   2.124   4.736   3.094
  136OSM   H11G14750   1.956   4.774   3.136
  136OSM   C12F14751   2.092   4.816   3.300
  136OSM   H12F14752   2.058   4.723   3.351
  136OSM   H12G14753   2.025   4.896   3.337
  136OSM   C13F14754   2.240   4.860   3.336
  136OSM   H13F14755   2.262   4.947   3.271
  136OSM   H13G14756   2.311   4.790   3.286
  136OSM   C14F14757   2.281   4.874   3.481
  136OSM   H14F14758   2.387   4.905   3.485
  136OSM   H14G14759   2.279   4.772   3.527
  136OSM   C15F14760   2.186   4.961   3.565
  136OSM   H15F14761   2.086   4.913   3.560
  136OSM   H15G14762   2.171   5.060   3.518
  136OSM   C16F14763   2.254   4.985   3.701
  136OSM   H16F14764   2.361   4.999   3.676
  136OSM   H16G14765   2.247   4.898   3.769
  136OSM   C17F14766   2.201   5.102   3.791
  136OSM   H17F14767   2.098   5.084   3.829
  136OSM   H17G14768   2.191   5.198   3.736
  136OSM   C18F14769   2.295   5.110   3.911
  136OSM   H18F14770   2.307   5.015   3.967
  136OSM   H18G14771   2.262   5.187   3.984
  136OSM   H18H14772   2.399   5.137   3.881
  137OSM      N14773   1.190   2.500   2.040
  137OSM    C1514774   1.324   2.492   1.973
  137OSM   H15A14775   1.326   2.518   1.868
  137OSM   H15B14776   1.362   2.391   1.974
  137OSM   H15C14777   1.395   2.562   2.011
  137OSM    C1414778   1.103   2.447   1.934
  137OSM   H14A14779   1.004   2.489   1.945
  137OSM   H14B14780   1.102   2.340   1.944
  137OSM   H14C14781   1.133   2.482   1.836
  137OSM    C1314782   1.188   2.410   2.160
  137OSM   H13A14783   1.086   2.381   2.179
  137OSM   H13B14784   1.235   2.448   2.249
  137OSM   H13C14785   1.248   2.323   2.139
  137OSM    C1214786   1.155   2.644   2.072
  137OSM   H12A14787   1.152   2.701   1.981
  137OSM   H12B14788   1.237   2.693   2.122
  137OSM    C1114789   1.029   2.677   2.147
  137OSM   H11A14790   1.016   2.787   2.156
  137OSM   H11B14791   1.035   2.643   2.253
  137OSM      P14792   0.784   2.602   2.135
  137OSM    O1314793   0.694   2.718   2.117
  137OSM    O1414794   0.726   2.475   2.084
  137OSM    O1114795   0.808   2.583   2.287
  137OSM    O1214796   0.922   2.628   2.072
  137OSM    C1S14797   0.703   2.547   2.379
  137OSM    H1S14798   0.670   2.445   2.350
  137OSM    H1T14799   0.618   2.617   2.372
  137OSM     NF14800   0.650   2.515   2.625
  137OSM    HNF14801   0.602   2.589   2.672
  137OSM    C2S14802   0.752   2.559   2.529
  137OSM    H2S14803   0.842   2.494   2.530
  137OSM    C3S14804   0.804   2.710   2.570
  137OSM    H3S14805   0.707   2.753   2.603
  137OSM     O314806   0.849   2.791   2.457
  137OSM    HO314807   0.841   2.735   2.380
  137OSM    C4S14808   0.902   2.707   2.679
  137OSM    H4S14809   0.855   2.722   2.777
  137OSM    C5S14810   1.038   2.691   2.659
  137OSM    H5S14811   1.081   2.693   2.558
  137OSM    C6S14812   1.141   2.707   2.767
  137OSM    H6S14813   1.214   2.786   2.738
  137OSM    H6T14814   1.199   2.612   2.772
  137OSM    C7S14815   1.111   2.741   2.920
  137OSM    H7S14816   1.021   2.680   2.942
  137OSM    H7T14817   1.080   2.848   2.921
  137OSM    C8S14818   1.229   2.718   3.014
  137OSM    H8S14819   1.311   2.787   2.984
  137OSM    H8T14820   1.257   2.611   3.010
  137OSM    C9S14821   1.201   2.739   3.159
  137OSM    H9S14822   1.108   2.683   3.183
  137OSM    H9T14823   1.180   2.846   3.180
  137OSM   C10S14824   1.315   2.695   3.242
  137OSM   H10S14825   1.404   2.747   3.201
  137OSM   H10T14826   1.326   2.586   3.224
  137OSM   C11S14827   1.283   2.716   3.395
  137OSM   H11S14828   1.348   2.659   3.464
  137OSM   H11T14829   1.174   2.694   3.404
  137OSM   C12S14830   1.302   2.864   3.436
  137OSM   H12S14831   1.206   2.920   3.442
  137OSM   H12T14832   1.363   2.912   3.356
  137OSM   C13S14833   1.389   2.878   3.567
  137OSM   H13S14834   1.435   2.980   3.561
  137OSM   H13T14835   1.471   2.804   3.558
  137OSM   C14S14836   1.312   2.868   3.699
  137OSM   H14S14837   1.392   2.872   3.776
  137OSM   H14T14838   1.259   2.770   3.696
  137OSM   C15S14839   1.219   2.986   3.740
  137OSM   H15S14840   1.122   2.963   3.692
  137OSM   H15T14841   1.258   3.085   3.708
  137OSM   C16S14842   1.184   2.980   3.895
  137OSM   H16S14843   1.267   3.027   3.951
  137OSM   H16T14844   1.187   2.872   3.918
  137OSM   C17S14845   1.065   3.070   3.919
  137OSM   H17S14846   1.062   3.151   3.842
  137OSM   H17T14847   1.072   3.118   4.019
  137OSM   C18S14848   0.929   2.995   3.894
  137OSM   H18S14849   0.844   3.038   3.951
  137OSM   H18T14850   0.942   2.886   3.914
  137OSM   H18U14851   0.908   3.011   3.786
  137OSM    C1F14852   0.613   2.381   2.636
  137OSM     OF14853   0.636   2.305   2.542
  137OSM    C2F14854   0.539   2.341   2.758
  137OSM    H2F14855   0.443   2.299   2.721
  137OSM    H2G14856   0.508   2.421   2.828
  137OSM    C3F14857   0.623   2.230   2.835
  137OSM    H3F14858   0.688   2.280   2.909
  137OSM    H3G14859   0.685   2.170   2.765
  137OSM    C4F14860   0.539   2.140   2.924
  137OSM    H4F14861   0.452   2.103   2.866
  137OSM    H4G14862   0.470   2.195   2.991
  137OSM    C5F14863   0.609   2.019   2.984
  137OSM    H5F14864   0.719   2.025   2.965
  137OSM    H5G14865   0.567   1.926   2.939
  137OSM    C6F14866   0.592   2.009   3.145
  137OSM    H6F14867   0.646   1.918   3.180
  137OSM    H6G14868   0.484   1.987   3.157
  137OSM    C7F14869   0.656   2.126   3.227
  137OSM    H7F14870   0.728   2.182   3.163
  137OSM    H7G14871   0.711   2.072   3.307
  137OSM    C8F14872   0.555   2.226   3.295
  137OSM    H8F14873   0.474   2.169   3.346
  137OSM    H8G14874   0.504   2.284   3.215
  137OSM    C9F14875   0.619   2.312   3.401
  137OSM    H9F14876   0.677   2.396   3.360
  137OSM   C10F14877   0.632   2.268   3.532
  137OSM   H10F14878   0.683   2.332   3.605
  137OSM   C11F14879   0.575   2.147   3.597
  137OSM   H11F14880   0.638   2.056   3.590
  137OSM   H11G14881   0.476   2.119   3.554
  137OSM   C12F14882   0.542   2.171   3.743
  137OSM   H12F14883   0.466   2.252   3.749
  137OSM   H12G14884   0.627   2.220   3.796
  137OSM   C13F14885   0.503   2.046   3.831
  137OSM   H13F14886   0.581   1.969   3.808
  137OSM   H13G14887   0.406   1.998   3.805
  137OSM   C14F14888   0.530   2.069   3.976
  137OSM   H14F14889   0.473   2.156   4.016
  137OSM   H14G14890   0.635   2.089   4.007
  137OSM   C15F14891   0.493   1.947   4.060
  137OSM   H15F14892   0.585   1.883   4.065
  137OSM   H15G14893   0.408   1.893   4.015
  137OSM   C16F14894   0.444   1.983   4.203
  137OSM   H16F14895   0.525   2.044   4.249
  137OSM   H16G14896   0.444   1.888   4.259
  137OSM   C17F14897   0.317   2.066   4.223
  137OSM   H17F14898   0.350   2.172   4.228
  137OSM   H17G14899   0.277   2.039   4.323
  137OSM   C18F14900   0.207   2.046   4.123
  137OSM   H18F14901   0.145   2.133   4.094
  137OSM   H18G14902   0.156   1.951   4.150
  137OSM   H18H14903   0.259   2.020   4.028
  138OSM      N14904   5.443   6.254   2.008
  138OSM    C1514905   5.412   6.374   1.929
  138OSM   H15A14906   5.448   6.363   1.827
  138OSM   H15B14907   5.474   6.451   1.973
  138OSM   H15C14908   5.305   6.391   1.925
  138OSM    C1414909   5.377   6.134   1.945
  138OSM   H14A14910   5.426   6.104   1.853
  138OSM   H14B14911   5.273   6.150   1.922
  138OSM   H14C14912   5.373   6.045   2.006
  138OSM    C1314913   5.593   6.240   2.010
  138OSM   H13A14914   5.642   6.312   2.073
  138OSM   H13B14915   5.645   6.238   1.916
  138OSM   H13C14916   5.613   6.140   2.047
  138OSM    C1214917   5.394   6.270   2.152
  138OSM   H12A14918   5.419   6.186   2.216
  138OSM   H12B14919   5.287   6.271   2.137
  138OSM    C1114920   5.423   6.406   2.229
  138OSM   H11A14921   5.530   6.432   2.216
  138OSM   H11B14922   5.405   6.387   2.337
  138OSM      P14923   5.381   6.656   2.159
  138OSM    O1314924   5.529   6.661   2.115
  138OSM    O1414925   5.294   6.729   2.069
  138OSM    O1114926   5.369   6.716   2.300
  138OSM    O1214927   5.334   6.505   2.175
  138OSM    C1S14928   5.278   6.670   2.396
  138OSM    H1S14929   5.263   6.560   2.400
  138OSM    H1T14930   5.183   6.728   2.394
  138OSM     NF14931   5.254   6.653   2.641
  138OSM    HNF14932   5.172   6.707   2.654
  138OSM    C2S14933   5.342   6.707   2.540
  138OSM    H2S14934   5.440   6.656   2.530
  138OSM    C3S14935   5.371   6.855   2.546
  138OSM    H3S14936   5.280   6.906   2.509
  138OSM     O314937   5.471   0.002   2.459
  138OSM    HO314938   5.460   6.849   2.387
  138OSM    C4S14939   5.405   6.894   2.688
  138OSM    H4S14940   5.491   6.843   2.734
  138OSM    C5S14941   5.327   0.062   2.764
  138OSM    H5S14942   5.239   0.111   2.720
  138OSM    C6S14943   5.338   0.088   2.913
  138OSM    H6S14944   5.349   0.197   2.927
  138OSM    H6T14945   5.425   0.032   2.954
  138OSM    C7S14946   5.205   0.061   2.991
  138OSM    H7S14947   5.183   6.867   2.958
  138OSM    H7T14948   5.119   0.126   2.963
  138OSM    C8S14949   5.226   0.070   3.144
  138OSM    H8S14950   5.307   0.003   3.179
  138OSM    H8T14951   5.130   0.037   3.191
  138OSM    C9S14952   5.253   0.214   3.189
  138OSM    H9S14953   5.155   0.262   3.172
  138OSM    H9T14954   5.336   0.269   3.138
  138OSM   C10S14955   5.282   0.214   3.339
  138OSM   H10S14956   5.387   0.186   3.363
  138OSM   H10T14957   5.210   0.138   3.374
  138OSM   C11S14958   5.257   0.344   3.405
  138OSM   H11S14959   5.156   0.385   3.381
  138OSM   H11T14960   5.332   0.423   3.380
  138OSM   C12S14961   5.268   0.312   3.562
  138OSM   H12S14962   5.367   0.263   3.567
  138OSM   H12T14963   5.185   0.249   3.602
  138OSM   C13S14964   5.259   0.438   3.647
  138OSM   H13S14965   5.159   0.486   3.645
  138OSM   H13T14966   5.334   0.512   3.610
  138OSM   C14S14967   5.284   0.408   3.797
  138OSM   H14S14968   5.185   0.376   3.837
  138OSM   H14T14969   5.299   0.503   3.854
  138OSM   C15S14970   5.388   0.310   3.836
  138OSM   H15S14971   5.473   0.305   3.764
  138OSM   H15T14972   5.345   0.208   3.847
  138OSM   C16S14973   5.468   0.358   3.957
  138OSM   H16S14974   5.388   0.395   4.024
  138OSM   H16T14975   5.540   0.442   3.942
  138OSM   C17S14976   5.538   0.245   4.028
  138OSM   H17S14977   5.533   0.161   3.956
  138OSM   H17T14978   5.474   0.221   4.115
  138OSM   C18S14979   5.683   0.272   4.075
  138OSM   H18S14980   5.689   0.373   4.120
  138OSM   H18T14981   5.748   0.268   3.985
  138OSM   H18U14982   5.716   0.197   4.150
  138OSM    C1F14983   5.251   6.525   2.657
  138OSM     OF14984   5.334   6.452   2.596
  138OSM    C2F14985   5.138   6.471   2.738
  138OSM    H2F14986   5.098   6.384   2.681
  138OSM    H2G14987   5.052   6.540   2.743
  138OSM    C3F14988   5.187   6.422   2.884
  138OSM    H3F14989   5.270   6.355   2.854
  138OSM    H3G14990   5.102   6.365   2.928
  138OSM    C4F14991   5.224   6.535   2.980
  138OSM    H4F14992   5.134   6.597   3.004
  138OSM    H4G14993   5.306   6.601   2.945
  138OSM    C5F14994   5.268   6.484   3.119
  138OSM    H5F14995   5.367   6.436   3.105
  138OSM    H5G14996   5.191   6.408   3.145
  138OSM    C6F14997   5.261   6.584   3.234
  138OSM    H6F14998   5.164   6.636   3.221
  138OSM    H6G14999   5.341   6.652   3.199
  138OSM    C7F15000   5.276   6.519   3.366
  138OSM    H7F15001   5.380   6.482   3.383
  138OSM    H7G15002   5.221   6.422   3.368
  138OSM    C8F15003   5.231   6.609   3.482
  138OSM    H8F15004   5.232   6.561   3.582
  138OSM    H8G15005   5.124   6.622   3.457
  138OSM    C9F15006   5.303   6.738   3.462
  138OSM    H9F15007   5.251   6.802   3.389
  138OSM   C10F15008   5.419   6.775   3.528
  138OSM   H10F15009   5.454   6.876   3.501
  138OSM   C11F15010   5.493   6.700   3.638
  138OSM   H11F15011   5.582   6.649   3.594
  138OSM   H11G15012   5.423   6.619   3.670
  138OSM   C12F15013   5.538   6.787   3.753
  138OSM   H12F15014   5.453   6.851   3.787
  138OSM   H12G15015   5.604   6.866   3.710
  138OSM   C13F15016   5.599   6.723   3.876
  138OSM   H13F15017   5.656   6.641   3.828
  138OSM   H13G15018   5.512   6.676   3.927
  138OSM   C14F15019   5.691   6.809   3.964
  138OSM   H14F15020   5.639   6.865   4.045
  138OSM   H14G15021   5.748   6.882   3.904
  138OSM   C15F15022   5.804   6.722   4.022
  138OSM   H15F15023   5.866   6.669   3.946
  138OSM   H15G15024   5.765   6.636   4.081
  138OSM   C16F15025   5.881   6.798   4.132
  138OSM   H16F15026   5.938   6.717   4.182
  138OSM   H16G15027   5.806   6.846   4.198
  138OSM   C17F15028   5.988   6.894   4.083
  138OSM   H17F15029   5.938   0.077   4.049
  138OSM   H17G15030   6.053   6.849   4.005
  138OSM   C18F15031   6.090   0.038   4.187
  138OSM   H18F15032   6.034   0.106   4.254
  138OSM   H18G15033   6.175   0.084   4.133
  138OSM   H18H15034   6.139   6.858   4.232
  139OSM      N15035   0.835   1.512   1.677
  139OSM    C1515036   0.977   1.490   1.696
  139OSM   H15A15037   1.018   1.436   1.612
  139OSM   H15B15038   0.996   1.442   1.791
  139OSM   H15C15039   1.035   1.580   1.680
  139OSM    C1415040   0.814   1.581   1.539
  139OSM   H14A15041   0.710   1.599   1.517
  139OSM   H14B15042   0.835   1.503   1.467
  139OSM   H14C15043   0.883   1.663   1.525
  139OSM    C1315044   0.752   1.390   1.682
  139OSM   H13A15045   0.741   1.355   1.784
  139OSM   H13B15046   0.799   1.305   1.634
  139OSM   H13C15047   0.656   1.416   1.640
  139OSM    C1215048   0.788   1.609   1.784
  139OSM   H12A15049   0.685   1.636   1.768
  139OSM   H12B15050   0.846   1.698   1.764
  139OSM    C1115051   0.797   1.570   1.933
  139OSM   H11A15052   0.740   1.643   1.994
  139OSM   H11B15053   0.899   1.587   1.974
  139OSM      P15054   0.810   1.322   2.026
  139OSM    O1315055   0.712   1.230   2.080
  139OSM    O1415056   0.915   1.270   1.934
  139OSM    O1115057   0.890   1.387   2.145
  139OSM    O1215058   0.739   1.441   1.963
  139OSM    C1S15059   0.824   1.461   2.252
  139OSM    H1S15060   0.734   1.407   2.290
  139OSM    H1T15061   0.772   1.553   2.217
  139OSM     NF15062   0.845   1.521   2.481
  139OSM    HNF15063   0.851   1.617   2.509
  139OSM    C2S15064   0.915   1.482   2.365
  139OSM    H2S15065   0.951   1.379   2.384
  139OSM    C3S15066   1.036   1.568   2.328
  139OSM    H3S15067   1.004   1.664   2.283
  139OSM     O315068   1.127   1.487   2.242
  139OSM    HO315069   1.078   1.410   2.213
  139OSM    C4S15070   1.112   1.595   2.456
  139OSM    H4S15071   1.152   1.507   2.509
  139OSM    C5S15072   1.132   1.713   2.523
  139OSM    H5S15073   1.096   1.804   2.473
  139OSM    C6S15074   1.200   1.726   2.652
  139OSM    H6S15075   1.296   1.782   2.647
  139OSM    H6T15076   1.222   1.627   2.698
  139OSM    C7S15077   1.114   1.787   2.768
  139OSM    H7S15078   1.071   1.882   2.729
  139OSM    H7T15079   1.177   1.807   2.857
  139OSM    C8S15080   1.001   1.703   2.815
  139OSM    H8S15081   1.053   1.611   2.851
  139OSM    H8T15082   0.925   1.686   2.736
  139OSM    C9S15083   0.928   1.763   2.942
  139OSM    H9S15084   0.848   1.688   2.960
  139OSM    H9T15085   0.890   1.867   2.933
  139OSM   C10S15086   1.010   1.771   3.068
  139OSM   H10S15087   1.098   1.836   3.052
  139OSM   H10T15088   1.046   1.668   3.090
  139OSM   C11S15089   0.941   1.820   3.197
  139OSM   H11S15090   0.838   1.778   3.186
  139OSM   H11T15091   0.920   1.928   3.210
  139OSM   C12S15092   1.003   1.780   3.333
  139OSM   H12S15093   1.097   1.838   3.339
  139OSM   H12T15094   1.028   1.672   3.335
  139OSM   C13S15095   0.918   1.819   3.457
  139OSM   H13S15096   0.824   1.762   3.474
  139OSM   H13T15097   0.893   1.927   3.453
  139OSM   C14S15098   1.006   1.823   3.583
  139OSM   H14S15099   1.080   1.904   3.566
  139OSM   H14T15100   1.057   1.725   3.595
  139OSM   C15S15101   0.929   1.847   3.713
  139OSM   H15S15102   0.873   1.754   3.736
  139OSM   H15T15103   0.858   1.932   3.701
  139OSM   C16S15104   1.024   1.878   3.837
  139OSM   H16S15105   1.086   1.970   3.836
  139OSM   H16T15106   1.089   1.790   3.856
  139OSM   C17S15107   0.940   1.895   3.969
  139OSM   H17S15108   0.920   1.795   4.012
  139OSM   H17T15109   0.837   1.931   3.949
  139OSM   C18S15110   1.000   1.985   4.080
  139OSM   H18S15111   0.932   1.963   4.166
  139OSM   H18T15112   1.000   2.091   4.046
  139OSM   H18U15113   1.100   1.964   4.124
  139OSM    C1F15114   0.761   1.440   2.548
  139OSM     OF15115   0.762   1.322   2.522
  139OSM    C2F15116   0.675   1.508   2.653
  139OSM    H2F15117   0.661   1.611   2.615
  139OSM    H2G15118   0.739   1.527   2.742
  139OSM    C3F15119   0.552   1.424   2.686
  139OSM    H3F15120   0.594   1.321   2.691
  139OSM    H3G15121   0.485   1.424   2.598
  139OSM    C4F15122   0.469   1.457   2.817
  139OSM    H4F15123   0.413   1.363   2.840
  139OSM    H4G15124   0.388   1.527   2.788
  139OSM    C5F15125   0.556   1.500   2.934
  139OSM    H5F15126   0.587   1.604   2.911
  139OSM    H5G15127   0.635   1.423   2.945
  139OSM    C6F15128   0.475   1.493   3.067
  139OSM    H6F15129   0.446   1.386   3.072
  139OSM    H6G15130   0.378   1.545   3.052
  139OSM    C7F15131   0.550   1.545   3.191
  139OSM    H7F15132   0.476   1.548   3.274
  139OSM    H7G15133   0.577   1.651   3.169
  139OSM    C8F15134   0.671   1.458   3.220
  139OSM    H8F15135   0.754   1.485   3.151
  139OSM    H8G15136   0.645   1.352   3.202
  139OSM    C9F15137   0.715   1.482   3.360
  139OSM    H9F15138   0.779   1.569   3.379
  139OSM   C10F15139   0.674   1.407   3.468
  139OSM   H10F15140   0.722   1.431   3.564
  139OSM   C11F15141   0.598   1.282   3.458
  139OSM   H11F15142   0.672   1.199   3.463
  139OSM   H11G15143   0.553   1.270   3.357
  139OSM   C12F15144   0.490   1.264   3.565
  139OSM   H12F15145   0.421   1.178   3.550
  139OSM   H12G15146   0.425   1.354   3.568
  139OSM   C13F15147   0.549   1.252   3.705
  139OSM   H13F15148   0.582   1.350   3.745
  139OSM   H13G15149   0.637   1.186   3.713
  139OSM   C14F15150   0.455   1.188   3.817
  139OSM   H14F15151   0.443   1.078   3.805
  139OSM   H14G15152   0.349   1.219   3.822
  139OSM   C15F15153   0.511   1.218   3.960
  139OSM   H15F15154   0.438   1.167   4.026
  139OSM   H15G15155   0.509   1.329   3.972
  139OSM   C16F15156   0.647   1.150   3.996
  139OSM   H16F15157   0.733   1.183   3.934
  139OSM   H16G15158   0.635   1.043   3.969
  139OSM   C17F15159   0.703   1.170   4.141
  139OSM   H17F15160   0.626   1.166   4.221
  139OSM   H17G15161   0.741   1.275   4.139
  139OSM   C18F15162   0.820   1.069   4.168
  139OSM   H18F15163   0.857   1.080   4.272
  139OSM   H18G15164   0.896   1.091   4.090
  139OSM   H18H15165   0.788   0.964   4.153
  140OSM      N15166   5.306   0.588   1.963
  140OSM    C1515167   5.388   0.684   2.036
  140OSM   H15A15168   5.331   0.744   2.105
  140OSM   H15B15169   5.448   0.752   1.978
  140OSM   H15C15170   5.462   0.641   2.101
  140OSM    C1415171   5.202   0.670   1.895
  140OSM   H14A15172   5.256   0.724   1.818
  140OSM   H14B15173   5.146   0.734   1.962
  140OSM   H14C15174   5.132   0.604   1.845
  140OSM    C1315175   5.388   0.517   1.858
  140OSM   H13A15176   5.441   0.588   1.796
  140OSM   H13B15177   5.323   0.456   1.797
  140OSM   H13C15178   5.456   0.453   1.912
  140OSM    C1215179   5.248   0.480   2.045
  140OSM   H12A15180   5.318   0.401   2.066
  140OSM   H12B15181   5.168   0.427   1.996
  140OSM    C1115182   5.200   0.517   2.189
  140OSM   H11A15183   5.286   0.552   2.250
  140OSM   H11B15184   5.164   0.429   2.247
  140OSM      P15185   4.956   0.606   2.195
  140OSM    O1315186   4.880   0.711   2.124
  140OSM    O1415187   4.921   0.474   2.148
  140OSM    O1115188   4.931   0.620   2.352
  140OSM    O1215189   5.109   0.626   2.191
  140OSM    C1S15190   4.860   0.516   2.417
  140OSM    H1S15191   4.912   0.419   2.402
  140OSM    H1T15192   4.763   0.496   2.367
  140OSM     NF15193   4.778   0.433   2.636
  140OSM    HNF15194   4.679   0.435   2.648
  140OSM    C2S15195   4.836   0.550   2.564
  140OSM    H2S15196   4.938   0.559   2.609
  140OSM    C3S15197   4.747   0.681   2.574
  140OSM    H3S15198   4.649   0.668   2.523
  140OSM     O315199   4.814   0.796   2.513
  140OSM    HO315200   4.865   0.759   2.441
  140OSM    C4S15201   4.725   0.716   2.714
  140OSM    H4S15202   4.817   0.745   2.766
  140OSM    C5S15203   4.615   0.686   2.784
  140OSM    H5S15204   4.530   0.632   2.740
  140OSM    C6S15205   4.592   0.713   2.930
  140OSM    H6S15206   4.579   0.618   2.986
  140OSM    H6T15207   4.495   0.767   2.936
  140OSM    C7S15208   4.701   0.783   3.012
  140OSM    H7S15209   4.726   0.875   2.954
  140OSM    H7T15210   4.785   0.711   3.027
  140OSM    C8S15211   4.651   0.837   3.140
  140OSM    H8S15212   4.564   0.899   3.110
  140OSM    H8T15213   4.741   0.892   3.173
  140OSM    C9S15214   4.620   0.731   3.254
  140OSM    H9S15215   4.712   0.671   3.272
  140OSM    H9T15216   4.549   0.669   3.195
  140OSM   C10S15217   4.568   0.792   3.394
  140OSM   H10S15218   4.468   0.838   3.383
  140OSM   H10T15219   4.635   0.878   3.414
  140OSM   C11S15220   4.563   0.689   3.510
  140OSM   H11S15221   4.666   0.648   3.517
  140OSM   H11T15222   4.498   0.604   3.481
  140OSM   C12S15223   4.512   0.741   3.643
  140OSM   H12S15224   4.401   0.751   3.644
  140OSM   H12T15225   4.554   0.840   3.670
  140OSM   C13S15226   4.548   0.655   3.769
  140OSM   H13S15227   4.659   0.658   3.782
  140OSM   H13T15228   4.514   0.549   3.765
  140OSM   C14S15229   4.484   0.712   3.903
  140OSM   H14S15230   4.376   0.692   3.888
  140OSM   H14T15231   4.506   0.821   3.903
  140OSM   C15S15232   4.538   0.641   4.034
  140OSM   H15S15233   4.639   0.688   4.036
  140OSM   H15T15234   4.534   0.532   4.017
  140OSM   C16S15235   4.462   0.683   4.160
  140OSM   H16S15236   4.365   0.629   4.162
  140OSM   H16T15237   4.444   0.793   4.152
  140OSM   C17S15238   4.528   0.660   4.296
  140OSM   H17S15239   4.450   0.691   4.369
  140OSM   H17T15240   4.618   0.723   4.306
  140OSM   C18S15241   4.562   0.514   4.320
  140OSM   H18S15242   4.589   0.491   4.425
  140OSM   H18T15243   4.645   0.497   4.248
  140OSM   H18U15244   4.472   0.455   4.296
  140OSM    C1F15245   4.849   0.321   2.645
  140OSM     OF15246   4.967   0.321   2.615
  140OSM    C2F15247   4.774   0.193   2.683
  140OSM    H2F15248   4.770   0.122   2.598
  140OSM    H2G15249   4.669   0.224   2.702
  140OSM    C3F15250   4.842   0.132   2.809
  140OSM    H3F15251   4.939   0.102   2.764
  140OSM    H3G15252   4.789   0.038   2.838
  140OSM    C4F15253   4.834   0.223   2.936
  140OSM    H4F15254   4.845   0.327   2.899
  140OSM    H4G15255   4.912   0.190   3.008
  140OSM    C5F15256   4.707   0.217   3.020
  140OSM    H5F15257   4.661   0.117   3.038
  140OSM    H5G15258   4.630   0.259   2.953
  140OSM    C6F15259   4.705   0.297   3.152
  140OSM    H6F15260   4.603   0.297   3.198
  140OSM    H6G15261   4.731   0.403   3.131
  140OSM    C7F15262   4.800   0.246   3.263
  140OSM    H7F15263   4.899   0.286   3.231
  140OSM    H7G15264   4.808   0.136   3.272
  140OSM    C8F15265   4.774   0.302   3.409
  140OSM    H8F15266   4.666   0.295   3.434
  140OSM    H8G15267   4.785   0.412   3.399
  140OSM    C9F15268   4.873   0.259   3.514
  140OSM    H9F15269   4.949   0.191   3.473
  140OSM   C10F15270   4.874   0.295   3.647
  140OSM   H10F15271   4.963   0.260   3.702
  140OSM   C11F15272   4.769   0.386   3.716
  140OSM   H11F15273   4.683   0.403   3.647
  140OSM   H11G15274   4.809   0.484   3.751
  140OSM   C12F15275   4.719   0.299   3.834
  140OSM   H12F15276   4.691   0.197   3.800
  140OSM   H12G15277   4.621   0.346   3.859
  140OSM   C13F15278   4.814   0.288   3.956
  140OSM   H13F15279   4.908   0.233   3.931
  140OSM   H13G15280   4.765   0.247   4.046
  140OSM   C14F15281   4.872   0.422   4.003
  140OSM   H14F15282   4.793   0.494   4.032
  140OSM   H14G15283   4.931   0.472   3.923
  140OSM   C15F15284   4.976   0.402   4.115
  140OSM   H15F15285   5.034   0.494   4.138
  140OSM   H15G15286   5.054   0.345   4.059
  140OSM   C16F15287   4.925   0.315   4.235
  140OSM   H16F15288   4.935   0.210   4.201
  140OSM   H16G15289   4.818   0.336   4.256
  140OSM   C17F15290   5.005   0.344   4.356
  140OSM   H17F15291   5.001   0.454   4.371
  140OSM   H17G15292   5.111   0.315   4.340
  140OSM   C18F15293   4.947   0.283   4.479
  140OSM   H18F15294   4.837   0.295   4.488
  140OSM   H18G15295   5.008   0.310   4.567
  140OSM   H18H15296   4.946   0.173   4.466
  141OSM      N15297   0.287   4.364   1.893
  141OSM    C1515298   0.233   4.264   1.994
  141OSM   H15A15299   0.256   4.160   1.973
  141OSM   H15B15300   0.125   4.259   1.986
  141OSM   H15C15301   0.255   4.284   2.097
  141OSM    C1415302   0.222   4.323   1.764
  141OSM   H14A15303   0.118   4.347   1.775
  141OSM   H14B15304   0.233   4.219   1.738
  141OSM   H14C15305   0.262   4.375   1.678
  141OSM    C1315306   0.239   4.505   1.924
  141OSM   H13A15307   0.133   4.519   1.911
  141OSM   H13B15308   0.289   4.576   1.859
  141OSM   H13C15309   0.263   4.523   2.028
  141OSM    C1215310   0.440   4.364   1.884
  141OSM   H12A15311   0.472   4.431   1.805
  141OSM   H12B15312   0.472   4.265   1.855
  141OSM    C1115313   0.519   4.418   2.009
  141OSM   H11A15314   0.474   4.372   2.100
  141OSM   H11B15315   0.509   4.528   2.016
  141OSM      P15316   0.774   4.463   2.023
  141OSM    O1315317   0.888   4.376   2.021
  141OSM    O1415318   0.771   4.585   1.942
  141OSM    O1115319   0.750   4.512   2.173
  141OSM    O1215320   0.650   4.380   1.988
  141OSM    C1S15321   0.733   4.432   2.289
  141OSM    H1S15322   0.799   4.342   2.285
  141OSM    H1T15323   0.634   4.381   2.291
  141OSM     NF15324   0.799   4.408   2.532
  141OSM    HNF15325   0.721   4.392   2.592
  141OSM    C2S15326   0.768   4.503   2.421
  141OSM    H2S15327   0.859   4.554   2.381
  141OSM    C3S15328   0.649   4.608   2.450
  141OSM    H3S15329   0.553   4.553   2.456
  141OSM     O315330   0.626   4.688   2.340
  141OSM    HO315331   0.672   4.648   2.266
  141OSM    C4S15332   0.685   4.687   2.569
  141OSM    H4S15333   0.786   4.729   2.559
  141OSM    C5S15334   0.630   4.675   2.692
  141OSM    H5S15335   0.540   4.614   2.711
  141OSM    C6S15336   0.676   4.752   2.811
  141OSM    H6S15337   0.603   4.834   2.825
  141OSM    H6T15338   0.774   4.803   2.795
  141OSM    C7S15339   0.686   4.665   2.931
  141OSM    H7S15340   0.760   4.582   2.924
  141OSM    H7T15341   0.589   4.616   2.951
  141OSM    C8S15342   0.728   4.749   3.062
  141OSM    H8S15343   0.675   4.847   3.060
  141OSM    H8T15344   0.838   4.758   3.054
  141OSM    C9S15345   0.707   4.671   3.192
  141OSM    H9S15346   0.749   4.568   3.180
  141OSM    H9T15347   0.596   4.664   3.192
  141OSM   C10S15348   0.746   4.738   3.326
  141OSM   H10S15349   0.661   4.806   3.348
  141OSM   H10T15350   0.831   4.810   3.328
  141OSM   C11S15351   0.769   4.641   3.442
  141OSM   H11S15352   0.861   4.586   3.412
  141OSM   H11T15353   0.678   4.579   3.454
  141OSM   C12S15354   0.774   4.707   3.593
  141OSM   H12S15355   0.686   4.774   3.599
  141OSM   H12T15356   0.867   4.767   3.603
  141OSM   C13S15357   0.764   4.613   3.712
  141OSM   H13S15358   0.865   4.569   3.724
  141OSM   H13T15359   0.683   4.536   3.709
  141OSM   C14S15360   0.745   4.685   3.851
  141OSM   H14S15361   0.643   4.729   3.856
  141OSM   H14T15362   0.829   4.751   3.880
  141OSM   C15S15363   0.754   4.577   3.962
  141OSM   H15S15364   0.685   4.496   3.928
  141OSM   H15T15365   0.715   4.608   4.062
  141OSM   C16S15366   0.883   4.500   3.982
  141OSM   H16S15367   0.965   4.571   4.005
  141OSM   H16T15368   0.905   4.452   3.884
  141OSM   C17S15369   0.849   4.390   4.086
  141OSM   H17S15370   0.927   4.313   4.068
  141OSM   H17T15371   0.752   4.343   4.058
  141OSM   C18S15372   0.849   4.435   4.232
  141OSM   H18S15373   0.922   4.515   4.258
  141OSM   H18T15374   0.862   4.351   4.303
  141OSM   H18U15375   0.747   4.473   4.257
  141OSM    C1F15376   0.903   4.331   2.516
  141OSM     OF15377   0.975   4.331   2.416
  141OSM    C2F15378   0.917   4.224   2.617
  141OSM    H2F15379   0.952   4.132   2.566
  141OSM    H2G15380   0.809   4.209   2.639
  141OSM    C3F15381   0.988   4.289   2.738
  141OSM    H3F15382   0.939   4.387   2.755
  141OSM    H3G15383   1.092   4.317   2.712
  141OSM    C4F15384   0.986   4.198   2.867
  141OSM    H4F15385   1.053   4.112   2.844
  141OSM    H4G15386   0.882   4.162   2.877
  141OSM    C5F15387   1.006   4.268   3.001
  141OSM    H5F15388   0.936   4.354   2.991
  141OSM    H5G15389   1.108   4.309   3.016
  141OSM    C6F15390   0.946   4.193   3.116
  141OSM    H6F15391   1.019   4.134   3.175
  141OSM    H6G15392   0.875   4.115   3.078
  141OSM    C7F15393   0.864   4.283   3.214
  141OSM    H7F15394   0.795   4.347   3.154
  141OSM    H7G15395   0.926   4.357   3.270
  141OSM    C8F15396   0.783   4.198   3.301
  141OSM    H8F15397   0.730   4.118   3.245
  141OSM    H8G15398   0.701   4.243   3.362
  141OSM    C9F15399   0.871   4.120   3.391
  141OSM    H9F15400   0.914   4.028   3.347
  141OSM   C10F15401   0.891   4.147   3.525
  141OSM   H10F15402   0.960   4.079   3.577
  141OSM   C11F15403   0.838   4.260   3.605
  141OSM   H11F15404   0.759   4.307   3.542
  141OSM   H11G15405   0.915   4.339   3.621
  141OSM   C12F15406   0.763   4.217   3.730
  141OSM   H12F15407   0.715   4.307   3.775
  141OSM   H12G15408   0.827   4.178   3.812
  141OSM   C13F15409   0.651   4.124   3.703
  141OSM   H13F15410   0.684   4.019   3.713
  141OSM   H13G15411   0.616   4.140   3.598
  141OSM   C14F15412   0.532   4.137   3.806
  141OSM   H14F15413   0.493   4.240   3.791
  141OSM   H14G15414   0.577   4.129   3.907
  141OSM   C15F15415   0.427   4.032   3.781
  141OSM   H15F15416   0.468   3.934   3.812
  141OSM   H15G15417   0.396   4.009   3.677
  141OSM   C16F15418   0.299   4.061   3.857
  141OSM   H16F15419   0.243   4.149   3.820
  141OSM   H16G15420   0.313   4.078   3.966
  141OSM   C17F15421   0.200   3.944   3.845
  141OSM   H17F15422   0.231   3.848   3.891
  141OSM   H17G15423   0.183   3.926   3.736
  141OSM   C18F15424   0.055   3.975   3.900
  141OSM   H18F15425   6.903   3.892   3.858
  141OSM   H18G15426   0.020   4.072   3.859
  141OSM   H18H15427   0.045   3.982   4.011
  142OSM      N15428   2.079   5.637   2.219
  142OSM    C1515429   2.117   5.734   2.110
  142OSM   H15A15430   2.220   5.766   2.123
  142OSM   H15B15431   2.059   5.821   2.134
  142OSM   H15C15432   2.105   5.705   2.007
  142OSM    C1415433   1.955   5.568   2.178
  142OSM   H14A15434   1.980   5.496   2.101
  142OSM   H14B15435   1.885   5.644   2.149
  142OSM   H14C15436   1.918   5.510   2.261
  142OSM    C1315437   2.193   5.534   2.219
  142OSM   H13A15438   2.210   5.507   2.116
  142OSM   H13B15439   2.156   5.457   2.286
  142OSM   H13C15440   2.280   5.569   2.272
  142OSM    C1215441   2.060   5.707   2.357
  142OSM   H12A15442   2.152   5.759   2.378
  142OSM   H12B15443   2.025   5.630   2.425
  142OSM    C1115444   1.951   5.815   2.368
  142OSM   H11A15445   1.923   5.826   2.475
  142OSM   H11B15446   1.860   5.777   2.318
  142OSM      P15447   1.895   6.059   2.277
  142OSM    O1315448   1.974   6.175   2.239
  142OSM    O1415449   1.793   6.024   2.176
  142OSM    O1115450   1.823   6.089   2.415
  142OSM    O1215451   1.992   5.937   2.313
  142OSM    C1S15452   1.902   6.147   2.521
  142OSM    H1S15453   1.917   6.255   2.498
  142OSM    H1T15454   1.994   6.087   2.535
  142OSM     NF15455   1.919   6.194   2.766
  142OSM    HNF15456   1.974   6.131   2.818
  142OSM    C2S15457   1.830   6.129   2.664
  142OSM    H2S15458   1.740   6.195   2.670
  142OSM    C3S15459   1.790   5.989   2.695
  142OSM    H3S15460   1.878   5.922   2.704
  142OSM     O315461   1.709   5.934   2.596
  142OSM    HO315462   1.725   5.988   2.518
  142OSM    C4S15463   1.718   5.988   2.821
  142OSM    H4S15464   1.791   5.999   2.903
  142OSM    C5S15465   1.590   5.992   2.843
  142OSM    H5S15466   1.523   5.999   2.756
  142OSM    C6S15467   1.521   6.002   2.979
  142OSM    H6S15468   1.492   5.900   3.010
  142OSM    H6T15469   1.432   6.068   2.974
  142OSM    C7S15470   1.617   6.036   3.097
  142OSM    H7S15471   1.659   6.138   3.082
  142OSM    H7T15472   1.704   5.967   3.101
  142OSM    C8S15473   1.555   6.016   3.240
  142OSM    H8S15474   1.533   5.907   3.245
  142OSM    H8T15475   1.461   6.075   3.242
  142OSM    C9S15476   1.657   6.037   3.346
  142OSM    H9S15477   1.708   6.136   3.344
  142OSM    H9T15478   1.744   5.969   3.333
  142OSM   C10S15479   1.599   6.009   3.485
  142OSM   H10S15480   1.544   5.913   3.482
  142OSM   H10T15481   1.518   6.084   3.500
  142OSM   C11S15482   1.707   6.010   3.600
  142OSM   H11S15483   1.749   6.112   3.610
  142OSM   H11T15484   1.795   5.957   3.559
  142OSM   C12S15485   1.663   5.946   3.726
  142OSM   H12S15486   1.619   5.847   3.701
  142OSM   H12T15487   1.590   6.016   3.770
  142OSM   C13S15488   1.774   5.920   3.822
  142OSM   H13S15489   1.843   6.007   3.827
  142OSM   H13T15490   1.844   5.847   3.775
  142OSM   C14S15491   1.725   5.876   3.960
  142OSM   H14S15492   1.659   5.786   3.949
  142OSM   H14T15493   1.668   5.965   3.994
  142OSM   C15S15494   1.834   5.836   4.064
  142OSM   H15S15495   1.880   5.740   4.032
  142OSM   H15T15496   1.776   5.815   4.157
  142OSM   C16S15497   1.950   5.930   4.093
  142OSM   H16S15498   1.906   6.023   4.135
  142OSM   H16T15499   2.010   5.966   4.007
  142OSM   C17S15500   2.064   5.863   4.183
  142OSM   H17S15501   2.142   5.942   4.190
  142OSM   H17T15502   2.108   5.769   4.144
  142OSM   C18S15503   2.023   5.826   4.326
  142OSM   H18S15504   2.112   5.794   4.383
  142OSM   H18T15505   1.946   5.746   4.334
  142OSM   H18U15506   1.985   5.918   4.377
  142OSM    C1F15507   1.938   6.330   2.780
  142OSM     OF15508   1.871   6.409   2.720
  142OSM    C2F15509   2.055   6.361   2.865
  142OSM    H2F15510   2.122   6.441   2.829
  142OSM    H2G15511   2.125   6.275   2.865
  142OSM    C3F15512   2.019   6.399   3.017
  142OSM    H3F15513   1.946   6.480   2.998
  142OSM    H3G15514   2.109   6.430   3.073
  142OSM    C4F15515   1.948   6.288   3.089
  142OSM    H4F15516   1.876   6.243   3.017
  142OSM    H4G15517   1.888   6.339   3.167
  142OSM    C5F15518   2.029   6.179   3.155
  142OSM    H5F15519   2.105   6.141   3.083
  142OSM    H5G15520   1.959   6.096   3.178
  142OSM    C6F15521   2.098   6.232   3.279
  142OSM    H6F15522   2.146   6.327   3.248
  142OSM    H6G15523   2.178   6.164   3.315
  142OSM    C7F15524   2.012   6.244   3.411
  142OSM    H7F15525   1.952   6.153   3.428
  142OSM    H7G15526   1.936   6.325   3.408
  142OSM    C8F15527   2.099   6.274   3.533
  142OSM    H8F15528   2.174   6.349   3.502
  142OSM    H8G15529   2.159   6.183   3.556
  142OSM    C9F15530   2.040   6.334   3.661
  142OSM    H9F15531   1.950   6.396   3.649
  142OSM   C10F15532   2.098   6.294   3.777
  142OSM   H10F15533   2.042   6.320   3.868
  142OSM   C11F15534   2.226   6.217   3.800
  142OSM   H11F15535   2.308   6.247   3.731
  142OSM   H11G15536   2.204   6.110   3.782
  142OSM   C12F15537   2.270   6.231   3.946
  142OSM   H12F15538   2.199   6.172   4.006
  142OSM   H12G15539   2.259   6.339   3.970
  142OSM   C13F15540   2.413   6.174   3.965
  142OSM   H13F15541   2.481   6.215   3.888
  142OSM   H13G15542   2.415   6.064   3.949
  142OSM   C14F15543   2.465   6.203   4.102
  142OSM   H14F15544   2.419   6.139   4.180
  142OSM   H14G15545   2.437   6.307   4.129
  142OSM   C15F15546   2.613   6.175   4.120
  142OSM   H15F15547   2.670   6.213   4.032
  142OSM   H15G15548   2.630   6.065   4.115
  142OSM   C16F15549   2.672   6.233   4.247
  142OSM   H16F15550   2.644   6.176   4.338
  142OSM   H16G15551   2.639   6.338   4.258
  142OSM   C17F15552   2.827   6.229   4.236
  142OSM   H17F15553   2.864   6.261   4.336
  142OSM   H17G15554   2.859   6.290   4.149
  142OSM   C18F15555   2.866   6.079   4.226
  142OSM   H18F15556   2.965   6.047   4.264
  142OSM   H18G15557   2.857   6.047   4.120
  142OSM   H18H15558   2.796   6.011   4.279
  143OSM      N15559   1.231   4.522   2.179
  143OSM    C1515560   1.205   4.393   2.114
  143OSM   H15A15561   1.112   4.393   2.060
  143OSM   H15B15562   1.197   4.309   2.181
  143OSM   H15C15563   1.275   4.372   2.034
  143OSM    C1415564   1.120   4.558   2.271
  143OSM   H14A15565   1.140   4.648   2.327
  143OSM   H14B15566   1.097   4.480   2.341
  143OSM   H14C15567   1.031   4.579   2.214
  143OSM    C1315568   1.361   4.496   2.255
  143OSM   H13A15569   1.401   4.565   2.328
  143OSM   H13B15570   1.450   4.485   2.195
  143OSM   H13C15571   1.354   4.400   2.305
  143OSM    C1215572   1.259   4.629   2.075
  143OSM   H12A15573   1.349   4.603   2.022
  143OSM   H12B15574   1.288   4.720   2.125
  143OSM    C1115575   1.161   4.646   1.968
  143OSM   H11A15576   1.063   4.668   2.016
  143OSM   H11B15577   1.150   4.554   1.907
  143OSM      P15578   1.148   4.899   1.916
  143OSM    O1315579   1.226   5.004   1.844
  143OSM    O1415580   1.006   4.904   1.895
  143OSM    O1115581   1.175   4.918   2.069
  143OSM    O1215582   1.194   4.755   1.881
  143OSM    C1S15583   1.136   5.040   2.135
  143OSM    H1S15584   1.027   5.028   2.154
  143OSM    H1T15585   1.154   5.130   2.073
  143OSM     NF15586   1.163   5.153   2.351
  143OSM    HNF15587   1.189   5.248   2.333
  143OSM    C2S15588   1.223   5.053   2.271
  143OSM    H2S15589   1.215   4.956   2.324
  143OSM    C3S15590   1.367   5.072   2.245
  143OSM    H3S15591   1.381   5.177   2.212
  143OSM     O315592   1.418   5.002   2.130
  143OSM    HO315593   1.345   4.960   2.083
  143OSM    C4S15594   1.446   5.049   2.364
  143OSM    H4S15595   1.459   5.138   2.428
  143OSM    C5S15596   1.496   4.931   2.404
  143OSM    H5S15597   1.459   4.848   2.343
  143OSM    C6S15598   1.570   4.900   2.529
  143OSM    H6S15599   1.678   4.880   2.514
  143OSM    H6T15600   1.530   4.805   2.572
  143OSM    C7S15601   1.567   4.999   2.651
  143OSM    H7S15602   1.462   5.017   2.683
  143OSM    H7T15603   1.602   5.098   2.615
  143OSM    C8S15604   1.653   4.966   2.777
  143OSM    H8S15605   1.743   5.030   2.766
  143OSM    H8T15606   1.677   4.858   2.767
  143OSM    C9S15607   1.583   4.992   2.907
  143OSM    H9S15608   1.497   4.923   2.916
  143OSM    H9T15609   1.548   5.098   2.910
  143OSM   C10S15610   1.675   4.963   3.027
  143OSM   H10S15611   1.758   5.037   3.027
  143OSM   H10T15612   1.714   4.859   3.022
  143OSM   C11S15613   1.614   4.960   3.165
  143OSM   H11S15614   1.538   4.880   3.180
  143OSM   H11T15615   1.569   5.058   3.191
  143OSM   C12S15616   1.720   4.933   3.271
  143OSM   H12S15617   1.786   5.021   3.255
  143OSM   H12T15618   1.777   4.841   3.246
  143OSM   C13S15619   1.670   4.928   3.420
  143OSM   H13S15620   1.607   4.837   3.420
  143OSM   H13T15621   1.612   5.019   3.445
  143OSM   C14S15622   1.792   4.899   3.507
  143OSM   H14S15623   1.846   4.995   3.502
  143OSM   H14T15624   1.856   4.820   3.462
  143OSM   C15S15625   1.760   4.857   3.648
  143OSM   H15S15626   1.855   4.841   3.703
  143OSM   H15T15627   1.695   4.768   3.635
  143OSM   C16S15628   1.685   4.960   3.729
  143OSM   H16S15629   1.614   5.021   3.669
  143OSM   H16T15630   1.754   5.022   3.790
  143OSM   C17S15631   1.595   4.907   3.841
  143OSM   H17S15632   1.649   4.847   3.917
  143OSM   H17T15633   1.522   4.844   3.786
  143OSM   C18S15634   1.526   5.019   3.920
  143OSM   H18S15635   1.442   5.061   3.861
  143OSM   H18T15636   1.595   5.101   3.948
  143OSM   H18U15637   1.490   4.971   4.013
  143OSM    C1F15638   1.049   5.132   2.404
  143OSM     OF15639   0.992   5.019   2.403
  143OSM    C2F15640   0.977   5.257   2.458
  143OSM    H2F15641   0.959   5.307   2.361
  143OSM    H2G15642   1.056   5.312   2.514
  143OSM    C3F15643   0.853   5.256   2.539
  143OSM    H3F15644   0.771   5.210   2.480
  143OSM    H3G15645   0.827   5.361   2.565
  143OSM    C4F15646   0.862   5.181   2.673
  143OSM    H4F15647   0.936   5.237   2.733
  143OSM    H4G15648   0.907   5.080   2.663
  143OSM    C5F15649   0.726   5.180   2.749
  143OSM    H5F15650   0.649   5.121   2.695
  143OSM    H5G15651   0.697   5.287   2.754
  143OSM    C6F15652   0.742   5.114   2.893
  143OSM    H6F15653   0.769   5.006   2.898
  143OSM    H6G15654   0.648   5.109   2.953
  143OSM    C7F15655   0.841   5.190   2.984
  143OSM    H7F15656   0.787   5.286   2.994
  143OSM    H7G15657   0.943   5.205   2.941
  143OSM    C8F15658   0.838   5.135   3.127
  143OSM    H8F15659   0.869   5.028   3.118
  143OSM    H8G15660   0.732   5.132   3.158
  143OSM    C9F15661   0.936   5.200   3.223
  143OSM    H9F15662   0.996   5.286   3.190
  143OSM   C10F15663   0.931   5.174   3.352
  143OSM   H10F15664   0.994   5.239   3.414
  143OSM   C11F15665   0.853   5.068   3.424
  143OSM   H11F15666   0.923   4.987   3.453
  143OSM   H11G15667   0.781   5.022   3.353
  143OSM   C12F15668   0.774   5.112   3.555
  143OSM   H12F15669   0.712   5.030   3.599
  143OSM   H12G15670   0.719   5.204   3.527
  143OSM   C13F15671   0.865   5.150   3.672
  143OSM   H13F15672   0.905   5.246   3.633
  143OSM   H13G15673   0.950   5.078   3.677
  143OSM   C14F15674   0.796   5.170   3.807
  143OSM   H14F15675   0.729   5.089   3.844
  143OSM   H14G15676   0.736   5.262   3.792
  143OSM   C15F15677   0.899   5.206   3.924
  143OSM   H15F15678   0.981   5.131   3.926
  143OSM   H15G15679   0.840   5.195   4.018
  143OSM   C16F15680   0.942   5.353   3.908
  143OSM   H16F15681   0.855   5.420   3.889
  143OSM   H16G15682   1.011   5.358   3.821
  143OSM   C17F15683   1.024   5.397   4.026
  143OSM   H17F15684   0.967   5.376   4.119
  143OSM   H17G15685   1.046   5.505   4.037
  143OSM   C18F15686   1.164   5.343   4.020
  143OSM   H18F15687   1.224   5.402   3.948
  143OSM   H18G15688   1.161   5.237   3.985
  143OSM   H18H15689   1.214   5.341   4.119
  144OSM      N15690   0.473   6.198   1.841
  144OSM    C1515691   0.594   6.122   1.812
  144OSM   H15A15692   0.587   6.063   1.722
  144OSM   H15B15693   0.625   6.062   1.896
  144OSM   H15C15694   0.677   6.189   1.793
  144OSM    C1415695   0.458   6.302   1.734
  144OSM   H14A15696   0.427   6.260   1.639
  144OSM   H14B15697   0.554   6.346   1.713
  144OSM   H14C15698   0.395   6.384   1.764
  144OSM    C1315699   0.358   6.110   1.841
  144OSM   H13A15700   0.329   6.069   1.746
  144OSM   H13B15701   0.272   6.163   1.879
  144OSM   H13C15702   0.373   6.028   1.909
  144OSM    C1215703   0.496   6.267   1.977
  144OSM   H12A15704   0.404   6.321   1.993
  144OSM   H12B15705   0.584   6.329   1.970
  144OSM    C1115706   0.523   6.175   2.098
  144OSM   H11A15707   0.430   6.122   2.128
  144OSM   H11B15708   0.542   6.238   2.188
  144OSM      P15709   0.631   5.940   2.130
  144OSM    O1315710   0.488   5.897   2.142
  144OSM    O1415711   0.719   5.861   2.043
  144OSM    O1115712   0.690   5.937   2.276
  144OSM    O1215713   0.639   6.092   2.080
  144OSM    C1S15714   0.685   6.066   2.352
  144OSM    H1S15715   0.585   6.115   2.354
  144OSM    H1T15716   0.756   6.137   2.304
  144OSM     NF15717   0.710   6.179   2.578
  144OSM    HNF15718   0.789   6.208   2.633
  144OSM    C2S15719   0.727   6.055   2.506
  144OSM    H2S15720   0.670   5.976   2.560
  144OSM    C3S15721   0.868   5.996   2.516
  144OSM    H3S15722   0.936   6.069   2.468
  144OSM     O315723   0.870   5.874   2.441
  144OSM    HO315724   0.797   5.886   2.379
  144OSM    C4S15725   0.912   5.971   2.656
  144OSM    H4S15726   0.827   5.984   2.725
  144OSM    C5S15727   1.031   5.955   2.702
  144OSM    H5S15728   1.123   5.947   2.641
  144OSM    C6S15729   1.063   5.937   2.851
  144OSM    H6S15730   1.159   5.882   2.862
  144OSM    H6T15731   0.988   5.877   2.906
  144OSM    C7S15732   1.079   6.069   2.934
  144OSM    H7S15733   0.984   6.125   2.929
  144OSM    H7T15734   1.159   6.130   2.887
  144OSM    C8S15735   1.110   6.049   3.083
  144OSM    H8S15736   1.207   5.994   3.077
  144OSM    H8T15737   1.044   5.975   3.133
  144OSM    C9S15738   1.128   6.181   3.163
  144OSM    H9S15739   1.037   6.243   3.177
  144OSM    H9T15740   1.210   6.245   3.123
  144OSM   C10S15741   1.160   6.167   3.317
  144OSM   H10S15742   1.257   6.113   3.327
  144OSM   H10T15743   1.077   6.108   3.361
  144OSM   C11S15744   1.167   6.302   3.377
  144OSM   H11S15745   1.064   6.336   3.399
  144OSM   H11T15746   1.237   6.357   3.311
  144OSM   C12S15747   1.237   6.317   3.514
  144OSM   H12S15748   1.343   6.284   3.501
  144OSM   H12T15749   1.196   6.248   3.591
  144OSM   C13S15750   1.229   6.465   3.568
  144OSM   H13S15751   1.122   6.496   3.566
  144OSM   H13T15752   1.289   6.532   3.502
  144OSM   C14S15753   1.283   6.464   3.714
  144OSM   H14S15754   1.286   6.571   3.743
  144OSM   H14T15755   1.389   6.432   3.706
  144OSM   C15S15756   1.201   6.382   3.816
  144OSM   H15S15757   1.249   6.407   3.913
  144OSM   H15T15758   1.221   6.274   3.804
  144OSM   C16S15759   1.049   6.408   3.811
  144OSM   H16S15760   1.002   6.373   3.716
  144OSM   H16T15761   1.029   6.515   3.833
  144OSM   C17S15762   0.987   6.324   3.925
  144OSM   H17S15763   0.894   6.366   3.968
  144OSM   H17T15764   1.062   6.314   4.006
  144OSM   C18S15765   0.949   6.181   3.897
  144OSM   H18S15766   0.867   6.145   3.962
  144OSM   H18T15767   1.041   6.121   3.912
  144OSM   H18U15768   0.925   6.165   3.790
  144OSM    C1F15769   0.592   6.249   2.590
  144OSM     OF15770   0.480   6.194   2.581
  144OSM    C2F15771   0.588   6.390   2.630
  144OSM    H2F15772   0.647   6.394   2.723
  144OSM    H2G15773   0.485   6.425   2.654
  144OSM    C3F15774   0.646   6.484   2.517
  144OSM    H3F15775   0.579   6.475   2.429
  144OSM    H3G15776   0.748   6.451   2.487
  144OSM    C4F15777   0.648   6.629   2.562
  144OSM    H4F15778   0.551   6.642   2.616
  144OSM    H4G15779   0.638   6.701   2.478
  144OSM    C5F15780   0.764   6.665   2.657
  144OSM    H5F15781   0.867   6.655   2.616
  144OSM    H5G15782   0.768   6.586   2.735
  144OSM    C6F15783   0.742   6.805   2.720
  144OSM    H6F15784   0.659   6.812   2.793
  144OSM    H6G15785   0.709   6.867   2.634
  144OSM    C7F15786   0.867   6.860   2.794
  144OSM    H7F15787   0.951   6.868   2.722
  144OSM    H7G15788   0.887   6.783   2.871
  144OSM    C8F15789   0.836   0.081   2.859
  144OSM    H8F15790   0.763   0.058   2.940
  144OSM    H8G15791   0.775   0.148   2.794
  144OSM    C9F15792   0.960   0.155   2.909
  144OSM    H9F15793   1.019   0.206   2.832
  144OSM   C10F15794   1.005   0.166   3.041
  144OSM   H10F15795   1.098   0.221   3.060
  144OSM   C11F15796   0.954   0.108   3.166
  144OSM   H11F15797   1.021   0.034   3.216
  144OSM   H11G15798   0.873   0.036   3.142
  144OSM   C12F15799   0.900   0.200   3.280
  144OSM   H12F15800   0.822   0.267   3.240
  144OSM   H12G15801   0.984   0.259   3.323
  144OSM   C13F15802   0.824   0.124   3.392
  144OSM   H13F15803   0.896   0.041   3.409
  144OSM   H13G15804   0.731   0.082   3.348
  144OSM   C14F15805   0.795   0.203   3.521
  144OSM   H14F15806   0.714   0.279   3.513
  144OSM   H14G15807   0.888   0.256   3.551
  144OSM   C15F15808   0.735   0.102   3.624
  144OSM   H15F15809   0.814   0.024   3.632
  144OSM   H15G15810   0.635   0.059   3.602
  144OSM   C16F15811   0.729   0.157   3.762
  144OSM   H16F15812   0.695   0.263   3.758
  144OSM   H16G15813   0.830   0.160   3.808
  144OSM   C17F15814   0.642   0.071   3.855
  144OSM   H17F15815   0.711   0.005   3.913
  144OSM   H17G15816   0.561   0.017   3.801
  144OSM   C18F15817   0.575   0.170   3.960
  144OSM   H18F15818   0.652   0.204   4.032
  144OSM   H18G15819   0.505   0.115   4.027
  144OSM   H18H15820   0.512   0.246   3.909
  145SAPE     N15821   0.786   1.127   6.674
  145SAPE   HN115822   0.788   1.182   6.586
  145SAPE   HN215823   0.766   1.027   6.651
  145SAPE   HN315824   0.706   1.153   6.735
  145SAPE   C1215825   0.917   1.136   6.740
  145SAPE  H12A15826   0.911   1.060   6.821
  145SAPE  H12B15827   0.924   1.242   6.775
  145SAPE   C1115828   1.033   1.107   6.651
  145SAPE  H11A15829   1.122   1.136   6.712
  145SAPE  H11B15830   1.022   1.167   6.559
  145SAPE     P15831   0.990   0.895   6.492
  145SAPE   O1315832   1.031   0.755   6.489
  145SAPE   O1415833   0.848   0.918   6.508
  145SAPE   O1215834   1.047   0.967   6.619
  145SAPE   O1115835   1.051   0.978   6.364
  145SAPE    C115836   0.962   1.066   6.295
  145SAPE    HA15837   0.887   1.118   6.358
  145SAPE    HB15838   1.028   1.151   6.265
  145SAPE    C215839   0.906   1.000   6.166
  145SAPE    HS15840   0.816   0.941   6.192
  145SAPE   O2115841   1.002   0.921   6.093
  145SAPE   C2115842   0.976   0.794   6.087
  145SAPE   O2215843   0.873   0.732   6.123
  145SAPE   C2215844   1.101   0.729   6.032
  145SAPE   H2R15845   1.181   0.805   6.017
  145SAPE   H2S15846   1.146   0.652   6.099
  145SAPE    C315847   0.852   1.111   6.080
  145SAPE    HX15848   0.923   1.193   6.057
  145SAPE    HY15849   0.762   1.164   6.118
  145SAPE   O3115850   0.811   1.057   5.955
  145SAPE   C3115851   0.734   1.131   5.869
  145SAPE   O3215852   0.709   1.249   5.887
  145SAPE   C3215853   0.702   1.051   5.743
  145SAPE   H2X15854   0.668   0.948   5.768
  145SAPE   H2Y15855   0.800   1.036   5.693
  145SAPE   C2315856   1.061   0.660   5.900
  145SAPE   H3R15857   0.992   0.575   5.920
  145SAPE   H3S15858   1.153   0.614   5.860
  145SAPE   C2415859   0.999   0.753   5.792
  145SAPE   H4R15860   0.894   0.773   5.819
  145SAPE   H4S15861   1.002   0.695   5.697
  145SAPE   C2515862   1.068   0.883   5.781
  145SAPE   H5R15863   1.051   0.947   5.869
  145SAPE   C2615864   1.131   0.928   5.679
  145SAPE   H6R15865   1.176   1.026   5.699
  145SAPE   C2715866   1.177   0.861   5.550
  145SAPE   H7R15867   1.214   0.759   5.571
  145SAPE   H7S15868   1.271   0.914   5.523
  145SAPE   C2815869   1.066   0.881   5.444
  145SAPE   H8R15870   0.963   0.859   5.477
  145SAPE   C2915871   1.086   0.943   5.328
  145SAPE   H9R15872   1.002   0.947   5.256
  145SAPE  C21015873   1.216   0.990   5.266
  145SAPE  H10R15874   1.290   1.022   5.342
  145SAPE  H10S15875   1.194   1.079   5.204
  145SAPE  C21115876   1.291   0.880   5.196
  145SAPE  H11R15877   1.324   0.813   5.276
  145SAPE  C21215878   1.331   0.868   5.066
  145SAPE  H12R15879   1.404   0.794   5.032
  145SAPE  C21315880   1.275   0.969   4.960
  145SAPE  H13R15881   1.361   1.039   4.959
  145SAPE  H13S15882   1.187   1.024   4.999
  145SAPE  C21415883   1.240   0.922   4.821
  145SAPE  H14R15884   1.162   0.845   4.811
  145SAPE  C21515885   1.296   0.981   4.708
  145SAPE  H15R15886   1.264   0.938   4.612
  145SAPE  C21615887   1.384   1.099   4.699
  145SAPE  H16R15888   1.430   1.118   4.798
  145SAPE  H16S15889   1.324   1.185   4.664
  145SAPE  C21715890   1.499   1.057   4.607
  145SAPE  H17R15891   1.538   0.956   4.633
  145SAPE  H17S15892   1.594   1.113   4.612
  145SAPE  C21815893   1.476   1.045   4.454
  145SAPE  H18R15894   1.383   0.987   4.439
  145SAPE  H18S15895   1.558   0.989   4.403
  145SAPE  C21915896   1.441   1.175   4.376
  145SAPE  H19R15897   1.520   1.252   4.390
  145SAPE  H19S15898   1.348   1.207   4.429
  145SAPE  C22015899   1.412   1.139   4.231
  145SAPE  H20R15900   1.321   1.076   4.225
  145SAPE  H20S15901   1.507   1.104   4.185
  145SAPE  H20T15902   1.381   1.224   4.168
  145SAPE   C3315903   0.595   1.110   5.651
  145SAPE   H3X15904   0.633   1.209   5.618
  145SAPE   H3Y15905   0.501   1.125   5.708
  145SAPE   C3415906   0.565   1.013   5.528
  145SAPE   H4X15907   0.468   1.042   5.482
  145SAPE   H4Y15908   0.565   0.909   5.566
  145SAPE   C3515909   0.663   1.036   5.413
  145SAPE   H5X15910   0.764   1.005   5.446
  145SAPE   H5Y15911   0.665   1.145   5.393
  145SAPE   C3615912   0.607   0.972   5.284
  145SAPE   H6X15913   0.507   1.013   5.257
  145SAPE   H6Y15914   0.604   0.864   5.308
  145SAPE   C3715915   0.696   0.990   5.165
  145SAPE   H7X15916   0.792   0.946   5.198
  145SAPE   H7Y15917   0.717   1.093   5.129
  145SAPE   C3815918   0.646   0.904   5.048
  145SAPE   H8X15919   0.537   0.919   5.031
  145SAPE   H8Y15920   0.651   0.799   5.083
  145SAPE   C3915921   0.724   0.945   4.913
  145SAPE   H9X15922   0.827   0.912   4.935
  145SAPE   H9Y15923   0.709   1.053   4.890
  145SAPE  C31015924   0.678   0.859   4.796
  145SAPE  H10X15925   0.590   0.913   4.755
  145SAPE  H10Y15926   0.643   0.761   4.833
  145SAPE  C31115927   0.784   0.838   4.681
  145SAPE  H11X15928   0.871   0.783   4.725
  145SAPE  H11Y15929   0.832   0.935   4.656
  145SAPE  C31215930   0.734   0.774   4.546
  145SAPE  H12X15931   0.636   0.821   4.524
  145SAPE  H12Y15932   0.721   0.666   4.571
  145SAPE  C31315933   0.835   0.796   4.436
  145SAPE  H13X15934   0.849   0.905   4.418
  145SAPE  H13Y15935   0.799   0.756   4.339
  145SAPE  C31415936   0.969   0.738   4.468
  145SAPE  H14X15937   0.950   0.640   4.516
  145SAPE  H14Y15938   1.023   0.802   4.541
  145SAPE  C31515939   1.058   0.707   4.343
  145SAPE  H15X15940   0.986   0.671   4.266
  145SAPE  H15Y15941   1.125   0.627   4.380
  145SAPE  C31615942   1.142   0.824   4.285
  145SAPE  H16X15943   1.198   0.877   4.365
  145SAPE  H16Y15944   1.063   0.885   4.238
  145SAPE  C31715945   1.242   0.789   4.172
  145SAPE  H17X15946   1.273   0.890   4.138
  145SAPE  H17Y15947   1.196   0.727   4.091
  145SAPE  C31815948   1.367   0.712   4.223
  145SAPE  H18X15949   1.438   0.780   4.274
  145SAPE  H18Y15950   1.415   0.649   4.145
  145SAPE  H18Z15951   1.328   0.652   4.308
  146SAPE     N15952   4.297   6.696   6.758
  146SAPE   HN115953   4.335   6.687   6.854
  146SAPE   HN215954   4.194   6.698   6.774
  146SAPE   HN315955   4.312   6.605   6.709
  146SAPE   C1215956   4.351   6.808   6.670
  146SAPE  H12A15957   4.352   6.768   6.566
  146SAPE  H12B15958   4.460   6.814   6.691
  146SAPE   C1115959   4.279   0.033   6.693
  146SAPE  H11A15960   4.306   0.073   6.793
  146SAPE  H11B15961   4.169   0.014   6.691
  146SAPE     P15962   4.453   0.210   6.597
  146SAPE   O1315963   4.417   0.342   6.655
  146SAPE   O1415964   4.551   0.128   6.673
  146SAPE   O1215965   4.317   0.123   6.590
  146SAPE   O1115966   4.492   0.210   6.443
  146SAPE    C115967   4.500   0.083   6.379
  146SAPE    HA15968   4.577   0.018   6.424
  146SAPE    HB15969   4.402   0.033   6.360
  146SAPE    C215970   4.540   0.112   6.229
  146SAPE    HS15971   4.645   0.147   6.228
  146SAPE   O2115972   4.450   0.214   6.174
  146SAPE   C2115973   4.498   0.284   6.071
  146SAPE   O2215974   4.613   0.291   6.032
  146SAPE   C2215975   4.387   0.340   5.985
  146SAPE   H2R15976   4.348   0.264   5.915
  146SAPE   H2S15977   4.297   0.371   6.043
  146SAPE    C315978   4.520   6.883   6.146
  146SAPE    HX15979   4.415   6.850   6.164
  146SAPE    HY15980   4.581   6.811   6.205
  146SAPE   O3115981   4.559   6.896   6.007
  146SAPE   C3115982   4.685   6.908   5.974
  146SAPE   O3215983   4.771   6.879   6.054
  146SAPE   C3215984   4.704   0.049   5.830
  146SAPE   H2X15985   4.775   0.134   5.841
  146SAPE   H2Y15986   4.606   0.088   5.795
  146SAPE   C2315987   4.439   0.468   5.911
  146SAPE   H3R15988   4.530   0.441   5.853
  146SAPE   H3S15989   4.467   0.547   5.983
  146SAPE   C2415990   4.328   0.520   5.817
  146SAPE   H4R15991   4.329   0.455   5.726
  146SAPE   H4S15992   4.360   0.623   5.790
  146SAPE   C2515993   4.195   0.541   5.878
  146SAPE   H5R15994   4.196   0.572   5.984
  146SAPE   C2615995   4.071   0.539   5.821
  146SAPE   H6R15996   3.982   0.556   5.884
  146SAPE   C2715997   4.049   0.522   5.668
  146SAPE   H7R15998   4.034   0.418   5.634
  146SAPE   H7S15999   4.128   0.581   5.616
  146SAPE   C2816000   3.920   0.606   5.656
  146SAPE   H8R16001   3.901   0.686   5.730
  146SAPE   C2916002   3.822   0.579   5.567
  146SAPE   H9R16003   3.734   0.644   5.573
  146SAPE  C21016004   3.814   0.467   5.462
  146SAPE  H10R16005   3.723   0.493   5.403
  146SAPE  H10S16006   3.788   0.370   5.510
  146SAPE  C21116007   3.942   0.462   5.386
  146SAPE  H11R16008   3.993   0.365   5.393
  146SAPE  C21216009   3.990   0.557   5.298
  146SAPE  H12R16010   4.087   0.538   5.249
  146SAPE  C21316011   3.926   0.687   5.261
  146SAPE  H13R16012   3.978   0.768   5.315
  146SAPE  H13S16013   3.825   0.698   5.307
  146SAPE  C21416014   3.923   0.725   5.112
  146SAPE  H14R16015   3.984   0.812   5.084
  146SAPE  C21516016   3.825   0.672   5.030
  146SAPE  H15R16017   3.817   0.708   4.926
  146SAPE  C21616018   3.730   0.563   5.060
  146SAPE  H16R16019   3.626   0.602   5.057
  146SAPE  H16S16020   3.742   0.533   5.167
  146SAPE  C21716021   3.740   0.443   4.969
  146SAPE  H17R16022   3.671   0.370   5.017
  146SAPE  H17S16023   3.845   0.406   4.970
  146SAPE  C21816024   3.692   0.465   4.825
  146SAPE  H18R16025   3.730   0.375   4.773
  146SAPE  H18S16026   3.756   0.543   4.780
  146SAPE  C21916027   3.546   0.487   4.802
  146SAPE  H19R16028   3.506   0.563   4.873
  146SAPE  H19S16029   3.495   0.393   4.830
  146SAPE  C22016030   3.508   0.529   4.662
  146SAPE  H20R16031   3.398   0.542   4.654
  146SAPE  H20S16032   3.532   0.446   4.592
  146SAPE  H20T16033   3.565   0.617   4.624
  146SAPE   C3316034   4.766   6.855   5.737
  146SAPE   H3X16035   4.695   6.775   5.708
  146SAPE   H3Y16036   4.848   6.805   5.791
  146SAPE   C3416037   4.830   0.007   5.609
  146SAPE   H4X16038   4.897   0.093   5.628
  146SAPE   H4Y16039   4.751   0.049   5.543
  146SAPE   C3516040   4.900   6.821   5.523
  146SAPE   H5X16041   4.972   6.764   5.587
  146SAPE   H5Y16042   4.958   6.882   5.451
  146SAPE   C3616043   4.807   6.733   5.449
  146SAPE   H6X16044   4.740   6.805   5.397
  146SAPE   H6Y16045   4.757   6.659   5.515
  146SAPE   C3716046   4.887   6.652   5.346
  146SAPE   H7X16047   4.925   6.559   5.391
  146SAPE   H7Y16048   4.981   6.702   5.316
  146SAPE   C3816049   4.801   6.603   5.227
  146SAPE   H8X16050   4.768   6.682   5.157
  146SAPE   H8Y16051   4.704   6.555   5.255
  146SAPE   C3916052   4.873   6.506   5.128
  146SAPE   H9X16053   4.920   6.418   5.177
  146SAPE   H9Y16054   4.964   6.559   5.092
  146SAPE  C31016055   4.792   6.461   5.002
  146SAPE  H10X16056   4.769   6.550   4.940
  146SAPE  H10Y16057   4.709   6.392   5.028
  146SAPE  C31116058   4.901   6.386   4.917
  146SAPE  H11X16059   4.953   6.310   4.978
  146SAPE  H11Y16060   4.974   6.457   4.872
  146SAPE  C31216061   4.834   6.318   4.798
  146SAPE  H12X16062   4.752   6.248   4.825
  146SAPE  H12Y16063   4.907   6.249   4.750
  146SAPE  C31316064   4.757   6.402   4.688
  146SAPE  H13X16065   4.821   6.484   4.647
  146SAPE  H13Y16066   4.676   6.458   4.738
  146SAPE  C31416067   4.694   6.317   4.574
  146SAPE  H14X16068   4.614   6.365   4.514
  146SAPE  H14Y16069   4.647   6.230   4.624
  146SAPE  C31516070   4.809   6.252   4.477
  146SAPE  H15X16071   4.746   6.218   4.392
  146SAPE  H15Y16072   4.855   6.170   4.535
  146SAPE  C31616073   4.903   6.353   4.409
  146SAPE  H16X16074   4.952   6.301   4.324
  146SAPE  H16Y16075   4.973   6.382   4.490
  146SAPE  C31716076   4.821   6.473   4.354
  146SAPE  H17X16077   4.896   6.548   4.322
  146SAPE  H17Y16078   4.765   6.530   4.431
  146SAPE  C31816079   4.732   6.452   4.235
  146SAPE  H18X16080   4.784   6.397   4.154
  146SAPE  H18Y16081   4.695   6.543   4.183
  146SAPE  H18Z16082   4.642   6.399   4.273
  147SAPE     N16083   4.448   5.389   6.425
  147SAPE   HN116084   4.490   5.314   6.367
  147SAPE   HN216085   4.383   5.352   6.497
  147SAPE   HN316086   4.402   5.454   6.358
  147SAPE   C1216087   4.549   5.478   6.494
  147SAPE  H12A16088   4.543   5.455   6.602
  147SAPE  H12B16089   4.516   5.584   6.483
  147SAPE   C1116090   4.690   5.466   6.440
  147SAPE  H11A16091   4.694   5.489   6.332
  147SAPE  H11B16092   4.721   5.361   6.455
  147SAPE     P16093   4.931   5.557   6.513
  147SAPE   O1316094   4.992   5.688   6.480
  147SAPE   O1416095   4.967   5.484   6.635
  147SAPE   O1216096   4.774   5.563   6.497
  147SAPE   O1116097   4.961   5.456   6.395
  147SAPE    C116098   5.075   5.486   6.311
  147SAPE    HA16099   5.132   5.579   6.331
  147SAPE    HB16100   5.155   5.410   6.321
  147SAPE    C216101   5.038   5.497   6.165
  147SAPE    HS16102   5.134   5.491   6.109
  147SAPE   O2116103   4.954   5.615   6.141
  147SAPE   C2116104   5.023   5.716   6.099
  147SAPE   O2216105   5.148   5.722   6.088
  147SAPE   C2216106   4.929   5.827   6.069
  147SAPE   H2R16107   4.824   5.792   6.063
  147SAPE   H2S16108   4.930   5.902   6.151
  147SAPE    C316109   4.946   5.374   6.129
  147SAPE    HX16110   4.846   5.394   6.173
  147SAPE    HY16111   4.982   5.283   6.181
  147SAPE   O3116112   4.951   5.339   5.993
  147SAPE   C3116113   4.877   5.420   5.908
  147SAPE   O3216114   4.784   5.494   5.941
  147SAPE   C3216115   4.917   5.378   5.763
  147SAPE   H2X16116   4.900   5.270   5.739
  147SAPE   H2Y16117   5.026   5.398   5.758
  147SAPE   C2316118   4.961   5.905   5.937
  147SAPE   H3R16119   5.057   5.959   5.951
  147SAPE   H3S16120   4.882   5.983   5.936
  147SAPE   C2416121   4.954   5.818   5.812
  147SAPE   H4R16122   4.879   5.863   5.745
  147SAPE   H4S16123   4.927   5.714   5.842
  147SAPE   C2516124   5.082   5.786   5.738
  147SAPE   H5R16125   5.156   5.728   5.796
  147SAPE   C2616126   5.089   5.793   5.603
  147SAPE   H6R16127   5.185   5.772   5.554
  147SAPE   C2716128   4.988   5.838   5.501
  147SAPE   H7R16129   5.006   5.940   5.461
  147SAPE   H7S16130   4.885   5.850   5.539
  147SAPE   C2816131   4.978   5.731   5.390
  147SAPE   H8R16132   4.956   5.627   5.418
  147SAPE   C2916133   4.999   5.743   5.257
  147SAPE   H9R16134   4.992   5.663   5.182
  147SAPE  C21016135   5.037   5.874   5.188
  147SAPE  H10R16136   5.078   5.952   5.255
  147SAPE  H10S16137   4.946   5.928   5.154
  147SAPE  C21116138   5.133   5.868   5.070
  147SAPE  H11R16139   5.227   5.915   5.102
  147SAPE  C21216140   5.108   5.836   4.940
  147SAPE  H12R16141   5.193   5.843   4.871
  147SAPE  C21316142   4.974   5.792   4.878
  147SAPE  H13R16143   4.915   5.731   4.949
  147SAPE  H13S16144   5.004   5.717   4.802
  147SAPE  C21416145   4.886   5.901   4.825
  147SAPE  H14R16146   4.900   6.003   4.865
  147SAPE  C21516147   4.806   5.892   4.724
  147SAPE  H15R16148   4.749   5.979   4.688
  147SAPE  C21616149   4.770   5.759   4.653
  147SAPE  H16R16150   4.659   5.747   4.661
  147SAPE  H16S16151   4.812   5.670   4.704
  147SAPE  C21716152   4.807   5.746   4.505
  147SAPE  H17R16153   4.773   5.844   4.464
  147SAPE  H17S16154   4.737   5.670   4.464
  147SAPE  C21816155   4.959   5.727   4.470
  147SAPE  H18R16156   4.993   5.638   4.528
  147SAPE  H18S16157   5.030   5.806   4.504
  147SAPE  C21916158   4.986   5.717   4.315
  147SAPE  H19R16159   5.007   5.813   4.264
  147SAPE  H19S16160   4.900   5.670   4.262
  147SAPE  C22016161   5.119   5.638   4.296
  147SAPE  H20R16162   5.151   5.676   4.196
  147SAPE  H20S16163   5.091   5.531   4.301
  147SAPE  H20T16164   5.189   5.662   4.379
  147SAPE   C3316165   4.823   5.447   5.655
  147SAPE   H3X16166   4.844   5.556   5.655
  147SAPE   H3Y16167   4.721   5.427   5.695
  147SAPE   C3416168   4.835   5.386   5.518
  147SAPE   H4X16169   4.794   5.283   5.527
  147SAPE   H4Y16170   4.941   5.385   5.484
  147SAPE   C3516171   4.748   5.459   5.412
  147SAPE   H5X16172   4.765   5.568   5.426
  147SAPE   H5Y16173   4.643   5.427   5.426
  147SAPE   C3616174   4.801   5.429   5.271
  147SAPE   H6X16175   4.804   5.318   5.272
  147SAPE   H6Y16176   4.906   5.460   5.253
  147SAPE   C3716177   4.711   5.475   5.157
  147SAPE   H7X16178   4.726   5.585   5.148
  147SAPE   H7Y16179   4.605   5.450   5.180
  147SAPE   C3816180   4.729   5.421   5.019
  147SAPE   H8X16181   4.733   5.310   5.013
  147SAPE   H8Y16182   4.829   5.450   4.980
  147SAPE   C3916183   4.626   5.481   4.918
  147SAPE   H9X16184   4.639   5.591   4.902
  147SAPE   H9Y16185   4.530   5.471   4.972
  147SAPE  C31016186   4.597   5.389   4.791
  147SAPE  H10X16187   4.498   5.416   4.750
  147SAPE  H10Y16188   4.583   5.285   4.827
  147SAPE  C31116189   4.713   5.380   4.691
  147SAPE  H11X16190   4.808   5.364   4.746
  147SAPE  H11Y16191   4.702   5.479   4.643
  147SAPE  C31216192   4.696   5.253   4.591
  147SAPE  H12X16193   4.593   5.257   4.550
  147SAPE  H12Y16194   4.715   5.154   4.637
  147SAPE  C31316195   4.796   5.255   4.475
  147SAPE  H13X16196   4.900   5.264   4.513
  147SAPE  H13Y16197   4.781   5.336   4.400
  147SAPE  C31416198   4.806   5.121   4.400
  147SAPE  H14X16199   4.713   5.114   4.340
  147SAPE  H14Y16200   4.819   5.037   4.471
  147SAPE  C31516201   4.926   5.118   4.304
  147SAPE  H15X16202   5.018   5.141   4.362
  147SAPE  H15Y16203   4.922   5.205   4.236
  147SAPE  C31616204   4.939   4.993   4.214
  147SAPE  H16X16205   4.874   5.008   4.126
  147SAPE  H16Y16206   4.883   4.911   4.264
  147SAPE  C31716207   5.082   4.947   4.184
  147SAPE  H17X16208   5.128   4.969   4.283
  147SAPE  H17Y16209   5.125   5.018   4.111
  147SAPE  C31816210   5.096   4.803   4.126
  147SAPE  H18X16211   5.203   4.786   4.102
  147SAPE  H18Y16212   5.031   4.786   4.037
  147SAPE  H18Z16213   5.058   4.725   4.195
  148SAPE     N16214   1.674   0.352   6.341
  148SAPE   HN116215   1.594   0.401   6.295
  148SAPE   HN216216   1.642   0.254   6.354
  148SAPE   HN316217   1.686   0.399   6.433
  148SAPE   C1216218   1.801   0.348   6.262
  148SAPE  H12A16219   1.853   0.446   6.265
  148SAPE  H12B16220   1.769   0.318   6.160
  148SAPE   C1116221   1.885   0.238   6.340
  148SAPE  H11A16222   1.905   0.261   6.447
  148SAPE  H11B16223   1.981   0.249   6.285
  148SAPE     P16224   1.886   6.893   6.390
  148SAPE   O1316225   1.990   0.026   6.486
  148SAPE   O1416226   1.773   6.820   6.446
  148SAPE   O1216227   1.828   0.110   6.326
  148SAPE   O1116228   1.947   6.806   6.281
  148SAPE    C116229   1.873   6.799   6.156
  148SAPE    HA16230   1.859   6.690   6.139
  148SAPE    HB16231   1.775   6.852   6.154
  148SAPE    C216232   1.951   6.846   6.031
  148SAPE    HS16233   2.049   6.798   6.050
  148SAPE   O2116234   1.955   0.075   6.028
  148SAPE   C2116235   2.055   0.124   5.968
  148SAPE   O2216236   2.153   0.064   5.925
  148SAPE   C2216237   2.051   0.274   5.966
  148SAPE   H2R16238   1.953   0.308   6.004
  148SAPE   H2S16239   2.118   0.312   6.047
  148SAPE    C316240   1.893   6.781   5.906
  148SAPE    HX16241   1.792   6.818   5.880
  148SAPE    HY16242   1.862   6.675   5.919
  148SAPE   O3116243   1.980   6.795   5.794
  148SAPE   C3116244   2.045   6.696   5.748
  148SAPE   O3216245   2.043   6.583   5.791
  148SAPE   C3216246   2.138   6.746   5.642
  148SAPE   H2X16247   2.228   6.778   5.699
  148SAPE   H2Y16248   2.091   6.836   5.597
  148SAPE   C2316249   2.065   0.341   5.820
  148SAPE   H3R16250   2.164   0.389   5.809
  148SAPE   H3S16251   1.998   0.430   5.822
  148SAPE   C2416252   2.028   0.246   5.706
  148SAPE   H4R16253   1.944   0.180   5.738
  148SAPE   H4S16254   2.120   0.186   5.686
  148SAPE   C2516255   1.994   0.337   5.586
  148SAPE   H5R16256   1.889   0.367   5.575
  148SAPE   C2616257   2.064   0.353   5.474
  148SAPE   H6R16258   2.028   0.425   5.398
  148SAPE   C2716259   2.205   0.301   5.441
  148SAPE   H7R16260   2.229   0.223   5.516
  148SAPE   H7S16261   2.273   0.388   5.451
  148SAPE   C2816262   2.230   0.267   5.292
  148SAPE   H8R16263   2.336   0.272   5.261
  148SAPE   C2916264   2.147   0.209   5.205
  148SAPE   H9R16265   2.191   0.178   5.109
  148SAPE  C21016266   1.998   0.188   5.226
  148SAPE  H10R16267   1.956   0.283   5.187
  148SAPE  H10S16268   1.967   0.177   5.332
  148SAPE  C21116269   1.940   0.082   5.127
  148SAPE  H11R16270   1.963   6.884   5.138
  148SAPE  C21216271   1.882   0.106   5.008
  148SAPE  H12R16272   1.843   0.019   4.953
  148SAPE  C21316273   1.841   0.238   4.943
  148SAPE  H13R16274   1.884   0.325   4.996
  148SAPE  H13S16275   1.734   0.265   4.950
  148SAPE  C21416276   1.899   0.259   4.808
  148SAPE  H14R16277   2.004   0.292   4.814
  148SAPE  C21516278   1.834   0.241   4.693
  148SAPE  H15R16279   1.896   0.242   4.603
  148SAPE  C21616280   1.694   0.186   4.686
  148SAPE  H16R16281   1.626   0.274   4.694
  148SAPE  H16S16282   1.656   0.126   4.771
  148SAPE  C21716283   1.674   0.109   4.557
  148SAPE  H17R16284   1.701   0.179   4.475
  148SAPE  H17S16285   1.565   0.090   4.548
  148SAPE  C21816286   1.754   6.887   4.537
  148SAPE  H18R16287   1.756   6.831   4.633
  148SAPE  H18S16288   1.860   0.001   4.511
  148SAPE  C21916289   1.700   6.800   4.430
  148SAPE  H19R16290   1.689   6.865   4.340
  148SAPE  H19S16291   1.593   6.773   4.448
  148SAPE  C22016292   1.796   6.686   4.404
  148SAPE  H20R16293   1.813   6.691   4.295
  148SAPE  H20S16294   1.749   6.590   4.437
  148SAPE  H20T16295   1.892   6.708   4.456
  148SAPE   C3316296   2.173   6.635   5.541
  148SAPE   H3X16297   2.233   6.559   5.596
  148SAPE   H3Y16298   2.248   6.666   5.466
  148SAPE   C3416299   2.055   6.566   5.463
  148SAPE   H4X16300   1.986   6.521   5.538
  148SAPE   H4Y16301   2.089   6.489   5.391
  148SAPE   C3516302   1.971   6.665   5.375
  148SAPE   H5X16303   2.034   6.706   5.293
  148SAPE   H5Y16304   1.937   6.756   5.428
  148SAPE   C3616305   1.859   6.589   5.299
  148SAPE   H6X16306   1.800   6.532   5.375
  148SAPE   H6Y16307   1.896   6.505   5.236
  148SAPE   C3716308   1.762   6.685   5.230
  148SAPE   H7X16309   1.797   6.722   5.131
  148SAPE   H7Y16310   1.731   6.770   5.294
  148SAPE   C3816311   1.626   6.632   5.185
  148SAPE   H8X16312   1.569   6.695   5.114
  148SAPE   H8Y16313   1.561   6.626   5.275
  148SAPE   C3916314   1.637   6.489   5.125
  148SAPE   H9X16315   1.543   6.433   5.112
  148SAPE   H9Y16316   1.698   6.432   5.198
  148SAPE  C31016317   1.710   6.483   4.996
  148SAPE  H10X16318   1.815   6.516   5.015
  148SAPE  H10Y16319   1.673   6.567   4.932
  148SAPE  C31116320   1.710   6.346   4.925
  148SAPE  H11X16321   1.614   6.330   4.871
  148SAPE  H11Y16322   1.731   6.269   5.002
  148SAPE  C31216323   1.834   6.339   4.826
  148SAPE  H12X16324   1.932   6.337   4.877
  148SAPE  H12Y16325   1.839   6.428   4.758
  148SAPE  C31316326   1.818   6.213   4.741
  148SAPE  H13X16327   1.717   6.229   4.697
  148SAPE  H13Y16328   1.813   6.122   4.804
  148SAPE  C31416329   1.928   6.200   4.627
  148SAPE  H14X16330   1.914   6.103   4.576
  148SAPE  H14Y16331   2.029   6.192   4.672
  148SAPE  C31516332   1.925   6.307   4.520
  148SAPE  H15X16333   1.958   6.410   4.548
  148SAPE  H15Y16334   1.820   6.332   4.495
  148SAPE  C31616335   2.005   6.275   4.391
  148SAPE  H16X16336   1.958   6.185   4.348
  148SAPE  H16Y16337   2.107   6.246   4.423
  148SAPE  C31716338   2.010   6.391   4.293
  148SAPE  H17X16339   1.912   6.433   4.261
  148SAPE  H17Y16340   2.067   6.359   4.202
  148SAPE  C31816341   2.094   6.504   4.339
  148SAPE  H18X16342   2.045   6.560   4.421
  148SAPE  H18Y16343   2.104   6.582   4.260
  148SAPE  H18Z16344   2.195   6.474   4.375
  149SAPE     N16345   1.783   2.119   6.090
  149SAPE   HN116346   1.704   2.165   6.040
  149SAPE   HN216347   1.790   2.156   6.187
  149SAPE   HN316348   1.870   2.146   6.040
  149SAPE   C1216349   1.791   1.969   6.096
  149SAPE  H12A16350   1.806   1.930   5.993
  149SAPE  H12B16351   1.698   1.922   6.133
  149SAPE   C1116352   1.906   1.922   6.188
  149SAPE  H11A16353   1.999   1.973   6.153
  149SAPE  H11B16354   1.923   1.813   6.179
  149SAPE     P16355   1.766   1.873   6.409
  149SAPE   O1316356   1.819   1.810   6.530
  149SAPE   O1416357   1.638   1.947   6.429
  149SAPE   O1216358   1.879   1.950   6.328
  149SAPE   O1116359   1.739   1.752   6.316
  149SAPE    C116360   1.604   1.690   6.313
  149SAPE    HA16361   1.601   1.605   6.383
  149SAPE    HB16362   1.524   1.762   6.340
  149SAPE    C216363   1.567   1.620   6.177
  149SAPE    HS16364   1.506   1.528   6.190
  149SAPE   O2116365   1.684   1.595   6.096
  149SAPE   C2116366   1.772   1.515   6.141
  149SAPE   O2216367   1.757   1.445   6.243
  149SAPE   C2216368   1.893   1.520   6.050
  149SAPE   H2R16369   1.843   1.538   5.953
  149SAPE   H2S16370   1.957   1.604   6.083
  149SAPE    C316371   1.464   1.714   6.099
  149SAPE    HX16372   1.510   1.815   6.100
  149SAPE    HY16373   1.376   1.724   6.167
  149SAPE   O3116374   1.416   1.662   5.975
  149SAPE   C3116375   1.501   1.669   5.869
  149SAPE   O3216376   1.604   1.733   5.859
  149SAPE   C3216377   1.419   1.602   5.757
  149SAPE   H2X16378   1.310   1.623   5.763
  149SAPE   H2Y16379   1.410   1.493   5.779
  149SAPE   C2316380   1.960   1.385   6.047
  149SAPE   H3R16381   1.893   1.308   6.005
  149SAPE   H3S16382   1.991   1.370   6.153
  149SAPE   C2416383   2.083   1.388   5.960
  149SAPE   H4R16384   2.160   1.442   6.019
  149SAPE   H4S16385   2.051   1.448   5.872
  149SAPE   C2516386   2.137   1.253   5.948
  149SAPE   H5R16387   2.171   1.196   6.036
  149SAPE   C2616388   2.163   1.192   5.834
  149SAPE   H6R16389   2.198   1.088   5.834
  149SAPE   C2716390   2.137   1.247   5.693
  149SAPE   H7R16391   2.209   1.326   5.668
  149SAPE   H7S16392   2.034   1.286   5.678
  149SAPE   C2816393   2.141   1.137   5.587
  149SAPE   H8R16394   2.108   1.035   5.613
  149SAPE   C2916395   2.164   1.160   5.457
  149SAPE   H9R16396   2.152   1.076   5.388
  149SAPE  C21016397   2.189   1.297   5.396
  149SAPE  H10R16398   2.127   1.377   5.443
  149SAPE  H10S16399   2.143   1.286   5.296
  149SAPE  C21116400   2.332   1.342   5.376
  149SAPE  H11R16401   2.383   1.369   5.470
  149SAPE  C21216402   2.390   1.381   5.262
  149SAPE  H12R16403   2.498   1.402   5.261
  149SAPE  C21316404   2.332   1.356   5.125
  149SAPE  H13R16405   2.247   1.286   5.130
  149SAPE  H13S16406   2.397   1.307   5.049
  149SAPE  C21416407   2.281   1.480   5.056
  149SAPE  H14R16408   2.315   1.577   5.095
  149SAPE  C21516409   2.216   1.473   4.940
  149SAPE  H15R16410   2.190   1.569   4.893
  149SAPE  C21616411   2.187   1.345   4.869
  149SAPE  H16R16412   2.086   1.336   4.823
  149SAPE  H16S16413   2.190   1.253   4.931
  149SAPE  C21716414   2.289   1.337   4.751
  149SAPE  H17R16415   2.267   1.245   4.692
  149SAPE  H17S16416   2.398   1.331   4.773
  149SAPE  C21816417   2.262   1.432   4.629
  149SAPE  H18R16418   2.300   1.532   4.660
  149SAPE  H18S16419   2.154   1.442   4.605
  149SAPE  C21916420   2.335   1.390   4.499
  149SAPE  H19R16421   2.285   1.412   4.403
  149SAPE  H19S16422   2.349   1.280   4.506
  149SAPE  C22016423   2.474   1.443   4.499
  149SAPE  H20R16424   2.520   1.427   4.599
  149SAPE  H20S16425   2.468   1.552   4.482
  149SAPE  H20T16426   2.537   1.394   4.421
  149SAPE   C3316427   1.467   1.613   5.610
  149SAPE   H3X16428   1.553   1.547   5.587
  149SAPE   H3Y16429   1.495   1.718   5.587
  149SAPE   C3416430   1.356   1.564   5.508
  149SAPE   H4X16431   1.260   1.614   5.531
  149SAPE   H4Y16432   1.337   1.457   5.529
  149SAPE   C3516433   1.400   1.590   5.363
  149SAPE   H5X16434   1.478   1.511   5.359
  149SAPE   H5Y16435   1.446   1.689   5.346
  149SAPE   C3616436   1.298   1.560   5.249
  149SAPE   H6X16437   1.202   1.615   5.255
  149SAPE   H6Y16438   1.272   1.453   5.266
  149SAPE   C3716439   1.363   1.576   5.105
  149SAPE   H7X16440   1.458   1.521   5.094
  149SAPE   H7Y16441   1.383   1.685   5.098
  149SAPE   C3816442   1.267   1.541   4.986
  149SAPE   H8X16443   1.169   1.592   4.990
  149SAPE   H8Y16444   1.236   1.438   5.014
  149SAPE   C3916445   1.338   1.548   4.848
  149SAPE   H9X16446   1.279   1.479   4.784
  149SAPE   H9Y16447   1.443   1.514   4.859
  149SAPE  C31016448   1.344   1.691   4.806
  149SAPE  H10X16449   1.412   1.748   4.873
  149SAPE  H10Y16450   1.242   1.733   4.812
  149SAPE  C31116451   1.390   1.701   4.660
  149SAPE  H11X16452   1.315   1.654   4.592
  149SAPE  H11Y16453   1.488   1.653   4.642
  149SAPE  C31216454   1.402   1.842   4.611
  149SAPE  H12X16455   1.439   1.910   4.691
  149SAPE  H12Y16456   1.307   1.892   4.584
  149SAPE  C31316457   1.504   1.858   4.493
  149SAPE  H13X16458   1.458   1.807   4.405
  149SAPE  H13Y16459   1.607   1.818   4.509
  149SAPE  C31416460   1.523   2.010   4.458
  149SAPE  H14X16461   1.586   2.052   4.539
  149SAPE  H14Y16462   1.425   2.061   4.468
  149SAPE  C31516463   1.614   2.024   4.328
  149SAPE  H15X16464   1.559   2.002   4.234
  149SAPE  H15Y16465   1.685   1.940   4.337
  149SAPE  C31616466   1.682   2.160   4.313
  149SAPE  H16X16467   1.734   2.167   4.215
  149SAPE  H16Y16468   1.762   2.177   4.387
  149SAPE  C31716469   1.600   2.289   4.320
  149SAPE  H17X16470   1.571   2.310   4.425
  149SAPE  H17Y16471   1.507   2.274   4.261
  149SAPE  C31816472   1.675   2.409   4.268
  149SAPE  H18X16473   1.613   2.500   4.286
  149SAPE  H18Y16474   1.695   2.395   4.160
  149SAPE  H18Z16475   1.773   2.428   4.318
  150SAPE     N16476   4.289   3.158   6.504
  150SAPE   HN116477   4.326   3.140   6.599
  150SAPE   HN216478   4.288   3.259   6.483
  150SAPE   HN316479   4.193   3.119   6.507
  150SAPE   C1216480   4.373   3.093   6.391
  150SAPE  H12A16481   4.359   3.166   6.308
  150SAPE  H12B16482   4.338   2.989   6.376
  150SAPE   C1116483   4.528   3.093   6.424
  150SAPE  H11A16484   4.564   3.197   6.433
  150SAPE  H11B16485   4.576   3.033   6.344
  150SAPE     P16486   4.532   2.876   6.585
  150SAPE   O1316487   4.635   2.858   6.687
  150SAPE   O1416488   4.394   2.847   6.616
  150SAPE   O1216489   4.548   3.025   6.553
  150SAPE   O1116490   4.574   2.811   6.443
  150SAPE    C116491   4.554   2.670   6.418
  150SAPE    HA16492   4.631   2.605   6.464
  150SAPE    HB16493   4.460   2.632   6.463
  150SAPE    C216494   4.544   2.642   6.271
  150SAPE    HS16495   4.488   2.548   6.251
  150SAPE   O2116496   4.679   2.638   6.214
  150SAPE   C2116497   4.735   2.521   6.216
  150SAPE   O2216498   4.682   2.415   6.237
  150SAPE   C2216499   4.877   2.547   6.168
  150SAPE   H2R16500   4.865   2.602   6.072
  150SAPE   H2S16501   4.926   2.603   6.250
  150SAPE    C316502   4.468   2.757   6.195
  150SAPE    HX16503   4.541   2.842   6.195
  150SAPE    HY16504   4.376   2.793   6.245
  150SAPE   O3116505   4.440   2.724   6.058
  150SAPE   C3116506   4.354   2.630   6.037
  150SAPE   O3216507   4.292   2.573   6.123
  150SAPE   C3216508   4.356   2.601   5.886
  150SAPE   H2X16509   4.268   2.534   5.873
  150SAPE   H2Y16510   4.454   2.553   5.863
  150SAPE   C2316511   4.958   2.421   6.136
  150SAPE   H3R16512   4.937   2.337   6.207
  150SAPE   H3S16513   5.064   2.449   6.150
  150SAPE   C2416514   4.942   2.375   5.996
  150SAPE   H4R16515   5.006   2.285   5.982
  150SAPE   H4S16516   4.970   2.463   5.934
  150SAPE   C2516517   4.799   2.327   5.970
  150SAPE   H5R16518   4.743   2.284   6.054
  150SAPE   C2616519   4.741   2.349   5.852
  150SAPE   H6R16520   4.634   2.325   5.856
  150SAPE   C2716521   4.805   2.427   5.727
  150SAPE   H7R16522   4.742   2.399   5.640
  150SAPE   H7S16523   4.904   2.381   5.710
  150SAPE   C2816524   4.803   2.580   5.733
  150SAPE   H8R16525   4.753   2.610   5.826
  150SAPE   C2916526   4.849   2.672   5.643
  150SAPE   H9R16527   4.826   2.778   5.658
  150SAPE  C21016528   4.930   2.643   5.525
  150SAPE  H10R16529   4.987   2.553   5.556
  150SAPE  H10S16530   5.009   2.721   5.520
  150SAPE  C21116531   4.861   2.616   5.394
  150SAPE  H11R16532   4.777   2.544   5.400
  150SAPE  C21216533   4.890   2.677   5.273
  150SAPE  H12R16534   4.822   2.654   5.190
  150SAPE  C21316535   4.991   2.781   5.250
  150SAPE  H13R16536   4.985   2.855   5.331
  150SAPE  H13S16537   4.951   2.830   5.158
  150SAPE  C21416538   5.133   2.740   5.237
  150SAPE  H14R16539   5.177   2.657   5.295
  150SAPE  C21516540   5.206   2.802   5.152
  150SAPE  H15R16541   5.315   2.790   5.163
  150SAPE  C21616542   5.167   2.913   5.059
  150SAPE  H16R16543   5.116   2.992   5.118
  150SAPE  H16S16544   5.089   2.898   4.981
  150SAPE  C21716545   5.292   2.976   4.986
  150SAPE  H17R16546   5.366   3.016   5.059
  150SAPE  H17S16547   5.251   3.052   4.917
  150SAPE  C21816548   5.353   2.874   4.892
  150SAPE  H18R16549   5.283   2.837   4.814
  150SAPE  H18S16550   5.378   2.777   4.939
  150SAPE  C21916551   5.484   2.930   4.820
  150SAPE  H19R16552   5.543   2.845   4.780
  150SAPE  H19S16553   5.548   2.994   4.885
  150SAPE  C22016554   5.449   3.023   4.702
  150SAPE  H20R16555   5.546   3.059   4.662
  150SAPE  H20S16556   5.392   3.113   4.734
  150SAPE  H20T16557   5.393   2.965   4.626
  150SAPE   C3316558   4.348   2.722   5.786
  150SAPE   H3X16559   4.443   2.779   5.784
  150SAPE   H3Y16560   4.268   2.790   5.824
  150SAPE   C3416561   4.299   2.683   5.645
  150SAPE   H4X16562   4.296   2.778   5.587
  150SAPE   H4Y16563   4.195   2.647   5.655
  150SAPE   C3516564   4.382   2.578   5.569
  150SAPE   H5X16565   4.391   2.490   5.637
  150SAPE   H5Y16566   4.479   2.626   5.545
  150SAPE   C3616567   4.312   2.528   5.441
  150SAPE   H6X16568   4.261   2.608   5.383
  150SAPE   H6Y16569   4.246   2.447   5.478
  150SAPE   C3716570   4.401   2.468   5.327
  150SAPE   H7X16571   4.339   2.406   5.259
  150SAPE   H7Y16572   4.472   2.402   5.382
  150SAPE   C3816573   4.466   2.569   5.237
  150SAPE   H8X16574   4.550   2.525   5.178
  150SAPE   H8Y16575   4.516   2.638   5.308
  150SAPE   C3916576   4.371   2.634   5.134
  150SAPE   H9X16577   4.284   2.677   5.187
  150SAPE   H9Y16578   4.326   2.554   5.072
  150SAPE  C31016579   4.434   2.742   5.043
  150SAPE  H10X16580   4.472   2.824   5.108
  150SAPE  H10Y16581   4.359   2.777   4.969
  150SAPE  C31116582   4.556   2.698   4.961
  150SAPE  H11X16583   4.546   2.600   4.908
  150SAPE  H11Y16584   4.640   2.701   5.034
  150SAPE  C31216585   4.583   2.788   4.838
  150SAPE  H12X16586   4.675   2.741   4.798
  150SAPE  H12Y16587   4.616   2.883   4.886
  150SAPE  C31316588   4.480   2.798   4.725
  150SAPE  H13X16589   4.387   2.835   4.774
  150SAPE  H13Y16590   4.449   2.697   4.691
  150SAPE  C31416591   4.524   2.881   4.607
  150SAPE  H14X16592   4.446   2.859   4.531
  150SAPE  H14Y16593   4.623   2.850   4.569
  150SAPE  C31516594   4.500   3.038   4.631
  150SAPE  H15X16595   4.587   3.072   4.691
  150SAPE  H15Y16596   4.401   3.053   4.679
  150SAPE  C31616597   4.503   3.118   4.501
  150SAPE  H16X16598   4.427   3.080   4.430
  150SAPE  H16Y16599   4.605   3.117   4.457
  150SAPE  C31716600   4.489   3.266   4.527
  150SAPE  H17X16601   4.390   3.286   4.572
  150SAPE  H17Y16602   4.494   3.324   4.432
  150SAPE  C31816603   4.610   3.324   4.617
  150SAPE  H18X16604   4.710   3.295   4.577
  150SAPE  H18Y16605   4.592   3.286   4.720
  150SAPE  H18Z16606   4.611   3.435   4.614
  151SAPE     N16607   5.322   0.838   6.387
  151SAPE   HN116608   5.234   0.851   6.334
  151SAPE   HN216609   5.331   0.910   6.461
  151SAPE   HN316610   5.400   0.860   6.321
  151SAPE   C1216611   5.343   0.702   6.446
  151SAPE  H12A16612   5.248   0.671   6.494
  151SAPE  H12B16613   5.435   0.709   6.508
  151SAPE   C1116614   5.369   0.599   6.336
  151SAPE  H11A16615   5.394   0.495   6.365
  151SAPE  H11B16616   5.459   0.632   6.279
  151SAPE     P16617   5.126   0.511   6.270
  151SAPE   O1316618   5.171   0.393   6.353
  151SAPE   O1416619   5.020   0.607   6.323
  151SAPE   O1216620   5.255   0.603   6.253
  151SAPE   O1116621   5.088   0.459   6.127
  151SAPE    C116622   5.188   0.410   6.033
  151SAPE    HA16623   5.247   0.498   5.999
  151SAPE    HB16624   5.261   0.341   6.081
  151SAPE    C216625   5.133   0.322   5.919
  151SAPE    HS16626   5.214   0.309   5.845
  151SAPE   O2116627   5.020   0.389   5.855
  151SAPE   C2116628   5.054   0.483   5.780
  151SAPE   O2216629   5.165   0.517   5.736
  151SAPE   C2216630   4.941   0.567   5.744
  151SAPE   H2R16631   4.859   0.543   5.815
  151SAPE   H2S16632   4.969   0.674   5.749
  151SAPE    C316633   5.106   0.179   5.971
  151SAPE    HX16634   4.996   0.168   5.986
  151SAPE    HY16635   5.129   0.154   6.077
  151SAPE   O3116636   5.166   0.087   5.881
  151SAPE   C3116637   5.288   0.052   5.907
  151SAPE   O3216638   5.359   0.090   6.001
  151SAPE   C3216639   5.344   6.874   5.787
  151SAPE   H2X16640   5.349   6.770   5.826
  151SAPE   H2Y16641   5.448   0.001   5.772
  151SAPE   C2316642   4.883   0.536   5.599
  151SAPE   H3R16643   4.959   0.532   5.518
  151SAPE   H3S16644   4.814   0.620   5.578
  151SAPE   C2416645   4.814   0.395   5.596
  151SAPE   H4R16646   4.734   0.387   5.673
  151SAPE   H4S16647   4.892   0.320   5.619
  151SAPE   C2516648   4.759   0.373   5.454
  151SAPE   H5R16649   4.840   0.346   5.385
  151SAPE   C2616650   4.633   0.378   5.417
  151SAPE   H6R16651   4.618   0.373   5.308
  151SAPE   C2716652   4.510   0.406   5.496
  151SAPE   H7R16653   4.443   0.470   5.434
  151SAPE   H7S16654   4.529   0.454   5.594
  151SAPE   C2816655   4.421   0.281   5.520
  151SAPE   H8R16656   4.424   0.254   5.627
  151SAPE   C2916657   4.353   0.208   5.426
  151SAPE   H9R16658   4.277   0.142   5.468
  151SAPE  C21016659   4.342   0.247   5.275
  151SAPE  H10R16660   4.421   0.189   5.223
  151SAPE  H10S16661   4.362   0.356   5.269
  151SAPE  C21116662   4.207   0.211   5.221
  151SAPE  H11R16663   4.141   0.155   5.290
  151SAPE  C21216664   4.162   0.234   5.095
  151SAPE  H12R16665   4.063   0.198   5.062
  151SAPE  C21316666   4.242   0.305   4.986
  151SAPE  H13R16667   4.300   0.231   4.927
  151SAPE  H13S16668   4.321   0.376   5.021
  151SAPE  C21416669   4.159   0.400   4.912
  151SAPE  H14R16670   4.144   0.493   4.969
  151SAPE  C21516671   4.100   0.378   4.790
  151SAPE  H15R16672   4.038   0.457   4.744
  151SAPE  C21616673   4.115   0.252   4.708
  151SAPE  H16R16674   4.009   0.220   4.714
  151SAPE  H16S16675   4.179   0.177   4.760
  151SAPE  C21716676   4.169   0.279   4.562
  151SAPE  H17R16677   4.277   0.303   4.575
  151SAPE  H17S16678   4.133   0.367   4.504
  151SAPE  C21816679   4.139   0.164   4.468
  151SAPE  H18R16680   4.193   0.177   4.371
  151SAPE  H18S16681   4.031   0.162   4.442
  151SAPE  C21916682   4.182   0.021   4.514
  151SAPE  H19R16683   4.116   6.906   4.600
  151SAPE  H19S16684   4.288   0.020   4.546
  151SAPE  C22016685   4.167   6.813   4.417
  151SAPE  H20R16686   4.070   6.808   4.363
  151SAPE  H20S16687   4.178   6.716   4.472
  151SAPE  H20T16688   4.246   6.820   4.340
  151SAPE   C3316689   5.273   6.878   5.652
  151SAPE   H3X16690   5.273   0.078   5.629
  151SAPE   H3Y16691   5.167   6.848   5.667
  151SAPE   C3416692   5.341   6.803   5.537
  151SAPE   H4X16693   5.365   6.697   5.561
  151SAPE   H4Y16694   5.446   6.839   5.524
  151SAPE   C3516695   5.267   6.813   5.401
  151SAPE   H5X16696   5.257   0.010   5.372
  151SAPE   H5Y16697   5.175   6.751   5.398
  151SAPE   C3616698   5.361   6.738   5.304
  151SAPE   H6X16699   5.385   6.632   5.331
  151SAPE   H6Y16700   5.449   6.803   5.285
  151SAPE   C3716701   5.305   6.719   5.162
  151SAPE   H7X16702   5.210   6.663   5.172
  151SAPE   H7Y16703   5.378   6.649   5.116
  151SAPE   C3816704   5.272   6.839   5.071
  151SAPE   H8X16705   5.366   6.898   5.062
  151SAPE   H8Y16706   5.197   6.902   5.123
  151SAPE   C3916707   5.224   6.797   4.928
  151SAPE   H9X16708   5.153   6.711   4.934
  151SAPE   H9Y16709   5.309   6.748   4.877
  151SAPE  C31016710   5.164   0.002   4.849
  151SAPE  H10X16711   5.232   0.080   4.808
  151SAPE  H10Y16712   5.090   0.054   4.913
  151SAPE  C31116713   5.085   6.864   4.728
  151SAPE  H11X16714   5.062   0.049   4.674
  151SAPE  H11Y16715   4.996   6.808   4.763
  151SAPE  C31216716   5.154   6.776   4.631
  151SAPE  H12X16717   5.156   6.674   4.674
  151SAPE  H12Y16718   5.264   6.788   4.619
  151SAPE  C31316719   5.090   6.777   4.496
  151SAPE  H13X16720   5.093   6.884   4.465
  151SAPE  H13Y16721   4.987   6.742   4.473
  151SAPE  C31416722   5.186   6.691   4.397
  151SAPE  H14X16723   5.198   6.585   4.428
  151SAPE  H14Y16724   5.284   6.743   4.398
  151SAPE  C31516725   5.140   6.692   4.243
  151SAPE  H15X16726   5.031   6.671   4.243
  151SAPE  H15Y16727   5.195   6.609   4.193
  151SAPE  C31616728   5.174   6.822   4.164
  151SAPE  H16X16729   5.277   6.855   4.191
  151SAPE  H16Y16730   5.101   6.901   4.191
  151SAPE  C31716731   5.169   6.800   4.012
  151SAPE  H17X16732   5.222   6.711   3.972
  151SAPE  H17Y16733   5.198   6.895   3.961
  151SAPE  C31816734   5.018   6.787   3.973
  151SAPE  H18X16735   4.970   6.710   4.037
  151SAPE  H18Y16736   5.003   6.755   3.868
  151SAPE  H18Z16737   4.965   6.883   3.987
  152SAPE     N16738   0.328   2.658   6.668
  152SAPE   HN116739   0.271   2.640   6.583
  152SAPE   HN216740   0.279   2.697   6.751
  152SAPE   HN316741   0.392   2.733   6.633
  152SAPE   C1216742   0.394   2.530   6.709
  152SAPE  H12A16743   0.326   2.454   6.753
  152SAPE  H12B16744   0.473   2.551   6.784
  152SAPE   C1116745   0.462   2.467   6.588
  152SAPE  H11A16746   0.530   2.384   6.615
  152SAPE  H11B16747   0.529   2.545   6.544
  152SAPE     P16748   0.299   2.281   6.480
  152SAPE   O1316749   0.385   2.182   6.541
  152SAPE   O1416750   0.160   2.300   6.527
  152SAPE   O1216751   0.371   2.424   6.482
  152SAPE   O1116752   0.284   2.245   6.328
  152SAPE    C116753   0.328   2.327   6.228
  152SAPE    HA16754   0.284   2.427   6.246
  152SAPE    HB16755   0.438   2.316   6.222
  152SAPE    C216756   0.285   2.272   6.091
  152SAPE    HS16757   0.176   2.294   6.083
  152SAPE   O2116758   0.294   2.130   6.074
  152SAPE   C2116759   0.199   2.055   6.128
  152SAPE   O2216760   0.093   2.084   6.181
  152SAPE   C2216761   0.233   1.908   6.091
  152SAPE   H2R16762   0.309   1.881   6.168
  152SAPE   H2S16763   0.146   1.843   6.118
  152SAPE    C316764   0.364   2.344   5.976
  152SAPE    HX16765   0.472   2.322   5.997
  152SAPE    HY16766   0.347   2.452   5.993
  152SAPE   O3116767   0.347   2.303   5.841
  152SAPE   C3116768   0.224   2.329   5.793
  152SAPE   O3216769   0.144   2.402   5.855
  152SAPE   C3216770   0.201   2.265   5.655
  152SAPE   H2X16771   0.116   2.194   5.656
  152SAPE   H2Y16772   0.293   2.206   5.635
  152SAPE   C2316773   0.282   1.871   5.952
  152SAPE   H3R16774   0.315   1.766   5.941
  152SAPE   H3S16775   0.365   1.942   5.933
  152SAPE   C2416776   0.185   1.911   5.834
  152SAPE   H4R16777   0.252   1.969   5.767
  152SAPE   H4S16778   0.103   1.980   5.861
  152SAPE   C2516779   0.139   1.782   5.761
  152SAPE   H5R16780   0.108   1.698   5.826
  152SAPE   C2616781   0.141   1.754   5.630
  152SAPE   H6R16782   0.091   1.665   5.590
  152SAPE   C2716783   0.195   1.832   5.513
  152SAPE   H7R16784   0.261   1.915   5.546
  152SAPE   H7S16785   0.111   1.885   5.464
  152SAPE   C2816786   0.261   1.754   5.409
  152SAPE   H8R16787   0.320   1.665   5.436
  152SAPE   C2916788   0.267   1.796   5.280
  152SAPE   H9R16789   0.330   1.730   5.218
  152SAPE  C21016790   0.208   1.921   5.218
  152SAPE  H10R16791   0.161   1.986   5.295
  152SAPE  H10S16792   0.133   1.893   5.140
  152SAPE  C21116793   0.319   2.007   5.149
  152SAPE  H11R16794   0.342   2.102   5.199
  152SAPE  C21216795   0.384   1.984   5.035
  152SAPE  H12R16796   0.453   2.063   5.001
  152SAPE  C21316797   0.368   1.859   4.954
  152SAPE  H13R16798   0.315   1.775   5.004
  152SAPE  H13S16799   0.472   1.821   4.940
  152SAPE  C21416800   0.300   1.890   4.827
  152SAPE  H14R16801   0.195   1.920   4.841
  152SAPE  C21516802   0.353   1.875   4.704
  152SAPE  H15R16803   0.290   1.901   4.618
  152SAPE  C21616804   0.489   1.827   4.670
  152SAPE  H16R16805   0.552   1.802   4.758
  152SAPE  H16S16806   0.545   1.917   4.637
  152SAPE  C21716807   0.511   1.711   4.569
  152SAPE  H17R16808   0.442   1.738   4.486
  152SAPE  H17S16809   0.484   1.609   4.605
  152SAPE  C21816810   0.654   1.693   4.520
  152SAPE  H18R16811   0.722   1.665   4.603
  152SAPE  H18S16812   0.689   1.783   4.465
  152SAPE  C21916813   0.661   1.583   4.413
  152SAPE  H19R16814   0.580   1.512   4.441
  152SAPE  H19S16815   0.758   1.531   4.425
  152SAPE  C22016816   0.641   1.625   4.268
  152SAPE  H20R16817   0.594   1.542   4.210
  152SAPE  H20S16818   0.737   1.663   4.224
  152SAPE  H20T16819   0.562   1.702   4.263
  152SAPE   C3316820   0.188   2.361   5.535
  152SAPE   H3X16821   0.285   2.411   5.518
  152SAPE   H3Y16822   0.116   2.444   5.553
  152SAPE   C3416823   0.125   2.285   5.417
  152SAPE   H4X16824   0.025   2.252   5.452
  152SAPE   H4Y16825   0.199   2.203   5.399
  152SAPE   C3516826   0.111   2.370   5.290
  152SAPE   H5X16827   0.207   2.369   5.234
  152SAPE   H5Y16828   0.094   2.473   5.329
  152SAPE   C3616829   6.905   2.317   5.206
  152SAPE   H6X16830   6.814   2.350   5.260
  152SAPE   H6Y16831   6.896   2.206   5.198
  152SAPE   C3716832   6.895   2.370   5.060
  152SAPE   H7X16833   6.872   2.479   5.061
  152SAPE   H7Y16834   6.808   2.324   5.010
  152SAPE   C3816835   0.107   2.350   4.966
  152SAPE   H8X16836   0.202   2.361   5.023
  152SAPE   H8Y16837   0.091   2.438   4.901
  152SAPE   C3916838   0.105   2.227   4.878
  152SAPE   H9X16839   0.081   2.142   4.946
  152SAPE   H9Y16840   0.203   2.202   4.833
  152SAPE  C31016841   0.015   2.233   4.750
  152SAPE  H10X16842   0.049   2.317   4.686
  152SAPE  H10Y16843   6.820   2.242   4.785
  152SAPE  C31116844   0.053   2.130   4.634
  152SAPE  H11X16845   0.009   2.030   4.647
  152SAPE  H11Y16846   0.164   2.129   4.632
  152SAPE  C31216847   0.008   2.176   4.494
  152SAPE  H12X16848   0.028   2.096   4.420
  152SAPE  H12Y16849   0.046   2.275   4.460
  152SAPE  C31316850   6.763   2.183   4.486
  152SAPE  H13X16851   6.732   2.276   4.538
  152SAPE  H13Y16852   6.716   2.102   4.545
  152SAPE  C31416853   6.700   2.205   4.348
  152SAPE  H14X16854   6.771   2.260   4.281
  152SAPE  H14Y16855   6.604   2.260   4.352
  152SAPE  C31516856   6.658   2.063   4.297
  152SAPE  H15X16857   6.572   2.033   4.361
  152SAPE  H15Y16858   6.741   1.993   4.316
  152SAPE  C31616859   6.621   2.055   4.148
  152SAPE  H16X16860   6.701   2.108   4.091
  152SAPE  H16Y16861   6.523   2.102   4.125
  152SAPE  C31716862   6.590   1.913   4.090
  152SAPE  H17X16863   6.678   1.850   4.116
  152SAPE  H17Y16864   6.565   1.918   3.982
  152SAPE  C31816865   6.465   1.846   4.153
  152SAPE  H18X16866   6.415   1.782   4.077
  152SAPE  H18Y16867   6.401   1.926   4.196
  152SAPE  H18Z16868   6.483   1.771   4.233
  153SAPE     N16869   6.506   2.251   6.653
  153SAPE   HN116870   6.577   2.177   6.673
  153SAPE   HN216871   6.533   2.277   6.556
  153SAPE   HN316872   6.532   2.327   6.719
  153SAPE   C1216873   6.367   2.195   6.647
  153SAPE  H12A16874   6.308   2.241   6.565
  153SAPE  H12B16875   6.321   2.195   6.748
  153SAPE   C1116876   6.368   2.044   6.609
  153SAPE  H11A16877   6.442   1.982   6.664
  153SAPE  H11B16878   6.385   2.041   6.499
  153SAPE     P16879   6.109   2.000   6.548
  153SAPE   O1316880   6.006   1.904   6.600
  153SAPE   O1416881   6.066   2.142   6.543
  153SAPE   O1216882   6.237   1.990   6.636
  153SAPE   O1116883   6.158   1.946   6.404
  153SAPE    C116884   6.063   1.976   6.300
  153SAPE    HA16885   5.968   1.921   6.316
  153SAPE    HB16886   6.019   2.077   6.307
  153SAPE    C216887   6.101   1.936   6.156
  153SAPE    HS16888   6.201   1.979   6.134
  153SAPE   O2116889   6.000   1.977   6.057
  153SAPE   C2116890   6.016   2.099   6.026
  153SAPE   O2216891   6.099   2.173   6.076
  153SAPE   C2216892   5.923   2.140   5.915
  153SAPE   H2R16893   5.885   2.046   5.870
  153SAPE   H2S16894   5.836   2.200   5.948
  153SAPE    C316895   6.116   1.784   6.153
  153SAPE    HX16896   6.017   1.737   6.173
  153SAPE    HY16897   6.187   1.750   6.231
  153SAPE   O3116898   6.165   1.756   6.025
  153SAPE   C3116899   6.219   1.640   5.998
  153SAPE   O3216900   6.273   1.563   6.080
  153SAPE   C3216901   6.229   1.625   5.852
  153SAPE   H2X16902   6.308   1.698   5.823
  153SAPE   H2Y16903   6.131   1.644   5.802
  153SAPE   C2316904   5.987   2.225   5.802
  153SAPE   H3R16905   6.075   2.178   5.752
  153SAPE   H3S16906   6.026   2.319   5.848
  153SAPE   C2416907   5.876   2.274   5.703
  153SAPE   H4R16908   5.918   2.345   5.629
  153SAPE   H4S16909   5.800   2.333   5.759
  153SAPE   C2516910   5.813   2.159   5.629
  153SAPE   H5R16911   5.729   2.110   5.681
  153SAPE   C2616912   5.845   2.116   5.504
  153SAPE   H6R16913   5.799   2.024   5.466
  153SAPE   C2716914   5.939   2.179   5.411
  153SAPE   H7R16915   6.018   2.235   5.466
  153SAPE   H7S16916   5.880   2.248   5.347
  153SAPE   C2816917   6.018   2.079   5.323
  153SAPE   H8R16918   6.112   2.043   5.367
  153SAPE   C2916919   5.987   2.030   5.205
  153SAPE   H9R16920   6.061   1.971   5.149
  153SAPE  C21016921   5.855   2.060   5.133
  153SAPE  H10R16922   5.775   2.089   5.205
  153SAPE  H10S16923   5.821   1.962   5.093
  153SAPE  C21116924   5.870   2.168   5.037
  153SAPE  H11R16925   5.885   2.263   5.089
  153SAPE  C21216926   5.885   2.155   4.905
  153SAPE  H12R16927   5.892   2.251   4.851
  153SAPE  C21316928   5.890   2.025   4.827
  153SAPE  H13R16929   5.816   2.024   4.745
  153SAPE  H13S16930   5.852   1.944   4.892
  153SAPE  C21416931   6.029   1.992   4.777
  153SAPE  H14R16932   6.096   1.956   4.857
  153SAPE  C21516933   6.077   1.985   4.652
  153SAPE  H15R16934   6.179   1.943   4.645
  153SAPE  C21616935   6.009   2.017   4.521
  153SAPE  H16R16936   5.910   1.965   4.524
  153SAPE  H16S16937   6.072   1.982   4.437
  153SAPE  C21716938   5.979   2.173   4.501
  153SAPE  H17R16939   6.069   2.238   4.503
  153SAPE  H17S16940   5.919   2.211   4.587
  153SAPE  C21816941   5.911   2.200   4.363
  153SAPE  H18R16942   5.817   2.144   4.349
  153SAPE  H18S16943   5.992   2.175   4.292
  153SAPE  C21916944   5.875   2.350   4.347
  153SAPE  H19R16945   5.954   2.417   4.386
  153SAPE  H19S16946   5.787   2.368   4.412
  153SAPE  C22016947   5.840   2.388   4.205
  153SAPE  H20R16948   5.789   2.312   4.141
  153SAPE  H20S16949   5.940   2.418   4.167
  153SAPE  H20T16950   5.772   2.476   4.206
  153SAPE   C3316951   6.275   1.490   5.810
  153SAPE   H3X16952   6.371   1.464   5.857
  153SAPE   H3Y16953   6.304   1.489   5.703
  153SAPE   C3416954   6.177   1.377   5.838
  153SAPE   H4X16955   6.080   1.418   5.802
  153SAPE   H4Y16956   6.146   1.367   5.945
  153SAPE   C3516957   6.201   1.240   5.772
  153SAPE   H5X16958   6.123   1.169   5.806
  153SAPE   H5Y16959   6.298   1.199   5.809
  153SAPE   C3616960   6.208   1.237   5.617
  153SAPE   H6X16961   6.296   1.292   5.578
  153SAPE   H6Y16962   6.119   1.286   5.572
  153SAPE   C3716963   6.207   1.094   5.556
  153SAPE   H7X16964   6.124   1.043   5.609
  153SAPE   H7Y16965   6.295   1.031   5.585
  153SAPE   C3816966   6.192   1.096   5.404
  153SAPE   H8X16967   6.123   1.178   5.373
  153SAPE   H8Y16968   6.163   0.999   5.360
  153SAPE   C3916969   6.325   1.130   5.334
  153SAPE   H9X16970   6.394   1.042   5.336
  153SAPE   H9Y16971   6.370   1.216   5.388
  153SAPE  C31016972   6.307   1.185   5.189
  153SAPE  H10X16973   6.401   1.240   5.163
  153SAPE  H10Y16974   6.228   1.263   5.197
  153SAPE  C31116975   6.276   1.089   5.074
  153SAPE  H11X16976   6.203   1.017   5.117
  153SAPE  H11Y16977   6.366   1.039   5.031
  153SAPE  C31216978   6.215   1.152   4.947
  153SAPE  H12X16979   6.296   1.218   4.908
  153SAPE  H12Y16980   6.122   1.207   4.974
  153SAPE  C31316981   6.183   1.038   4.849
  153SAPE  H13X16982   6.108   0.974   4.901
  153SAPE  H13Y16983   6.272   0.973   4.832
  153SAPE  C31416984   6.121   1.086   4.718
  153SAPE  H14X16985   6.026   1.145   4.716
  153SAPE  H14Y16986   6.101   0.995   4.658
  153SAPE  C31516987   6.211   1.174   4.622
  153SAPE  H15X16988   6.321   1.157   4.625
  153SAPE  H15Y16989   6.197   1.282   4.648
  153SAPE  C31616990   6.155   1.169   4.482
  153SAPE  H16X16991   6.046   1.190   4.488
  153SAPE  H16Y16992   6.168   1.068   4.438
  153SAPE  C31716993   6.214   1.281   4.388
  153SAPE  H17X16994   6.322   1.292   4.413
  153SAPE  H17Y16995   6.163   1.377   4.406
  153SAPE  C31816996   6.204   1.242   4.240
  153SAPE  H18X16997   6.101   1.217   4.207
  153SAPE  H18Y16998   6.271   1.155   4.223
  153SAPE  H18Z16999   6.234   1.324   4.172
  154SAPE     N17000   4.124   0.181   6.398
  154SAPE   HN117001   4.089   0.084   6.384
  154SAPE   HN217002   4.207   0.161   6.458
  154SAPE   HN317003   4.066   0.230   6.469
  154SAPE   C1217004   4.151   0.262   6.273
  154SAPE  H12A17005   4.185   0.197   6.190
  154SAPE  H12B17006   4.237   0.326   6.302
  154SAPE   C1117007   4.031   0.343   6.224
  154SAPE  H11A17008   3.942   0.277   6.211
  154SAPE  H11B17009   4.050   0.387   6.124
  154SAPE     P17010   4.069   0.584   6.296
  154SAPE   O1317011   4.003   0.667   6.399
  154SAPE   O1417012   4.214   0.566   6.289
  154SAPE   O1217013   4.005   0.445   6.318
  154SAPE   O1117014   4.017   0.624   6.156
  154SAPE    C117015   3.956   0.744   6.118
  154SAPE    HA17016   4.009   0.818   6.181
  154SAPE    HB17017   3.968   0.763   6.009
  154SAPE    C217018   3.809   0.751   6.147
  154SAPE    HS17019   3.803   0.728   6.255
  154SAPE   O2117020   3.741   0.657   6.057
  154SAPE   C2117021   3.638   0.585   6.108
  154SAPE   O2217022   3.577   0.610   6.205
  154SAPE   C2217023   3.605   0.452   6.034
  154SAPE   H2R17024   3.626   0.372   6.107
  154SAPE   H2S17025   3.500   0.460   6.000
  154SAPE    C317026   3.756   0.897   6.134
  154SAPE    HX17027   3.827   0.946   6.204
  154SAPE    HY17028   3.648   0.896   6.161
  154SAPE   O3117029   3.783   0.948   6.002
  154SAPE   C3117030   3.693   0.927   5.909
  154SAPE   O3217031   3.584   0.873   5.910
  154SAPE   C3217032   3.752   0.959   5.773
  154SAPE   H2X17033   3.803   0.865   5.743
  154SAPE   H2Y17034   3.824   1.043   5.776
  154SAPE   C2317035   3.701   0.425   5.913
  154SAPE   H3R17036   3.804   0.444   5.951
  154SAPE   H3S17037   3.682   0.506   5.840
  154SAPE   C2417038   3.682   0.281   5.862
  154SAPE   H4R17039   3.576   0.269   5.831
  154SAPE   H4S17040   3.685   0.211   5.949
  154SAPE   C2517041   3.788   0.253   5.754
  154SAPE   H5R17042   3.865   0.331   5.750
  154SAPE   C2617043   3.813   0.145   5.679
  154SAPE   H6R17044   3.895   0.146   5.605
  154SAPE   C2717045   3.735   0.014   5.672
  154SAPE   H7R17046   3.683   6.907   5.575
  154SAPE   H7S17047   3.655   0.034   5.745
  154SAPE   C2817048   3.819   6.808   5.721
  154SAPE   H8R17049   3.819   6.802   5.831
  154SAPE   C2917050   3.891   6.726   5.651
  154SAPE   H9R17051   3.951   6.655   5.709
  154SAPE  C21017052   3.899   6.730   5.502
  154SAPE  H10R17053   3.992   6.674   5.475
  154SAPE  H10S17054   3.918   6.835   5.471
  154SAPE  C21117055   3.786   6.672   5.421
  154SAPE  H11R17056   3.719   6.609   5.481
  154SAPE  C21217057   3.753   6.709   5.297
  154SAPE  H12R17058   3.660   6.670   5.254
  154SAPE  C21317059   3.842   6.794   5.208
  154SAPE  H13R17060   3.893   6.717   5.146
  154SAPE  H13S17061   3.930   6.838   5.259
  154SAPE  C21417062   3.773   6.902   5.130
  154SAPE  H14R17063   3.685   0.036   5.181
  154SAPE  C21517064   3.801   0.044   5.008
  154SAPE  H15R17065   3.736   0.116   4.957
  154SAPE  C21617066   3.908   0.002   4.907
  154SAPE  H16R17067   3.989   6.848   4.948
  154SAPE  H16S17068   3.956   0.093   4.863
  154SAPE  C21717069   3.853   6.815   4.801
  154SAPE  H17R17070   3.838   6.730   4.871
  154SAPE  H17S17071   3.937   6.785   4.734
  154SAPE  C21817072   3.728   6.847   4.724
  154SAPE  H18R17073   3.644   6.833   4.796
  154SAPE  H18S17074   3.706   6.775   4.642
  154SAPE  C21917075   3.742   0.069   4.648
  154SAPE  H19R17076   3.831   0.070   4.582
  154SAPE  H19S17077   3.760   0.159   4.711
  154SAPE  C22017078   3.617   0.095   4.568
  154SAPE  H20R17079   3.618   0.205   4.549
  154SAPE  H20S17080   3.526   0.061   4.622
  154SAPE  H20T17081   3.623   0.031   4.477
  154SAPE   C3317082   3.655   1.012   5.661
  154SAPE   H3X17083   3.619   1.112   5.693
  154SAPE   H3Y17084   3.576   0.933   5.658
  154SAPE   C3417085   3.718   1.015   5.516
  154SAPE   H4X17086   3.757   0.913   5.496
  154SAPE   H4Y17087   3.804   1.085   5.518
  154SAPE   C3517088   3.627   1.054   5.399
  154SAPE   H5X17089   3.581   1.154   5.418
  154SAPE   H5Y17090   3.541   0.983   5.394
  154SAPE   C3617091   3.707   1.058   5.266
  154SAPE   H6X17092   3.765   0.964   5.257
  154SAPE   H6Y17093   3.780   1.142   5.262
  154SAPE   C3717094   3.614   1.048   5.143
  154SAPE   H7X17095   3.552   1.141   5.144
  154SAPE   H7Y17096   3.539   0.967   5.146
  154SAPE   C3817097   3.693   1.027   5.014
  154SAPE   H8X17098   3.763   0.941   5.025
  154SAPE   H8Y17099   3.741   1.123   4.985
  154SAPE   C3917100   3.591   1.019   4.899
  154SAPE   H9X17101   3.512   1.093   4.923
  154SAPE   H9Y17102   3.540   0.922   4.916
  154SAPE  C31017103   3.659   1.018   4.766
  154SAPE  H10X17104   3.744   0.947   4.764
  154SAPE  H10Y17105   3.703   1.120   4.760
  154SAPE  C31117106   3.570   0.980   4.646
  154SAPE  H11X17107   3.540   0.874   4.661
  154SAPE  H11Y17108   3.618   1.000   4.548
  154SAPE  C31217109   3.439   1.065   4.636
  154SAPE  H12X17110   3.465   1.166   4.599
  154SAPE  H12Y17111   3.386   1.080   4.733
  154SAPE  C31317112   3.337   1.009   4.538
  154SAPE  H13X17113   3.382   0.990   4.438
  154SAPE  H13Y17114   3.257   1.086   4.533
  154SAPE  C31417115   3.268   0.877   4.584
  154SAPE  H14X17116   3.201   0.898   4.669
  154SAPE  H14Y17117   3.336   0.795   4.617
  154SAPE  C31517118   3.180   0.828   4.467
  154SAPE  H15X17119   3.227   0.834   4.366
  154SAPE  H15Y17120   3.097   0.902   4.461
  154SAPE  C31617121   3.133   0.685   4.460
  154SAPE  H16X17122   3.047   0.673   4.529
  154SAPE  H16Y17123   3.213   0.634   4.517
  154SAPE  C31717124   3.110   0.609   4.328
  154SAPE  H17X17125   3.196   0.578   4.264
  154SAPE  H17Y17126   3.062   0.694   4.274
  154SAPE  C31817127   3.019   0.484   4.344
  154SAPE  H18X17128   2.979   0.469   4.241
  154SAPE  H18Y17129   2.934   0.489   4.415
  154SAPE  H18Z17130   3.081   0.394   4.364
  155SAPE     N17131   5.214   5.791   6.607
  155SAPE   HN117132   5.149   5.740   6.544
  155SAPE   HN217133   5.228   5.736   6.695
  155SAPE   HN317134   5.164   5.881   6.622
  155SAPE   C1217135   5.350   5.809   6.547
  155SAPE  H12A17136   5.410   5.716   6.548
  155SAPE  H12B17137   5.392   5.886   6.616
  155SAPE   C1117138   5.323   5.854   6.404
  155SAPE  H11A17139   5.257   5.776   6.361
  155SAPE  H11B17140   5.415   5.857   6.341
  155SAPE     P17141   5.326   6.122   6.383
  155SAPE   O1317142   5.220   6.229   6.368
  155SAPE   O1417143   5.424   6.134   6.494
  155SAPE   O1217144   5.258   5.984   6.408
  155SAPE   O1117145   5.403   6.108   6.250
  155SAPE    C117146   5.336   6.073   6.130
  155SAPE    HA17147   5.287   5.975   6.148
  155SAPE    HB17148   5.258   6.143   6.094
  155SAPE    C217149   5.441   6.074   6.016
  155SAPE    HS17150   5.513   5.997   6.050
  155SAPE   O2117151   5.504   6.208   6.013
  155SAPE   C2117152   5.631   6.204   5.973
  155SAPE   O2217153   5.701   6.107   5.976
  155SAPE   C2217154   5.690   6.341   5.945
  155SAPE   H2R17155   5.707   6.386   6.045
  155SAPE   H2S17156   5.790   6.315   5.904
  155SAPE    C317157   5.376   6.047   5.878
  155SAPE    HX17158   5.299   6.127   5.871
  155SAPE    HY17159   5.321   5.950   5.880
  155SAPE   O3117160   5.467   6.055   5.770
  155SAPE   C3117161   5.527   5.941   5.743
  155SAPE   O3217162   5.524   5.839   5.805
  155SAPE   C3217163   5.611   5.964   5.613
  155SAPE   H2X17164   5.702   5.904   5.634
  155SAPE   H2Y17165   5.644   6.070   5.604
  155SAPE   C2317166   5.606   6.418   5.838
  155SAPE   H3R17167   5.511   6.458   5.879
  155SAPE   H3S17168   5.585   6.347   5.755
  155SAPE   C2417169   5.687   6.530   5.775
  155SAPE   H4R17170   5.779   6.485   5.732
  155SAPE   H4S17171   5.720   6.607   5.848
  155SAPE   C2517172   5.608   6.593   5.656
  155SAPE   H5R17173   5.522   6.649   5.697
  155SAPE   C2617174   5.622   6.575   5.522
  155SAPE   H6R17175   5.552   6.628   5.456
  155SAPE   C2717176   5.730   6.504   5.443
  155SAPE   H7R17177   5.682   6.417   5.394
  155SAPE   H7S17178   5.801   6.466   5.519
  155SAPE   C2817179   5.815   6.588   5.354
  155SAPE   H8R17180   5.910   6.619   5.401
  155SAPE   C2917181   5.785   6.624   5.222
  155SAPE   H9R17182   5.861   6.681   5.168
  155SAPE  C21017183   5.655   6.599   5.142
  155SAPE  H10R17184   5.608   6.695   5.110
  155SAPE  H10S17185   5.581   6.545   5.205
  155SAPE  C21117186   5.692   6.523   5.019
  155SAPE  H11R17187   5.727   6.420   5.034
  155SAPE  C21217188   5.682   6.571   4.894
  155SAPE  H12R17189   5.717   6.508   4.811
  155SAPE  C21317190   5.635   6.711   4.848
  155SAPE  H13R17191   5.543   6.747   4.897
  155SAPE  H13S17192   5.611   6.702   4.740
  155SAPE  C21417193   5.741   6.819   4.843
  155SAPE  H14R17194   5.844   6.781   4.834
  155SAPE  C21517195   5.730   0.043   4.823
  155SAPE  H15R17196   5.820   0.106   4.813
  155SAPE  C21617197   5.606   0.122   4.827
  155SAPE  H16R17198   5.527   0.069   4.883
  155SAPE  H16S17199   5.564   0.140   4.726
  155SAPE  C21717200   5.602   0.248   4.927
  155SAPE  H17R17201   5.641   0.208   5.023
  155SAPE  H17S17202   5.496   0.282   4.935
  155SAPE  C21817203   5.688   0.362   4.886
  155SAPE  H18R17204   5.662   0.388   4.781
  155SAPE  H18S17205   5.795   0.332   4.887
  155SAPE  C21917206   5.673   0.477   4.983
  155SAPE  H19R17207   5.678   0.433   5.085
  155SAPE  H19S17208   5.574   0.527   4.973
  155SAPE  C22017209   5.768   0.588   4.957
  155SAPE  H20R17210   5.871   0.555   4.982
  155SAPE  H20S17211   5.746   0.682   5.013
  155SAPE  H20T17212   5.755   0.620   4.851
  155SAPE   C3317213   5.540   5.921   5.481
  155SAPE   H3X17214   5.587   5.970   5.393
  155SAPE   H3Y17215   5.444   5.975   5.490
  155SAPE   C3417216   5.528   5.769   5.464
  155SAPE   H4X17217   5.468   5.727   5.548
  155SAPE   H4Y17218   5.625   5.715   5.471
  155SAPE   C3517219   5.466   5.729   5.336
  155SAPE   H5X17220   5.363   5.773   5.332
  155SAPE   H5Y17221   5.447   5.620   5.346
  155SAPE   C3617222   5.541   5.772   5.208
  155SAPE   H6X17223   5.648   5.771   5.237
  155SAPE   H6Y17224   5.525   5.876   5.175
  155SAPE   C3717225   5.512   5.666   5.096
  155SAPE   H7X17226   5.404   5.649   5.080
  155SAPE   H7Y17227   5.545   5.569   5.138
  155SAPE   C3817228   5.586   5.695   4.963
  155SAPE   H8X17229   5.579   5.599   4.907
  155SAPE   H8Y17230   5.687   5.734   4.988
  155SAPE   C3917231   5.527   5.809   4.874
  155SAPE   H9X17232   5.526   5.901   4.935
  155SAPE   H9Y17233   5.420   5.783   4.854
  155SAPE  C31017234   5.606   5.829   4.743
  155SAPE  H10X17235   5.652   5.731   4.720
  155SAPE  H10Y17236   5.696   5.881   4.782
  155SAPE  C31117237   5.532   5.908   4.643
  155SAPE  H11X17238   5.510   6.012   4.675
  155SAPE  H11Y17239   5.432   5.863   4.626
  155SAPE  C31217240   5.600   5.921   4.508
  155SAPE  H12X17241   5.612   5.821   4.460
  155SAPE  H12Y17242   5.698   5.971   4.516
  155SAPE  C31317243   5.513   5.995   4.404
  155SAPE  H13X17244   5.512   6.103   4.428
  155SAPE  H13Y17245   5.409   5.958   4.411
  155SAPE  C31417246   5.559   6.006   4.260
  155SAPE  H14X17247   5.649   6.070   4.259
  155SAPE  H14Y17248   5.477   6.047   4.198
  155SAPE  C31517249   5.578   5.871   4.183
  155SAPE  H15X17250   5.488   5.811   4.208
  155SAPE  H15Y17251   5.648   5.799   4.230
  155SAPE  C31617252   5.611   5.879   4.040
  155SAPE  H16X17253   5.699   5.947   4.035
  155SAPE  H16Y17254   5.523   5.922   3.988
  155SAPE  C31717255   5.658   5.736   3.983
  155SAPE  H17X17256   5.572   5.667   3.996
  155SAPE  H17Y17257   5.746   5.706   4.043
  155SAPE  C31817258   5.689   5.753   3.835
  155SAPE  H18X17259   5.760   5.837   3.816
  155SAPE  H18Y17260   5.589   5.772   3.792
  155SAPE  H18Z17261   5.717   5.661   3.779
  156SAPE     N17262   6.641   0.736   6.659
  156SAPE   HN117263   6.596   0.644   6.643
  156SAPE   HN217264   6.566   0.803   6.686
  156SAPE   HN317265   6.677   0.758   6.564
  156SAPE   C1217266   6.742   0.718   6.766
  156SAPE  H12A17267   6.700   0.649   6.842
  156SAPE  H12B17268   6.764   0.820   6.802
  156SAPE   C1117269   6.875   0.661   6.708
  156SAPE  H11A17270   0.012   0.621   6.801
  156SAPE  H11B17271   0.021   0.741   6.655
  156SAPE     P17272   0.086   0.470   6.583
  156SAPE   O1317273   0.176   0.461   6.700
  156SAPE   O1417274   0.052   0.338   6.528
  156SAPE   O1217275   6.860   0.546   6.625
  156SAPE   O1117276   0.150   0.569   6.474
  156SAPE    C117277   0.061   0.633   6.377
  156SAPE    HA17278   6.868   0.590   6.372
  156SAPE    HB17279   0.047   0.739   6.407
  156SAPE    C217280   0.113   0.613   6.231
  156SAPE    HS17281   0.222   0.631   6.219
  156SAPE   O2117282   0.022   0.677   6.137
  156SAPE   C2117283   0.051   0.797   6.113
  156SAPE   O2217284   0.162   0.851   6.124
  156SAPE   C2217285   6.841   0.850   6.030
  156SAPE   H2R17286   6.757   0.820   6.096
  156SAPE   H2S17287   6.853   0.960   6.022
  156SAPE    C317288   0.097   0.462   6.194
  156SAPE    HX17289   6.907   0.419   6.219
  156SAPE    HY17290   0.172   0.414   6.261
  156SAPE   O3117291   0.137   0.446   6.057
  156SAPE   C3117292   0.043   0.416   5.964
  156SAPE   O3217293   6.839   0.373   5.991
  156SAPE   C3217294   0.101   0.428   5.825
  156SAPE   H2X17295   0.193   0.366   5.824
  156SAPE   H2Y17296   0.139   0.532   5.812
  156SAPE   C2317297   6.818   0.791   5.888
  156SAPE   H3R17298   6.709   0.806   5.880
  156SAPE   H3S17299   6.841   0.682   5.886
  156SAPE   C2417300   6.883   0.859   5.772
  156SAPE   H4R17301   6.861   0.968   5.771
  156SAPE   H4S17302   6.840   0.829   5.674
  156SAPE   C2517303   0.125   0.849   5.778
  156SAPE   H5R17304   0.176   0.872   5.873
  156SAPE   C2617305   0.198   0.821   5.673
  156SAPE   H6R17306   0.306   0.807   5.685
  156SAPE   C2717307   0.152   0.804   5.527
  156SAPE   H7R17308   0.156   0.902   5.475
  156SAPE   H7S17309   0.055   0.751   5.516
  156SAPE   C2817310   0.258   0.727   5.460
  156SAPE   H8R17311   0.345   0.686   5.514
  156SAPE   C2917312   0.263   0.712   5.331
  156SAPE   H9R17313   0.335   0.639   5.291
  156SAPE  C21017314   0.170   0.764   5.232
  156SAPE  H10R17315   0.066   0.764   5.269
  156SAPE  H10S17316   0.157   0.702   5.141
  156SAPE  C21117317   0.212   0.902   5.192
  156SAPE  H11R17318   0.189   0.975   5.271
  156SAPE  C21217319   0.260   0.941   5.070
  156SAPE  H12R17320   0.291   1.043   5.044
  156SAPE  C21317321   0.281   0.851   4.944
  156SAPE  H13R17322   0.344   0.901   4.868
  156SAPE  H13S17323   0.188   0.843   4.884
  156SAPE  C21417324   0.337   0.711   4.964
  156SAPE  H14R17325   0.371   0.684   5.064
  156SAPE  C21517326   0.361   0.618   4.864
  156SAPE  H15R17327   0.400   0.519   4.892
  156SAPE  C21617328   0.331   0.627   4.721
  156SAPE  H16R17329   0.413   0.654   4.653
  156SAPE  H16S17330   0.254   0.704   4.699
  156SAPE  C21717331   0.273   0.489   4.674
  156SAPE  H17R17332   0.191   0.466   4.746
  156SAPE  H17S17333   0.356   0.416   4.682
  156SAPE  C21817334   0.217   0.489   4.536
  156SAPE  H18R17335   0.170   0.588   4.521
  156SAPE  H18S17336   0.133   0.417   4.535
  156SAPE  C21917337   0.321   0.459   4.422
  156SAPE  H19R17338   0.414   0.521   4.427
  156SAPE  H19S17339   0.270   0.473   4.325
  156SAPE  C22017340   0.361   0.312   4.419
  156SAPE  H20R17341   0.454   0.299   4.479
  156SAPE  H20S17342   0.376   0.284   4.313
  156SAPE  H20T17343   0.278   0.244   4.449
  156SAPE   C3317344   0.013   0.389   5.706
  156SAPE   H3X17345   6.840   0.462   5.688
  156SAPE   H3Y17346   6.879   0.291   5.733
  156SAPE   C3417347   0.094   0.357   5.574
  156SAPE   H4X17348   0.156   0.266   5.588
  156SAPE   H4Y17349   0.160   0.445   5.560
  156SAPE   C3517350   0.011   0.345   5.442
  156SAPE   H5X17351   6.849   0.429   5.429
  156SAPE   H5Y17352   6.868   0.247   5.448
  156SAPE   C3617353   0.097   0.342   5.317
  156SAPE   H6X17354   0.160   0.251   5.309
  156SAPE   H6Y17355   0.159   0.434   5.316
  156SAPE   C3717356   0.005   0.347   5.192
  156SAPE   H7X17357   6.857   0.442   5.197
  156SAPE   H7Y17358   6.842   0.262   5.195
  156SAPE   C3817359   0.084   0.347   5.067
  156SAPE   H8X17360   0.163   0.424   5.061
  156SAPE   H8Y17361   0.011   0.376   4.988
  156SAPE   C3917362   0.147   0.206   5.024
  156SAPE   H9X17363   0.099   0.116   5.070
  156SAPE   H9Y17364   0.257   0.206   5.042
  156SAPE  C31017365   0.126   0.191   4.874
  156SAPE  H10X17366   0.210   0.243   4.821
  156SAPE  H10Y17367   0.031   0.233   4.835
  156SAPE  C31117368   0.123   0.049   4.817
  156SAPE  H11X17369   0.017   0.017   4.827
  156SAPE  H11Y17370   0.171   6.878   4.877
  156SAPE  C31217371   0.144   0.025   4.665
  156SAPE  H12X17372   0.107   0.106   4.599
  156SAPE  H12Y17373   0.080   6.844   4.650
  156SAPE  C31317374   0.288   6.885   4.628
  156SAPE  H13X17375   0.324   6.817   4.708
  156SAPE  H13Y17376   0.350   0.067   4.614
  156SAPE  C31417377   0.294   6.799   4.501
  156SAPE  H14X17378   0.239   6.703   4.513
  156SAPE  H14Y17379   0.399   6.773   4.475
  156SAPE  C31517380   0.231   6.856   4.372
  156SAPE  H15X17381   0.259   0.053   4.354
  156SAPE  H15Y17382   0.121   6.861   4.380
  156SAPE  C31617383   0.255   6.784   4.238
  156SAPE  H16X17384   0.225   6.850   4.153
  156SAPE  H16Y17385   0.180   6.703   4.233
  156SAPE  C31717386   0.402   6.744   4.212
  156SAPE  H17X17387   0.437   6.656   4.271
  156SAPE  H17Y17388   0.458   6.827   4.261
  156SAPE  C31817389   0.427   6.721   4.064
  156SAPE  H18X17390   0.536   6.720   4.042
  156SAPE  H18Y17391   0.375   6.792   3.996
  156SAPE  H18Z17392   0.396   6.619   4.034
  157SAPE     N17393   1.123   6.419   6.592
  157SAPE   HN117394   1.102   6.324   6.630
  157SAPE   HN217395   1.217   6.452   6.620
  157SAPE   HN317396   1.046   6.477   6.630
  157SAPE   C1217397   1.112   6.404   6.442
  157SAPE  H12A17398   1.118   6.295   6.421
  157SAPE  H12B17399   1.191   6.467   6.396
  157SAPE   C1117400   0.981   6.461   6.391
  157SAPE  H11A17401   0.979   6.452   6.280
  157SAPE  H11B17402   0.973   6.570   6.407
  157SAPE     P17403   0.777   6.460   6.563
  157SAPE   O1317404   0.640   6.405   6.573
  157SAPE   O1417405   0.864   6.456   6.682
  157SAPE   O1217406   0.862   6.392   6.448
  157SAPE   O1117407   0.765   6.605   6.522
  157SAPE    C117408   0.712   6.659   6.399
  157SAPE    HA17409   0.748   6.605   6.309
  157SAPE    HB17410   0.603   6.643   6.388
  157SAPE    C217411   0.736   6.815   6.399
  157SAPE    HS17412   0.677   6.850   6.486
  157SAPE   O2117413   0.683   6.877   6.277
  157SAPE   C2117414   0.625   0.082   6.294
  157SAPE   O2217415   0.633   0.151   6.396
  157SAPE   C2217416   0.555   0.125   6.170
  157SAPE   H2R17417   0.550   0.236   6.175
  157SAPE   H2S17418   0.610   0.088   6.081
  157SAPE    C317419   0.887   6.863   6.414
  157SAPE    HX17420   0.943   6.827   6.503
  157SAPE    HY17421   0.878   0.064   6.419
  157SAPE   O3117422   0.960   6.822   6.297
  157SAPE   C3117423   0.975   6.906   6.201
  157SAPE   O3217424   0.917   0.105   6.198
  157SAPE   C3217425   1.069   6.842   6.099
  157SAPE   H2X17426   1.155   6.805   6.159
  157SAPE   H2Y17427   1.112   0.019   6.044
  157SAPE   C2317428   0.411   0.069   6.169
  157SAPE   H3R17429   0.365   0.097   6.266
  157SAPE   H3S17430   0.421   6.868   6.157
  157SAPE   C2417431   0.318   0.129   6.060
  157SAPE   H4R17432   0.363   0.130   5.959
  157SAPE   H4S17433   0.315   0.234   6.095
  157SAPE   C2517434   0.182   0.064   6.069
  157SAPE   H5R17435   0.153   0.058   6.175
  157SAPE   C2617436   0.106   0.019   5.965
  157SAPE   H6R17437   0.005   6.890   5.986
  157SAPE   C2717438   0.140   0.019   5.822
  157SAPE   H7R17439   0.250   0.031   5.810
  157SAPE   H7S17440   0.095   0.109   5.775
  157SAPE   C2817441   0.080   6.814   5.742
  157SAPE   H8R17442   0.006   6.754   5.797
  157SAPE   C2917443   0.097   6.798   5.608
  157SAPE   H9R17444   0.060   6.706   5.562
  157SAPE  C21017445   0.190   6.873   5.517
  157SAPE  H10R17446   0.225   0.053   5.574
  157SAPE  H10S17447   0.139   6.902   5.423
  157SAPE  C21117448   0.317   6.794   5.487
  157SAPE  H11R17449   0.352   6.735   5.573
  157SAPE  C21217450   0.365   6.763   5.362
  157SAPE  H12R17451   0.457   6.704   5.358
  157SAPE  C21317452   0.306   6.816   5.240
  157SAPE  H13R17453   0.292   0.017   5.253
  157SAPE  H13S17454   0.199   6.785   5.234
  157SAPE  C21417455   0.358   6.810   5.105
  157SAPE  H14R17456   0.388   6.905   5.058
  157SAPE  C21517457   0.355   6.701   5.024
  157SAPE  H15R17458   0.384   6.709   4.918
  157SAPE  C21617459   0.314   6.565   5.075
  157SAPE  H16R17460   0.319   6.549   5.185
  157SAPE  H16S17461   0.379   6.485   5.035
  157SAPE  C21717462   0.175   6.529   5.026
  157SAPE  H17R17463   0.106   6.615   5.045
  157SAPE  H17S17464   0.137   6.438   5.077
  157SAPE  C21817465   0.179   6.499   4.873
  157SAPE  H18R17466   0.216   6.396   4.853
  157SAPE  H18S17467   0.234   6.587   4.832
  157SAPE  C21917468   0.035   6.503   4.812
  157SAPE  H19R17469   6.908   6.602   4.849
  157SAPE  H19S17470   6.881   6.418   4.844
  157SAPE  C22017471   0.054   6.500   4.658
  157SAPE  H20R17472   6.866   6.510   4.605
  157SAPE  H20S17473   0.095   6.401   4.627
  157SAPE  H20T17474   0.134   6.573   4.634
  157SAPE   C3317475   1.015   6.735   6.005
  157SAPE   H3X17476   0.980   6.641   6.052
  157SAPE   H3Y17477   1.089   6.702   5.929
  157SAPE   C3417478   0.897   6.787   5.917
  157SAPE   H4X17479   0.903   6.723   5.827
  157SAPE   H4Y17480   0.918   6.894   5.898
  157SAPE   C3517481   0.759   6.774   5.983
  157SAPE   H5X17482   0.743   6.857   6.054
  157SAPE   H5Y17483   0.760   6.684   6.049
  157SAPE   C3617484   0.642   6.762   5.883
  157SAPE   H6X17485   0.560   6.713   5.940
  157SAPE   H6Y17486   0.674   6.684   5.810
  157SAPE   C3717487   0.601   6.888   5.795
  157SAPE   H7X17488   0.586   0.073   5.852
  157SAPE   H7Y17489   0.504   6.860   5.749
  157SAPE   C3817490   0.696   0.017   5.676
  157SAPE   H8X17491   0.795   0.027   5.724
  157SAPE   H8Y17492   0.668   0.098   5.605
  157SAPE   C3917493   0.707   6.806   5.572
  157SAPE   H9X17494   0.613   6.747   5.577
  157SAPE   H9Y17495   0.794   6.745   5.605
  157SAPE  C31017496   0.733   6.856   5.424
  157SAPE  H10X17497   0.820   0.014   5.409
  157SAPE  H10Y17498   0.652   0.019   5.399
  157SAPE  C31117499   0.745   6.756   5.317
  157SAPE  H11X17500   0.683   6.665   5.332
  157SAPE  H11Y17501   0.849   6.719   5.327
  157SAPE  C31217502   0.722   6.810   5.177
  157SAPE  H12X17503   0.795   6.892   5.163
  157SAPE  H12Y17504   0.617   6.847   5.169
  157SAPE  C31317505   0.748   6.695   5.081
  157SAPE  H13X17506   0.669   6.617   5.086
  157SAPE  H13Y17507   0.845   6.646   5.101
  157SAPE  C31417508   0.755   6.734   4.935
  157SAPE  H14X17509   0.840   6.806   4.925
  157SAPE  H14Y17510   0.665   6.791   4.906
  157SAPE  C31517511   0.770   6.615   4.840
  157SAPE  H15X17512   0.672   6.562   4.840
  157SAPE  H15Y17513   0.849   6.546   4.877
  157SAPE  C31617514   0.796   6.651   4.693
  157SAPE  H16X17515   0.898   6.695   4.689
  157SAPE  H16Y17516   0.723   6.728   4.660
  157SAPE  C31717517   0.788   6.540   4.597
  157SAPE  H17X17518   0.682   6.509   4.587
  157SAPE  H17Y17519   0.850   6.453   4.629
  157SAPE  C31817520   0.818   6.587   4.451
  157SAPE  H18X17521   0.756   6.676   4.429
  157SAPE  H18Y17522   0.792   6.507   4.379
  157SAPE  H18Z17523   0.927   6.602   4.438
  158SAPE     N17524   3.333   4.920   6.209
  158SAPE   HN117525   3.260   4.850   6.232
  158SAPE   HN217526   3.411   4.868   6.254
  158SAPE   HN317527   3.301   5.000   6.268
  158SAPE   C1217528   3.360   4.953   6.068
  158SAPE  H12A17529   3.328   4.864   6.010
  158SAPE  H12B17530   3.470   4.970   6.061
  158SAPE   C1117531   3.293   5.080   6.023
  158SAPE  H11A17532   3.183   5.062   6.016
  158SAPE  H11B17533   3.328   5.097   5.919
  158SAPE     P17534   3.419   5.304   6.073
  158SAPE   O1317535   3.398   5.417   6.163
  158SAPE   O1417536   3.552   5.244   6.066
  158SAPE   O1217537   3.319   5.185   6.119
  158SAPE   O1117538   3.381   5.347   5.924
  158SAPE    C117539   3.265   5.420   5.886
  158SAPE    HA17540   3.244   5.400   5.778
  158SAPE    HB17541   3.171   5.383   5.931
  158SAPE    C217542   3.285   5.574   5.894
  158SAPE    HS17543   3.334   5.601   5.990
  158SAPE   O2117544   3.145   5.624   5.900
  158SAPE   C2117545   3.131   5.751   5.938
  158SAPE   O2217546   3.221   5.827   5.969
  158SAPE   C2217547   2.987   5.790   5.935
  158SAPE   H2R17548   2.928   5.698   5.920
  158SAPE   H2S17549   2.963   5.837   6.033
  158SAPE    C317550   3.368   5.642   5.785
  158SAPE    HX17551   3.473   5.609   5.798
  158SAPE    HY17552   3.373   5.752   5.795
  158SAPE   O3117553   3.331   5.581   5.663
  158SAPE   C3117554   3.235   5.648   5.599
  158SAPE   O3217555   3.190   5.756   5.636
  158SAPE   C3217556   3.195   5.580   5.475
  158SAPE   H2X17557   3.087   5.556   5.484
  158SAPE   H2Y17558   3.241   5.479   5.463
  158SAPE   C2317559   2.951   5.895   5.817
  158SAPE   H3R17560   2.970   5.838   5.724
  158SAPE   H3S17561   3.017   5.984   5.818
  158SAPE   C2417562   2.800   5.924   5.809
  158SAPE   H4R17563   2.750   5.826   5.799
  158SAPE   H4S17564   2.778   5.965   5.708
  158SAPE   C2517565   2.757   6.015   5.923
  158SAPE   H5R17566   2.813   6.005   6.017
  158SAPE   C2617567   2.645   6.082   5.925
  158SAPE   H6R17568   2.616   6.134   6.017
  158SAPE   C2717569   2.547   6.095   5.809
  158SAPE   H7R17570   2.494   5.998   5.799
  158SAPE   H7S17571   2.601   6.099   5.711
  158SAPE   C2817572   2.444   6.205   5.816
  158SAPE   H8R17573   2.388   6.201   5.911
  158SAPE   C2917574   2.426   6.300   5.728
  158SAPE   H9R17575   2.353   6.380   5.746
  158SAPE  C21017576   2.517   6.330   5.610
  158SAPE  H10R17577   2.626   6.321   5.632
  158SAPE  H10S17578   2.506   6.436   5.579
  158SAPE  C21117579   2.501   6.242   5.485
  158SAPE  H11R17580   2.556   6.147   5.484
  158SAPE  C21217581   2.447   6.274   5.367
  158SAPE  H12R17582   2.443   6.197   5.288
  158SAPE  C21317583   2.373   6.401   5.331
  158SAPE  H13R17584   2.322   6.445   5.418
  158SAPE  H13S17585   2.291   6.385   5.258
  158SAPE  C21417586   2.462   6.517   5.273
  158SAPE  H14R17587   2.567   6.526   5.306
  158SAPE  C21517588   2.419   6.630   5.213
  158SAPE  H15R17589   2.495   6.704   5.181
  158SAPE  C21617590   2.281   6.653   5.172
  158SAPE  H16R17591   2.245   6.756   5.195
  158SAPE  H16S17592   2.208   6.594   5.232
  158SAPE  C21717593   2.264   6.642   5.022
  158SAPE  H17R17594   2.268   6.534   4.997
  158SAPE  H17S17595   2.339   6.694   4.960
  158SAPE  C21817596   2.127   6.693   4.972
  158SAPE  H18R17597   2.120   6.804   4.980
  158SAPE  H18S17598   2.043   6.659   5.037
  158SAPE  C21917599   2.100   6.644   4.836
  158SAPE  H19R17600   2.070   6.538   4.850
  158SAPE  H19S17601   2.189   6.647   4.769
  158SAPE  C22017602   2.004   6.742   4.773
  158SAPE  H20R17603   1.912   6.750   4.834
  158SAPE  H20S17604   1.984   6.706   4.669
  158SAPE  H20T17605   2.054   6.839   4.755
  158SAPE   C3317606   3.220   5.672   5.348
  158SAPE   H3X17607   3.321   5.717   5.358
  158SAPE   H3Y17608   3.142   5.751   5.341
  158SAPE   C3417609   3.210   5.593   5.215
  158SAPE   H4X17610   3.111   5.542   5.211
  158SAPE   H4Y17611   3.283   5.510   5.221
  158SAPE   C3517612   3.235   5.675   5.092
  158SAPE   H5X17613   3.273   5.608   5.011
  158SAPE   H5Y17614   3.309   5.753   5.121
  158SAPE   C3617615   3.109   5.752   5.040
  158SAPE   H6X17616   3.127   5.836   4.969
  158SAPE   H6Y17617   3.057   5.795   5.128
  158SAPE   C3717618   2.999   5.652   4.990
  158SAPE   H7X17619   2.955   5.596   5.075
  158SAPE   H7Y17620   3.042   5.582   4.916
  158SAPE   C3817621   2.879   5.721   4.924
  158SAPE   H8X17622   2.909   5.758   4.824
  158SAPE   H8Y17623   2.848   5.809   4.985
  158SAPE   C3917624   2.758   5.628   4.911
  158SAPE   H9X17625   2.669   5.690   4.888
  158SAPE   H9Y17626   2.747   5.575   5.008
  158SAPE  C31017627   2.771   5.523   4.801
  158SAPE  H10X17628   2.867   5.468   4.810
  158SAPE  H10Y17629   2.789   5.579   4.707
  158SAPE  C31117630   2.653   5.434   4.780
  158SAPE  H11X17631   2.561   5.495   4.794
  158SAPE  H11Y17632   2.640   5.368   4.869
  158SAPE  C31217633   2.643   5.354   4.647
  158SAPE  H12X17634   2.735   5.306   4.607
  158SAPE  H12Y17635   2.609   5.435   4.578
  158SAPE  C31317636   2.526   5.254   4.647
  158SAPE  H13X17637   2.426   5.297   4.668
  158SAPE  H13Y17638   2.548   5.169   4.716
  158SAPE  C31417639   2.510   5.195   4.511
  158SAPE  H14X17640   2.594   5.127   4.488
  158SAPE  H14Y17641   2.503   5.278   4.436
  158SAPE  C31517642   2.386   5.105   4.486
  158SAPE  H15X17643   2.305   5.180   4.493
  158SAPE  H15Y17644   2.385   5.028   4.566
  158SAPE  C31617645   2.376   5.025   4.357
  158SAPE  H16X17646   2.394   5.099   4.275
  158SAPE  H16Y17647   2.273   4.987   4.348
  158SAPE  C31717648   2.465   4.898   4.338
  158SAPE  H17X17649   2.466   4.835   4.429
  158SAPE  H17Y17650   2.571   4.929   4.323
  158SAPE  C31817651   2.419   4.819   4.210
  158SAPE  H18X17652   2.329   4.760   4.238
  158SAPE  H18Y17653   2.501   4.746   4.193
  158SAPE  H18Z17654   2.400   4.889   4.126
  159SAPE     N17655   5.422   3.018   2.372
  159SAPE   HN117656   5.346   3.011   2.443
  159SAPE   HN217657   5.495   2.948   2.395
  159SAPE   HN317658   5.471   3.104   2.403
  159SAPE   C1217659   5.384   3.033   2.227
  159SAPE  H12A17660   5.289   2.981   2.204
  159SAPE  H12B17661   5.463   2.988   2.164
  159SAPE   C1117662   5.364   3.184   2.223
  159SAPE  H11A17663   5.288   3.213   2.299
  159SAPE  H11B17664   5.323   3.219   2.126
  159SAPE     P17665   5.599   3.284   2.145
  159SAPE   O1317666   5.653   3.154   2.085
  159SAPE   O1417667   5.549   3.384   2.049
  159SAPE   O1217668   5.489   3.257   2.254
  159SAPE   O1117669   5.715   3.352   2.227
  159SAPE    C117670   5.761   3.276   2.342
  159SAPE    HA17671   5.699   3.185   2.356
  159SAPE    HB17672   5.861   3.236   2.315
  159SAPE    C217673   5.764   3.370   2.469
  159SAPE    HS17674   5.794   3.301   2.550
  159SAPE   O2117675   5.636   3.426   2.509
  159SAPE   C2117676   5.538   3.340   2.535
  159SAPE   O2217677   5.548   3.217   2.544
  159SAPE   C2217678   5.414   3.433   2.548
  159SAPE   H2R17679   5.443   3.531   2.590
  159SAPE   H2S17680   5.384   3.453   2.443
  159SAPE    C317681   5.882   3.473   2.451
  159SAPE    HX17682   5.862   3.527   2.357
  159SAPE    HY17683   5.975   3.415   2.434
  159SAPE   O3117684   5.903   3.578   2.547
  159SAPE   C3117685   5.997   3.547   2.642
  159SAPE   O3217686   6.053   3.440   2.651
  159SAPE   C3217687   6.010   3.667   2.727
  159SAPE   H2X17688   5.913   3.666   2.781
  159SAPE   H2Y17689   6.005   3.761   2.667
  159SAPE   C2317690   5.287   3.363   2.621
  159SAPE   H3R17691   5.275   3.258   2.587
  159SAPE   H3S17692   5.198   3.421   2.589
  159SAPE   C2417693   5.301   3.360   2.774
  159SAPE   H4R17694   5.308   3.466   2.805
  159SAPE   H4S17695   5.392   3.299   2.794
  159SAPE   C2517696   5.198   3.296   2.856
  159SAPE   H5R17697   5.093   3.329   2.850
  159SAPE   C2617698   5.202   3.212   2.965
  159SAPE   H6R17699   5.108   3.198   3.021
  159SAPE   C2717700   5.325   3.153   3.027
  159SAPE   H7R17701   5.378   3.223   3.095
  159SAPE   H7S17702   5.388   3.127   2.940
  159SAPE   C2817703   5.308   3.031   3.107
  159SAPE   H8R17704   5.318   2.938   3.049
  159SAPE   C2917705   5.287   3.030   3.240
  159SAPE   H9R17706   5.283   2.932   3.291
  159SAPE  C21017707   5.266   3.155   3.323
  159SAPE  H10R17708   5.273   3.252   3.269
  159SAPE  H10S17709   5.353   3.157   3.393
  159SAPE  C21117710   5.141   3.139   3.406
  159SAPE  H11R17711   5.068   3.074   3.355
  159SAPE  C21217712   5.126   3.186   3.533
  159SAPE  H12R17713   5.030   3.161   3.580
  159SAPE  C21317714   5.217   3.276   3.608
  159SAPE  H13R17715   5.272   3.340   3.535
  159SAPE  H13S17716   5.292   3.219   3.667
  159SAPE  C21417717   5.141   3.375   3.701
  159SAPE  H14R17718   5.068   3.433   3.643
  159SAPE  C21517719   5.171   3.400   3.831
  159SAPE  H15R17720   5.105   3.469   3.885
  159SAPE  C21617721   5.278   3.346   3.916
  159SAPE  H16R17722   5.361   3.419   3.911
  159SAPE  H16S17723   5.326   3.253   3.880
  159SAPE  C21717724   5.245   3.328   4.067
  159SAPE  H17R17725   5.153   3.267   4.073
  159SAPE  H17S17726   5.240   3.428   4.116
  159SAPE  C21817727   5.353   3.249   4.145
  159SAPE  H18R17728   5.422   3.328   4.180
  159SAPE  H18S17729   5.403   3.179   4.074
  159SAPE  C21917730   5.289   3.188   4.270
  159SAPE  H19R17731   5.204   3.122   4.245
  159SAPE  H19S17732   5.246   3.262   4.341
  159SAPE  C22017733   5.393   3.106   4.350
  159SAPE  H20R17734   5.349   3.068   4.444
  159SAPE  H20S17735   5.482   3.173   4.357
  159SAPE  H20T17736   5.423   3.021   4.285
  159SAPE   C3317737   6.127   3.671   2.833
  159SAPE   H3X17738   6.221   3.676   2.774
  159SAPE   H3Y17739   6.129   3.579   2.896
  159SAPE   C3417740   6.128   3.787   2.927
  159SAPE   H4X17741   6.055   3.777   3.010
  159SAPE   H4Y17742   6.118   3.883   2.873
  159SAPE   C3517743   6.266   3.781   2.999
  159SAPE   H5X17744   6.345   3.808   2.925
  159SAPE   H5Y17745   6.285   3.688   3.057
  159SAPE   C3617746   6.265   3.888   3.103
  159SAPE   H6X17747   6.187   3.864   3.178
  159SAPE   H6Y17748   6.254   3.990   3.060
  159SAPE   C3717749   6.394   3.895   3.197
  159SAPE   H7X17750   6.475   3.875   3.123
  159SAPE   H7Y17751   6.399   3.812   3.270
  159SAPE   C3817752   6.400   4.029   3.275
  159SAPE   H8X17753   6.360   4.029   3.378
  159SAPE   H8Y17754   6.336   4.101   3.219
  159SAPE   C3917755   6.538   4.079   3.285
  159SAPE   H9X17756   6.539   4.186   3.255
  159SAPE   H9Y17757   6.605   4.025   3.215
  159SAPE  C31017758   6.599   4.066   3.424
  159SAPE  H10X17759   6.598   3.957   3.445
  159SAPE  H10Y17760   6.544   4.114   3.508
  159SAPE  C31117761   6.739   4.120   3.431
  159SAPE  H11X17762   6.732   4.228   3.408
  159SAPE  H11Y17763   6.800   4.078   3.349
  159SAPE  C31217764   6.819   4.104   3.563
  159SAPE  H12X17765   6.838   3.996   3.582
  159SAPE  H12Y17766   6.761   4.152   3.645
  159SAPE  C31317767   0.046   4.171   3.570
  159SAPE  H13X17768   0.101   4.137   3.660
  159SAPE  H13Y17769   0.033   4.281   3.577
  159SAPE  C31417770   0.130   4.167   3.442
  159SAPE  H14X17771   0.221   4.230   3.447
  159SAPE  H14Y17772   0.075   4.205   3.353
  159SAPE  C31517773   0.173   4.025   3.410
  159SAPE  H15X17774   0.100   3.942   3.423
  159SAPE  H15Y17775   0.244   3.981   3.484
  159SAPE  C31617776   0.235   4.017   3.272
  159SAPE  H16X17777   0.323   4.084   3.276
  159SAPE  H16Y17778   0.172   4.065   3.194
  159SAPE  C31717779   0.282   3.875   3.243
  159SAPE  H17X17780   0.198   3.804   3.234
  159SAPE  H17Y17781   0.352   3.836   3.320
  159SAPE  C31817782   0.355   3.872   3.112
  159SAPE  H18X17783   0.293   3.914   3.030
  159SAPE  H18Y17784   0.403   3.777   3.081
  159SAPE  H18Z17785   0.447   3.934   3.114
  160SAPE     N17786   5.507   2.611   2.137
  160SAPE   HN117787   5.532   2.514   2.166
  160SAPE   HN217788   5.591   2.671   2.144
  160SAPE   HN317789   5.430   2.636   2.203
  160SAPE   C1217790   5.461   2.605   1.993
  160SAPE  H12A17791   5.542   2.595   1.918
  160SAPE  H12B17792   5.409   2.697   1.957
  160SAPE   C1117793   5.364   2.481   1.959
  160SAPE  H11A17794   5.406   2.390   2.007
  160SAPE  H11B17795   5.364   2.474   1.848
  160SAPE     P17796   5.132   2.396   2.038
  160SAPE   O1317797   5.005   2.468   2.048
  160SAPE   O1417798   5.148   2.295   1.934
  160SAPE   O1217799   5.237   2.513   2.005
  160SAPE   O1117800   5.190   2.339   2.176
  160SAPE    C117801   5.190   2.420   2.294
  160SAPE    HA17802   5.294   2.454   2.308
  160SAPE    HB17803   5.125   2.509   2.303
  160SAPE    C217804   5.163   2.335   2.431
  160SAPE    HS17805   5.151   2.411   2.511
  160SAPE   O2117806   5.252   2.229   2.470
  160SAPE   C2117807   5.352   2.279   2.535
  160SAPE   O2217808   5.353   2.394   2.582
  160SAPE   C2217809   5.450   2.161   2.564
  160SAPE   H2R17810   5.399   2.073   2.519
  160SAPE   H2S17811   5.539   2.176   2.499
  160SAPE    C317812   5.026   2.266   2.427
  160SAPE    HX17813   5.028   2.200   2.338
  160SAPE    HY17814   4.945   2.340   2.410
  160SAPE   O3117815   4.993   2.190   2.539
  160SAPE   C3117816   4.879   2.132   2.546
  160SAPE   O3217817   4.796   2.121   2.458
  160SAPE   C3217818   4.864   2.060   2.677
  160SAPE   H2X17819   4.849   2.133   2.760
  160SAPE   H2Y17820   4.945   1.984   2.683
  160SAPE   C2317821   5.501   2.124   2.710
  160SAPE   H3R17822   5.555   2.206   2.762
  160SAPE   H3S17823   5.572   2.039   2.697
  160SAPE   C2417824   5.380   2.073   2.790
  160SAPE   H4R17825   5.432   2.025   2.875
  160SAPE   H4S17826   5.325   1.997   2.731
  160SAPE   C2517827   5.279   2.174   2.833
  160SAPE   H5R17828   5.194   2.198   2.768
  160SAPE   C2617829   5.288   2.220   2.957
  160SAPE   H6R17830   5.211   2.293   2.986
  160SAPE   C2717831   5.394   2.186   3.068
  160SAPE   H7R17832   5.426   2.289   3.096
  160SAPE   H7S17833   5.481   2.123   3.040
  160SAPE   C2817834   5.355   2.114   3.196
  160SAPE   H8R17835   5.358   2.004   3.197
  160SAPE   C2917836   5.304   2.176   3.302
  160SAPE   H9R17837   5.309   2.127   3.400
  160SAPE  C21017838   5.294   2.324   3.318
  160SAPE  H10R17839   5.255   2.381   3.231
  160SAPE  H10S17840   5.394   2.367   3.340
  160SAPE  C21117841   5.186   2.368   3.416
  160SAPE  H11R17842   5.102   2.422   3.370
  160SAPE  C21217843   5.200   2.372   3.550
  160SAPE  H12R17844   5.107   2.390   3.605
  160SAPE  C21317845   5.306   2.306   3.640
  160SAPE  H13R17846   5.358   2.223   3.589
  160SAPE  H13S17847   5.262   2.260   3.731
  160SAPE  C21417848   5.407   2.407   3.688
  160SAPE  H14R17849   5.504   2.414   3.637
  160SAPE  C21517850   5.404   2.471   3.807
  160SAPE  H15R17851   5.485   2.532   3.850
  160SAPE  C21617852   5.287   2.455   3.905
  160SAPE  H16R17853   5.215   2.380   3.867
  160SAPE  H16S17854   5.247   2.558   3.920
  160SAPE  C21717855   5.334   2.403   4.045
  160SAPE  H17R17856   5.405   2.319   4.032
  160SAPE  H17S17857   5.244   2.362   4.095
  160SAPE  C21817858   5.413   2.502   4.141
  160SAPE  H18R17859   5.374   2.606   4.133
  160SAPE  H18S17860   5.519   2.505   4.108
  160SAPE  C21917861   5.403   2.461   4.284
  160SAPE  H19R17862   5.458   2.364   4.285
  160SAPE  H19S17863   5.299   2.426   4.300
  160SAPE  C22017864   5.461   2.548   4.389
  160SAPE  H20R17865   5.427   2.522   4.491
  160SAPE  H20S17866   5.418   2.649   4.375
  160SAPE  H20T17867   5.570   2.556   4.369
  160SAPE   C3317868   4.741   1.968   2.677
  160SAPE   H3X17869   4.756   1.881   2.610
  160SAPE   H3Y17870   4.650   2.029   2.657
  160SAPE   C3417871   4.712   1.898   2.812
  160SAPE   H4X17872   4.695   1.979   2.887
  160SAPE   H4Y17873   4.805   1.841   2.831
  160SAPE   C3517874   4.606   1.788   2.815
  160SAPE   H5X17875   4.652   1.702   2.762
  160SAPE   H5Y17876   4.512   1.823   2.766
  160SAPE   C3617877   4.585   1.730   2.958
  160SAPE   H6X17878   4.549   1.806   3.030
  160SAPE   H6Y17879   4.688   1.700   2.986
  160SAPE   C3717880   4.491   1.609   2.946
  160SAPE   H7X17881   4.530   1.542   2.866
  160SAPE   H7Y17882   4.392   1.630   2.900
  160SAPE   C3817883   4.461   1.538   3.078
  160SAPE   H8X17884   4.555   1.515   3.133
  160SAPE   H8Y17885   4.406   1.444   3.057
  160SAPE   C3917886   4.342   1.600   3.160
  160SAPE   H9X17887   4.260   1.612   3.086
  160SAPE   H9Y17888   4.369   1.690   3.219
  160SAPE  C31017889   4.307   1.492   3.259
  160SAPE  H10X17890   4.392   1.491   3.331
  160SAPE  H10Y17891   4.292   1.388   3.225
  160SAPE  C31117892   4.185   1.543   3.336
  160SAPE  H11X17893   4.094   1.546   3.272
  160SAPE  H11Y17894   4.191   1.646   3.377
  160SAPE  C31217895   4.141   1.456   3.451
  160SAPE  H12X17896   4.155   1.348   3.431
  160SAPE  H12Y17897   4.031   1.457   3.465
  160SAPE  C31317898   4.203   1.495   3.584
  160SAPE  H13X17899   4.149   1.588   3.612
  160SAPE  H13Y17900   4.312   1.516   3.576
  160SAPE  C31417901   4.180   1.390   3.693
  160SAPE  H14X17902   4.240   1.299   3.670
  160SAPE  H14Y17903   4.070   1.371   3.695
  160SAPE  C31517904   4.219   1.432   3.835
  160SAPE  H15X17905   4.180   1.536   3.845
  160SAPE  H15Y17906   4.329   1.427   3.827
  160SAPE  C31617907   4.165   1.337   3.940
  160SAPE  H16X17908   4.205   1.235   3.920
  160SAPE  H16Y17909   4.054   1.330   3.940
  160SAPE  C31717910   4.212   1.376   4.084
  160SAPE  H17X17911   4.323   1.380   4.080
  160SAPE  H17Y17912   4.174   1.295   4.150
  160SAPE  C31817913   4.154   1.508   4.130
  160SAPE  H18X17914   4.049   1.527   4.097
  160SAPE  H18Y17915   4.209   1.599   4.098
  160SAPE  H18Z17916   4.140   1.495   4.239
  161SAPE     N17917   2.321   4.244   1.466
  161SAPE   HN117918   2.397   4.173   1.469
  161SAPE   HN217919   2.265   4.235   1.553
  161SAPE   HN317920   2.273   4.229   1.375
  161SAPE   C1217921   2.378   4.383   1.472
  161SAPE  H12A17922   2.292   4.453   1.473
  161SAPE  H12B17923   2.429   4.409   1.377
  161SAPE   C1117924   2.480   4.403   1.587
  161SAPE  H11A17925   2.427   4.385   1.683
  161SAPE  H11B17926   2.520   4.506   1.572
  161SAPE     P17927   2.731   4.320   1.583
  161SAPE   O1317928   2.806   4.199   1.540
  161SAPE   O1417929   2.744   4.441   1.501
  161SAPE   O1217930   2.580   4.296   1.575
  161SAPE   O1117931   2.763   4.365   1.731
  161SAPE    C117932   2.718   4.476   1.804
  161SAPE    HA17933   2.688   4.562   1.740
  161SAPE    HB17934   2.625   4.452   1.858
  161SAPE    C217935   2.817   4.519   1.913
  161SAPE    HS17936   2.913   4.544   1.862
  161SAPE   O2117937   2.832   4.404   2.005
  161SAPE   C2117938   2.929   4.405   2.084
  161SAPE   O2217939   3.014   4.494   2.079
  161SAPE   C2217940   2.928   4.280   2.180
  161SAPE   H2R17941   2.824   4.258   2.213
  161SAPE   H2S17942   2.964   4.197   2.115
  161SAPE    C317943   2.778   4.646   1.997
  161SAPE    HX17944   2.754   4.730   1.928
  161SAPE    HY17945   2.868   4.671   2.056
  161SAPE   O3117946   2.659   4.625   2.078
  161SAPE   C3117947   2.679   4.575   2.203
  161SAPE   O3217948   2.782   4.574   2.266
  161SAPE   C3217949   2.559   4.486   2.242
  161SAPE   H2X17950   2.544   4.421   2.154
  161SAPE   H2Y17951   2.470   4.552   2.252
  161SAPE   C2317952   3.023   4.291   2.303
  161SAPE   H3R17953   2.977   4.369   2.367
  161SAPE   H3S17954   3.114   4.336   2.259
  161SAPE   C2417955   3.042   4.158   2.386
  161SAPE   H4R17956   3.119   4.164   2.466
  161SAPE   H4S17957   3.081   4.080   2.318
  161SAPE   C2517958   2.908   4.120   2.447
  161SAPE   H5R17959   2.839   4.072   2.375
  161SAPE   C2617960   2.863   4.166   2.564
  161SAPE   H6R17961   2.765   4.128   2.596
  161SAPE   C2717962   2.939   4.255   2.660
  161SAPE   H7R17963   2.879   4.348   2.663
  161SAPE   H7S17964   3.034   4.285   2.610
  161SAPE   C2817965   2.975   4.191   2.790
  161SAPE   H8R17966   3.073   4.143   2.796
  161SAPE   C2917967   2.898   4.180   2.899
  161SAPE   H9R17968   2.945   4.144   2.991
  161SAPE  C21017969   2.753   4.231   2.927
  161SAPE  H10R17970   2.700   4.142   2.966
  161SAPE  H10S17971   2.704   4.265   2.833
  161SAPE  C21117972   2.771   4.347   3.027
  161SAPE  H11R17973   2.803   4.444   2.988
  161SAPE  C21217974   2.738   4.341   3.155
  161SAPE  H12R17975   2.755   4.433   3.213
  161SAPE  C21317976   2.680   4.228   3.244
  161SAPE  H13R17977   2.591   4.179   3.198
  161SAPE  H13S17978   2.638   4.268   3.338
  161SAPE  C21417979   2.780   4.119   3.278
  161SAPE  H14R17980   2.826   4.069   3.191
  161SAPE  C21517981   2.806   4.073   3.401
  161SAPE  H15R17982   2.880   3.994   3.420
  161SAPE  C21617983   2.729   4.128   3.522
  161SAPE  H16R17984   2.634   4.075   3.544
  161SAPE  H16S17985   2.722   4.239   3.515
  161SAPE  C21717986   2.808   4.112   3.662
  161SAPE  H17R17987   2.899   4.175   3.676
  161SAPE  H17S17988   2.846   4.007   3.667
  161SAPE  C21817989   2.726   4.157   3.776
  161SAPE  H18R17990   2.622   4.128   3.748
  161SAPE  H18S17991   2.733   4.267   3.786
  161SAPE  C21917992   2.770   4.105   3.917
  161SAPE  H19R17993   2.775   3.994   3.919
  161SAPE  H19S17994   2.700   4.141   3.995
  161SAPE  C22017995   2.906   4.164   3.954
  161SAPE  H20R17996   2.957   4.116   4.040
  161SAPE  H20S17997   2.907   4.273   3.974
  161SAPE  H20T17998   2.980   4.143   3.873
  161SAPE   C3317999   2.579   4.407   2.378
  161SAPE   H3X18000   2.664   4.339   2.359
  161SAPE   H3Y18001   2.487   4.344   2.384
  161SAPE   C3418002   2.589   4.515   2.493
  161SAPE   H4X18003   2.512   4.592   2.472
  161SAPE   H4Y18004   2.689   4.563   2.489
  161SAPE   C3518005   2.574   4.448   2.629
  161SAPE   H5X18006   2.630   4.506   2.705
  161SAPE   H5Y18007   2.618   4.346   2.619
  161SAPE   C3618008   2.423   4.439   2.677
  161SAPE   H6X18009   2.367   4.381   2.600
  161SAPE   H6Y18010   2.400   4.548   2.676
  161SAPE   C3718011   2.395   4.398   2.821
  161SAPE   H7X18012   2.471   4.439   2.891
  161SAPE   H7Y18013   2.384   4.288   2.808
  161SAPE   C3818014   2.260   4.457   2.874
  161SAPE   H8X18015   2.183   4.426   2.799
  161SAPE   H8Y18016   2.257   4.568   2.885
  161SAPE   C3918017   2.240   4.396   3.018
  161SAPE   H9X18018   2.259   4.287   3.017
  161SAPE   H9Y18019   2.135   4.421   3.044
  161SAPE  C31018020   2.323   4.464   3.130
  161SAPE  H10X18021   2.305   4.574   3.129
  161SAPE  H10Y18022   2.432   4.460   3.106
  161SAPE  C31118023   2.300   4.391   3.262
  161SAPE  H11X18024   2.351   4.293   3.261
  161SAPE  H11Y18025   2.192   4.377   3.285
  161SAPE  C31218026   2.371   4.452   3.375
  161SAPE  H12X18027   2.349   4.560   3.384
  161SAPE  H12Y18028   2.479   4.455   3.348
  161SAPE  C31318029   2.338   4.382   3.505
  161SAPE  H13X18030   2.343   4.271   3.506
  161SAPE  H13Y18031   2.234   4.404   3.538
  161SAPE  C31418032   2.424   4.429   3.623
  161SAPE  H14X18033   2.416   4.537   3.644
  161SAPE  H14Y18034   2.533   4.411   3.608
  161SAPE  C31518035   2.376   4.366   3.759
  161SAPE  H15X18036   2.415   4.264   3.776
  161SAPE  H15Y18037   2.265   4.367   3.767
  161SAPE  C31618038   2.430   4.441   3.880
  161SAPE  H16X18039   2.425   4.552   3.870
  161SAPE  H16Y18040   2.537   4.421   3.898
  161SAPE  C31718041   2.334   4.406   3.997
  161SAPE  H17X18042   2.235   4.454   3.986
  161SAPE  H17Y18043   2.385   4.454   4.083
  161SAPE  C31818044   2.309   4.265   4.034
  161SAPE  H18X18045   2.249   4.212   3.958
  161SAPE  H18Y18046   2.261   4.251   4.133
  161SAPE  H18Z18047   2.404   4.207   4.027
  162SAPE     N18048   2.063   0.499   1.706
  162SAPE   HN118049   2.126   0.578   1.680
  162SAPE   HN218050   2.058   0.437   1.623
  162SAPE   HN318051   1.965   0.533   1.719
  162SAPE   C1218052   2.117   0.437   1.832
  162SAPE  H12A18053   2.103   0.505   1.919
  162SAPE  H12B18054   2.225   0.419   1.815
  162SAPE   C1118055   2.029   0.311   1.862
  162SAPE  H11A18056   1.926   0.352   1.856
  162SAPE  H11B18057   2.037   0.290   1.971
  162SAPE     P18058   2.178   0.111   1.783
  162SAPE   O1318059   2.136   6.893   1.840
  162SAPE   O1418060   2.256   0.105   1.659
  162SAPE   O1218061   2.051   0.202   1.769
  162SAPE   O1118062   2.263   0.183   1.892
  162SAPE    C118063   2.391   0.130   1.930
  162SAPE    HA18064   2.368   0.036   1.986
  162SAPE    HB18065   2.460   0.105   1.847
  162SAPE    C218066   2.474   0.217   2.025
  162SAPE    HS18067   2.551   0.157   2.078
  162SAPE   O2118068   2.393   0.274   2.129
  162SAPE   C2118069   2.319   0.203   2.215
  162SAPE   O2218070   2.308   0.083   2.215
  162SAPE   C2218071   2.242   0.298   2.310
  162SAPE   H2R18072   2.307   0.387   2.324
  162SAPE   H2S18073   2.148   0.334   2.264
  162SAPE    C318074   2.552   0.329   1.947
  162SAPE    HX18075   2.483   0.414   1.928
  162SAPE    HY18076   2.582   0.278   1.853
  162SAPE   O3118077   2.667   0.360   2.021
  162SAPE   C3118078   2.673   0.465   2.101
  162SAPE   O3218079   2.599   0.560   2.115
  162SAPE   C3218080   2.800   0.448   2.182
  162SAPE   H2X18081   2.795   0.531   2.256
  162SAPE   H2Y18082   2.897   0.452   2.128
  162SAPE   C2318083   2.196   0.231   2.445
  162SAPE   H3R18084   2.273   0.189   2.513
  162SAPE   H3S18085   2.136   0.143   2.414
  162SAPE   C2418086   2.097   0.300   2.538
  162SAPE   H4R18087   2.070   0.244   2.631
  162SAPE   H4S18088   1.996   0.316   2.494
  162SAPE   C2518089   2.148   0.433   2.571
  162SAPE   H5R18090   2.129   0.512   2.497
  162SAPE   C2618091   2.220   0.469   2.680
  162SAPE   H6R18092   2.266   0.568   2.688
  162SAPE   C2718093   2.259   0.377   2.800
  162SAPE   H7R18094   2.345   0.315   2.768
  162SAPE   H7S18095   2.174   0.310   2.826
  162SAPE   C2818096   2.301   0.458   2.915
  162SAPE   H8R18097   2.371   0.534   2.877
  162SAPE   C2918098   2.271   0.447   3.045
  162SAPE   H9R18099   2.314   0.515   3.120
  162SAPE  C21018100   2.191   0.338   3.112
  162SAPE  H10R18101   2.095   0.321   3.058
  162SAPE  H10S18102   2.157   0.373   3.211
  162SAPE  C21118103   2.256   0.200   3.106
  162SAPE  H11R18104   2.238   0.136   3.018
  162SAPE  C21218105   2.351   0.160   3.193
  162SAPE  H12R18106   2.392   0.058   3.193
  162SAPE  C21318107   2.417   0.243   3.311
  162SAPE  H13R18108   2.359   0.234   3.405
  162SAPE  H13S18109   2.404   0.351   3.288
  162SAPE  C21418110   2.564   0.221   3.335
  162SAPE  H14R18111   2.620   0.217   3.240
  162SAPE  C21518112   2.624   0.208   3.448
  162SAPE  H15R18113   2.734   0.206   3.451
  162SAPE  C21618114   2.567   0.191   3.587
  162SAPE  H16R18115   2.471   0.246   3.578
  162SAPE  H16S18116   2.636   0.240   3.659
  162SAPE  C21718117   2.557   0.043   3.619
  162SAPE  H17R18118   2.533   6.895   3.526
  162SAPE  H17S18119   2.478   0.030   3.696
  162SAPE  C21818120   2.692   6.900   3.669
  162SAPE  H18R18121   2.740   0.072   3.727
  162SAPE  H18S18122   2.757   6.904   3.579
  162SAPE  C21918123   2.671   6.767   3.743
  162SAPE  H19R18124   2.764   6.707   3.733
  162SAPE  H19S18125   2.605   6.705   3.678
  162SAPE  C22018126   2.612   6.775   3.879
  162SAPE  H20R18127   2.547   6.864   3.873
  162SAPE  H20S18128   2.694   6.786   3.954
  162SAPE  H20T18129   2.551   6.684   3.901
  162SAPE   C3318130   2.787   0.318   2.263
  162SAPE   H3X18131   2.879   0.297   2.321
  162SAPE   H3Y18132   2.770   0.235   2.190
  162SAPE   C3418133   2.674   0.304   2.365
  162SAPE   H4X18134   2.574   0.295   2.318
  162SAPE   H4Y18135   2.667   0.399   2.421
  162SAPE   C3518136   2.684   0.188   2.461
  162SAPE   H5X18137   2.788   0.178   2.498
  162SAPE   H5Y18138   2.673   0.093   2.406
  162SAPE   C3618139   2.580   0.184   2.574
  162SAPE   H6X18140   2.480   0.200   2.528
  162SAPE   H6Y18141   2.589   0.265   2.648
  162SAPE   C3718142   2.588   0.050   2.648
  162SAPE   H7X18143   2.693   0.036   2.682
  162SAPE   H7Y18144   2.559   6.877   2.580
  162SAPE   C3818145   2.510   0.040   2.773
  162SAPE   H8X18146   2.401   0.056   2.758
  162SAPE   H8Y18147   2.546   0.119   2.842
  162SAPE   C3918148   2.533   6.814   2.845
  162SAPE   H9X18149   2.641   6.804   2.866
  162SAPE   H9Y18150   2.500   6.739   2.770
  162SAPE  C31018151   2.460   6.777   2.970
  162SAPE  H10X18152   2.350   6.785   2.964
  162SAPE  H10Y18153   2.498   6.850   3.044
  162SAPE  C31118154   2.495   6.644   3.031
  162SAPE  H11X18155   2.450   6.641   3.132
  162SAPE  H11Y18156   2.604   6.631   3.049
  162SAPE  C31218157   2.434   6.529   2.953
  162SAPE  H12X18158   2.468   6.542   2.848
  162SAPE  H12Y18159   2.323   6.538   2.949
  162SAPE  C31318160   2.484   6.400   3.009
  162SAPE  H13X18161   2.477   6.415   3.119
  162SAPE  H13Y18162   2.588   6.376   2.980
  162SAPE  C31418163   2.394   6.276   2.970
  162SAPE  H14X18164   2.385   6.285   2.859
  162SAPE  H14Y18165   2.291   6.285   3.010
  162SAPE  C31518166   2.457   6.138   3.011
  162SAPE  H15X18167   2.562   6.134   2.975
  162SAPE  H15Y18168   2.393   6.055   2.974
  162SAPE  C31618169   2.465   6.114   3.164
  162SAPE  H16X18170   2.367   6.128   3.216
  162SAPE  H16Y18171   2.531   6.198   3.196
  162SAPE  C31718172   2.523   5.978   3.217
  162SAPE  H17X18173   2.448   5.902   3.184
  162SAPE  H17Y18174   2.520   5.989   3.327
  162SAPE  C31818175   2.669   5.947   3.174
  162SAPE  H18X18176   2.678   5.899   3.074
  162SAPE  H18Y18177   2.712   5.876   3.248
  162SAPE  H18Z18178   2.740   6.033   3.180
  163SAPE     N18179   1.188   3.415   1.697
  163SAPE   HN118180   1.109   3.471   1.733
  163SAPE   HN218181   1.173   3.387   1.598
  163SAPE   HN318182   1.192   3.332   1.760
  163SAPE   C1218183   1.319   3.486   1.719
  163SAPE  H12A18184   1.315   3.580   1.660
  163SAPE  H12B18185   1.404   3.423   1.684
  163SAPE   C1118186   1.334   3.508   1.869
  163SAPE  H11A18187   1.436   3.545   1.891
  163SAPE  H11B18188   1.310   3.414   1.922
  163SAPE     P18189   1.222   3.623   2.077
  163SAPE   O1318190   1.157   3.753   2.105
  163SAPE   O1418191   1.164   3.506   2.132
  163SAPE   O1218192   1.243   3.604   1.920
  163SAPE   O1118193   1.362   3.629   2.124
  163SAPE    C118194   1.427   3.551   2.223
  163SAPE    HA18195   1.396   3.444   2.222
  163SAPE    HB18196   1.535   3.548   2.200
  163SAPE    C218197   1.406   3.594   2.371
  163SAPE    HS18198   1.298   3.607   2.393
  163SAPE   O2118199   1.508   3.695   2.387
  163SAPE   C2118200   1.464   3.788   2.477
  163SAPE   O2218201   1.363   3.779   2.547
  163SAPE   C2218202   1.581   3.896   2.496
  163SAPE   H2R18203   1.666   3.850   2.440
  163SAPE   H2S18204   1.543   3.985   2.441
  163SAPE    C318205   1.442   3.472   2.457
  163SAPE    HX18206   1.546   3.449   2.425
  163SAPE    HY18207   1.370   3.393   2.427
  163SAPE   O3118208   1.424   3.505   2.593
  163SAPE   C3118209   1.537   3.516   2.667
  163SAPE   O3218210   1.643   3.467   2.627
  163SAPE   C3218211   1.517   3.582   2.808
  163SAPE   H2X18212   1.454   3.508   2.862
  163SAPE   H2Y18213   1.457   3.673   2.787
  163SAPE   C2318214   1.620   3.941   2.643
  163SAPE   H3R18215   1.714   3.999   2.647
  163SAPE   H3S18216   1.636   3.851   2.707
  163SAPE   C2418217   1.506   4.026   2.715
  163SAPE   H4R18218   1.428   3.958   2.756
  163SAPE   H4S18219   1.465   4.097   2.641
  163SAPE   C2518220   1.563   4.119   2.813
  163SAPE   H5R18221   1.664   4.161   2.803
  163SAPE   C2618222   1.524   4.117   2.941
  163SAPE   H6R18223   1.555   4.197   3.009
  163SAPE   C2718224   1.400   4.061   2.998
  163SAPE   H7R18225   1.351   3.979   2.941
  163SAPE   H7S18226   1.320   4.137   2.993
  163SAPE   C2818227   1.407   4.009   3.142
  163SAPE   H8R18228   1.417   3.899   3.146
  163SAPE   C2918229   1.417   4.082   3.252
  163SAPE   H9R18230   1.424   4.029   3.348
  163SAPE  C21018231   1.398   4.229   3.259
  163SAPE  H10R18232   1.368   4.266   3.159
  163SAPE  H10S18233   1.498   4.274   3.277
  163SAPE  C21118234   1.291   4.269   3.357
  163SAPE  H11R18235   1.190   4.266   3.314
  163SAPE  C21218236   1.292   4.286   3.490
  163SAPE  H12R18237   1.195   4.302   3.539
  163SAPE  C21318238   1.414   4.286   3.578
  163SAPE  H13R18239   1.483   4.205   3.545
  163SAPE  H13S18240   1.369   4.254   3.675
  163SAPE  C21418241   1.485   4.414   3.585
  163SAPE  H14R18242   1.511   4.458   3.488
  163SAPE  C21518243   1.540   4.461   3.698
  163SAPE  H15R18244   1.592   4.558   3.690
  163SAPE  C21618245   1.523   4.407   3.841
  163SAPE  H16R18246   1.601   4.331   3.860
  163SAPE  H16S18247   1.417   4.374   3.854
  163SAPE  C21718248   1.549   4.526   3.937
  163SAPE  H17R18249   1.478   4.606   3.909
  163SAPE  H17S18250   1.650   4.559   3.906
  163SAPE  C21818251   1.537   4.467   4.080
  163SAPE  H18R18252   1.596   4.373   4.083
  163SAPE  H18S18253   1.432   4.439   4.103
  163SAPE  C21918254   1.576   4.560   4.196
  163SAPE  H19R18255   1.523   4.530   4.289
  163SAPE  H19S18256   1.553   4.665   4.169
  163SAPE  C22018257   1.723   4.527   4.218
  163SAPE  H20R18258   1.782   4.587   4.290
  163SAPE  H20S18259   1.768   4.516   4.117
  163SAPE  H20T18260   1.736   4.436   4.281
  163SAPE   C3318261   1.651   3.604   2.883
  163SAPE   H3X18262   1.721   3.658   2.815
  163SAPE   H3Y18263   1.695   3.510   2.922
  163SAPE   C3418264   1.625   3.701   2.992
  163SAPE   H4X18265   1.572   3.786   2.943
  163SAPE   H4Y18266   1.717   3.734   3.044
  163SAPE   C3518267   1.537   3.641   3.109
  163SAPE   H5X18268   1.555   3.531   3.115
  163SAPE   H5Y18269   1.429   3.653   3.090
  163SAPE   C3618270   1.580   3.687   3.251
  163SAPE   H6X18271   1.613   3.792   3.235
  163SAPE   H6Y18272   1.662   3.623   3.290
  163SAPE   C3718273   1.452   3.683   3.332
  163SAPE   H7X18274   1.431   3.577   3.358
  163SAPE   H7Y18275   1.367   3.719   3.270
  163SAPE   C3818276   1.464   3.759   3.461
  163SAPE   H8X18277   1.514   3.857   3.445
  163SAPE   H8Y18278   1.532   3.712   3.535
  163SAPE   C3918279   1.337   3.780   3.541
  163SAPE   H9X18280   1.312   3.680   3.583
  163SAPE   H9Y18281   1.259   3.800   3.464
  163SAPE  C31018282   1.341   3.890   3.648
  163SAPE  H10X18283   1.354   3.991   3.603
  163SAPE  H10Y18284   1.438   3.872   3.699
  163SAPE  C31118285   1.229   3.876   3.743
  163SAPE  H11X18286   1.248   3.785   3.804
  163SAPE  H11Y18287   1.127   3.886   3.699
  163SAPE  C31218288   1.259   3.985   3.850
  163SAPE  H12X18289   1.231   4.073   3.788
  163SAPE  H12Y18290   1.367   4.000   3.871
  163SAPE  C31318291   1.183   3.979   3.988
  163SAPE  H13X18292   1.186   4.084   4.024
  163SAPE  H13Y18293   1.233   3.917   4.065
  163SAPE  C31418294   1.037   3.932   3.975
  163SAPE  H14X18295   1.028   3.821   3.966
  163SAPE  H14Y18296   0.994   3.971   3.881
  163SAPE  C31518297   0.950   3.968   4.095
  163SAPE  H15X18298   0.952   4.078   4.107
  163SAPE  H15Y18299   0.982   3.920   4.190
  163SAPE  C31618300   0.801   3.921   4.070
  163SAPE  H16X18301   0.803   3.814   4.040
  163SAPE  H16Y18302   0.766   3.973   3.978
  163SAPE  C31718303   0.689   3.950   4.180
  163SAPE  H17X18304   0.688   4.055   4.216
  163SAPE  H17Y18305   0.729   3.904   4.273
  163SAPE  C31818306   0.549   3.906   4.130
  163SAPE  H18X18307   0.533   3.944   4.027
  163SAPE  H18Y18308   0.475   3.950   4.201
  163SAPE  H18Z18309   0.551   3.795   4.133
  164SAPE     N18310   6.461   4.104   2.023
  164SAPE   HN118311   6.481   4.196   2.068
  164SAPE   HN218312   6.464   4.117   1.920
  164SAPE   HN318313   6.373   4.057   2.053
  164SAPE   C1218314   6.578   4.021   2.067
  164SAPE  H12A18315   6.623   3.986   1.972
  164SAPE  H12B18316   6.545   3.930   2.120
  164SAPE   C1118317   6.680   4.104   2.150
  164SAPE  H11A18318   6.763   4.030   2.161
  164SAPE  H11B18319   6.632   4.141   2.243
  164SAPE     P18320   6.811   4.321   2.164
  164SAPE   O1318321   0.003   4.247   2.242
  164SAPE   O1418322   6.855   4.423   2.066
  164SAPE   O1218323   6.740   4.213   2.076
  164SAPE   O1118324   6.704   4.377   2.269
  164SAPE    C118325   6.692   4.511   2.320
  164SAPE    HA18326   6.730   4.578   2.240
  164SAPE    HB18327   6.582   4.521   2.332
  164SAPE    C218328   6.759   4.528   2.458
  164SAPE    HS18329   6.868   4.530   2.439
  164SAPE   O2118330   6.711   4.417   2.543
  164SAPE   C2118331   6.812   4.376   2.622
  164SAPE   O2218332   0.016   4.416   2.619
  164SAPE   C2218333   6.755   4.280   2.725
  164SAPE   H2R18334   6.709   4.344   2.804
  164SAPE   H2S18335   6.665   4.231   2.683
  164SAPE    C318336   6.732   4.671   2.512
  164SAPE    HX18337   6.759   4.746   2.435
  164SAPE    HY18338   6.794   4.692   2.602
  164SAPE   O3118339   6.588   4.689   2.545
  164SAPE   C3118340   6.552   4.653   2.673
  164SAPE   O3218341   6.626   4.612   2.756
  164SAPE   C3218342   6.407   4.674   2.705
  164SAPE   H2X18343   6.384   4.583   2.764
  164SAPE   H2Y18344   6.344   4.678   2.615
  164SAPE   C2318345   6.859   4.189   2.789
  164SAPE   H3R18346   0.004   4.152   2.699
  164SAPE   H3S18347   6.811   4.096   2.825
  164SAPE   C2418348   0.042   4.248   2.897
  164SAPE   H4R18349   0.079   4.343   2.852
  164SAPE   H4S18350   0.136   4.189   2.895
  164SAPE   C2518351   6.891   4.252   3.030
  164SAPE   H5R18352   6.875   4.161   3.089
  164SAPE   C2618353   6.854   4.365   3.092
  164SAPE   H6R18354   6.830   4.367   3.199
  164SAPE   C2718355   6.857   4.502   3.031
  164SAPE   H7R18356   6.840   4.489   2.922
  164SAPE   H7S18357   0.049   4.545   3.047
  164SAPE   C2818358   6.764   4.611   3.074
  164SAPE   H8R18359   6.684   4.645   3.007
  164SAPE   C2918360   6.772   4.671   3.196
  164SAPE   H9R18361   6.701   4.752   3.220
  164SAPE  C21018362   6.874   4.656   3.308
  164SAPE  H10R18363   0.013   4.755   3.320
  164SAPE  H10S18364   0.041   4.578   3.287
  164SAPE  C21118365   6.795   4.608   3.432
  164SAPE  H11R18366   6.793   4.498   3.436
  164SAPE  C21218367   6.766   4.680   3.541
  164SAPE  H12R18368   6.731   4.629   3.632
  164SAPE  C21318369   6.777   4.831   3.563
  164SAPE  H13R18370   6.672   4.864   3.581
  164SAPE  H13S18371   6.825   4.874   3.472
  164SAPE  C21418372   6.854   4.869   3.686
  164SAPE  H14R18373   0.053   4.869   3.664
  164SAPE  C21518374   6.819   4.874   3.813
  164SAPE  H15R18375   6.899   4.897   3.884
  164SAPE  C21618376   6.682   4.846   3.870
  164SAPE  H16R18377   6.618   4.800   3.792
  164SAPE  H16S18378   6.638   4.944   3.900
  164SAPE  C21718379   6.682   4.761   3.999
  164SAPE  H17R18380   6.735   4.665   3.983
  164SAPE  H17S18381   6.577   4.738   4.028
  164SAPE  C21818382   6.729   4.830   4.126
  164SAPE  H18R18383   6.672   4.925   4.134
  164SAPE  H18S18384   6.835   4.858   4.106
  164SAPE  C21918385   6.717   4.748   4.254
  164SAPE  H19R18386   6.770   4.814   4.327
  164SAPE  H19S18387   6.778   4.656   4.251
  164SAPE  C22018388   6.569   4.717   4.293
  164SAPE  H20R18389   6.505   4.788   4.236
  164SAPE  H20S18390   6.555   4.723   4.403
  164SAPE  H20T18391   6.540   4.617   4.252
  164SAPE   C3318392   6.373   4.802   2.791
  164SAPE   H3X18393   6.407   4.888   2.731
  164SAPE   H3Y18394   6.432   4.791   2.885
  164SAPE   C3418395   6.221   4.800   2.823
  164SAPE   H4X18396   6.209   4.715   2.893
  164SAPE   H4Y18397   6.158   4.760   2.741
  164SAPE   C3518398   6.165   4.928   2.888
  164SAPE   H5X18399   6.056   4.921   2.908
  164SAPE   H5Y18400   6.171   5.006   2.810
  164SAPE   C3618401   6.241   4.970   3.018
  164SAPE   H6X18402   6.201   5.068   3.050
  164SAPE   H6Y18403   6.348   4.975   2.988
  164SAPE   C3718404   6.229   4.881   3.141
  164SAPE   H7X18405   6.282   4.789   3.111
  164SAPE   H7Y18406   6.122   4.864   3.166
  164SAPE   C3818407   6.302   4.933   3.257
  164SAPE   H8X18408   6.264   5.034   3.286
  164SAPE   H8Y18409   6.412   4.934   3.240
  164SAPE   C3918410   6.283   4.847   3.377
  164SAPE   H9X18411   6.339   4.752   3.364
  164SAPE   H9Y18412   6.177   4.818   3.395
  164SAPE  C31018413   6.348   4.897   3.511
  164SAPE  H10X18414   6.298   4.994   3.529
  164SAPE  H10Y18415   6.458   4.911   3.500
  164SAPE  C31118416   6.326   4.805   3.634
  164SAPE  H11X18417   6.387   4.838   3.720
  164SAPE  H11Y18418   6.350   4.700   3.607
  164SAPE  C31218419   6.179   4.801   3.684
  164SAPE  H12X18420   6.120   4.761   3.598
  164SAPE  H12Y18421   6.143   4.905   3.694
  164SAPE  C31318422   6.158   4.739   3.823
  164SAPE  H13X18423   6.213   4.789   3.906
  164SAPE  H13Y18424   6.207   4.640   3.816
  164SAPE  C31418425   6.014   4.705   3.848
  164SAPE  H14X18426   5.956   4.649   3.771
  164SAPE  H14Y18427   5.976   4.805   3.880
  164SAPE  C31518428   5.990   4.630   3.984
  164SAPE  H15X18429   6.046   4.535   3.972
  164SAPE  H15Y18430   5.884   4.596   3.990
  164SAPE  C31618431   6.049   4.691   4.105
  164SAPE  H16X18432   6.026   4.800   4.116
  164SAPE  H16Y18433   6.159   4.696   4.096
  164SAPE  C31718434   6.012   4.607   4.233
  164SAPE  H17X18435   6.058   4.508   4.209
  164SAPE  H17Y18436   5.902   4.599   4.243
  164SAPE  C31818437   6.062   4.674   4.362
  164SAPE  H18X18438   6.021   4.776   4.371
  164SAPE  H18Y18439   6.173   4.672   4.377
  164SAPE  H18Z18440   6.021   4.618   4.448
  165SAPE     N18441   5.142   1.069   1.840
  165SAPE   HN118442   5.122   1.004   1.919
  165SAPE   HN218443   5.083   1.154   1.851
  165SAPE   HN318444   5.109   1.011   1.760
  165SAPE   C1218445   5.289   1.075   1.841
  165SAPE  H12A18446   5.325   1.166   1.788
  165SAPE  H12B18447   5.326   0.985   1.788
  165SAPE   C1118448   5.331   1.070   1.994
  165SAPE  H11A18449   5.441   1.072   2.005
  165SAPE  H11B18450   5.311   0.965   2.022
  165SAPE     P18451   5.297   1.192   2.220
  165SAPE   O1318452   5.406   1.291   2.235
  165SAPE   O1418453   5.168   1.230   2.287
  165SAPE   O1218454   5.261   1.164   2.079
  165SAPE   O1118455   5.352   1.047   2.271
  165SAPE    C118456   5.251   0.948   2.310
  165SAPE    HA18457   5.145   0.968   2.283
  165SAPE    HB18458   5.275   0.850   2.264
  165SAPE    C218459   5.241   0.928   2.465
  165SAPE    HS18460   5.195   1.021   2.504
  165SAPE   O2118461   5.372   0.916   2.517
  165SAPE   C2118462   5.401   0.971   2.629
  165SAPE   O2218463   5.323   1.011   2.708
  165SAPE   C2218464   5.556   0.982   2.648
  165SAPE   H2R18465   5.570   1.070   2.582
  165SAPE   H2S18466   5.590   1.010   2.750
  165SAPE    C318467   5.151   0.802   2.492
  165SAPE    HX18468   5.209   0.716   2.452
  165SAPE    HY18469   5.065   0.798   2.421
  165SAPE   O3118470   5.126   0.783   2.634
  165SAPE   C3118471   5.177   0.670   2.686
  165SAPE   O3218472   5.242   0.581   2.626
  165SAPE   C3218473   5.138   0.664   2.833
  165SAPE   H2X18474   5.044   0.723   2.844
  165SAPE   H2Y18475   5.222   0.712   2.887
  165SAPE   C2318476   5.634   0.869   2.575
  165SAPE   H3R18477   5.726   0.914   2.532
  165SAPE   H3S18478   5.571   0.831   2.491
  165SAPE   C2418479   5.666   0.742   2.668
  165SAPE   H4R18480   5.746   0.776   2.737
  165SAPE   H4S18481   5.712   0.664   2.604
  165SAPE   C2518482   5.542   0.688   2.742
  165SAPE   H5R18483   5.481   0.624   2.677
  165SAPE   C2618484   5.517   0.702   2.873
  165SAPE   H6R18485   5.424   0.662   2.917
  165SAPE   C2718486   5.602   0.787   2.975
  165SAPE   H7R18487   5.656   0.874   2.932
  165SAPE   H7S18488   5.669   0.708   3.014
  165SAPE   C2818489   5.510   0.829   3.083
  165SAPE   H8R18490   5.425   0.891   3.051
  165SAPE   C2918491   5.517   0.813   3.218
  165SAPE   H9R18492   5.428   0.856   3.267
  165SAPE  C21018493   5.614   0.735   3.301
  165SAPE  H10R18494   5.689   0.686   3.235
  165SAPE  H10S18495   5.563   0.649   3.350
  165SAPE  C21118496   5.671   0.835   3.400
  165SAPE  H11R18497   5.754   0.894   3.358
  165SAPE  C21218498   5.656   0.852   3.532
  165SAPE  H12R18499   5.718   0.924   3.588
  165SAPE  C21318500   5.545   0.788   3.619
  165SAPE  H13R18501   5.602   0.763   3.711
  165SAPE  H13S18502   5.499   0.695   3.580
  165SAPE  C21418503   5.431   0.881   3.657
  165SAPE  H14R18504   5.339   0.870   3.597
  165SAPE  C21518505   5.419   0.965   3.759
  165SAPE  H15R18506   5.332   1.032   3.757
  165SAPE  C21618507   5.537   1.005   3.856
  165SAPE  H16R18508   5.566   1.108   3.827
  165SAPE  H16S18509   5.631   0.946   3.843
  165SAPE  C21718510   5.501   0.995   4.012
  165SAPE  H17R18511   5.529   0.891   4.040
  165SAPE  H17S18512   5.393   1.005   4.033
  165SAPE  C21818513   5.579   1.088   4.113
  165SAPE  H18R18514   5.531   1.057   4.208
  165SAPE  H18S18515   5.558   1.191   4.077
  165SAPE  C21918516   5.725   1.055   4.099
  165SAPE  H19R18517   5.760   1.083   3.997
  165SAPE  H19S18518   5.739   0.945   4.098
  165SAPE  C22018519   5.823   1.120   4.192
  165SAPE  H20R18520   5.810   1.066   4.288
  165SAPE  H20S18521   5.820   1.231   4.202
  165SAPE  H20T18522   5.924   1.098   4.154
  165SAPE   C3318523   5.110   0.518   2.888
  165SAPE   H3X18524   5.202   0.461   2.915
  165SAPE   H3Y18525   5.053   0.457   2.815
  165SAPE   C3418526   5.035   0.535   3.018
  165SAPE   H4X18527   5.011   0.430   3.045
  165SAPE   H4Y18528   4.940   0.589   3.000
  165SAPE   C3518529   5.118   0.589   3.139
  165SAPE   H5X18530   5.185   0.675   3.117
  165SAPE   H5Y18531   5.178   0.513   3.194
  165SAPE   C3618532   5.019   0.644   3.242
  165SAPE   H6X18533   4.963   0.560   3.289
  165SAPE   H6Y18534   4.929   0.691   3.196
  165SAPE   C3718535   5.079   0.735   3.360
  165SAPE   H7X18536   5.102   0.833   3.313
  165SAPE   H7Y18537   5.169   0.688   3.404
  165SAPE   C3818538   4.980   0.741   3.475
  165SAPE   H8X18539   4.977   0.637   3.516
  165SAPE   H8Y18540   4.881   0.761   3.429
  165SAPE   C3918541   5.010   0.838   3.591
  165SAPE   H9X18542   4.940   0.924   3.586
  165SAPE   H9Y18543   5.116   0.868   3.574
  165SAPE  C31018544   5.006   0.767   3.725
  165SAPE  H10X18545   5.072   0.678   3.731
  165SAPE  H10Y18546   4.903   0.727   3.736
  165SAPE  C31118547   5.024   0.865   3.846
  165SAPE  H11X18548   4.951   0.948   3.839
  165SAPE  H11Y18549   5.129   0.901   3.841
  165SAPE  C31218550   5.010   0.784   3.977
  165SAPE  H12X18551   5.099   0.720   3.991
  165SAPE  H12Y18552   4.917   0.725   3.965
  165SAPE  C31318553   5.014   0.869   4.107
  165SAPE  H13X18554   4.917   0.924   4.115
  165SAPE  H13Y18555   5.107   0.929   4.097
  165SAPE  C31418556   5.036   0.784   4.235
  165SAPE  H14X18557   5.146   0.771   4.243
  165SAPE  H14Y18558   4.983   0.686   4.225
  165SAPE  C31518559   4.999   0.845   4.377
  165SAPE  H15X18560   4.983   0.954   4.367
  165SAPE  H15Y18561   5.089   0.819   4.438
  165SAPE  C31618562   4.891   0.768   4.448
  165SAPE  H16X18563   4.921   0.662   4.433
  165SAPE  H16Y18564   4.793   0.772   4.397
  165SAPE  C31718565   4.886   0.808   4.600
  165SAPE  H17X18566   4.856   0.915   4.607
  165SAPE  H17Y18567   4.987   0.798   4.645
  165SAPE  C31818568   4.783   0.726   4.678
  165SAPE  H18X18569   4.829   0.625   4.682
  165SAPE  H18Y18570   4.687   0.726   4.622
  165SAPE  H18Z18571   4.772   0.767   4.781
  166SAPE     N18572   0.293   5.871   2.313
  166SAPE   HN118573   0.368   5.885   2.242
  166SAPE   HN218574   0.326   5.899   2.408
  166SAPE   HN318575   0.278   5.768   2.314
  166SAPE   C1218576   0.171   5.928   2.254
  166SAPE  H12A18577   0.173   5.915   2.143
  166SAPE  H12B18578   0.159   6.038   2.262
  166SAPE   C1118579   0.050   5.848   2.311
  166SAPE  H11A18580   6.871   5.894   2.262
  166SAPE  H11B18581   0.043   5.877   2.418
  166SAPE     P18582   6.858   5.619   2.257
  166SAPE   O1318583   6.762   5.680   2.162
  166SAPE   O1418584   0.008   5.489   2.215
  166SAPE   O1218585   0.066   5.710   2.280
  166SAPE   O1118586   6.774   5.616   2.394
  166SAPE    C118587   6.638   5.651   2.412
  166SAPE    HA18588   6.584   5.645   2.315
  166SAPE    HB18589   6.579   5.582   2.477
  166SAPE    C218590   6.631   5.793   2.458
  166SAPE    HS18591   6.654   5.852   2.366
  166SAPE   O2118592   6.718   5.829   2.567
  166SAPE   C2118593   6.720   5.958   2.594
  166SAPE   O2218594   6.663   6.044   2.527
  166SAPE   C2218595   6.813   5.997   2.714
  166SAPE   H2R18596   6.856   5.901   2.749
  166SAPE   H2S18597   6.895   6.055   2.666
  166SAPE    C318598   6.476   5.832   2.493
  166SAPE    HX18599   6.421   5.801   2.401
  166SAPE    HY18600   6.456   5.940   2.508
  166SAPE   O3118601   6.436   5.750   2.601
  166SAPE   C3118602   6.419   5.812   2.716
  166SAPE   O3218603   6.421   5.933   2.729
  166SAPE   C3218604   6.387   5.713   2.825
  166SAPE   H2X18605   6.455   5.626   2.820
  166SAPE   H2Y18606   6.291   5.658   2.810
  166SAPE   C2318607   6.762   6.087   2.838
  166SAPE   H3R18608   6.697   6.009   2.884
  166SAPE   H3S18609   6.704   6.172   2.796
  166SAPE   C2418610   6.883   6.123   2.930
  166SAPE   H4R18611   0.031   6.028   2.931
  166SAPE   H4S18612   6.853   6.152   3.033
  166SAPE   C2518613   0.057   6.232   2.863
  166SAPE   H5R18614   0.003   6.300   2.795
  166SAPE   C2618615   0.193   6.233   2.862
  166SAPE   H6R18616   0.246   6.302   2.795
  166SAPE   C2718617   0.285   6.146   2.937
  166SAPE   H7R18618   0.233   6.081   3.011
  166SAPE   H7S18619   0.374   6.198   2.980
  166SAPE   C2818620   0.355   6.051   2.843
  166SAPE   H8R18621   0.318   6.036   2.741
  166SAPE   C2918622   0.453   5.971   2.882
  166SAPE   H9R18623   0.498   5.911   2.802
  166SAPE  C21018624   0.524   5.946   3.012
  166SAPE  H10R18625   0.516   5.837   3.028
  166SAPE  H10S18626   0.455   5.984   3.090
  166SAPE  C21118627   0.663   5.999   3.009
  166SAPE  H11R18628   0.711   5.991   2.911
  166SAPE  C21218629   0.729   6.057   3.113
  166SAPE  H12R18630   0.835   6.082   3.095
  166SAPE  C21318631   0.683   6.072   3.259
  166SAPE  H13R18632   0.591   6.018   3.289
  166SAPE  H13S18633   0.650   6.177   3.274
  166SAPE  C21418634   0.794   6.037   3.354
  166SAPE  H14R18635   0.857   5.956   3.315
  166SAPE  C21518636   0.820   6.096   3.470
  166SAPE  H15R18637   0.895   6.055   3.539
  166SAPE  C21618638   0.751   6.212   3.533
  166SAPE  H16R18639   0.692   6.266   3.455
  166SAPE  H16S18640   0.830   6.283   3.566
  166SAPE  C21718641   0.659   6.165   3.649
  166SAPE  H17R18642   0.701   6.084   3.712
  166SAPE  H17S18643   0.562   6.131   3.606
  166SAPE  C21818644   0.620   6.281   3.750
  166SAPE  H18R18645   0.546   6.338   3.690
  166SAPE  H18S18646   0.701   6.355   3.768
  166SAPE  C21918647   0.556   6.237   3.881
  166SAPE  H19R18648   0.622   6.162   3.929
  166SAPE  H19S18649   0.467   6.179   3.849
  166SAPE  C22018650   0.522   6.344   3.993
  166SAPE  H20R18651   0.448   6.294   4.060
  166SAPE  H20S18652   0.481   6.435   3.943
  166SAPE  H20T18653   0.612   6.369   4.051
  166SAPE   C3318654   6.387   5.771   2.966
  166SAPE   H3X18655   6.328   5.697   3.023
  166SAPE   H3Y18656   6.328   5.865   2.975
  166SAPE   C3418657   6.529   5.773   3.029
  166SAPE   H4X18658   6.604   5.823   2.964
  166SAPE   H4Y18659   6.568   5.669   3.034
  166SAPE   C3518660   6.549   5.839   3.160
  166SAPE   H5X18661   6.459   5.815   3.221
  166SAPE   H5Y18662   6.545   5.949   3.143
  166SAPE   C3618663   6.670   5.805   3.232
  166SAPE   H6X18664   6.758   5.831   3.170
  166SAPE   H6Y18665   6.673   5.695   3.242
  166SAPE   C3718666   6.686   5.871   3.366
  166SAPE   H7X18667   6.649   5.976   3.367
  166SAPE   H7Y18668   6.794   5.872   3.390
  166SAPE   C3818669   6.606   5.792   3.464
  166SAPE   H8X18670   6.626   5.683   3.460
  166SAPE   H8Y18671   6.497   5.811   3.460
  166SAPE   C3918672   6.648   5.817   3.605
  166SAPE   H9X18673   6.644   5.927   3.625
  166SAPE   H9Y18674   6.757   5.797   3.611
  166SAPE  C31018675   6.568   5.756   3.723
  166SAPE  H10X18676   6.560   5.647   3.704
  166SAPE  H10Y18677   6.464   5.795   3.720
  166SAPE  C31118678   6.621   5.798   3.862
  166SAPE  H11X18679   6.618   5.909   3.872
  166SAPE  H11Y18680   6.727   5.767   3.866
  166SAPE  C31218681   6.550   5.723   3.978
  166SAPE  H12X18682   6.611   5.745   4.068
  166SAPE  H12Y18683   6.553   5.614   3.957
  166SAPE  C31318684   6.408   5.756   4.005
  166SAPE  H13X18685   6.353   5.715   3.917
  166SAPE  H13Y18686   6.381   5.862   4.024
  166SAPE  C31418687   6.346   5.676   4.118
  166SAPE  H14X18688   6.351   5.568   4.093
  166SAPE  H14Y18689   6.236   5.693   4.123
  166SAPE  C31518690   6.415   5.695   4.257
  166SAPE  H15X18691   6.407   5.804   4.281
  166SAPE  H15Y18692   6.522   5.667   4.251
  166SAPE  C31618693   6.342   5.612   4.369
  166SAPE  H16X18694   6.234   5.634   4.350
  166SAPE  H16Y18695   6.359   5.654   4.470
  166SAPE  C31718696   6.366   5.462   4.358
  166SAPE  H17X18697   6.436   5.429   4.439
  166SAPE  H17Y18698   6.404   5.429   4.259
  166SAPE  C31818699   6.242   5.379   4.384
  166SAPE  H18X18700   6.154   5.410   4.323
  166SAPE  H18Y18701   6.204   5.400   4.487
  166SAPE  H18Z18702   6.261   5.273   4.359
  167SAPE     N18703   6.893   3.266   2.124
  167SAPE   HN118704   6.896   3.347   2.189
  167SAPE   HN218705   6.810   3.210   2.151
  167SAPE   HN318706   0.067   3.209   2.148
  167SAPE   C1218707   6.859   3.286   1.981
  167SAPE  H12A18708   6.778   3.215   1.952
  167SAPE  H12B18709   0.032   3.251   1.915
  167SAPE   C1118710   6.819   3.428   1.944
  167SAPE  H11A18711   6.756   3.411   1.854
  167SAPE  H11B18712   6.900   3.498   1.917
  167SAPE     P18713   6.706   3.633   2.049
  167SAPE   O1318714   6.819   3.715   2.102
  167SAPE   O1418715   6.640   3.670   1.924
  167SAPE   O1218716   6.733   3.475   2.043
  167SAPE   O1118717   6.600   3.635   2.164
  167SAPE    C118718   6.626   3.569   2.288
  167SAPE    HA18719   6.615   3.458   2.287
  167SAPE    HB18720   6.728   3.590   2.326
  167SAPE    C218721   6.522   3.622   2.386
  167SAPE    HS18722   6.424   3.603   2.337
  167SAPE   O2118723   6.543   3.768   2.410
  167SAPE   C2118724   6.439   3.836   2.441
  167SAPE   O2218725   6.323   3.800   2.449
  167SAPE   C2218726   6.498   3.976   2.485
  167SAPE   H2R18727   6.576   3.953   2.560
  167SAPE   H2S18728   6.559   4.019   2.403
  167SAPE    C318729   6.531   3.549   2.515
  167SAPE    HX18730   6.514   3.441   2.498
  167SAPE    HY18731   6.439   3.573   2.573
  167SAPE   O3118732   6.660   3.561   2.582
  167SAPE   C3118733   6.660   3.656   2.678
  167SAPE   O3218734   6.561   3.709   2.724
  167SAPE   C3218735   6.806   3.687   2.704
  167SAPE   H2X18736   6.838   3.776   2.646
  167SAPE   H2Y18737   6.864   3.600   2.666
  167SAPE   C2318738   6.384   4.074   2.529
  167SAPE   H3R18739   6.298   4.081   2.459
  167SAPE   H3S18740   6.432   4.172   2.548
  167SAPE   C2418741   6.330   4.024   2.667
  167SAPE   H4R18742   6.299   3.917   2.668
  167SAPE   H4S18743   6.241   4.090   2.679
  167SAPE   C2518744   6.430   4.034   2.784
  167SAPE   H5R18745   6.507   3.955   2.782
  167SAPE   C2618746   6.437   4.147   2.865
  167SAPE   H6R18747   6.517   4.152   2.941
  167SAPE   C2718748   6.342   4.264   2.870
  167SAPE   H7R18749   6.252   4.223   2.921
  167SAPE   H7S18750   6.313   4.276   2.763
  167SAPE   C2818751   6.404   4.379   2.936
  167SAPE   H8R18752   6.508   4.403   2.912
  167SAPE   C2918753   6.341   4.456   3.025
  167SAPE   H9R18754   6.400   4.539   3.067
  167SAPE  C21018755   6.198   4.444   3.073
  167SAPE  H10R18756   6.175   4.339   3.100
  167SAPE  H10S18757   6.131   4.471   2.988
  167SAPE  C21118758   6.161   4.539   3.184
  167SAPE  H11R18759   6.124   4.639   3.156
  167SAPE  C21218760   6.179   4.514   3.317
  167SAPE  H12R18761   6.152   4.588   3.394
  167SAPE  C21318762   6.242   4.387   3.371
  167SAPE  H13R18763   6.268   4.309   3.296
  167SAPE  H13S18764   6.180   4.340   3.450
  167SAPE  C21418765   6.377   4.419   3.432
  167SAPE  H14R18766   6.445   4.483   3.375
  167SAPE  C21518767   6.424   4.382   3.555
  167SAPE  H15R18768   6.525   4.415   3.582
  167SAPE  C21618769   6.355   4.289   3.653
  167SAPE  H16R18770   6.426   4.204   3.664
  167SAPE  H16S18771   6.266   4.248   3.602
  167SAPE  C21718772   6.318   4.337   3.792
  167SAPE  H17R18773   6.286   4.244   3.843
  167SAPE  H17S18774   6.232   4.407   3.792
  167SAPE  C21818775   6.431   4.387   3.873
  167SAPE  H18R18776   6.458   4.479   3.816
  167SAPE  H18S18777   6.521   4.324   3.856
  167SAPE  C21918778   6.405   4.420   4.023
  167SAPE  H19R18779   6.345   4.514   4.019
  167SAPE  H19S18780   6.500   4.450   4.074
  167SAPE  C22018781   6.325   4.320   4.103
  167SAPE  H20R18782   6.364   4.216   4.093
  167SAPE  H20S18783   6.223   4.314   4.058
  167SAPE  H20T18784   6.319   4.337   4.212
  167SAPE   C3318785   6.851   3.706   2.849
  167SAPE   H3X18786   0.041   3.755   2.852
  167SAPE   H3Y18787   6.865   3.608   2.901
  167SAPE   C3418788   6.753   3.800   2.931
  167SAPE   H4X18789   6.649   3.762   2.939
  167SAPE   H4Y18790   6.747   3.901   2.886
  167SAPE   C3518791   6.790   3.811   3.082
  167SAPE   H5X18792   6.724   3.889   3.124
  167SAPE   H5Y18793   6.898   3.838   3.088
  167SAPE   C3618794   6.763   3.674   3.159
  167SAPE   H6X18795   6.855   3.612   3.165
  167SAPE   H6Y18796   6.676   3.619   3.117
  167SAPE   C3718797   6.751   3.690   3.309
  167SAPE   H7X18798   6.684   3.616   3.358
  167SAPE   H7Y18799   6.714   3.789   3.344
  167SAPE   C3818800   6.886   3.669   3.369
  167SAPE   H8X18801   0.036   3.754   3.329
  167SAPE   H8Y18802   0.010   3.569   3.334
  167SAPE   C3918803   6.889   3.674   3.523
  167SAPE   H9X18804   6.796   3.630   3.564
  167SAPE   H9Y18805   6.903   3.778   3.561
  167SAPE  C31018806   0.106   3.592   3.571
  167SAPE  H10X18807   0.195   3.626   3.514
  167SAPE  H10Y18808   0.087   3.488   3.537
  167SAPE  C31118809   0.136   3.600   3.727
  167SAPE  H11X18810   0.116   3.707   3.749
  167SAPE  H11Y18811   0.241   3.568   3.742
  167SAPE  C31218812   0.033   3.516   3.812
  167SAPE  H12X18813   0.050   3.410   3.784
  167SAPE  H12Y18814   6.841   3.548   3.781
  167SAPE  C31318815   0.056   3.529   3.959
  167SAPE  H13X18816   6.876   3.486   4.009
  167SAPE  H13Y18817   0.046   3.638   3.974
  167SAPE  C31418818   0.185   3.483   4.027
  167SAPE  H14X18819   0.269   3.543   3.985
  167SAPE  H14Y18820   0.198   3.373   4.021
  167SAPE  C31518821   0.182   3.490   4.182
  167SAPE  H15X18822   0.278   3.450   4.219
  167SAPE  H15Y18823   0.108   3.423   4.231
  167SAPE  C31618824   0.173   3.637   4.228
  167SAPE  H16X18825   0.081   3.682   4.185
  167SAPE  H16Y18826   0.258   3.694   4.185
  167SAPE  C31718827   0.173   3.665   4.375
  167SAPE  H17X18828   0.123   3.584   4.433
  167SAPE  H17Y18829   0.127   3.763   4.397
  167SAPE  C31818830   0.317   3.679   4.425
  167SAPE  H18X18831   0.366   3.755   4.360
  167SAPE  H18Y18832   0.363   3.578   4.415
  167SAPE  H18Z18833   0.321   3.702   4.533
  168SAPE     N18834   2.791   5.951   2.254
  168SAPE   HN118835   2.762   5.906   2.165
  168SAPE   HN218836   2.712   6.012   2.282
  168SAPE   HN318837   2.877   6.006   2.233
  168SAPE   C1218838   2.818   5.857   2.366
  168SAPE  H12A18839   2.837   5.910   2.462
  168SAPE  H12B18840   2.909   5.795   2.345
  168SAPE   C1118841   2.709   5.748   2.380
  168SAPE  H11A18842   2.732   5.691   2.473
  168SAPE  H11B18843   2.716   5.681   2.293
  168SAPE     P18844   2.459   5.750   2.345
  168SAPE   O1318845   2.431   5.821   2.220
  168SAPE   O1418846   2.457   5.602   2.342
  168SAPE   O1218847   2.588   5.806   2.408
  168SAPE   O1118848   2.355   5.789   2.446
  168SAPE    C118849   2.323   5.924   2.468
  168SAPE    HA18850   2.390   6.000   2.424
  168SAPE    HB18851   2.220   5.945   2.431
  168SAPE    C218852   2.313   5.944   2.621
  168SAPE    HS18853   2.285   6.050   2.639
  168SAPE   O2118854   2.434   5.915   2.697
  168SAPE   C2118855   2.534   5.994   2.665
  168SAPE   O2218856   2.530   6.098   2.599
  168SAPE   C2218857   2.664   5.937   2.722
  168SAPE   H2R18858   2.650   5.887   2.820
  168SAPE   H2S18859   2.693   5.855   2.653
  168SAPE    C318860   2.200   5.849   2.681
  168SAPE    HX18861   2.204   5.749   2.634
  168SAPE    HY18862   2.102   5.898   2.665
  168SAPE   O3118863   2.224   5.825   2.824
  168SAPE   C3118864   2.160   5.899   2.909
  168SAPE   O3218865   2.088   5.997   2.882
  168SAPE   C3218866   2.193   5.853   3.053
  168SAPE   H2X18867   2.215   5.943   3.115
  168SAPE   H2Y18868   2.292   5.803   3.046
  168SAPE   C2318869   2.779   6.043   2.740
  168SAPE   H3R18870   2.732   6.129   2.794
  168SAPE   H3S18871   2.802   6.076   2.636
  168SAPE   C2418872   2.906   5.996   2.809
  168SAPE   H4R18873   2.895   5.986   2.919
  168SAPE   H4S18874   2.982   6.076   2.808
  168SAPE   C2518875   2.948   5.877   2.740
  168SAPE   H5R18876   2.995   5.884   2.641
  168SAPE   C2618877   2.928   5.758   2.796
  168SAPE   H6R18878   2.961   5.676   2.731
  168SAPE   C2718879   2.864   5.727   2.924
  168SAPE   H7R18880   2.755   5.722   2.903
  168SAPE   H7S18881   2.870   5.808   3.001
  168SAPE   C2818882   2.913   5.594   2.985
  168SAPE   H8R18883   2.892   5.504   2.925
  168SAPE   C2918884   2.975   5.591   3.106
  168SAPE   H9R18885   3.020   5.493   3.130
  168SAPE  C21018886   3.005   5.698   3.209
  168SAPE  H10R18887   2.951   5.792   3.181
  168SAPE  H10S18888   3.111   5.731   3.202
  168SAPE  C21118889   2.965   5.661   3.344
  168SAPE  H11R18890   2.889   5.582   3.350
  168SAPE  C21218891   3.029   5.710   3.455
  168SAPE  H12R18892   2.991   5.680   3.554
  168SAPE  C21318893   3.135   5.810   3.464
  168SAPE  H13R18894   3.218   5.788   3.394
  168SAPE  H13S18895   3.180   5.811   3.565
  168SAPE  C21418896   3.088   5.955   3.438
  168SAPE  H14R18897   3.078   5.985   3.332
  168SAPE  C21518898   3.055   6.049   3.531
  168SAPE  H15R18899   3.022   6.145   3.488
  168SAPE  C21618900   3.041   6.037   3.678
  168SAPE  H16R18901   3.069   5.938   3.720
  168SAPE  H16S18902   2.937   6.051   3.715
  168SAPE  C21718903   3.136   6.124   3.757
  168SAPE  H17R18904   3.114   6.227   3.721
  168SAPE  H17S18905   3.239   6.094   3.730
  168SAPE  C21818906   3.134   6.118   3.909
  168SAPE  H18R18907   3.141   6.011   3.939
  168SAPE  H18S18908   3.036   6.149   3.950
  168SAPE  C21918909   3.247   6.209   3.966
  168SAPE  H19R18910   3.228   6.310   3.924
  168SAPE  H19S18911   3.336   6.168   3.915
  168SAPE  C22018912   3.255   6.220   4.120
  168SAPE  H20R18913   3.303   6.130   4.166
  168SAPE  H20S18914   3.152   6.210   4.160
  168SAPE  H20T18915   3.307   6.306   4.167
  168SAPE   C3318916   2.091   5.766   3.131
  168SAPE   H3X18917   2.079   5.672   3.073
  168SAPE   H3Y18918   1.992   5.816   3.139
  168SAPE   C3418919   2.132   5.737   3.271
  168SAPE   H4X18920   2.240   5.715   3.258
  168SAPE   H4Y18921   2.082   5.644   3.306
  168SAPE   C3518922   2.096   5.861   3.361
  168SAPE   H5X18923   1.985   5.857   3.359
  168SAPE   H5Y18924   2.134   5.953   3.314
  168SAPE   C3618925   2.149   5.854   3.504
  168SAPE   H6X18926   2.127   5.754   3.547
  168SAPE   H6Y18927   2.089   5.925   3.565
  168SAPE   C3718928   2.298   5.886   3.529
  168SAPE   H7X18929   2.304   5.993   3.500
  168SAPE   H7Y18930   2.354   5.823   3.456
  168SAPE   C3818931   2.358   5.871   3.668
  168SAPE   H8X18932   2.355   5.763   3.693
  168SAPE   H8Y18933   2.292   5.918   3.744
  168SAPE   C3918934   2.498   5.933   3.672
  168SAPE   H9X18935   2.504   6.044   3.681
  168SAPE   H9Y18936   2.557   5.901   3.583
  168SAPE  C31018937   2.585   5.875   3.787
  168SAPE  H10X18938   2.591   5.766   3.766
  168SAPE  H10Y18939   2.531   5.875   3.884
  168SAPE  C31118940   2.725   5.937   3.792
  168SAPE  H11X18941   2.720   6.042   3.830
  168SAPE  H11Y18942   2.768   5.929   3.691
  168SAPE  C31218943   2.819   5.863   3.889
  168SAPE  H12X18944   2.758   5.839   3.979
  168SAPE  H12Y18945   2.907   5.926   3.914
  168SAPE  C31318946   2.881   5.728   3.843
  168SAPE  H13X18947   2.981   5.743   3.798
  168SAPE  H13Y18948   2.817   5.681   3.765
  168SAPE  C31418949   2.905   5.631   3.957
  168SAPE  H14X18950   2.963   5.690   4.031
  168SAPE  H14Y18951   2.966   5.540   3.938
  168SAPE  C31518952   2.782   5.574   4.024
  168SAPE  H15X18953   2.723   5.531   3.940
  168SAPE  H15Y18954   2.713   5.645   4.072
  168SAPE  C31618955   2.812   5.458   4.120
  168SAPE  H16X18956   2.837   5.371   4.056
  168SAPE  H16Y18957   2.717   5.424   4.168
  168SAPE  C31718958   2.921   5.486   4.223
  168SAPE  H17X18959   2.902   5.579   4.280
  168SAPE  H17Y18960   3.012   5.510   4.163
  168SAPE  C31818961   2.951   5.376   4.317
  168SAPE  H18X18962   3.013   5.412   4.401
  168SAPE  H18Y18963   3.003   5.295   4.261
  168SAPE  H18Z18964   2.859   5.327   4.355
  169SAPE     N18965   6.390   3.176   1.941
  169SAPE   HN118966   6.443   3.197   1.854
  169SAPE   HN218967   6.417   3.080   1.972
  169SAPE   HN318968   6.289   3.180   1.915
  169SAPE   C1218969   6.443   3.283   2.039
  169SAPE  H12A18970   6.395   3.381   2.017
  169SAPE  H12B18971   6.553   3.291   2.030
  169SAPE   C1118972   6.408   3.251   2.189
  169SAPE  H11A18973   6.297   3.245   2.185
  169SAPE  H11B18974   6.437   3.328   2.264
  169SAPE     P18975   6.591   3.091   2.284
  169SAPE   O1318976   6.585   2.970   2.369
  169SAPE   O1418977   6.699   3.096   2.187
  169SAPE   O1218978   6.452   3.115   2.220
  169SAPE   O1118979   6.609   3.205   2.393
  169SAPE    C118980   6.712   3.213   2.487
  169SAPE    HA18981   6.807   3.166   2.455
  169SAPE    HB18982   6.732   3.321   2.503
  169SAPE    C218983   6.668   3.153   2.620
  169SAPE    HS18984   6.630   3.051   2.596
  169SAPE   O2118985   6.568   3.239   2.677
  169SAPE   C2118986   6.485   3.176   2.764
  169SAPE   O2218987   6.492   3.059   2.796
  169SAPE   C2218988   6.370   3.268   2.820
  169SAPE   H2R18989   6.307   3.274   2.729
  169SAPE   H2S18990   6.318   3.208   2.897
  169SAPE    C318991   6.792   3.146   2.721
  169SAPE    HX18992   6.810   3.254   2.739
  169SAPE    HY18993   6.878   3.098   2.671
  169SAPE   O3118994   6.768   3.087   2.849
  169SAPE   C3118995   6.770   2.958   2.844
  169SAPE   O3218996   6.779   2.889   2.738
  169SAPE   C3218997   6.769   2.911   2.989
  169SAPE   H2X18998   6.665   2.898   3.026
  169SAPE   H2Y18999   6.828   2.984   3.049
  169SAPE   C2319000   6.429   3.402   2.872
  169SAPE   H3R19001   6.349   3.477   2.891
  169SAPE   H3S19002   6.491   3.445   2.791
  169SAPE   C2419003   6.514   3.397   3.004
  169SAPE   H4R19004   6.567   3.492   3.022
  169SAPE   H4S19005   6.583   3.312   2.987
  169SAPE   C2519006   6.424   3.361   3.120
  169SAPE   H5R19007   6.349   3.437   3.147
  169SAPE   C2619008   6.440   3.257   3.202
  169SAPE   H6R19009   6.360   3.234   3.275
  169SAPE   C2719010   6.557   3.165   3.195
  169SAPE   H7R19011   6.653   3.214   3.221
  169SAPE   H7S19012   6.580   3.129   3.092
  169SAPE   C2819013   6.523   3.045   3.283
  169SAPE   H8R19014   6.448   2.973   3.247
  169SAPE   C2919015   6.575   3.016   3.404
  169SAPE   H9R19016   6.547   2.921   3.451
  169SAPE  C21019017   6.667   3.111   3.491
  169SAPE  H10R19018   6.691   3.199   3.429
  169SAPE  H10S19019   6.767   3.064   3.487
  169SAPE  C21119020   6.615   3.147   3.626
  169SAPE  H11R19021   6.508   3.168   3.621
  169SAPE  C21219022   6.682   3.162   3.737
  169SAPE  H12R19023   6.613   3.194   3.817
  169SAPE  C21319024   6.825   3.131   3.764
  169SAPE  H13R19025   6.843   3.183   3.860
  169SAPE  H13S19026   6.881   3.180   3.681
  169SAPE  C21419027   6.859   2.984   3.762
  169SAPE  H14R19028   6.809   2.932   3.679
  169SAPE  C21519029   0.015   2.915   3.853
  169SAPE  H15R19030   0.030   2.810   3.825
  169SAPE  C21619031   0.068   2.970   3.979
  169SAPE  H16R19032   0.106   3.074   3.967
  169SAPE  H16S19033   0.147   2.898   4.011
  169SAPE  C21719034   6.859   2.959   4.080
  169SAPE  H17R19035   6.834   2.851   4.088
  169SAPE  H17S19036   6.767   3.013   4.049
  169SAPE  C21819037   6.897   3.004   4.231
  169SAPE  H18R19038   0.080   2.945   4.251
  169SAPE  H18S19039   6.820   2.966   4.302
  169SAPE  C21919040   0.006   3.151   4.244
  169SAPE  H19R19041   6.827   3.213   4.218
  169SAPE  H19S19042   0.095   3.178   4.183
  169SAPE  C22019043   0.033   3.184   4.394
  169SAPE  H20R19044   6.871   3.142   4.468
  169SAPE  H20S19045   0.021   3.294   4.403
  169SAPE  H20T19046   0.134   3.141   4.412
  169SAPE   C3319047   6.842   2.776   2.996
  169SAPE   H3X19048   0.036   2.782   2.957
  169SAPE   H3Y19049   6.786   2.694   2.946
  169SAPE   C3419050   6.863   2.741   3.148
  169SAPE   H4X19051   0.001   2.828   3.197
  169SAPE   H4Y19052   0.028   2.659   3.139
  169SAPE   C3519053   6.746   2.703   3.236
  169SAPE   H5X19054   6.710   2.601   3.211
  169SAPE   H5Y19055   6.666   2.778   3.219
  169SAPE   C3619056   6.794   2.697   3.386
  169SAPE   H6X19057   6.788   2.803   3.419
  169SAPE   H6Y19058   6.901   2.667   3.387
  169SAPE   C3719059   6.714   2.612   3.483
  169SAPE   H7X19060   6.715   2.509   3.443
  169SAPE   H7Y19061   6.608   2.648   3.487
  169SAPE   C3819062   6.772   2.624   3.620
  169SAPE   H8X19063   6.781   2.728   3.658
  169SAPE   H8Y19064   6.875   2.584   3.631
  169SAPE   C3919065   6.691   2.560   3.725
  169SAPE   H9X19066   6.674   2.450   3.716
  169SAPE   H9Y19067   6.592   2.609   3.734
  169SAPE  C31019068   6.733   2.568   3.873
  169SAPE  H10X19069   6.722   2.671   3.914
  169SAPE  H10Y19070   6.839   2.536   3.871
  169SAPE  C31119071   6.673   2.466   3.974
  169SAPE  H11X19072   6.711   2.363   3.957
  169SAPE  H11Y19073   6.570   2.466   3.934
  169SAPE  C31219074   6.676   2.511   4.128
  169SAPE  H12X19075   6.633   2.423   4.181
  169SAPE  H12Y19076   6.607   2.597   4.143
  169SAPE  C31319077   6.810   2.526   4.196
  169SAPE  H13X19078   6.867   2.605   4.143
  169SAPE  H13Y19079   6.869   2.435   4.172
  169SAPE  C31419080   6.813   2.556   4.347
  169SAPE  H14X19081   0.004   2.595   4.375
  169SAPE  H14Y19082   6.798   2.454   4.389
  169SAPE  C31519083   6.700   2.645   4.399
  169SAPE  H15X19084   6.598   2.604   4.381
  169SAPE  H15Y19085   6.710   2.752   4.370
  169SAPE  C31619086   6.717   2.647   4.554
  169SAPE  H16X19087   6.824   2.676   4.563
  169SAPE  H16Y19088   6.694   2.544   4.588
  169SAPE  C31719089   6.626   2.733   4.630
  169SAPE  H17X19090   6.521   2.704   4.608
  169SAPE  H17Y19091   6.635   2.833   4.582
  169SAPE  C31819092   6.651   2.739   4.784
  169SAPE  H18X19093   6.640   2.640   4.833
  169SAPE  H18Y19094   6.588   2.820   4.826
  169SAPE  H18Z19095   6.757   2.772   4.783
  170SAPE     N19096   0.963   3.916   2.181
  170SAPE   HN119097   1.035   3.850   2.145
  170SAPE   HN219098   0.887   3.921   2.111
  170SAPE   HN319099   1.002   4.012   2.188
  170SAPE   C1219100   0.928   3.876   2.325
  170SAPE  H12A19101   1.019   3.896   2.384
  170SAPE  H12B19102   0.900   3.770   2.307
  170SAPE   C1119103   0.811   3.959   2.380
  170SAPE  H11A19104   0.833   4.066   2.360
  170SAPE  H11B19105   0.795   3.941   2.489
  170SAPE     P19106   0.627   3.995   2.198
  170SAPE   O1319107   0.731   4.006   2.097
  170SAPE   O1419108   0.512   3.908   2.162
  170SAPE   O1219109   0.692   3.922   2.318
  170SAPE   O1119110   0.577   4.133   2.255
  170SAPE    C119111   0.459   4.142   2.326
  170SAPE    HA19112   0.421   4.246   2.321
  170SAPE    HB19113   0.378   4.072   2.295
  170SAPE    C219114   0.478   4.123   2.481
  170SAPE    HS19115   0.578   4.162   2.511
  170SAPE   O2119116   0.474   3.982   2.498
  170SAPE   C2119117   0.542   3.932   2.595
  170SAPE   O2219118   0.610   3.993   2.676
  170SAPE   C2219119   0.530   3.774   2.590
  170SAPE   H2R19120   0.462   3.745   2.507
  170SAPE   H2S19121   0.630   3.740   2.557
  170SAPE    C319122   0.369   4.202   2.558
  170SAPE    HX19123   0.274   4.155   2.525
  170SAPE    HY19124   0.379   4.308   2.525
  170SAPE   O3119125   0.380   4.195   2.702
  170SAPE   C3119126   0.488   4.238   2.753
  170SAPE   O3219127   0.570   4.310   2.700
  170SAPE   C3219128   0.497   4.199   2.896
  170SAPE   H2X19129   0.600   4.159   2.901
  170SAPE   H2Y19130   0.417   4.131   2.932
  170SAPE   C2319131   0.473   3.712   2.716
  170SAPE   H3R19132   0.515   3.767   2.803
  170SAPE   H3S19133   0.505   3.606   2.714
  170SAPE   C2419134   0.325   3.748   2.728
  170SAPE   H4R19135   0.311   3.852   2.692
  170SAPE   H4S19136   0.292   3.744   2.834
  170SAPE   C2519137   0.245   3.654   2.630
  170SAPE   H5R19138   0.228   3.686   2.526
  170SAPE   C2619139   0.226   3.522   2.655
  170SAPE   H6R19140   0.159   3.469   2.586
  170SAPE   C2719141   0.269   3.448   2.777
  170SAPE   H7R19142   0.296   3.519   2.858
  170SAPE   H7S19143   0.367   3.397   2.766
  170SAPE   C2819144   0.170   3.341   2.800
  170SAPE   H8R19145   0.154   3.272   2.716
  170SAPE   C2919146   0.112   3.318   2.924
  170SAPE   H9R19147   0.050   3.227   2.929
  170SAPE  C21019148   0.134   3.400   3.050
  170SAPE  H10R19149   0.117   3.509   3.038
  170SAPE  H10S19150   0.243   3.402   3.073
  170SAPE  C21119151   0.059   3.328   3.165
  170SAPE  H11R19152   6.859   3.329   3.151
  170SAPE  C21219153   0.116   3.264   3.266
  170SAPE  H12R19154   0.042   3.225   3.337
  170SAPE  C21319155   0.269   3.236   3.278
  170SAPE  H13R19156   0.316   3.234   3.177
  170SAPE  H13S19157   0.289   3.138   3.327
  170SAPE  C21419158   0.333   3.342   3.374
  170SAPE  H14R19159   0.395   3.419   3.326
  170SAPE  C21519160   0.326   3.340   3.507
  170SAPE  H15R19161   0.379   3.412   3.570
  170SAPE  C21619162   0.257   3.231   3.596
  170SAPE  H16R19163   0.181   3.174   3.538
  170SAPE  H16S19164   0.200   3.281   3.677
  170SAPE  C21719165   0.371   3.148   3.665
  170SAPE  H17R19166   0.463   3.138   3.603
  170SAPE  H17S19167   0.334   3.047   3.690
  170SAPE  C21819168   0.423   3.210   3.797
  170SAPE  H18R19169   0.357   3.290   3.836
  170SAPE  H18S19170   0.523   3.256   3.787
  170SAPE  C21919171   0.426   3.103   3.912
  170SAPE  H19R19172   0.324   3.062   3.927
  170SAPE  H19S19173   0.465   3.159   3.999
  170SAPE  C22019174   0.534   2.995   3.899
  170SAPE  H20R19175   0.618   3.014   3.828
  170SAPE  H20S19176   0.484   2.906   3.854
  170SAPE  H20T19177   0.572   2.960   3.996
  170SAPE   C3319178   0.488   4.320   2.992
  170SAPE   H3X19179   0.555   4.405   2.967
  170SAPE   H3Y19180   0.521   4.279   3.090
  170SAPE   C3419181   0.348   4.380   3.012
  170SAPE   H4X19182   0.270   4.304   3.033
  170SAPE   H4Y19183   0.326   4.426   2.914
  170SAPE   C3519184   0.341   4.491   3.113
  170SAPE   H5X19185   0.262   4.555   3.069
  170SAPE   H5Y19186   0.436   4.547   3.111
  170SAPE   C3619187   0.311   4.449   3.258
  170SAPE   H6X19188   0.350   4.352   3.294
  170SAPE   H6Y19189   0.202   4.426   3.265
  170SAPE   C3719190   0.352   4.563   3.363
  170SAPE   H7X19191   0.285   4.643   3.326
  170SAPE   H7Y19192   0.455   4.602   3.343
  170SAPE   C3819193   0.331   4.524   3.511
  170SAPE   H8X19194   0.385   4.430   3.534
  170SAPE   H8Y19195   0.222   4.505   3.521
  170SAPE   C3919196   0.380   4.630   3.613
  170SAPE   H9X19197   0.325   4.727   3.621
  170SAPE   H9Y19198   0.478   4.668   3.578
  170SAPE  C31019199   0.393   4.570   3.761
  170SAPE  H10X19200   0.391   4.655   3.833
  170SAPE  H10Y19201   0.485   4.514   3.790
  170SAPE  C31119202   0.281   4.479   3.816
  170SAPE  H11X19203   0.269   4.386   3.756
  170SAPE  H11Y19204   0.191   4.543   3.832
  170SAPE  C31219205   0.325   4.442   3.966
  170SAPE  H12X19206   0.385   4.524   4.011
  170SAPE  H12Y19207   0.374   4.343   3.973
  170SAPE  C31319208   0.193   4.443   4.041
  170SAPE  H13X19209   0.147   4.544   4.045
  170SAPE  H13Y19210   0.233   4.429   4.144
  170SAPE  C31419211   0.100   4.326   4.017
  170SAPE  H14X19212   0.160   4.234   4.030
  170SAPE  H14Y19213   0.070   4.340   3.911
  170SAPE  C31519214   6.891   4.342   4.111
  170SAPE  H15X19215   6.842   4.437   4.078
  170SAPE  H15Y19216   0.017   4.349   4.216
  170SAPE  C31619217   6.771   4.242   4.104
  170SAPE  H16X19218   6.793   4.159   4.034
  170SAPE  H16Y19219   6.690   4.285   4.041
  170SAPE  C31719220   6.724   4.188   4.229
  170SAPE  H17X19221   6.814   4.147   4.280
  170SAPE  H17Y19222   6.645   4.111   4.220
  170SAPE  C31819223   6.675   4.284   4.337
  170SAPE  H18X19224   6.576   4.326   4.311
  170SAPE  H18Y19225   6.739   4.372   4.361
  170SAPE  H18Z19226   6.661   4.222   4.428
  171SAPE     N19227   0.525   2.783   1.905
  171SAPE   HN119228   0.428   2.773   1.940
  171SAPE   HN219229   0.535   2.730   1.816
  171SAPE   HN319230   0.592   2.746   1.975
  171SAPE   C1219231   0.550   2.928   1.884
  171SAPE  H12A19232   0.476   2.960   1.808
  171SAPE  H12B19233   0.652   2.940   1.842
  171SAPE   C1119234   0.533   3.003   2.008
  171SAPE  H11A19235   0.578   3.103   1.995
  171SAPE  H11B19236   0.584   2.950   2.091
  171SAPE     P19237   0.338   3.078   2.169
  171SAPE   O1319238   0.422   3.192   2.201
  171SAPE   O1419239   0.193   3.109   2.147
  171SAPE   O1219240   0.394   3.020   2.035
  171SAPE   O1119241   0.346   2.971   2.281
  171SAPE    C119242   0.465   2.939   2.357
  171SAPE    HA19243   0.510   2.848   2.310
  171SAPE    HB19244   0.541   3.020   2.347
  171SAPE    C219245   0.425   2.916   2.506
  171SAPE    HS19246   0.523   2.901   2.557
  171SAPE   O2119247   0.333   2.803   2.493
  171SAPE   C2119248   0.349   2.724   2.595
  171SAPE   O2219249   0.443   2.727   2.673
  171SAPE   C2219250   0.229   2.628   2.616
  171SAPE   H2R19251   0.136   2.673   2.575
  171SAPE   H2S19252   0.238   2.535   2.555
  171SAPE    C319253   0.349   3.044   2.560
  171SAPE    HX19254   0.245   3.054   2.524
  171SAPE    HY19255   0.406   3.130   2.519
  171SAPE   O3119256   0.359   3.052   2.708
  171SAPE   C3119257   0.277   2.981   2.781
  171SAPE   O3219258   0.184   2.912   2.742
  171SAPE   C3219259   0.311   3.003   2.928
  171SAPE   H2X19260   0.214   3.036   2.972
  171SAPE   H2Y19261   0.384   3.086   2.938
  171SAPE   C2319262   0.207   2.590   2.760
  171SAPE   H3R19263   0.166   2.683   2.803
  171SAPE   H3S19264   0.299   2.566   2.816
  171SAPE   C2419265   0.089   2.490   2.781
  171SAPE   H4R19266   6.897   2.526   2.754
  171SAPE   H4S19267   0.086   2.483   2.892
  171SAPE   C2519268   0.115   2.354   2.720
  171SAPE   H5R19269   0.117   2.352   2.610
  171SAPE   C2619270   0.133   2.243   2.788
  171SAPE   H6R19271   0.143   2.146   2.739
  171SAPE   C2719272   0.137   2.246   2.942
  171SAPE   H7R19273   0.221   2.305   2.985
  171SAPE   H7S19274   0.168   2.140   2.955
  171SAPE   C2819275   0.008   2.271   3.011
  171SAPE   H8R19276   6.828   2.252   2.951
  171SAPE   C2919277   6.907   2.314   3.140
  171SAPE   H9R19278   6.809   2.323   3.190
  171SAPE  C21019279   0.115   2.327   3.236
  171SAPE  H10R19280   0.142   2.435   3.237
  171SAPE  H10S19281   0.200   2.263   3.204
  171SAPE  C21119282   0.065   2.303   3.376
  171SAPE  H11R19283   0.013   2.387   3.425
  171SAPE  C21219284   0.085   2.203   3.464
  171SAPE  H12R19285   0.034   2.217   3.561
  171SAPE  C21319286   0.147   2.069   3.436
  171SAPE  H13R19287   0.251   2.069   3.473
  171SAPE  H13S19288   0.166   2.069   3.327
  171SAPE  C21419289   0.076   1.944   3.471
  171SAPE  H14R19290   6.877   1.956   3.491
  171SAPE  C21519291   0.130   1.821   3.474
  171SAPE  H15R19292   0.075   1.729   3.498
  171SAPE  C21619293   0.272   1.792   3.441
  171SAPE  H16R19294   0.312   1.868   3.371
  171SAPE  H16S19295   0.275   1.691   3.393
  171SAPE  C21719296   0.363   1.785   3.570
  171SAPE  H17R19297   0.325   1.733   3.660
  171SAPE  H17S19298   0.376   1.890   3.604
  171SAPE  C21819299   0.505   1.725   3.544
  171SAPE  H18R19300   0.548   1.764   3.449
  171SAPE  H18S19301   0.479   1.619   3.525
  171SAPE  C21919302   0.607   1.735   3.653
  171SAPE  H19R19303   0.645   1.838   3.668
  171SAPE  H19S19304   0.695   1.674   3.627
  171SAPE  C22019305   0.556   1.689   3.793
  171SAPE  H20R19306   0.474   1.752   3.836
  171SAPE  H20S19307   0.638   1.696   3.867
  171SAPE  H20T19308   0.512   1.587   3.793
  171SAPE   C3319309   0.356   2.870   2.988
  171SAPE   H3X19310   0.464   2.849   2.971
  171SAPE   H3Y19311   0.301   2.783   2.947
  171SAPE   C3419312   0.334   2.868   3.143
  171SAPE   H4X19313   0.225   2.881   3.154
  171SAPE   H4Y19314   0.397   2.946   3.192
  171SAPE   C3519315   0.375   2.735   3.208
  171SAPE   H5X19316   0.483   2.724   3.231
  171SAPE   H5Y19317   0.342   2.656   3.137
  171SAPE   C3619318   0.299   2.724   3.339
  171SAPE   H6X19319   0.195   2.720   3.302
  171SAPE   H6Y19320   0.330   2.811   3.401
  171SAPE   C3719321   0.328   2.594   3.414
  171SAPE   H7X19322   0.436   2.576   3.432
  171SAPE   H7Y19323   0.302   2.503   3.355
  171SAPE   C3819324   0.249   2.585   3.550
  171SAPE   H8X19325   0.174   2.504   3.543
  171SAPE   H8Y19326   0.189   2.678   3.557
  171SAPE   C3919327   0.336   2.555   3.669
  171SAPE   H9X19328   0.412   2.636   3.673
  171SAPE   H9Y19329   0.387   2.458   3.651
  171SAPE  C31019330   0.253   2.565   3.807
  171SAPE  H10X19331   0.160   2.506   3.808
  171SAPE  H10Y19332   0.219   2.670   3.815
  171SAPE  C31119333   0.338   2.529   3.934
  171SAPE  H11X19334   0.430   2.590   3.923
  171SAPE  H11Y19335   0.375   2.425   3.919
  171SAPE  C31219336   0.276   2.542   4.067
  171SAPE  H12X19337   0.183   2.484   4.054
  171SAPE  H12Y19338   0.248   2.642   4.108
  171SAPE  C31319339   0.357   2.472   4.178
  171SAPE  H13X19340   0.444   2.532   4.214
  171SAPE  H13Y19341   0.393   2.375   4.138
  171SAPE  C31419342   0.268   2.442   4.293
  171SAPE  H14X19343   0.207   2.352   4.274
  171SAPE  H14Y19344   0.188   2.519   4.301
  171SAPE  C31519345   0.338   2.433   4.434
  171SAPE  H15X19346   0.269   2.464   4.515
  171SAPE  H15Y19347   0.419   2.510   4.438
  171SAPE  C31619348   0.388   2.290   4.457
  171SAPE  H16X19349   0.465   2.274   4.378
  171SAPE  H16Y19350   0.310   2.212   4.464
  171SAPE  C31719351   0.473   2.271   4.591
  171SAPE  H17X19352   0.451   2.168   4.627
  171SAPE  H17Y19353   0.428   2.346   4.659
  171SAPE  C31819354   0.622   2.294   4.577
  171SAPE  H18X19355   0.662   2.221   4.503
  171SAPE  H18Y19356   0.678   2.298   4.672
  171SAPE  H18Z19357   0.638   2.388   4.520
  172SAPE     N19358   0.463   4.898   2.306
  172SAPE   HN119359   0.411   4.877   2.218
  172SAPE   HN219360   0.561   4.916   2.275
  172SAPE   HN319361   0.478   4.811   2.360
  172SAPE   C1219362   0.389   5.018   2.367
  172SAPE  H12A19363   0.379   5.013   2.478
  172SAPE  H12B19364   0.291   5.030   2.317
  172SAPE   C1119365   0.463   5.153   2.340
  172SAPE  H11A19366   0.555   5.150   2.403
  172SAPE  H11B19367   0.407   5.238   2.383
  172SAPE     P19368   0.396   5.282   2.129
  172SAPE   O1319369   0.460   5.291   1.995
  172SAPE   O1419370   0.255   5.245   2.145
  172SAPE   O1219371   0.482   5.181   2.207
  172SAPE   O1119372   0.420   5.420   2.201
  172SAPE    C119373   0.540   5.491   2.224
  172SAPE    HA19374   0.617   5.461   2.150
  172SAPE    HB19375   0.525   5.601   2.213
  172SAPE    C219376   0.601   5.480   2.369
  172SAPE    HS19377   0.662   5.388   2.358
  172SAPE   O2119378   0.502   5.455   2.460
  172SAPE   C2119379   0.400   5.537   2.477
  172SAPE   O2219380   0.383   5.642   2.421
  172SAPE   C2219381   0.297   5.464   2.564
  172SAPE   H2R19382   0.268   5.374   2.505
  172SAPE   H2S19383   0.352   5.439   2.657
  172SAPE    C319384   0.685   5.600   2.406
  172SAPE    HX19385   0.625   5.690   2.382
  172SAPE    HY19386   0.770   5.602   2.335
  172SAPE   O3119387   0.746   5.598   2.538
  172SAPE   C3119388   0.678   5.675   2.628
  172SAPE   O3219389   0.578   5.741   2.609
  172SAPE   C3219390   0.732   5.644   2.765
  172SAPE   H2X19391   0.784   5.733   2.806
  172SAPE   H2Y19392   0.808   5.564   2.753
  172SAPE   C2319393   0.176   5.554   2.608
  172SAPE   H3R19394   0.116   5.560   2.514
  172SAPE   H3S19395   0.200   5.656   2.644
  172SAPE   C2419396   0.081   5.472   2.705
  172SAPE   H4R19397   0.130   5.462   2.804
  172SAPE   H4S19398   0.062   5.371   2.662
  172SAPE   C2519399   6.861   5.540   2.733
  172SAPE   H5R19400   6.778   5.514   2.666
  172SAPE   C2619401   6.828   5.612   2.843
  172SAPE   H6R19402   6.724   5.643   2.859
  172SAPE   C2719403   0.011   5.635   2.961
  172SAPE   H7R19404   0.042   5.533   2.992
  172SAPE   H7S19405   6.868   5.661   3.056
  172SAPE   C2819406   0.133   5.724   2.947
  172SAPE   H8R19407   0.166   5.739   2.843
  172SAPE   C2919408   0.210   5.763   3.053
  172SAPE   H9R19409   0.282   5.844   3.034
  172SAPE  C21019410   0.193   5.755   3.200
  172SAPE  H10R19411   0.284   5.704   3.236
  172SAPE  H10S19412   0.109   5.688   3.231
  172SAPE  C21119413   0.168   5.887   3.271
  172SAPE  H11R19414   0.117   5.965   3.213
  172SAPE  C21219415   0.200   5.917   3.398
  172SAPE  H12R19416   0.174   6.019   3.432
  172SAPE  C21319417   0.273   5.831   3.504
  172SAPE  H13R19418   0.345   5.900   3.553
  172SAPE  H13S19419   0.328   5.752   3.448
  172SAPE  C21419420   0.168   5.767   3.590
  172SAPE  H14R19421   0.085   5.718   3.538
  172SAPE  C21519422   0.171   5.764   3.725
  172SAPE  H15R19423   0.090   5.705   3.771
  172SAPE  C21619424   0.287   5.805   3.812
  172SAPE  H16R19425   0.354   5.882   3.769
  172SAPE  H16S19426   0.342   5.711   3.835
  172SAPE  C21719427   0.215   5.860   3.940
  172SAPE  H17R19428   0.157   5.779   3.988
  172SAPE  H17S19429   0.148   5.944   3.911
  172SAPE  C21819430   0.311   5.906   4.048
  172SAPE  H18R19431   0.380   5.986   4.013
  172SAPE  H18S19432   0.376   5.828   4.095
  172SAPE  C21919433   0.230   5.970   4.172
  172SAPE  H19R19434   0.301   5.986   4.256
  172SAPE  H19S19435   0.146   5.902   4.199
  172SAPE  C22019436   0.176   6.109   4.142
  172SAPE  H20R19437   0.265   6.175   4.138
  172SAPE  H20S19438   0.110   6.154   4.219
  172SAPE  H20T19439   0.130   6.105   4.041
  172SAPE   C3319440   0.631   5.593   2.875
  172SAPE   H3X19441   0.586   5.496   2.843
  172SAPE   H3Y19442   0.543   5.660   2.868
  172SAPE   C3419443   0.687   5.584   3.015
  172SAPE   H4X19444   0.700   5.689   3.050
  172SAPE   H4Y19445   0.784   5.533   3.029
  172SAPE   C3519446   0.596   5.502   3.112
  172SAPE   H5X19447   0.586   5.401   3.067
  172SAPE   H5Y19448   0.497   5.551   3.119
  172SAPE   C3619449   0.654   5.484   3.254
  172SAPE   H6X19450   0.760   5.450   3.254
  172SAPE   H6Y19451   0.601   5.397   3.298
  172SAPE   C3719452   0.636   5.610   3.347
  172SAPE   H7X19453   0.526   5.625   3.360
  172SAPE   H7Y19454   0.689   5.703   3.317
  172SAPE   C3819455   0.680   5.571   3.491
  172SAPE   H8X19456   0.775   5.516   3.474
  172SAPE   H8Y19457   0.600   5.508   3.534
  172SAPE   C3919458   0.696   5.695   3.583
  172SAPE   H9X19459   0.596   5.744   3.583
  172SAPE   H9Y19460   0.777   5.767   3.560
  172SAPE  C31019461   0.725   5.673   3.733
  172SAPE  H10X19462   0.830   5.641   3.753
  172SAPE  H10Y19463   0.653   5.598   3.772
  172SAPE  C31119464   0.703   5.808   3.806
  172SAPE  H11X19465   0.608   5.861   3.783
  172SAPE  H11Y19466   0.783   5.873   3.767
  172SAPE  C31219467   0.726   5.808   3.953
  172SAPE  H12X19468   0.671   5.719   3.991
  172SAPE  H12Y19469   0.696   5.905   3.998
  172SAPE  C31319470   0.875   5.810   3.989
  172SAPE  H13X19471   0.928   5.884   3.925
  172SAPE  H13Y19472   0.928   5.713   3.978
  172SAPE  C31419473   0.909   5.864   4.131
  172SAPE  H14X19474   0.854   5.958   4.147
  172SAPE  H14Y19475   1.018   5.888   4.127
  172SAPE  C31519476   0.880   5.754   4.239
  172SAPE  H15X19477   0.935   5.659   4.219
  172SAPE  H15Y19478   0.773   5.724   4.230
  172SAPE  C31619479   0.894   5.799   4.388
  172SAPE  H16X19480   0.844   5.897   4.403
  172SAPE  H16Y19481   1.003   5.804   4.406
  172SAPE  C31719482   0.815   5.692   4.477
  172SAPE  H17X19483   0.843   5.591   4.441
  172SAPE  H17Y19484   0.706   5.712   4.464
  172SAPE  C31819485   0.845   5.700   4.626
  172SAPE  H18X19486   0.954   5.701   4.648
  172SAPE  H18Y19487   0.795   5.615   4.676
  172SAPE  H18Z19488   0.813   5.789   4.685
  173SLPC     N19489   6.398   6.850   6.491
  173SLPC   C1319490   6.460   6.800   6.621
  173SLPC  H13A19491   6.522   6.875   6.669
  173SLPC  H13B19492   6.377   6.793   6.690
  173SLPC  H13C19493   6.507   6.703   6.615
  173SLPC   C1419494   6.511   6.878   6.401
  173SLPC  H14A19495   6.571   0.056   6.421
  173SLPC  H14B19496   6.584   6.798   6.395
  173SLPC  H14C19497   6.467   6.890   6.304
  173SLPC   C1519498   6.315   0.066   6.514
  173SLPC  H15A19499   6.268   0.101   6.423
  173SLPC  H15B19500   6.239   0.041   6.587
  173SLPC  H15C19501   6.371   0.148   6.557
  173SLPC   C1219502   6.308   6.741   6.439
  173SLPC  H12A19503   6.364   6.649   6.451
  173SLPC  H12B19504   6.286   6.750   6.334
  173SLPC   C1119505   6.168   6.713   6.505
  173SLPC  H11A19506   6.178   6.716   6.615
  173SLPC  H11B19507   6.125   6.614   6.481
  173SLPC     P19508   6.007   6.805   6.336
  173SLPC   O1319509   5.920   6.686   6.332
  173SLPC   O1419510   5.933   0.019   6.308
  173SLPC   O1219511   6.080   6.819   6.469
  173SLPC   O1119512   6.127   6.788   6.242
  173SLPC    C119513   6.182   6.893   6.165
  173SLPC    HA19514   6.195   0.069   6.236
  173SLPC    HB19515   6.285   6.876   6.129
  173SLPC    C219516   6.108   0.030   6.039
  173SLPC    HS19517   6.004   0.064   6.057
  173SLPC   O2119518   6.127   6.829   5.945
  173SLPC   C2119519   6.016   6.817   5.873
  173SLPC   O2219520   5.908   6.861   5.904
  173SLPC   C2219521   6.033   6.717   5.754
  173SLPC   H2R19522   6.068   6.619   5.794
  173SLPC   H2S19523   5.934   6.714   5.703
  173SLPC    C319524   6.177   0.157   5.990
  173SLPC    HX19525   6.285   0.130   5.984
  173SLPC    HY19526   6.183   0.238   6.066
  173SLPC   O3119527   6.145   0.200   5.852
  173SLPC   C3119528   6.048   0.275   5.829
  173SLPC   O3219529   5.966   0.314   5.910
  173SLPC   C3219530   6.044   0.305   5.683
  173SLPC   H2X19531   5.965   0.245   5.633
  173SLPC   H2Y19532   6.142   0.281   5.639
  173SLPC   C2319533   6.134   6.771   5.660
  173SLPC   H3R19534   6.229   6.773   5.717
  173SLPC   H3S19535   6.122   6.874   5.621
  173SLPC   C2419536   6.161   6.673   5.551
  173SLPC   H4R19537   6.065   6.640   5.506
  173SLPC   H4S19538   6.211   6.577   5.576
  173SLPC   C2519539   6.239   6.757   5.434
  173SLPC   H5R19540   6.344   6.773   5.467
  173SLPC   H5S19541   6.186   6.853   5.423
  173SLPC   C2619542   6.266   6.679   5.307
  173SLPC   H6R19543   6.185   6.624   5.255
  173SLPC   H6S19544   6.337   6.596   5.330
  173SLPC   C2719545   6.319   6.773   5.199
  173SLPC   H7R19546   6.419   6.814   5.224
  173SLPC   H7S19547   6.254   6.862   5.202
  173SLPC   C2819548   6.319   6.720   5.057
  173SLPC   H8R19549   6.372   6.624   5.044
  173SLPC   H8S19550   6.373   6.798   4.999
  173SLPC   C2919551   6.187   6.696   4.997
  173SLPC   H9R19552   6.114   6.644   5.061
  173SLPC  C21019553   6.147   6.725   4.873
  173SLPC  H10R19554   6.041   6.706   4.849
  173SLPC  C21119555   6.228   6.780   4.762
  173SLPC  H11R19556   6.335   6.748   4.759
  173SLPC  H11S19557   6.219   6.890   4.765
  173SLPC  C21219558   6.166   6.739   4.632
  173SLPC  H12R19559   6.177   6.639   4.587
  173SLPC  C21319560   6.086   6.821   4.564
  173SLPC  H13R19561   6.069   6.786   4.461
  173SLPC  C21419562   6.024   0.045   4.580
  173SLPC  H14R19563   5.995   0.044   4.687
  173SLPC  H14S19564   5.927   0.045   4.526
  173SLPC  C21519565   6.101   0.167   4.564
  173SLPC  H15R19566   6.145   0.175   4.462
  173SLPC  H15S19567   6.185   0.162   4.636
  173SLPC  C21619568   6.029   0.299   4.621
  173SLPC  H16R19569   6.103   0.376   4.593
  173SLPC  H16S19570   6.036   0.297   4.732
  173SLPC  C21719571   5.890   0.321   4.577
  173SLPC  H17R19572   5.845   0.412   4.620
  173SLPC  H17S19573   5.819   0.244   4.615
  173SLPC  C21819574   5.870   0.331   4.423
  173SLPC  H18R19575   5.760   0.334   4.408
  173SLPC  H18S19576   5.922   0.253   4.364
  173SLPC  H18T19577   5.924   0.420   4.383
  173SLPC   C3319578   6.008   0.450   5.641
  173SLPC   H3X19579   6.048   0.527   5.711
  173SLPC   H3Y19580   5.899   0.461   5.657
  173SLPC   C3419581   6.060   0.478   5.501
  173SLPC   H4X19582   6.036   0.400   5.425
  173SLPC   H4Y19583   6.171   0.479   5.512
  173SLPC   C3519584   6.048   0.615   5.437
  173SLPC   H5X19585   6.068   0.710   5.492
  173SLPC   H5Y19586   5.938   0.626   5.425
  173SLPC   C3619587   6.116   0.619   5.291
  173SLPC   H6X19588   6.049   0.572   5.216
  173SLPC   H6Y19589   6.201   0.550   5.310
  173SLPC   C3719590   6.172   0.747   5.239
  173SLPC   H7X19591   6.247   0.778   5.315
  173SLPC   H7Y19592   6.098   0.828   5.223
  173SLPC   C3819593   6.233   0.707   5.102
  173SLPC   H8X19594   6.309   0.628   5.119
  173SLPC   H8Y19595   6.293   0.799   5.083
  173SLPC   C3919596   6.128   0.658   4.993
  173SLPC   H9X19597   6.055   0.741   4.991
  173SLPC   H9Y19598   6.067   0.570   5.021
  173SLPC  C31019599   6.205   0.633   4.854
  173SLPC  H10X19600   6.228   0.526   4.837
  173SLPC  H10Y19601   6.295   0.697   4.850
  173SLPC  C31119602   6.118   0.689   4.740
  173SLPC  H11X19603   6.087   0.792   4.766
  173SLPC  H11Y19604   6.031   0.621   4.730
  173SLPC  C31219605   6.185   0.693   4.608
  173SLPC  H12X19606   6.237   0.599   4.576
  173SLPC  H12Y19607   6.260   0.775   4.612
  173SLPC  C31319608   6.091   0.717   4.488
  173SLPC  H13X19609   6.058   0.822   4.478
  173SLPC  H13Y19610   5.998   0.663   4.515
  173SLPC  C31419611   6.117   0.646   4.356
  173SLPC  H14X19612   6.118   0.536   4.370
  173SLPC  H14Y19613   6.214   0.675   4.311
  173SLPC  C31519614   6.003   0.680   4.261
  173SLPC  H15X19615   6.008   0.788   4.238
  173SLPC  H15Y19616   5.903   0.662   4.305
  173SLPC  C31619617   6.017   0.603   4.129
  173SLPC  H16X19618   6.010   0.494   4.150
  173SLPC  H16Y19619   6.120   0.625   4.094
  173SLPC  C31719620   5.902   0.645   4.027
  173SLPC  H17X19621   5.909   0.747   3.984
  173SLPC  H17Y19622   5.801   0.650   4.074
  173SLPC  C31819623   5.898   0.547   3.917
  173SLPC  H18X19624   5.827   0.584   3.840
  173SLPC  H18Y19625   5.850   0.452   3.945
  173SLPC  H18Z19626   6.002   0.532   3.880
  174SLPC     N19627   2.556   2.056   6.722
  174SLPC   C1319628   2.636   1.943   6.775
  174SLPC  H13A19629   2.648   1.864   6.703
  174SLPC  H13B19630   2.740   1.968   6.792
  174SLPC  H13C19631   2.593   1.897   6.862
  174SLPC   C1419632   2.562   2.173   6.820
  174SLPC  H14A19633   2.509   2.261   6.787
  174SLPC  H14B19634   2.527   2.140   6.917
  174SLPC  H14C19635   2.666   2.194   6.837
  174SLPC   C1519636   2.413   2.007   6.707
  174SLPC  H15A19637   2.362   1.998   6.801
  174SLPC  H15B19638   2.359   2.081   6.650
  174SLPC  H15C19639   2.402   1.912   6.656
  174SLPC   C1219640   2.607   2.104   6.586
  174SLPC  H12A19641   2.705   2.149   6.596
  174SLPC  H12B19642   2.544   2.188   6.558
  174SLPC   C1119643   2.628   2.003   6.472
  174SLPC  H11A19644   2.644   2.065   6.381
  174SLPC  H11B19645   2.534   1.945   6.467
  174SLPC     P19646   2.896   1.960   6.503
  174SLPC   O1319647   2.922   2.014   6.639
  174SLPC   O1419648   2.989   1.849   6.468
  174SLPC   O1219649   2.742   1.920   6.507
  174SLPC   O1119650   2.898   2.072   6.398
  174SLPC    C119651   2.913   2.051   6.262
  174SLPC    HA19652   2.930   1.947   6.227
  174SLPC    HB19653   2.813   2.065   6.216
  174SLPC    C219654   3.018   2.156   6.209
  174SLPC    HS19655   2.968   2.255   6.219
  174SLPC   O2119656   3.057   2.128   6.075
  174SLPC   C2119657   3.002   2.208   5.981
  174SLPC   O2219658   2.931   2.299   6.003
  174SLPC   C2219659   3.060   2.175   5.843
  174SLPC   H2R19660   3.030   2.253   5.770
  174SLPC   H2S19661   3.169   2.169   5.860
  174SLPC    C319662   3.147   2.153   6.288
  174SLPC    HX19663   3.185   2.049   6.298
  174SLPC    HY19664   3.125   2.194   6.388
  174SLPC   O3119665   3.254   2.224   6.221
  174SLPC   C3119666   3.266   2.353   6.257
  174SLPC   O3219667   3.185   2.408   6.329
  174SLPC   C3219668   3.386   2.423   6.198
  174SLPC   H2X19669   3.473   2.374   6.246
  174SLPC   H2Y19670   3.390   2.531   6.226
  174SLPC   C2319671   3.011   2.030   5.812
  174SLPC   H3R19672   2.900   2.033   5.807
  174SLPC   H3S19673   3.047   1.950   5.880
  174SLPC   C2419674   3.066   1.978   5.682
  174SLPC   H4R19675   3.031   1.874   5.665
  174SLPC   H4S19676   3.177   1.975   5.687
  174SLPC   C2519677   3.043   2.060   5.556
  174SLPC   H5R19678   3.102   2.153   5.563
  174SLPC   H5S19679   2.937   2.094   5.553
  174SLPC   C2619680   3.083   1.988   5.429
  174SLPC   H6R19681   3.162   1.914   5.451
  174SLPC   H6S19682   3.127   2.052   5.349
  174SLPC   C2719683   2.967   1.902   5.378
  174SLPC   H7R19684   2.881   1.968   5.353
  174SLPC   H7S19685   2.921   1.848   5.464
  174SLPC   C2819686   2.992   1.799   5.265
  174SLPC   H8R19687   2.909   1.726   5.271
  174SLPC   H8S19688   3.084   1.740   5.286
  174SLPC   C2919689   2.988   1.851   5.129
  174SLPC   H9R19690   2.893   1.903   5.112
  174SLPC  C21019691   3.084   1.859   5.035
  174SLPC  H10R19692   3.057   1.892   4.934
  174SLPC  C21119693   3.225   1.798   5.047
  174SLPC  H11R19694   3.219   1.694   5.009
  174SLPC  H11S19695   3.249   1.784   5.155
  174SLPC  C21219696   3.346   1.869   4.988
  174SLPC  H12R19697   3.431   1.862   5.057
  174SLPC  C21319698   3.372   1.912   4.862
  174SLPC  H13R19699   3.464   1.964   4.833
  174SLPC  C21419700   3.275   1.896   4.741
  174SLPC  H14R19701   3.170   1.897   4.777
  174SLPC  H14S19702   3.277   1.796   4.693
  174SLPC  C21519703   3.297   1.995   4.628
  174SLPC  H15R19704   3.398   1.990   4.584
  174SLPC  H15S19705   3.286   2.103   4.652
  174SLPC  C21619706   3.195   1.969   4.512
  174SLPC  H16R19707   3.092   1.955   4.553
  174SLPC  H16S19708   3.235   1.877   4.464
  174SLPC  C21719709   3.182   2.077   4.396
  174SLPC  H17R19710   3.278   2.101   4.346
  174SLPC  H17S19711   3.172   2.168   4.460
  174SLPC  C21819712   3.063   2.056   4.302
  174SLPC  H18R19713   3.090   1.975   4.231
  174SLPC  H18S19714   3.053   2.145   4.236
  174SLPC  H18T19715   2.960   2.040   4.340
  174SLPC   C3319716   3.410   2.403   6.045
  174SLPC   H3X19717   3.405   2.292   6.033
  174SLPC   H3Y19718   3.515   2.434   6.027
  174SLPC   C3419719   3.309   2.482   5.966
  174SLPC   H4X19720   3.229   2.501   6.040
  174SLPC   H4Y19721   3.272   2.414   5.886
  174SLPC   C3519722   3.358   2.611   5.911
  174SLPC   H5X19723   3.388   2.675   5.998
  174SLPC   H5Y19724   3.274   2.666   5.863
  174SLPC   C3619725   3.470   2.598   5.806
  174SLPC   H6X19726   3.543   2.524   5.845
  174SLPC   H6Y19727   3.528   2.693   5.802
  174SLPC   C3719728   3.414   2.553   5.661
  174SLPC   H7X19729   3.337   2.623   5.622
  174SLPC   H7Y19730   3.358   2.458   5.676
  174SLPC   C3819731   3.536   2.542   5.562
  174SLPC   H8X19732   3.602   2.455   5.580
  174SLPC   H8Y19733   3.609   2.625   5.554
  174SLPC   C3919734   3.466   2.511   5.428
  174SLPC   H9X19735   3.398   2.594   5.401
  174SLPC   H9Y19736   3.404   2.419   5.432
  174SLPC  C31019737   3.568   2.494   5.314
  174SLPC  H10X19738   3.620   2.396   5.322
  174SLPC  H10Y19739   3.646   2.573   5.324
  174SLPC  C31119740   3.520   2.512   5.171
  174SLPC  H11X19741   3.598   2.516   5.093
  174SLPC  H11Y19742   3.470   2.611   5.173
  174SLPC  C31219743   3.417   2.407   5.126
  174SLPC  H12X19744   3.366   2.455   5.040
  174SLPC  H12Y19745   3.339   2.407   5.206
  174SLPC  C31319746   3.473   2.275   5.072
  174SLPC  H13X19747   3.390   2.212   5.035
  174SLPC  H13Y19748   3.516   2.216   5.156
  174SLPC  C31419749   3.587   2.287   4.970
  174SLPC  H14X19750   3.628   2.184   4.961
  174SLPC  H14Y19751   3.672   2.352   5.001
  174SLPC  C31519752   3.546   2.340   4.828
  174SLPC  H15X19753   3.567   2.449   4.833
  174SLPC  H15Y19754   3.439   2.318   4.812
  174SLPC  C31619755   3.632   2.292   4.715
  174SLPC  H16X19756   3.598   2.188   4.695
  174SLPC  H16Y19757   3.730   2.295   4.767
  174SLPC  C31719758   3.632   2.392   4.599
  174SLPC  H17X19759   3.681   2.487   4.629
  174SLPC  H17Y19760   3.527   2.401   4.566
  174SLPC  C31819761   3.706   2.348   4.472
  174SLPC  H18X19762   3.703   2.419   4.387
  174SLPC  H18Y19763   3.673   2.254   4.423
  174SLPC  H18Z19764   3.812   2.326   4.497
  175SLPC     N19765   5.659   3.055   7.113
  175SLPC   C1319766   5.695   3.011   7.250
  175SLPC  H13A19767   5.790   2.960   7.245
  175SLPC  H13B19768   5.708   3.091   7.320
  175SLPC  H13C19769   5.614   2.945   7.278
  175SLPC   C1419770   5.750   3.167   7.069
  175SLPC  H14A19771   5.853   3.144   7.049
  175SLPC  H14B19772   5.721   3.207   6.973
  175SLPC  H14C19773   5.755   3.242   7.146
  175SLPC   C1519774   5.517   3.114   7.116
  175SLPC  H15A19775   5.480   3.132   7.016
  175SLPC  H15B19776   5.445   3.047   7.159
  175SLPC  H15C19777   5.521   3.196   7.186
  175SLPC   C1219778   5.665   2.940   7.018
  175SLPC  H12A19779   5.580   2.873   7.012
  175SLPC  H12B19780   5.746   2.874   7.046
  175SLPC   C1119781   5.689   2.988   6.870
  175SLPC  H11A19782   5.693   2.900   6.803
  175SLPC  H11B19783   5.786   3.041   6.863
  175SLPC     P19784   5.599   3.180   6.720
  175SLPC   O1319785   5.464   3.227   6.680
  175SLPC   O1419786   5.688   3.284   6.771
  175SLPC   O1219787   5.574   3.064   6.826
  175SLPC   O1119788   5.672   3.109   6.597
  175SLPC    C119789   5.612   3.017   6.516
  175SLPC    HA19790   5.682   2.930   6.514
  175SLPC    HB19791   5.523   2.966   6.559
  175SLPC    C219792   5.565   3.082   6.383
  175SLPC    HS19793   5.557   3.003   6.306
  175SLPC   O2119794   5.662   3.185   6.340
  175SLPC   C2119795   5.765   3.127   6.270
  175SLPC   O2219796   5.782   3.010   6.259
  175SLPC   C2219797   5.859   3.236   6.219
  175SLPC   H2R19798   5.803   3.329   6.191
  175SLPC   H2S19799   5.912   3.264   6.312
  175SLPC    C319800   5.419   3.155   6.398
  175SLPC    HX19801   5.428   3.238   6.471
  175SLPC    HY19802   5.349   3.078   6.437
  175SLPC   O3119803   5.372   3.186   6.266
  175SLPC   C3119804   5.281   3.279   6.249
  175SLPC   O3219805   5.230   3.348   6.337
  175SLPC   C3219806   5.239   3.284   6.097
  175SLPC   H2X19807   5.130   3.284   6.077
  175SLPC   H2Y19808   5.270   3.192   6.042
  175SLPC   C2319809   5.947   3.170   6.105
  175SLPC   H3R19810   5.883   3.114   6.034
  175SLPC   H3S19811   6.021   3.103   6.155
  175SLPC   C2419812   6.038   3.259   6.024
  175SLPC   H4R19813   6.083   3.344   6.079
  175SLPC   H4S19814   5.980   3.298   5.938
  175SLPC   C2519815   6.144   3.178   5.956
  175SLPC   H5R19816   6.105   3.116   5.873
  175SLPC   H5S19817   6.184   3.106   6.031
  175SLPC   C2619818   6.267   3.257   5.913
  175SLPC   H6R19819   6.304   3.317   5.999
  175SLPC   H6S19820   6.235   3.318   5.826
  175SLPC   C2719821   6.379   3.165   5.861
  175SLPC   H7R19822   6.340   3.094   5.785
  175SLPC   H7S19823   6.416   3.112   5.951
  175SLPC   C2819824   6.490   3.251   5.806
  175SLPC   H8R19825   6.532   3.317   5.884
  175SLPC   H8S19826   6.451   3.320   5.728
  175SLPC   C2919827   6.597   3.173   5.738
  175SLPC   H9R19828   6.679   3.153   5.808
  175SLPC  C21019829   6.590   3.121   5.613
  175SLPC  H10R19830   6.664   3.044   5.584
  175SLPC  C21119831   6.486   3.136   5.507
  175SLPC  H11R19832   6.508   3.221   5.438
  175SLPC  H11S19833   6.385   3.155   5.548
  175SLPC  C21219834   6.485   3.010   5.426
  175SLPC  H12R19835   6.423   2.932   5.474
  175SLPC  C21319836   6.558   2.984   5.311
  175SLPC  H13R19837   6.540   2.892   5.253
  175SLPC  C21419838   6.659   3.078   5.237
  175SLPC  H14R19839   6.761   3.035   5.243
  175SLPC  H14S19840   6.669   3.180   5.282
  175SLPC  C21519841   6.640   3.099   5.091
  175SLPC  H15R19842   6.554   3.166   5.069
  175SLPC  H15S19843   6.605   2.998   5.062
  175SLPC  C21619844   6.762   3.123   4.995
  175SLPC  H16R19845   6.839   3.045   5.013
  175SLPC  H16S19846   6.793   3.223   5.032
  175SLPC  C21719847   6.723   3.133   4.855
  175SLPC  H17R19848   6.646   3.213   4.847
  175SLPC  H17S19849   6.690   3.035   4.815
  175SLPC  C21819850   6.843   3.188   4.771
  175SLPC  H18R19851   6.817   3.202   4.664
  175SLPC  H18S19852   0.011   3.111   4.792
  175SLPC  H18T19853   6.897   3.275   4.812
  175SLPC   C3319854   5.291   3.419   6.043
  175SLPC   H3X19855   5.257   3.492   6.120
  175SLPC   H3Y19856   5.245   3.444   5.946
  175SLPC   C3419857   5.446   3.422   6.052
  175SLPC   H4X19858   5.478   3.418   6.158
  175SLPC   H4Y19859   5.486   3.521   6.020
  175SLPC   C3519860   5.516   3.307   5.978
  175SLPC   H5X19861   5.483   3.213   6.026
  175SLPC   H5Y19862   5.621   3.323   6.010
  175SLPC   C3619863   5.493   3.322   5.831
  175SLPC   H6X19864   5.508   3.429   5.804
  175SLPC   H6Y19865   5.389   3.300   5.801
  175SLPC   C3719866   5.599   3.245   5.752
  175SLPC   H7X19867   5.568   3.232   5.646
  175SLPC   H7Y19868   5.608   3.145   5.801
  175SLPC   C3819869   5.747   3.302   5.763
  175SLPC   H8X19870   5.806   3.263   5.849
  175SLPC   H8Y19871   5.743   3.412   5.782
  175SLPC   C3919872   5.811   3.302   5.621
  175SLPC   H9X19873   5.894   3.373   5.604
  175SLPC   H9Y19874   5.726   3.334   5.557
  175SLPC  C31019875   5.863   3.165   5.583
  175SLPC  H10X19876   5.784   3.089   5.596
  175SLPC  H10Y19877   5.945   3.148   5.656
  175SLPC  C31119878   5.913   3.160   5.443
  175SLPC  H11X19879   5.995   3.232   5.424
  175SLPC  H11Y19880   5.833   3.175   5.369
  175SLPC  C31219881   5.962   3.020   5.401
  175SLPC  H12X19882   5.876   2.951   5.386
  175SLPC  H12Y19883   6.018   2.978   5.487
  175SLPC  C31319884   6.053   3.018   5.279
  175SLPC  H13X19885   6.142   3.081   5.301
  175SLPC  H13Y19886   5.991   3.063   5.198
  175SLPC  C31419887   6.102   2.873   5.253
  175SLPC  H14X19888   6.016   2.803   5.240
  175SLPC  H14Y19889   6.152   2.832   5.342
  175SLPC  C31519890   6.216   2.860   5.150
  175SLPC  H15X19891   6.260   2.758   5.150
  175SLPC  H15Y19892   6.306   2.919   5.180
  175SLPC  C31619893   6.177   2.909   5.005
  175SLPC  H16X19894   6.148   3.016   5.003
  175SLPC  H16Y19895   6.085   2.858   4.968
  175SLPC  C31719896   6.291   2.880   4.902
  175SLPC  H17X19897   6.299   2.770   4.896
  175SLPC  H17Y19898   6.381   2.937   4.934
  175SLPC  C31819899   6.270   2.937   4.765
  175SLPC  H18X19900   6.167   2.920   4.725
  175SLPC  H18Y19901   6.339   2.905   4.684
  175SLPC  H18Z19902   6.286   3.047   4.768
  176SLPC     N19903   5.597   1.746   6.967
  176SLPC   C1319904   5.720   1.804   7.026
  176SLPC  H13A19905   5.718   1.912   7.015
  176SLPC  H13B19906   5.729   1.787   7.132
  176SLPC  H13C19907   5.800   1.762   6.968
  176SLPC   C1419908   5.476   1.788   7.046
  176SLPC  H14A19909   5.378   1.749   7.020
  176SLPC  H14B19910   5.492   1.764   7.150
  176SLPC  H14C19911   5.470   1.895   7.038
  176SLPC   C1519912   5.606   1.601   6.980
  176SLPC  H15A19913   5.650   1.554   7.067
  176SLPC  H15B19914   5.506   1.560   6.974
  176SLPC  H15C19915   5.665   1.550   6.905
  176SLPC   C1219916   5.582   1.789   6.820
  176SLPC  H12A19917   5.586   1.896   6.831
  176SLPC  H12B19918   5.480   1.768   6.791
  176SLPC   C1119919   5.693   1.731   6.727
  176SLPC  H11A19920   5.792   1.733   6.778
  176SLPC  H11B19921   5.712   1.787   6.633
  176SLPC     P19922   5.533   1.553   6.603
  176SLPC   O1319923   5.525   1.407   6.628
  176SLPC   O1419924   5.418   1.640   6.635
  176SLPC   O1219925   5.661   1.599   6.687
  176SLPC   O1119926   5.562   1.567   6.447
  176SLPC    C119927   5.693   1.610   6.406
  176SLPC    HA19928   5.706   1.720   6.407
  176SLPC    HB19929   5.767   1.551   6.464
  176SLPC    C219930   5.725   1.539   6.266
  176SLPC    HS19931   5.828   1.572   6.240
  176SLPC   O2119932   5.633   1.576   6.162
  176SLPC   C2119933   5.650   1.702   6.122
  176SLPC   O2219934   5.731   1.786   6.164
  176SLPC   C2219935   5.543   1.733   6.017
  176SLPC   H2R19936   5.440   1.702   6.046
  176SLPC   H2S19937   5.541   1.842   5.995
  176SLPC    C319938   5.737   1.386   6.288
  176SLPC    HX19939   5.659   1.355   6.361
  176SLPC    HY19940   5.829   1.362   6.346
  176SLPC   O3119941   5.714   1.300   6.170
  176SLPC   C3119942   5.826   1.272   6.103
  176SLPC   O3219943   5.938   1.314   6.132
  176SLPC   C3219944   5.795   1.177   5.981
  176SLPC   H2X19945   5.699   1.124   6.000
  176SLPC   H2Y19946   5.878   1.103   5.978
  176SLPC   C2319947   5.585   1.660   5.886
  176SLPC   H3R19948   5.497   1.658   5.818
  176SLPC   H3S19949   5.608   1.555   5.915
  176SLPC   C2419950   5.705   1.722   5.824
  176SLPC   H4R19951   5.794   1.744   5.886
  176SLPC   H4S19952   5.686   1.825   5.789
  176SLPC   C2519953   5.759   1.640   5.708
  176SLPC   H5R19954   5.686   1.621   5.626
  176SLPC   H5S19955   5.792   1.538   5.740
  176SLPC   C2619956   5.876   1.703   5.637
  176SLPC   H6R19957   5.956   1.721   5.712
  176SLPC   H6S19958   5.857   1.799   5.586
  176SLPC   C2719959   5.920   1.599   5.536
  176SLPC   H7R19960   5.834   1.576   5.469
  176SLPC   H7S19961   5.945   1.503   5.584
  176SLPC   C2819962   6.030   1.653   5.452
  176SLPC   H8R19963   6.106   1.701   5.517
  176SLPC   H8S19964   5.988   1.734   5.389
  176SLPC   C2919965   6.083   1.544   5.354
  176SLPC   H9R19966   6.127   1.460   5.410
  176SLPC  C21019967   6.081   1.534   5.223
  176SLPC  H10R19968   6.131   1.446   5.181
  176SLPC  C21119969   6.040   1.647   5.130
  176SLPC  H11R19970   6.130   1.664   5.068
  176SLPC  H11S19971   6.027   1.740   5.189
  176SLPC  C21219972   5.919   1.628   5.039
  176SLPC  H12R19973   5.828   1.639   5.100
  176SLPC  C21319974   5.919   1.602   4.910
  176SLPC  H13R19975   5.821   1.603   4.860
  176SLPC  C21419976   6.036   1.594   4.825
  176SLPC  H14R19977   6.116   1.522   4.852
  176SLPC  H14S19978   6.087   1.693   4.830
  176SLPC  C21519979   5.997   1.589   4.678
  176SLPC  H15R19980   6.066   1.598   4.591
  176SLPC  H15S19981   5.933   1.679   4.661
  176SLPC  C21619982   5.910   1.467   4.628
  176SLPC  H16R19983   5.833   1.435   4.701
  176SLPC  H16S19984   5.980   1.381   4.616
  176SLPC  C21719985   5.843   1.486   4.486
  176SLPC  H17R19986   5.844   1.389   4.432
  176SLPC  H17S19987   5.892   1.570   4.433
  176SLPC  C21819988   5.694   1.531   4.495
  176SLPC  H18R19989   5.627   1.474   4.563
  176SLPC  H18S19990   5.650   1.528   4.394
  176SLPC  H18T19991   5.696   1.639   4.524
  176SLPC   C3319992   5.794   1.262   5.852
  176SLPC   H3X19993   5.879   1.332   5.838
  176SLPC   H3Y19994   5.706   1.329   5.857
  176SLPC   C3419995   5.779   1.182   5.722
  176SLPC   H4X19996   5.696   1.108   5.729
  176SLPC   H4Y19997   5.870   1.117   5.723
  176SLPC   C3519998   5.788   1.261   5.592
  176SLPC   H5X19999   5.891   1.301   5.588
  176SLPC   H5Y20000   5.708   1.339   5.587
  176SLPC   C3620001   5.765   1.181   5.469
  176SLPC   H6X20002   5.668   1.128   5.471
  176SLPC   H6Y20003   5.832   1.093   5.462
  176SLPC   C3720004   5.758   1.270   5.351
  176SLPC   H7X20005   5.865   1.291   5.331
  176SLPC   H7Y20006   5.708   1.366   5.375
  176SLPC   C3820007   5.688   1.204   5.234
  176SLPC   H8X20008   5.581   1.191   5.259
  176SLPC   H8Y20009   5.730   1.101   5.223
  176SLPC   C3920010   5.707   1.285   5.099
  176SLPC   H9X20011   5.813   1.316   5.083
  176SLPC   H9Y20012   5.656   1.383   5.110
  176SLPC  C31020013   5.675   1.225   4.959
  176SLPC  H10X20014   5.716   1.297   4.885
  176SLPC  H10Y20015   5.565   1.213   4.948
  176SLPC  C31120016   5.737   1.082   4.929
  176SLPC  H11X20017   5.694   1.007   4.999
  176SLPC  H11Y20018   5.846   1.093   4.943
  176SLPC  C31220019   5.708   1.029   4.792
  176SLPC  H12X20020   5.737   1.110   4.721
  176SLPC  H12Y20021   5.601   1.002   4.782
  176SLPC  C31320022   5.791   0.902   4.765
  176SLPC  H13X20023   5.780   0.840   4.856
  176SLPC  H13Y20024   5.898   0.917   4.741
  176SLPC  C31420025   5.724   0.829   4.649
  176SLPC  H14X20026   5.620   0.799   4.674
  176SLPC  H14Y20027   5.786   0.741   4.620
  176SLPC  C31520028   5.711   0.919   4.523
  176SLPC  H15X20029   5.807   0.973   4.508
  176SLPC  H15Y20030   5.638   1.001   4.542
  176SLPC  C31620031   5.678   0.850   4.388
  176SLPC  H16X20032   5.766   0.800   4.343
  176SLPC  H16Y20033   5.643   0.931   4.320
  176SLPC  C31720034   5.578   0.733   4.396
  176SLPC  H17X20035   5.484   0.779   4.432
  176SLPC  H17Y20036   5.612   0.664   4.476
  176SLPC  C31820037   5.555   0.653   4.273
  176SLPC  H18X20038   5.646   0.600   4.237
  176SLPC  H18Y20039   5.519   0.718   4.191
  176SLPC  H18Z20040   5.483   0.570   4.293
  177SLPC     N20041   4.854   2.170   6.660
  177SLPC   C1320042   4.950   2.235   6.751
  177SLPC  H13A20043   5.022   2.290   6.693
  177SLPC  H13B20044   4.907   2.299   6.827
  177SLPC  H13C20045   5.002   2.158   6.807
  177SLPC   C1420046   4.776   2.276   6.588
  177SLPC  H14A20047   4.697   2.321   6.647
  177SLPC  H14B20048   4.844   2.349   6.547
  177SLPC  H14C20049   4.736   2.228   6.500
  177SLPC   C1520050   4.759   2.085   6.738
  177SLPC  H15A20051   4.725   2.151   6.816
  177SLPC  H15B20052   4.672   2.055   6.680
  177SLPC  H15C20053   4.802   2.000   6.789
  177SLPC   C1220054   4.935   2.074   6.569
  177SLPC  H12A20055   4.867   2.010   6.514
  177SLPC  H12B20056   5.003   2.011   6.625
  177SLPC   C1120057   5.030   2.141   6.467
  177SLPC  H11A20058   4.974   2.218   6.410
  177SLPC  H11B20059   5.062   2.067   6.391
  177SLPC     P20060   5.270   2.117   6.579
  177SLPC   O1320061   5.331   2.191   6.688
  177SLPC   O1420062   5.237   1.973   6.595
  177SLPC   O1220063   5.145   2.204   6.530
  177SLPC   O1120064   5.353   2.142   6.448
  177SLPC    C120065   5.398   2.268   6.407
  177SLPC    HA20066   5.382   2.357   6.471
  177SLPC    HB20067   5.506   2.264   6.384
  177SLPC    C220068   5.326   2.299   6.272
  177SLPC    HS20069   5.217   2.301   6.294
  177SLPC   O2120070   5.368   2.198   6.180
  177SLPC   C2120071   5.273   2.121   6.137
  177SLPC   O2220072   5.153   2.134   6.153
  177SLPC   C2220073   5.337   2.001   6.072
  177SLPC   H2R20074   5.426   2.041   6.019
  177SLPC   H2S20075   5.387   1.941   6.150
  177SLPC    C320076   5.367   2.435   6.210
  177SLPC    HX20077   5.317   2.514   6.270
  177SLPC    HY20078   5.331   2.432   6.105
  177SLPC   O3120079   5.507   2.457   6.210
  177SLPC   C3120080   5.573   2.449   6.097
  177SLPC   O3220081   5.519   2.449   5.986
  177SLPC   C3220082   5.718   2.419   6.117
  177SLPC   H2X20083   5.743   2.312   6.105
  177SLPC   H2Y20084   5.750   2.431   6.223
  177SLPC   C2320085   5.252   1.921   5.970
  177SLPC   H3R20086   5.168   1.875   6.027
  177SLPC   H3S20087   5.312   1.835   5.932
  177SLPC   C2420088   5.216   2.000   5.848
  177SLPC   H4R20089   5.193   2.106   5.874
  177SLPC   H4S20090   5.121   1.958   5.809
  177SLPC   C2520091   5.326   2.002   5.744
  177SLPC   H5R20092   5.428   2.006   5.788
  177SLPC   H5S20093   5.317   2.093   5.680
  177SLPC   C2620094   5.327   1.884   5.643
  177SLPC   H6R20095   5.239   1.892   5.576
  177SLPC   H6S20096   5.334   1.784   5.690
  177SLPC   C2720097   5.447   1.901   5.548
  177SLPC   H7R20098   5.541   1.909   5.608
  177SLPC   H7S20099   5.451   1.995   5.491
  177SLPC   C2820100   5.475   1.783   5.445
  177SLPC   H8R20101   5.383   1.765   5.387
  177SLPC   H8S20102   5.480   1.691   5.507
  177SLPC   C2920103   5.602   1.796   5.367
  177SLPC   H9R20104   5.695   1.805   5.425
  177SLPC  C21020105   5.606   1.808   5.233
  177SLPC  H10R20106   5.711   1.810   5.200
  177SLPC  C21120107   5.489   1.794   5.132
  177SLPC  H11R20108   5.517   1.867   5.053
  177SLPC  H11S20109   5.395   1.842   5.168
  177SLPC  C21220110   5.467   1.652   5.082
  177SLPC  H12R20111   5.458   1.571   5.156
  177SLPC  C21320112   5.468   1.627   4.951
  177SLPC  H13R20113   5.464   1.520   4.926
  177SLPC  C21420114   5.496   1.731   4.852
  177SLPC  H14R20115   5.601   1.765   4.861
  177SLPC  H14S20116   5.425   1.816   4.859
  177SLPC  C21520117   5.460   1.681   4.705
  177SLPC  H15R20118   5.507   1.582   4.690
  177SLPC  H15S20119   5.493   1.753   4.626
  177SLPC  C21620120   5.314   1.676   4.690
  177SLPC  H16R20121   5.285   1.783   4.684
  177SLPC  H16S20122   5.265   1.631   4.779
  177SLPC  C21720123   5.272   1.599   4.561
  177SLPC  H17R20124   5.161   1.606   4.570
  177SLPC  H17S20125   5.313   1.496   4.571
  177SLPC  C21820126   5.302   1.662   4.424
  177SLPC  H18R20127   5.307   1.772   4.444
  177SLPC  H18S20128   5.235   1.618   4.347
  177SLPC  H18T20129   5.403   1.630   4.394
  177SLPC   C3320130   5.812   2.511   6.027
  177SLPC   H3X20131   5.775   2.615   6.038
  177SLPC   H3Y20132   5.805   2.484   5.919
  177SLPC   C3420133   5.956   2.502   6.071
  177SLPC   H4X20134   6.001   2.400   6.068
  177SLPC   H4Y20135   5.962   2.527   6.179
  177SLPC   C3520136   6.058   2.590   5.997
  177SLPC   H5X20137   6.039   2.698   6.017
  177SLPC   H5Y20138   6.036   2.579   5.889
  177SLPC   C3620139   6.207   2.562   6.015
  177SLPC   H6X20140   6.217   2.465   5.961
  177SLPC   H6Y20141   6.224   2.545   6.123
  177SLPC   C3720142   6.297   2.662   5.947
  177SLPC   H7X20143   6.406   2.641   5.947
  177SLPC   H7Y20144   6.293   2.754   6.008
  177SLPC   C3820145   6.268   2.697   5.801
  177SLPC   H8X20146   6.299   2.799   5.770
  177SLPC   H8Y20147   6.158   2.703   5.785
  177SLPC   C3920148   6.329   2.584   5.707
  177SLPC   H9X20149   6.293   2.483   5.737
  177SLPC   H9Y20150   6.439   2.592   5.722
  177SLPC  C31020151   6.309   2.623   5.559
  177SLPC  H10X20152   6.333   2.731   5.546
  177SLPC  H10Y20153   6.201   2.615   5.535
  177SLPC  C31120154   6.398   2.540   5.464
  177SLPC  H11X20155   6.361   2.436   5.475
  177SLPC  H11Y20156   6.502   2.551   5.501
  177SLPC  C31220157   6.388   2.584   5.318
  177SLPC  H12X20158   6.458   2.667   5.291
  177SLPC  H12Y20159   6.285   2.615   5.289
  177SLPC  C31320160   6.453   2.481   5.219
  177SLPC  H13X20161   6.391   2.389   5.217
  177SLPC  H13Y20162   6.556   2.464   5.257
  177SLPC  C31420163   6.450   2.519   5.073
  177SLPC  H14X20164   6.505   2.615   5.062
  177SLPC  H14Y20165   6.344   2.540   5.044
  177SLPC  C31520166   6.517   2.426   4.967
  177SLPC  H15X20167   6.523   2.323   5.007
  177SLPC  H15Y20168   6.623   2.455   4.953
  177SLPC  C31620169   6.437   2.431   4.835
  177SLPC  H16X20170   6.424   2.536   4.802
  177SLPC  H16Y20171   6.332   2.408   4.862
  177SLPC  C31720172   6.494   2.339   4.720
  177SLPC  H17X20173   6.604   2.342   4.706
  177SLPC  H17Y20174   6.442   2.364   4.626
  177SLPC  C31820175   6.429   2.203   4.747
  177SLPC  H18X20176   6.472   2.117   4.691
  177SLPC  H18Y20177   6.320   2.218   4.726
  177SLPC  H18Z20178   6.437   2.177   4.855
  178SLPC     N20179   2.316   0.063   6.385
  178SLPC   C1320180   2.246   0.195   6.400
  178SLPC  H13A20181   2.142   0.177   6.425
  178SLPC  H13B20182   2.287   0.263   6.473
  178SLPC  H13C20183   2.245   0.251   6.308
  178SLPC   C1420184   2.253   6.885   6.279
  178SLPC  H14A20185   2.148   6.873   6.302
  178SLPC  H14B20186   2.266   0.026   6.184
  178SLPC  H14C20187   2.299   6.787   6.273
  178SLPC   C1520188   2.300   6.909   6.521
  178SLPC  H15A20189   2.203   6.868   6.542
  178SLPC  H15B20190   2.367   6.825   6.530
  178SLPC  H15C20191   2.319   0.071   6.600
  178SLPC   C1220192   2.468   0.077   6.358
  178SLPC  H12A20193   2.512   0.125   6.444
  178SLPC  H12B20194   2.483   0.154   6.284
  178SLPC   C1120195   2.557   6.869   6.328
  178SLPC  H11A20196   2.660   6.903   6.306
  178SLPC  H11B20197   2.526   6.811   6.238
  178SLPC     P20198   2.522   6.622   6.425
  178SLPC   O1320199   2.542   6.552   6.558
  178SLPC   O1420200   2.382   6.612   6.369
  178SLPC   O1220201   2.569   6.778   6.436
  178SLPC   O1120202   2.617   6.556   6.321
  178SLPC    C120203   2.759   6.567   6.316
  178SLPC    HA20204   2.801   6.607   6.411
  178SLPC    HB20205   2.799   6.464   6.305
  178SLPC    C220206   2.813   6.638   6.188
  178SLPC    HS20207   2.772   6.741   6.188
  178SLPC   O2120208   2.768   6.569   6.073
  178SLPC   C2120209   2.754   6.635   5.962
  178SLPC   O2220210   2.760   6.755   5.949
  178SLPC   C2220211   2.731   6.528   5.851
  178SLPC   H2R20212   2.810   6.451   5.838
  178SLPC   H2S20213   2.640   6.469   5.875
  178SLPC    C320214   2.969   6.641   6.199
  178SLPC    HX20215   3.003   6.537   6.212
  178SLPC    HY20216   2.992   6.699   6.292
  178SLPC   O3120217   3.029   6.688   6.078
  178SLPC   C3120218   3.031   6.824   6.060
  178SLPC   O3220219   2.991   6.902   6.146
  178SLPC   C3220220   3.106   6.871   5.939
  178SLPC   H2X20221   3.213   6.848   5.958
  178SLPC   H2Y20222   3.093   0.072   5.939
  178SLPC   C2320223   2.721   6.597   5.711
  178SLPC   H3R20224   2.699   6.522   5.633
  178SLPC   H3S20225   2.824   6.637   5.697
  178SLPC   C2420226   2.611   6.689   5.686
  178SLPC   H4R20227   2.594   6.768   5.763
  178SLPC   H4S20228   2.517   6.633   5.705
  178SLPC   C2520229   2.615   6.752   5.543
  178SLPC   H5R20230   2.586   6.663   5.484
  178SLPC   H5S20231   2.719   6.780   5.516
  178SLPC   C2620232   2.520   6.877   5.519
  178SLPC   H6R20233   2.427   6.869   5.578
  178SLPC   H6S20234   2.494   6.883   5.411
  178SLPC   C2720235   2.613   0.088   5.552
  178SLPC   H7R20236   2.714   0.071   5.509
  178SLPC   H7S20237   2.635   0.068   5.659
  178SLPC   C2820238   2.535   0.214   5.518
  178SLPC   H8R20239   2.433   0.202   5.561
  178SLPC   H8S20240   2.525   0.219   5.407
  178SLPC   C2920241   2.605   0.331   5.579
  178SLPC   H9R20242   2.640   0.320   5.683
  178SLPC  C21020243   2.651   0.439   5.507
  178SLPC  H10R20244   2.675   0.529   5.566
  178SLPC  C21120245   2.650   0.455   5.357
  178SLPC  H11R20246   2.666   0.360   5.302
  178SLPC  H11S20247   2.738   0.520   5.339
  178SLPC  C21220248   2.531   0.529   5.300
  178SLPC  H12R20249   2.437   0.525   5.357
  178SLPC  C21320250   2.525   0.590   5.183
  178SLPC  H13R20251   2.425   0.631   5.163
  178SLPC  C21420252   2.631   0.602   5.076
  178SLPC  H14R20253   2.717   0.538   5.103
  178SLPC  H14S20254   2.662   0.709   5.069
  178SLPC  C21520255   2.580   0.542   4.948
  178SLPC  H15R20256   2.487   0.599   4.922
  178SLPC  H15S20257   2.554   0.436   4.966
  178SLPC  C21620258   2.678   0.555   4.829
  178SLPC  H16R20259   2.649   0.469   4.764
  178SLPC  H16S20260   2.780   0.524   4.859
  178SLPC  C21720261   2.677   0.679   4.743
  178SLPC  H17R20262   2.714   0.762   4.806
  178SLPC  H17S20263   2.568   0.688   4.724
  178SLPC  C21820264   2.763   0.666   4.619
  178SLPC  H18R20265   2.853   0.616   4.662
  178SLPC  H18S20266   2.789   0.770   4.588
  178SLPC  H18T20267   2.713   0.611   4.538
  178SLPC   C3320268   3.051   6.815   5.805
  178SLPC   H3X20269   2.960   6.876   5.785
  178SLPC   H3Y20270   3.025   6.708   5.821
  178SLPC   C3420271   3.145   6.830   5.685
  178SLPC   H4X20272   3.231   6.760   5.690
  178SLPC   H4Y20273   3.177   0.025   5.668
  178SLPC   C3520274   3.070   6.811   5.554
  178SLPC   H5X20275   2.968   6.855   5.551
  178SLPC   H5Y20276   3.053   6.704   5.528
  178SLPC   C3620277   3.142   6.854   5.424
  178SLPC   H6X20278   3.239   6.800   5.429
  178SLPC   H6Y20279   3.164   0.053   5.440
  178SLPC   C3720280   3.075   6.830   5.287
  178SLPC   H7X20281   3.056   6.723   5.266
  178SLPC   H7Y20282   3.150   6.868   5.215
  178SLPC   C3820283   2.942   6.903   5.282
  178SLPC   H8X20284   2.950   0.099   5.314
  178SLPC   H8Y20285   2.866   6.864   5.353
  178SLPC   C3920286   2.890   6.899   5.138
  178SLPC   H9X20287   2.878   6.791   5.119
  178SLPC   H9Y20288   2.962   0.039   5.069
  178SLPC  C31020289   2.761   0.068   5.133
  178SLPC  H10X20290   2.778   0.173   5.165
  178SLPC  H10Y20291   2.693   0.025   5.210
  178SLPC  C31120292   2.689   0.053   4.997
  178SLPC  H11X20293   2.689   6.858   4.959
  178SLPC  H11Y20294   2.749   0.119   4.931
  178SLPC  C31220295   2.547   0.094   5.003
  178SLPC  H12X20296   2.530   0.201   5.026
  178SLPC  H12Y20297   2.492   0.029   5.075
  178SLPC  C31320298   2.487   0.065   4.860
  178SLPC  H13X20299   2.509   6.872   4.824
  178SLPC  H13Y20300   2.528   0.143   4.793
  178SLPC  C31420301   2.335   0.081   4.862
  178SLPC  H14X20302   2.306   0.157   4.938
  178SLPC  H14Y20303   2.279   6.899   4.893
  178SLPC  C31520304   2.293   0.129   4.721
  178SLPC  H15X20305   2.356   0.220   4.711
  178SLPC  H15Y20306   2.186   0.158   4.728
  178SLPC  C31620307   2.313   0.021   4.615
  178SLPC  H16X20308   2.269   6.841   4.664
  178SLPC  H16Y20309   2.421   0.005   4.592
  178SLPC  C31720310   2.247   0.056   4.481
  178SLPC  H17X20311   2.305   0.135   4.430
  178SLPC  H17Y20312   2.143   0.088   4.502
  178SLPC  C31820313   2.243   6.844   4.392
  178SLPC  H18X20314   2.317   6.842   4.309
  178SLPC  H18Y20315   2.142   6.858   4.348
  178SLPC  H18Z20316   2.249   6.748   4.446
  179SLPC     N20317   4.444   1.964   2.360
  179SLPC   C1320318   4.440   2.106   2.415
  179SLPC  H13A20319   4.374   2.115   2.499
  179SLPC  H13B20320   4.542   2.141   2.413
  179SLPC  H13C20321   4.394   2.170   2.341
  179SLPC   C1420322   4.477   1.874   2.479
  179SLPC  H14A20323   4.506   1.775   2.445
  179SLPC  H14B20324   4.560   1.909   2.539
  179SLPC  H14C20325   4.393   1.858   2.545
  179SLPC   C1520326   4.548   1.956   2.258
  179SLPC  H15A20327   4.651   1.949   2.287
  179SLPC  H15B20328   4.542   1.862   2.205
  179SLPC  H15C20329   4.546   2.032   2.180
  179SLPC   C1220330   4.304   1.942   2.298
  179SLPC  H12A20331   4.285   2.011   2.218
  179SLPC  H12B20332   4.234   1.970   2.376
  179SLPC   C1120333   4.262   1.795   2.265
  179SLPC  H11A20334   4.353   1.747   2.223
  179SLPC  H11B20335   4.182   1.802   2.188
  179SLPC     P20336   4.084   1.752   2.445
  179SLPC   O1320337   4.094   1.885   2.518
  179SLPC   O1420338   3.985   1.739   2.335
  179SLPC   O1220339   4.218   1.720   2.380
  179SLPC   O1120340   4.057   1.636   2.544
  179SLPC    C120341   4.136   1.597   2.651
  179SLPC    HA20342   4.238   1.641   2.644
  179SLPC    HB20343   4.084   1.638   2.740
  179SLPC    C220344   4.152   1.443   2.646
  179SLPC    HS20345   4.215   1.422   2.558
  179SLPC   O2120346   4.030   1.377   2.646
  179SLPC   C2120347   3.968   1.361   2.535
  179SLPC   O2220348   4.024   1.362   2.426
  179SLPC   C2220349   3.824   1.332   2.569
  179SLPC   H2R20350   3.829   1.222   2.583
  179SLPC   H2S20351   3.788   1.371   2.666
  179SLPC    C320352   4.221   1.383   2.776
  179SLPC    HX20353   4.328   1.411   2.774
  179SLPC    HY20354   4.219   1.273   2.764
  179SLPC   O3120355   4.159   1.427   2.897
  179SLPC   C3120356   4.058   1.346   2.936
  179SLPC   O3220357   4.032   1.237   2.890
  179SLPC   C3220358   3.974   1.429   3.035
  179SLPC   H2X20359   3.967   1.536   3.006
  179SLPC   H2Y20360   4.020   1.414   3.135
  179SLPC   C2320361   3.722   1.376   2.460
  179SLPC   H3R20362   3.728   1.313   2.369
  179SLPC   H3S20363   3.743   1.479   2.426
  179SLPC   C2420364   3.579   1.366   2.513
  179SLPC   H4R20365   3.561   1.434   2.599
  179SLPC   H4S20366   3.566   1.258   2.536
  179SLPC   C2520367   3.478   1.399   2.408
  179SLPC   H5R20368   3.483   1.327   2.324
  179SLPC   H5S20369   3.504   1.496   2.360
  179SLPC   C2620370   3.329   1.417   2.453
  179SLPC   H6R20371   3.297   1.316   2.489
  179SLPC   H6S20372   3.269   1.439   2.362
  179SLPC   C2720373   3.313   1.526   2.565
  179SLPC   H7R20374   3.358   1.618   2.521
  179SLPC   H7S20375   3.381   1.506   2.650
  179SLPC   C2820376   3.170   1.556   2.610
  179SLPC   H8R20377   3.105   1.587   2.526
  179SLPC   H8S20378   3.178   1.645   2.676
  179SLPC   C2920379   3.117   1.431   2.679
  179SLPC   H9R20380   3.055   1.370   2.612
  179SLPC  C21020381   3.131   1.396   2.807
  179SLPC  H10R20382   3.091   1.300   2.842
  179SLPC  C21120383   3.224   1.464   2.900
  179SLPC  H11R20384   3.179   1.521   2.984
  179SLPC  H11S20385   3.275   1.550   2.851
  179SLPC  C21220386   3.320   1.364   2.967
  179SLPC  H12R20387   3.395   1.316   2.902
  179SLPC  C21320388   3.302   1.303   3.088
  179SLPC  H13R20389   3.370   1.224   3.124
  179SLPC  C21420390   3.193   1.346   3.187
  179SLPC  H14R20391   3.126   1.257   3.189
  179SLPC  H14S20392   3.128   1.431   3.158
  179SLPC  C21520393   3.242   1.369   3.326
  179SLPC  H15R20394   3.324   1.444   3.322
  179SLPC  H15S20395   3.294   1.282   3.373
  179SLPC  C21620396   3.135   1.419   3.422
  179SLPC  H16R20397   3.059   1.338   3.417
  179SLPC  H16S20398   3.085   1.512   3.388
  179SLPC  C21720399   3.199   1.418   3.560
  179SLPC  H17R20400   3.261   1.327   3.575
  179SLPC  H17S20401   3.115   1.417   3.633
  179SLPC  C21820402   3.275   1.544   3.597
  179SLPC  H18R20403   3.210   1.629   3.567
  179SLPC  H18S20404   3.368   1.561   3.538
  179SLPC  H18T20405   3.307   1.542   3.703
  179SLPC   C3320406   3.830   1.367   3.044
  179SLPC   H3X20407   3.832   1.260   3.073
  179SLPC   H3Y20408   3.775   1.384   2.949
  179SLPC   C3420409   3.747   1.439   3.147
  179SLPC   H4X20410   3.640   1.417   3.126
  179SLPC   H4Y20411   3.756   1.549   3.136
  179SLPC   C3520412   3.792   1.398   3.286
  179SLPC   H5X20413   3.797   1.287   3.280
  179SLPC   H5Y20414   3.895   1.430   3.313
  179SLPC   C3620415   3.682   1.431   3.385
  179SLPC   H6X20416   3.586   1.386   3.350
  179SLPC   H6Y20417   3.664   1.540   3.379
  179SLPC   C3720418   3.714   1.383   3.527
  179SLPC   H7X20419   3.802   1.437   3.570
  179SLPC   H7Y20420   3.738   1.275   3.515
  179SLPC   C3820421   3.600   1.399   3.628
  179SLPC   H8X20422   3.502   1.381   3.578
  179SLPC   H8Y20423   3.604   1.507   3.654
  179SLPC   C3920424   3.604   1.304   3.751
  179SLPC   H9X20425   3.628   1.199   3.723
  179SLPC   H9Y20426   3.502   1.280   3.789
  179SLPC  C31020427   3.693   1.356   3.866
  179SLPC  H10X20428   3.665   1.463   3.884
  179SLPC  H10Y20429   3.798   1.348   3.830
  179SLPC  C31120430   3.677   1.280   4.002
  179SLPC  H11X20431   3.722   1.178   3.997
  179SLPC  H11Y20432   3.568   1.262   4.014
  179SLPC  C31220433   3.741   1.347   4.124
  179SLPC  H12X20434   3.699   1.447   4.145
  179SLPC  H12Y20435   3.852   1.349   4.110
  179SLPC  C31320436   3.719   1.257   4.259
  179SLPC  H13X20437   3.773   1.160   4.254
  179SLPC  H13Y20438   3.610   1.241   4.275
  179SLPC  C31420439   3.772   1.327   4.386
  179SLPC  H14X20440   3.708   1.317   4.476
  179SLPC  H14Y20441   3.775   1.436   4.364
  179SLPC  C31520442   3.914   1.263   4.409
  179SLPC  H15X20443   3.958   1.267   4.308
  179SLPC  H15Y20444   3.901   1.159   4.446
  179SLPC  C31620445   4.001   1.346   4.498
  179SLPC  H16X20446   3.965   1.330   4.602
  179SLPC  H16Y20447   3.990   1.455   4.480
  179SLPC  C31720448   4.147   1.314   4.495
  179SLPC  H17X20449   4.184   1.304   4.390
  179SLPC  H17Y20450   4.149   1.219   4.553
  179SLPC  C31820451   4.226   1.417   4.569
  179SLPC  H18X20452   4.176   1.435   4.666
  179SLPC  H18Y20453   4.237   1.515   4.517
  179SLPC  H18Z20454   4.328   1.380   4.593
  180SLPC     N20455   1.382   1.554   1.962
  180SLPC   C1320456   1.436   1.416   1.966
  180SLPC  H13A20457   1.417   1.357   1.877
  180SLPC  H13B20458   1.543   1.424   1.978
  180SLPC  H13C20459   1.399   1.365   2.053
  180SLPC   C1420460   1.239   1.546   1.927
  180SLPC  H14A20461   1.187   1.639   1.909
  180SLPC  H14B20462   1.221   1.477   1.846
  180SLPC  H14C20463   1.185   1.497   2.008
  180SLPC   C1520464   1.450   1.631   1.850
  180SLPC  H15A20465   1.447   1.598   1.747
  180SLPC  H15B20466   1.428   1.736   1.844
  180SLPC  H15C20467   1.554   1.628   1.880
  180SLPC   C1220468   1.384   1.625   2.098
  180SLPC  H12A20469   1.307   1.577   2.157
  180SLPC  H12B20470   1.360   1.728   2.079
  180SLPC   C1120471   1.512   1.623   2.186
  180SLPC  H11A20472   1.550   1.520   2.206
  180SLPC  H11B20473   1.482   1.650   2.289
  180SLPC     P20474   1.759   1.647   2.088
  180SLPC   O1320475   1.726   1.539   1.985
  180SLPC   O1420476   1.844   1.764   2.052
  180SLPC   O1220477   1.623   1.710   2.130
  180SLPC   O1120478   1.808   1.581   2.225
  180SLPC    C120479   1.807   1.662   2.342
  180SLPC    HA20480   1.720   1.732   2.344
  180SLPC    HB20481   1.793   1.594   2.429
  180SLPC    C220482   1.947   1.730   2.365
  180SLPC    HS20483   1.977   1.771   2.266
  180SLPC   O2120484   2.043   1.638   2.420
  180SLPC   C2120485   2.166   1.656   2.396
  180SLPC   O2220486   2.207   1.739   2.318
  180SLPC   C2220487   2.242   1.567   2.489
  180SLPC   H2R20488   2.202   1.464   2.476
  180SLPC   H2S20489   2.346   1.573   2.449
  180SLPC    C320490   1.928   1.846   2.462
  180SLPC    HX20491   1.874   1.927   2.408
  180SLPC    HY20492   2.031   1.886   2.476
  180SLPC   O3120493   1.860   1.818   2.584
  180SLPC   C3120494   1.892   1.907   2.676
  180SLPC   O3220495   1.955   2.009   2.660
  180SLPC   C3220496   1.817   1.858   2.803
  180SLPC   H2X20497   1.730   1.796   2.774
  180SLPC   H2Y20498   1.779   1.951   2.851
  180SLPC   C2320499   2.229   1.596   2.640
  180SLPC   H3R20500   2.204   1.498   2.688
  180SLPC   H3S20501   2.152   1.672   2.662
  180SLPC   C2420502   2.357   1.654   2.705
  180SLPC   H4R20503   2.407   1.732   2.644
  180SLPC   H4S20504   2.427   1.568   2.716
  180SLPC   C2520505   2.322   1.719   2.836
  180SLPC   H5R20506   2.259   1.653   2.900
  180SLPC   H5S20507   2.260   1.810   2.820
  180SLPC   C2620508   2.453   1.754   2.913
  180SLPC   H6R20509   2.433   1.859   2.941
  180SLPC   H6S20510   2.534   1.768   2.839
  180SLPC   C2720511   2.492   1.666   3.031
  180SLPC   H7R20512   2.600   1.676   3.054
  180SLPC   H7S20513   2.474   1.566   2.987
  180SLPC   C2820514   2.403   1.679   3.154
  180SLPC   H8R20515   2.430   1.594   3.220
  180SLPC   H8S20516   2.301   1.654   3.119
  180SLPC   C2920517   2.421   1.819   3.219
  180SLPC   H9R20518   2.380   1.897   3.153
  180SLPC  C21020519   2.459   1.842   3.350
  180SLPC  H10R20520   2.465   1.944   3.391
  180SLPC  C21120521   2.495   1.738   3.456
  180SLPC  H11R20522   2.571   1.781   3.525
  180SLPC  H11S20523   2.543   1.651   3.406
  180SLPC  C21220524   2.373   1.679   3.526
  180SLPC  H12R20525   2.276   1.711   3.485
  180SLPC  C21320526   2.376   1.601   3.632
  180SLPC  H13R20527   2.277   1.568   3.667
  180SLPC  C21420528   2.497   1.557   3.713
  180SLPC  H14R20529   2.461   1.547   3.818
  180SLPC  H14S20530   2.581   1.630   3.710
  180SLPC  C21520531   2.538   1.421   3.668
  180SLPC  H15R20532   2.589   1.435   3.570
  180SLPC  H15S20533   2.452   1.355   3.643
  180SLPC  C21620534   2.635   1.343   3.759
  180SLPC  H16R20535   2.666   1.245   3.717
  180SLPC  H16S20536   2.583   1.332   3.857
  180SLPC  C21720537   2.764   1.418   3.788
  180SLPC  H17R20538   2.737   1.516   3.832
  180SLPC  H17S20539   2.808   1.442   3.689
  180SLPC  C21820540   2.873   1.349   3.872
  180SLPC  H18R20541   2.961   1.415   3.890
  180SLPC  H18S20542   2.906   1.257   3.820
  180SLPC  H18T20543   2.830   1.321   3.971
  180SLPC   C3320544   1.914   1.784   2.902
  180SLPC   H3X20545   2.016   1.827   2.902
  180SLPC   H3Y20546   1.934   1.678   2.878
  180SLPC   C3420547   1.868   1.790   3.044
  180SLPC   H4X20548   1.817   1.887   3.062
  180SLPC   H4Y20549   1.958   1.795   3.108
  180SLPC   C3520550   1.784   1.675   3.088
  180SLPC   H5X20551   1.818   1.577   3.049
  180SLPC   H5Y20552   1.690   1.698   3.032
  180SLPC   C3620553   1.747   1.679   3.243
  180SLPC   H6X20554   1.671   1.600   3.253
  180SLPC   H6Y20555   1.689   1.770   3.271
  180SLPC   C3720556   1.861   1.650   3.341
  180SLPC   H7X20557   1.929   1.738   3.336
  180SLPC   H7Y20558   1.910   1.553   3.317
  180SLPC   C3820559   1.811   1.646   3.489
  180SLPC   H8X20560   1.730   1.571   3.499
  180SLPC   H8Y20561   1.759   1.743   3.503
  180SLPC   C3920562   1.927   1.628   3.582
  180SLPC   H9X20563   2.003   1.708   3.568
  180SLPC   H9Y20564   1.978   1.530   3.566
  180SLPC  C31020565   1.882   1.625   3.728
  180SLPC  H10X20566   1.805   1.545   3.732
  180SLPC  H10Y20567   1.846   1.727   3.755
  180SLPC  C31120568   1.993   1.592   3.826
  180SLPC  H11X20569   1.963   1.610   3.931
  180SLPC  H11Y20570   2.085   1.652   3.808
  180SLPC  C31220571   2.046   1.451   3.822
  180SLPC  H12X20572   2.098   1.448   3.724
  180SLPC  H12Y20573   1.960   1.381   3.811
  180SLPC  C31320574   2.125   1.408   3.945
  180SLPC  H13X20575   2.045   1.378   4.016
  180SLPC  H13Y20576   2.174   1.499   3.985
  180SLPC  C31420577   2.221   1.291   3.911
  180SLPC  H14X20578   2.275   1.270   4.005
  180SLPC  H14Y20579   2.287   1.322   3.828
  180SLPC  C31520580   2.148   1.170   3.856
  180SLPC  H15X20581   2.220   1.095   3.817
  180SLPC  H15Y20582   2.091   1.209   3.768
  180SLPC  C31620583   2.040   1.105   3.947
  180SLPC  H16X20584   1.997   1.032   3.875
  180SLPC  H16Y20585   1.946   1.159   3.974
  180SLPC  C31720586   2.092   1.037   4.073
  180SLPC  H17X20587   2.058   1.088   4.166
  180SLPC  H17Y20588   2.203   1.050   4.073
  180SLPC  C31820589   2.050   0.890   4.090
  180SLPC  H18X20590   2.094   0.834   4.004
  180SLPC  H18Y20591   1.939   0.894   4.088
  180SLPC  H18Z20592   2.078   0.856   4.191
  181SLPC     N20593   0.875   0.056   2.280
  181SLPC   C1320594   0.958   6.875   2.189
  181SLPC  H13A20595   0.915   6.776   2.182
  181SLPC  H13B20596   0.971   0.017   2.095
  181SLPC  H13C20597   1.057   6.868   2.233
  181SLPC   C1420598   0.844   6.885   2.395
  181SLPC  H14A20599   0.928   6.828   2.432
  181SLPC  H14B20600   0.801   0.022   2.482
  181SLPC  H14C20601   0.777   6.805   2.369
  181SLPC   C1520602   0.746   0.088   2.220
  181SLPC  H15A20603   0.705   0.008   2.159
  181SLPC  H15B20604   0.670   0.119   2.290
  181SLPC  H15C20605   0.758   0.162   2.142
  181SLPC   C1220606   0.960   0.181   2.301
  181SLPC  H12A20607   0.906   0.264   2.345
  181SLPC  H12B20608   0.985   0.220   2.203
  181SLPC   C1120609   1.096   0.156   2.375
  181SLPC  H11A20610   1.078   0.078   2.452
  181SLPC  H11B20611   1.130   0.247   2.428
  181SLPC     P20612   1.266   0.208   2.184
  181SLPC   O1320613   1.279   0.140   2.053
  181SLPC   O1420614   1.210   0.345   2.181
  181SLPC   O1220615   1.186   0.114   2.277
  181SLPC   O1120616   1.403   0.215   2.254
  181SLPC    C120617   1.449   0.307   2.354
  181SLPC    HA20618   1.502   0.390   2.304
  181SLPC    HB20619   1.365   0.339   2.419
  181SLPC    C220620   1.543   0.257   2.460
  181SLPC    HS20621   1.635   0.220   2.410
  181SLPC   O2120622   1.476   0.165   2.544
  181SLPC   C2120623   1.481   0.045   2.488
  181SLPC   O2220624   1.562   0.009   2.404
  181SLPC   C2220625   1.377   6.873   2.558
  181SLPC   H2R20626   1.274   0.005   2.557
  181SLPC   H2S20627   1.368   6.787   2.489
  181SLPC    C320628   1.587   0.385   2.540
  181SLPC    HX20629   1.498   0.429   2.589
  181SLPC    HY20630   1.628   0.451   2.461
  181SLPC   O3120631   1.680   0.344   2.639
  181SLPC   C3120632   1.738   0.447   2.710
  181SLPC   O3220633   1.710   0.563   2.692
  181SLPC   C3220634   1.838   0.392   2.813
  181SLPC   H2X20635   1.938   0.406   2.766
  181SLPC   H2Y20636   1.807   0.286   2.822
  181SLPC   C2320637   1.414   6.834   2.705
  181SLPC   H3R20638   1.511   6.782   2.714
  181SLPC   H3S20639   1.356   6.745   2.739
  181SLPC   C2420640   1.394   0.039   2.805
  181SLPC   H4R20641   1.285   0.059   2.813
  181SLPC   H4S20642   1.456   0.128   2.781
  181SLPC   C2520643   1.447   6.890   2.939
  181SLPC   H5R20644   1.545   6.845   2.910
  181SLPC   H5S20645   1.373   6.815   2.973
  181SLPC   C2620646   1.467   0.098   3.045
  181SLPC   H6R20647   1.366   0.144   3.053
  181SLPC   H6S20648   1.540   0.175   3.014
  181SLPC   C2720649   1.506   0.044   3.186
  181SLPC   H7R20650   1.533   0.133   3.248
  181SLPC   H7S20651   1.596   6.889   3.179
  181SLPC   C2820652   1.392   6.877   3.247
  181SLPC   H8R20653   1.364   6.786   3.190
  181SLPC   H8S20654   1.305   0.037   3.248
  181SLPC   C2920655   1.442   6.843   3.386
  181SLPC   H9R20656   1.521   6.767   3.385
  181SLPC  C21020657   1.410   6.900   3.504
  181SLPC  H10R20658   1.448   6.860   3.599
  181SLPC  C21120659   1.311   0.102   3.522
  181SLPC  H11R20660   1.305   0.155   3.425
  181SLPC  H11S20661   1.362   0.166   3.597
  181SLPC  C21220662   1.173   0.039   3.567
  181SLPC  H12R20663   1.116   0.018   3.475
  181SLPC  C21320664   1.116   0.028   3.687
  181SLPC  H13R20665   1.027   6.873   3.698
  181SLPC  C21420666   1.186   0.067   3.814
  181SLPC  H14R20667   1.274   0.133   3.800
  181SLPC  H14S20668   1.234   6.881   3.847
  181SLPC  C21520669   1.087   0.117   3.912
  181SLPC  H15R20670   1.132   0.093   4.010
  181SLPC  H15S20671   0.992   0.061   3.924
  181SLPC  C21620672   1.084   0.273   3.907
  181SLPC  H16R20673   1.020   0.302   3.821
  181SLPC  H16S20674   1.182   0.322   3.889
  181SLPC  C21720675   1.038   0.326   4.043
  181SLPC  H17R20676   1.127   0.311   4.108
  181SLPC  H17S20677   0.947   0.272   4.075
  181SLPC  C21820678   1.004   0.482   4.043
  181SLPC  H18R20679   0.992   0.504   4.152
  181SLPC  H18S20680   0.909   0.503   3.990
  181SLPC  H18T20681   1.087   0.538   3.995
  181SLPC   C3320682   1.829   0.448   2.957
  181SLPC   H3X20683   1.813   0.558   2.957
  181SLPC   H3Y20684   1.929   0.423   2.998
  181SLPC   C3420685   1.716   0.394   3.044
  181SLPC   H4X20686   1.642   0.344   2.979
  181SLPC   H4Y20687   1.675   0.485   3.093
  181SLPC   C3520688   1.770   0.294   3.149
  181SLPC   H5X20689   1.880   0.289   3.139
  181SLPC   H5Y20690   1.733   0.197   3.110
  181SLPC   C3620691   1.718   0.309   3.288
  181SLPC   H6X20692   1.607   0.311   3.276
  181SLPC   H6Y20693   1.742   0.409   3.329
  181SLPC   C3720694   1.778   0.210   3.382
  181SLPC   H7X20695   1.887   0.215   3.358
  181SLPC   H7Y20696   1.736   0.110   3.361
  181SLPC   C3820697   1.749   0.246   3.530
  181SLPC   H8X20698   1.640   0.230   3.545
  181SLPC   H8Y20699   1.755   0.353   3.559
  181SLPC   C3920700   1.819   0.142   3.623
  181SLPC   H9X20701   1.917   0.117   3.575
  181SLPC   H9Y20702   1.759   0.049   3.633
  181SLPC  C31020703   1.836   0.204   3.759
  181SLPC  H10X20704   1.878   0.307   3.752
  181SLPC  H10Y20705   1.893   0.145   3.833
  181SLPC  C31120706   1.696   0.235   3.830
  181SLPC  H11X20707   1.639   0.141   3.845
  181SLPC  H11Y20708   1.643   0.312   3.770
  181SLPC  C31220709   1.715   0.290   3.968
  181SLPC  H12X20710   1.774   0.383   3.948
  181SLPC  H12Y20711   1.772   0.212   4.023
  181SLPC  C31320712   1.580   0.322   4.033
  181SLPC  H13X20713   1.506   0.279   3.962
  181SLPC  H13Y20714   1.556   0.429   4.051
  181SLPC  C31420715   1.553   0.247   4.172
  181SLPC  H14X20716   1.632   0.294   4.234
  181SLPC  H14Y20717   1.582   0.140   4.173
  181SLPC  C31520718   1.405   0.259   4.212
  181SLPC  H15X20719   1.348   0.179   4.160
  181SLPC  H15Y20720   1.369   0.357   4.172
  181SLPC  C31620721   1.390   0.242   4.362
  181SLPC  H16X20722   1.428   0.330   4.420
  181SLPC  H16Y20723   1.450   0.156   4.397
  181SLPC  C31720724   1.243   0.229   4.412
  181SLPC  H17X20725   1.186   0.158   4.347
  181SLPC  H17Y20726   1.181   0.319   4.390
  181SLPC  C31820727   1.229   0.196   4.559
  181SLPC  H18X20728   1.260   0.281   4.624
  181SLPC  H18Y20729   1.295   0.116   4.599
  181SLPC  H18Z20730   1.123   0.167   4.574
  182SLPC     N20731   2.152   6.606   1.607
  182SLPC   C1320732   2.153   6.503   1.502
  182SLPC  H13A20733   2.123   6.538   1.404
  182SLPC  H13B20734   2.259   6.481   1.498
  182SLPC  H13C20735   2.102   6.411   1.523
  182SLPC   C1420736   2.014   6.655   1.631
  182SLPC  H14A20737   1.942   6.574   1.637
  182SLPC  H14B20738   2.006   6.717   1.719
  182SLPC  H14C20739   1.982   6.708   1.543
  182SLPC   C1520740   2.235   6.725   1.570
  182SLPC  H15A20741   2.340   6.710   1.590
  182SLPC  H15B20742   2.217   6.769   1.473
  182SLPC  H15C20743   2.195   6.800   1.637
  182SLPC   C1220744   2.200   6.529   1.736
  182SLPC  H12A20745   2.136   6.447   1.765
  182SLPC  H12B20746   2.182   6.600   1.815
  182SLPC   C1120747   2.344   6.469   1.753
  182SLPC  H11A20748   2.351   6.381   1.685
  182SLPC  H11B20749   2.346   6.432   1.858
  182SLPC     P20750   2.535   6.644   1.825
  182SLPC   O1320751   2.626   6.548   1.885
  182SLPC   O1420752   2.590   6.754   1.743
  182SLPC   O1220753   2.439   6.570   1.727
  182SLPC   O1120754   2.446   6.711   1.937
  182SLPC    C120755   2.507   6.742   2.064
  182SLPC    HA20756   2.609   6.786   2.055
  182SLPC    HB20757   2.443   6.817   2.116
  182SLPC    C220758   2.519   6.630   2.164
  182SLPC    HS20759   2.598   6.561   2.128
  182SLPC   O2120760   2.390   6.570   2.192
  182SLPC   C2120761   2.380   6.449   2.238
  182SLPC   O2220762   2.467   6.365   2.229
  182SLPC   C2220763   2.244   6.426   2.307
  182SLPC   H2R20764   2.160   6.464   2.245
  182SLPC   H2S20765   2.233   6.316   2.302
  182SLPC    C320766   2.578   6.688   2.291
  182SLPC    HX20767   2.498   6.758   2.325
  182SLPC    HY20768   2.672   6.745   2.275
  182SLPC   O3120769   2.599   6.588   2.403
  182SLPC   C3120770   2.711   6.520   2.393
  182SLPC   O3220771   2.789   6.527   2.298
  182SLPC   C3220772   2.729   6.440   2.524
  182SLPC   H2X20773   2.786   6.348   2.499
  182SLPC   H2Y20774   2.630   6.411   2.566
  182SLPC   C2320775   2.221   6.469   2.457
  182SLPC   H3R20776   2.277   6.404   2.528
  182SLPC   H3S20777   2.116   6.445   2.484
  182SLPC   C2420778   2.247   6.616   2.483
  182SLPC   H4R20779   2.350   6.647   2.453
  182SLPC   H4S20780   2.247   6.631   2.593
  182SLPC   C2520781   2.156   6.717   2.404
  182SLPC   H5R20782   2.150   6.675   2.301
  182SLPC   H5S20783   2.197   6.820   2.403
  182SLPC   C2620784   2.012   6.726   2.462
  182SLPC   H6R20785   1.988   6.621   2.488
  182SLPC   H6S20786   1.943   6.767   2.385
  182SLPC   C2720787   2.000   6.818   2.586
  182SLPC   H7R20788   2.033   0.012   2.563
  182SLPC   H7S20789   2.073   6.784   2.662
  182SLPC   C2820790   1.860   6.819   2.650
  182SLPC   H8R20791   1.813   6.724   2.683
  182SLPC   H8S20792   1.790   6.852   2.570
  182SLPC   C2920793   1.850   0.015   2.763
  182SLPC   H9R20794   1.810   0.113   2.733
  182SLPC  C21020795   1.875   6.889   2.890
  182SLPC  H10R20796   1.866   0.062   2.962
  182SLPC  C21120797   1.912   6.756   2.948
  182SLPC  H11R20798   1.905   6.680   2.868
  182SLPC  H11S20799   1.839   6.725   3.026
  182SLPC  C21220800   2.051   6.746   3.005
  182SLPC  H12R20801   2.122   6.740   2.922
  182SLPC  C21320802   2.089   6.765   3.132
  182SLPC  H13R20803   2.198   6.761   3.144
  182SLPC  C21420804   2.012   6.803   3.255
  182SLPC  H14R20805   1.903   6.785   3.237
  182SLPC  H14S20806   2.023   0.002   3.278
  182SLPC  C21520807   2.062   6.709   3.369
  182SLPC  H15R20808   2.057   6.602   3.338
  182SLPC  H15S20809   1.999   6.722   3.459
  182SLPC  C21620810   2.206   6.740   3.419
  182SLPC  H16R20811   2.204   6.851   3.420
  182SLPC  H16S20812   2.285   6.711   3.348
  182SLPC  C21720813   2.249   6.695   3.561
  182SLPC  H17R20814   2.358   6.715   3.565
  182SLPC  H17S20815   2.238   6.586   3.581
  182SLPC  C21820816   2.192   6.767   3.681
  182SLPC  H18R20817   2.226   6.872   3.680
  182SLPC  H18S20818   2.226   6.716   3.773
  182SLPC  H18T20819   2.081   6.757   3.676
  182SLPC   C3320820   2.809   6.518   2.630
  182SLPC   H3X20821   2.758   6.615   2.648
  182SLPC   H3Y20822   2.909   6.551   2.595
  182SLPC   C3420823   2.820   6.447   2.761
  182SLPC   H4X20824   2.893   6.363   2.760
  182SLPC   H4Y20825   2.729   6.388   2.783
  182SLPC   C3520826   2.862   6.529   2.889
  182SLPC   H5X20827   2.789   6.509   2.970
  182SLPC   H5Y20828   2.846   6.637   2.866
  182SLPC   C3620829   3.002   6.503   2.939
  182SLPC   H6X20830   3.024   6.587   3.009
  182SLPC   H6Y20831   3.085   6.512   2.866
  182SLPC   C3720832   3.003   6.368   3.012
  182SLPC   H7X20833   3.006   6.290   2.934
  182SLPC   H7Y20834   2.907   6.352   3.066
  182SLPC   C3820835   3.123   6.362   3.109
  182SLPC   H8X20836   3.122   6.459   3.164
  182SLPC   H8Y20837   3.221   6.365   3.058
  182SLPC   C3920838   3.129   6.236   3.198
  182SLPC   H9X20839   3.128   6.151   3.126
  182SLPC   H9Y20840   3.029   6.232   3.246
  182SLPC  C31020841   3.252   6.237   3.288
  182SLPC  H10X20842   3.342   6.248   3.224
  182SLPC  H10Y20843   3.248   6.135   3.333
  182SLPC  C31120844   3.239   6.342   3.393
  182SLPC  H11X20845   3.137   6.334   3.434
  182SLPC  H11Y20846   3.239   6.434   3.331
  182SLPC  C31220847   3.350   6.332   3.501
  182SLPC  H12X20848   3.453   6.331   3.460
  182SLPC  H12Y20849   3.336   6.230   3.544
  182SLPC  C31320850   3.349   6.424   3.624
  182SLPC  H13X20851   3.255   6.413   3.682
  182SLPC  H13Y20852   3.351   6.529   3.586
  182SLPC  C31420853   3.476   6.401   3.707
  182SLPC  H14X20854   3.570   6.397   3.647
  182SLPC  H14Y20855   3.467   6.301   3.755
  182SLPC  C31520856   3.497   6.504   3.822
  182SLPC  H15X20857   3.580   6.482   3.892
  182SLPC  H15Y20858   3.402   6.516   3.879
  182SLPC  C31620859   3.533   6.635   3.771
  182SLPC  H16X20860   3.480   6.660   3.676
  182SLPC  H16Y20861   3.639   6.628   3.739
  182SLPC  C31720862   3.533   6.757   3.869
  182SLPC  H17X20863   3.426   6.775   3.894
  182SLPC  H17Y20864   3.560   6.847   3.810
  182SLPC  C31820865   3.613   6.742   4.005
  182SLPC  H18X20866   3.586   6.645   4.051
  182SLPC  H18Y20867   3.602   6.827   4.076
  182SLPC  H18Z20868   3.721   6.739   3.980
  183SLPC     N20869   6.171   2.833   2.223
  183SLPC   C1320870   6.304   2.770   2.245
  183SLPC  H13A20871   6.303   2.693   2.320
  183SLPC  H13B20872   6.342   2.727   2.153
  183SLPC  H13C20873   6.373   2.850   2.270
  183SLPC   C1420874   6.084   2.737   2.154
  183SLPC  H14A20875   5.986   2.783   2.154
  183SLPC  H14B20876   6.122   2.710   2.056
  183SLPC  H14C20877   6.075   2.649   2.215
  183SLPC   C1520878   6.184   2.951   2.140
  183SLPC  H15A20879   6.240   3.030   2.188
  183SLPC  H15B20880   6.239   2.937   2.049
  183SLPC  H15C20881   6.086   2.994   2.125
  183SLPC   C1220882   6.101   2.864   2.365
  183SLPC  H12A20883   6.161   2.923   2.433
  183SLPC  H12B20884   6.076   2.774   2.419
  183SLPC   C1120885   5.979   2.965   2.362
  183SLPC  H11A20886   6.029   3.054   2.318
  183SLPC  H11B20887   5.936   2.995   2.460
  183SLPC     P20888   5.758   2.836   2.310
  183SLPC   O1320889   5.670   2.904   2.405
  183SLPC   O1420890   5.696   2.786   2.186
  183SLPC   O1220891   5.875   2.926   2.265
  183SLPC   O1120892   5.846   2.713   2.365
  183SLPC    C120893   5.784   2.629   2.467
  183SLPC    HA20894   5.674   2.637   2.476
  183SLPC    HB20895   5.814   2.526   2.440
  183SLPC    C220896   5.845   2.661   2.606
  183SLPC    HS20897   5.797   2.617   2.696
  183SLPC   O2120898   5.849   2.799   2.643
  183SLPC   C2120899   5.737   2.853   2.684
  183SLPC   O2220900   5.629   2.795   2.685
  183SLPC   C2220901   5.752   3.000   2.707
  183SLPC   H2R20902   5.858   3.028   2.690
  183SLPC   H2S20903   5.695   3.048   2.625
  183SLPC    C320904   5.992   2.607   2.609
  183SLPC    HX20905   6.034   2.603   2.506
  183SLPC    HY20906   5.985   2.497   2.622
  183SLPC   O3120907   6.083   2.686   2.693
  183SLPC   C3120908   6.042   2.685   2.818
  183SLPC   O3220909   5.945   2.622   2.861
  183SLPC   C3220910   6.122   2.786   2.895
  183SLPC   H2X20911   6.151   2.873   2.832
  183SLPC   H2Y20912   6.210   2.721   2.915
  183SLPC   C2320913   5.693   3.048   2.843
  183SLPC   H3R20914   5.708   2.969   2.920
  183SLPC   H3S20915   5.582   3.051   2.841
  183SLPC   C2420916   5.734   3.190   2.879
  183SLPC   H4R20917   5.700   3.202   2.985
  183SLPC   H4S20918   5.676   3.259   2.815
  183SLPC   C2520919   5.887   3.221   2.876
  183SLPC   H5R20920   5.916   3.263   2.777
  183SLPC   H5S20921   5.950   3.131   2.892
  183SLPC   C2620922   5.915   3.341   2.972
  183SLPC   H6R20923   5.821   3.399   2.980
  183SLPC   H6S20924   5.998   3.398   2.925
  183SLPC   C2720925   5.974   3.290   3.112
  183SLPC   H7R20926   6.074   3.242   3.100
  183SLPC   H7S20927   5.903   3.216   3.154
  183SLPC   C2820928   5.979   3.397   3.224
  183SLPC   H8R20929   5.999   3.348   3.321
  183SLPC   H8S20930   5.876   3.436   3.237
  183SLPC   C2920931   6.078   3.512   3.215
  183SLPC   H9R20932   6.064   3.567   3.121
  183SLPC  C21020933   6.185   3.559   3.281
  183SLPC  H10R20934   6.234   3.652   3.251
  183SLPC  C21120935   6.230   3.499   3.416
  183SLPC  H11R20936   6.177   3.406   3.445
  183SLPC  H11S20937   6.183   3.571   3.486
  183SLPC  C21220938   6.371   3.484   3.459
  183SLPC  H12R20939   6.407   3.381   3.442
  183SLPC  C21320940   6.450   3.582   3.509
  183SLPC  H13R20941   6.558   3.565   3.520
  183SLPC  C21420942   6.419   3.728   3.521
  183SLPC  H14R20943   6.311   3.740   3.497
  183SLPC  H14S20944   6.489   3.792   3.464
  183SLPC  C21520945   6.445   3.767   3.670
  183SLPC  H15R20946   6.375   3.708   3.732
  183SLPC  H15S20947   6.411   3.873   3.682
  183SLPC  C21620948   6.585   3.755   3.715
  183SLPC  H16R20949   6.649   3.818   3.650
  183SLPC  H16S20950   6.626   3.652   3.713
  183SLPC  C21720951   6.604   3.792   3.862
  183SLPC  H17R20952   6.713   3.796   3.884
  183SLPC  H17S20953   6.550   3.732   3.938
  183SLPC  C21820954   6.560   3.930   3.888
  183SLPC  H18R20955   6.589   3.957   3.992
  183SLPC  H18S20956   6.451   3.942   3.869
  183SLPC  H18T20957   6.614   3.990   3.812
  183SLPC   C3320958   6.046   2.836   3.023
  183SLPC   H3X20959   5.990   2.750   3.065
  183SLPC   H3Y20960   5.966   2.907   2.990
  183SLPC   C3420961   6.136   2.900   3.129
  183SLPC   H4X20962   6.189   2.981   3.074
  183SLPC   H4Y20963   6.217   2.837   3.169
  183SLPC   C3520964   6.063   2.964   3.250
  183SLPC   H5X20965   6.023   2.887   3.319
  183SLPC   H5Y20966   5.979   3.028   3.214
  183SLPC   C3620967   6.161   3.046   3.333
  183SLPC   H6X20968   6.192   3.132   3.270
  183SLPC   H6Y20969   6.251   2.982   3.350
  183SLPC   C3720970   6.093   3.082   3.466
  183SLPC   H7X20971   6.058   2.984   3.505
  183SLPC   H7Y20972   6.016   3.160   3.448
  183SLPC   C3820973   6.194   3.140   3.571
  183SLPC   H8X20974   6.217   3.240   3.528
  183SLPC   H8Y20975   6.293   3.091   3.576
  183SLPC   C3920976   6.122   3.158   3.697
  183SLPC   H9X20977   6.103   3.057   3.737
  183SLPC   H9Y20978   6.020   3.202   3.689
  183SLPC  C31020979   6.209   3.223   3.805
  183SLPC  H10X20980   6.305   3.171   3.823
  183SLPC  H10Y20981   6.150   3.208   3.898
  183SLPC  C31120982   6.232   3.373   3.780
  183SLPC  H11X20983   6.136   3.407   3.733
  183SLPC  H11Y20984   6.307   3.387   3.699
  183SLPC  C31220985   6.261   3.462   3.911
  183SLPC  H12X20986   6.178   3.438   3.981
  183SLPC  H12Y20987   6.265   3.571   3.893
  183SLPC  C31320988   6.399   3.430   3.968
  183SLPC  H13X20989   6.474   3.471   3.897
  183SLPC  H13Y20990   6.416   3.321   3.981
  183SLPC  C31420991   6.429   3.512   4.096
  183SLPC  H14X20992   6.350   3.483   4.168
  183SLPC  H14Y20993   6.408   3.619   4.075
  183SLPC  C31520994   6.572   3.489   4.167
  183SLPC  H15X20995   6.655   3.518   4.098
  183SLPC  H15Y20996   6.578   3.381   4.188
  183SLPC  C31620997   6.573   3.557   4.298
  183SLPC  H16X20998   6.638   3.514   4.377
  183SLPC  H16Y20999   6.471   3.561   4.343
  183SLPC  C31721000   6.603   3.713   4.289
  183SLPC  H17X21001   6.560   3.765   4.378
  183SLPC  H17Y21002   6.544   3.751   4.203
  183SLPC  C31821003   6.749   3.748   4.263
  183SLPC  H18X21004   6.820   3.682   4.316
  183SLPC  H18Y21005   6.779   3.850   4.296
  183SLPC  H18Z21006   6.766   3.745   4.153
  184SLPC     N21007   6.733   1.878   2.152
  184SLPC   C1321008   6.845   1.800   2.225
  184SLPC  H13A21009   0.027   1.797   2.167
  184SLPC  H13B21010   6.866   1.850   2.318
  184SLPC  H13C21011   6.809   1.702   2.255
  184SLPC   C1421012   6.726   1.813   2.018
  184SLPC  H14A21013   6.810   1.830   1.953
  184SLPC  H14B21014   6.725   1.707   2.041
  184SLPC  H14C21015   6.637   1.843   1.965
  184SLPC   C1521016   6.779   2.021   2.137
  184SLPC  H15A21017   6.878   2.024   2.096
  184SLPC  H15B21018   6.720   2.081   2.069
  184SLPC  H15C21019   6.774   2.071   2.233
  184SLPC   C1221020   6.599   1.874   2.237
  184SLPC  H12A21021   6.548   1.779   2.233
  184SLPC  H12B21022   6.530   1.937   2.184
  184SLPC   C1121023   6.601   1.917   2.388
  184SLPC  H11A21024   6.679   1.859   2.441
  184SLPC  H11B21025   6.508   1.892   2.443
  184SLPC     P21026   6.513   2.168   2.413
  184SLPC   O1321027   6.459   2.194   2.276
  184SLPC   O1421028   6.419   2.125   2.515
  184SLPC   O1221029   6.632   2.056   2.396
  184SLPC   O1121030   6.593   2.290   2.457
  184SLPC    C121031   6.712   2.283   2.544
  184SLPC    HA21032   6.766   2.186   2.541
  184SLPC    HB21033   6.791   2.350   2.505
  184SLPC    C221034   6.675   2.314   2.697
  184SLPC    HS21035   6.773   2.319   2.751
  184SLPC   O2121036   6.583   2.215   2.753
  184SLPC   C2121037   6.636   2.095   2.778
  184SLPC   O2221038   6.746   2.058   2.748
  184SLPC   C2221039   6.530   2.020   2.851
  184SLPC   H2R21040   6.443   2.083   2.879
  184SLPC   H2S21041   6.492   1.953   2.771
  184SLPC    C321042   6.617   2.459   2.703
  184SLPC    HX21043   6.519   2.474   2.653
  184SLPC    HY21044   6.682   2.532   2.649
  184SLPC   O3121045   6.609   2.501   2.842
  184SLPC   C3121046   6.490   2.498   2.903
  184SLPC   O3221047   6.388   2.470   2.845
  184SLPC   C3221048   6.500   2.529   3.053
  184SLPC   H2X21049   6.523   2.638   3.052
  184SLPC   H2Y21050   6.587   2.479   3.100
  184SLPC   C2321051   6.590   1.949   2.971
  184SLPC   H3R21052   6.691   1.909   2.947
  184SLPC   H3S21053   6.525   1.860   2.986
  184SLPC   C2421054   6.608   2.037   3.099
  184SLPC   H4R21055   6.657   2.133   3.074
  184SLPC   H4S21056   6.688   1.991   3.161
  184SLPC   C2521057   6.483   2.069   3.183
  184SLPC   H5R21058   6.434   1.974   3.213
  184SLPC   H5S21059   6.416   2.124   3.113
  184SLPC   C2621060   6.514   2.160   3.301
  184SLPC   H6R21061   6.536   2.259   3.254
  184SLPC   H6S21062   6.600   2.109   3.349
  184SLPC   C2721063   6.390   2.182   3.390
  184SLPC   H7R21064   6.358   2.088   3.441
  184SLPC   H7S21065   6.313   2.232   3.329
  184SLPC   C2821066   6.421   2.271   3.515
  184SLPC   H8R21067   6.455   2.370   3.478
  184SLPC   H8S21068   6.506   2.229   3.573
  184SLPC   C2921069   6.294   2.291   3.592
  184SLPC   H9R21070   6.228   2.368   3.551
  184SLPC  C21021071   6.275   2.250   3.719
  184SLPC  H10R21072   6.177   2.266   3.765
  184SLPC  C21121073   6.384   2.174   3.797
  184SLPC  H11R21074   6.471   2.240   3.817
  184SLPC  H11S21075   6.429   2.089   3.742
  184SLPC  C21221076   6.325   2.109   3.924
  184SLPC  H12R21077   6.313   2.000   3.913
  184SLPC  C21321078   6.258   2.167   4.024
  184SLPC  H13R21079   6.200   2.115   4.101
  184SLPC  C21421080   6.257   2.313   4.051
  184SLPC  H14R21081   6.153   2.349   4.040
  184SLPC  H14S21082   6.325   2.377   3.991
  184SLPC  C21521083   6.301   2.332   4.197
  184SLPC  H15R21084   6.407   2.301   4.213
  184SLPC  H15S21085   6.224   2.281   4.259
  184SLPC  C21621086   6.286   2.481   4.239
  184SLPC  H16R21087   6.185   2.524   4.221
  184SLPC  H16S21088   6.356   2.535   4.170
  184SLPC  C21721089   6.326   2.495   4.387
  184SLPC  H17R21090   6.435   2.473   4.396
  184SLPC  H17S21091   6.268   2.420   4.444
  184SLPC  C21821092   6.291   2.635   4.448
  184SLPC  H18R21093   6.183   2.658   4.437
  184SLPC  H18S21094   6.348   2.715   4.396
  184SLPC  H18T21095   6.310   2.619   4.557
  184SLPC   C3321096   6.370   2.524   3.140
  184SLPC   H3X21097   6.336   2.418   3.145
  184SLPC   H3Y21098   6.292   2.586   3.091
  184SLPC   C3421099   6.393   2.581   3.274
  184SLPC   H4X21100   6.443   2.677   3.253
  184SLPC   H4Y21101   6.457   2.509   3.331
  184SLPC   C3521102   6.266   2.604   3.364
  184SLPC   H5X21103   6.203   2.513   3.360
  184SLPC   H5Y21104   6.209   2.679   3.305
  184SLPC   C3621105   6.312   2.656   3.500
  184SLPC   H6X21106   6.377   2.746   3.495
  184SLPC   H6Y21107   6.382   2.578   3.536
  184SLPC   C3721108   6.181   2.689   3.593
  184SLPC   H7X21109   6.113   2.604   3.571
  184SLPC   H7Y21110   6.132   2.783   3.561
  184SLPC   C3821111   6.209   2.696   3.741
  184SLPC   H8X21112   6.264   2.607   3.779
  184SLPC   H8Y21113   6.110   2.693   3.793
  184SLPC   C3921114   6.280   2.831   3.785
  184SLPC   H9X21115   6.224   2.911   3.733
  184SLPC   H9Y21116   6.382   2.835   3.743
  184SLPC  C31021117   6.295   2.849   3.942
  184SLPC  H10X21118   6.248   2.762   3.993
  184SLPC  H10Y21119   6.233   2.935   3.978
  184SLPC  C31121120   6.437   2.859   3.987
  184SLPC  H11X21121   6.504   2.922   3.924
  184SLPC  H11Y21122   6.488   2.760   3.987
  184SLPC  C31221123   6.454   2.907   4.140
  184SLPC  H12X21124   6.557   2.885   4.175
  184SLPC  H12Y21125   6.383   2.850   4.203
  184SLPC  C31321126   6.424   3.055   4.148
  184SLPC  H13X21127   6.314   3.069   4.148
  184SLPC  H13Y21128   6.453   3.102   4.051
  184SLPC  C31421129   6.488   3.130   4.268
  184SLPC  H14X21130   6.447   3.233   4.260
  184SLPC  H14Y21131   6.597   3.132   4.248
  184SLPC  C31521132   6.461   3.065   4.405
  184SLPC  H15X21133   6.520   2.972   4.413
  184SLPC  H15Y21134   6.354   3.041   4.425
  184SLPC  C31621135   6.508   3.153   4.523
  184SLPC  H16X21136   6.613   3.184   4.507
  184SLPC  H16Y21137   6.503   3.101   4.622
  184SLPC  C31721138   6.406   3.267   4.542
  184SLPC  H17X21139   6.304   3.227   4.561
  184SLPC  H17Y21140   6.405   3.329   4.450
  184SLPC  C31821141   6.433   3.353   4.665
  184SLPC  H18X21142   6.523   3.414   4.643
  184SLPC  H18Y21143   6.472   3.294   4.750
  184SLPC  H18Z21144   6.353   3.417   4.708
  185POPC     N21145   2.155   6.174   6.281
  185POPC   C1221146   2.146   6.027   6.301
  185POPC  H12A21147   2.080   6.008   6.384
  185POPC  H12B21148   2.242   5.990   6.335
  185POPC   C1321149   2.021   6.231   6.240
  185POPC  H13A21150   2.044   6.325   6.192
  185POPC  H13B21151   1.965   6.164   6.176
  185POPC  H13C21152   1.968   6.262   6.329
  185POPC   C1421153   2.200   6.248   6.404
  185POPC  H14A21154   2.142   6.216   6.489
  185POPC  H14B21155   2.305   6.229   6.420
  185POPC  H14C21156   2.183   6.354   6.395
  185POPC   C1521157   2.252   6.202   6.178
  185POPC  H15A21158   2.212   6.193   6.078
  185POPC  H15B21159   2.340   6.142   6.195
  185POPC  H15C21160   2.291   6.302   6.185
  185POPC   C1121161   2.092   5.946   6.189
  185POPC  H11A21162   2.115   5.837   6.199
  185POPC  H11B21163   2.148   5.966   6.095
  185POPC     P21164   1.846   5.868   6.182
  185POPC   O1321165   1.713   5.925   6.150
  185POPC   O1421166   1.859   5.791   6.305
  185POPC   O1221167   1.950   5.980   6.181
  185POPC   O1121168   1.905   5.774   6.066
  185POPC    C121169   1.856   5.780   5.932
  185POPC    HA21170   1.922   5.715   5.871
  185POPC    HB21171   1.854   5.883   5.889
  185POPC    C221172   1.719   5.704   5.920
  185POPC    HS21173   1.652   5.745   5.999
  185POPC   O2121174   1.746   5.561   5.948
  185POPC   C2121175   1.637   5.485   5.966
  185POPC   O2221176   1.520   5.526   5.958
  185POPC   C2221177   1.684   5.335   5.993
  185POPC   H2R21178   1.673   5.295   6.096
  185POPC   H2S21179   1.792   5.330   5.970
  185POPC    C321180   1.656   5.721   5.778
  185POPC    HX21181   1.553   5.680   5.772
  185POPC    HY21182   1.724   5.675   5.703
  185POPC   O3121183   1.650   5.871   5.748
  185POPC   C3121184   1.539   5.934   5.784
  185POPC   O3221185   1.440   5.877   5.825
  185POPC   C3221186   1.571   6.081   5.790
  185POPC   H2X21187   1.679   6.091   5.815
  185POPC   H2Y21188   1.507   6.117   5.874
  185POPC   C2321189   1.605   5.235   5.903
  185POPC   H3R21190   1.497   5.254   5.915
  185POPC   H3S21191   1.612   5.133   5.947
  185POPC   C2421192   1.652   5.236   5.754
  185POPC   H4R21193   1.578   5.166   5.707
  185POPC   H4S21194   1.756   5.198   5.743
  185POPC   C2521195   1.646   5.370   5.679
  185POPC   H5R21196   1.727   5.444   5.698
  185POPC   H5S21197   1.546   5.413   5.698
  185POPC   C2621198   1.645   5.355   5.528
  185POPC   H6R21199   1.579   5.270   5.502
  185POPC   H6S21200   1.745   5.336   5.483
  185POPC   C2721201   1.578   5.480   5.468
  185POPC   H7R21202   1.596   5.572   5.526
  185POPC   H7S21203   1.469   5.461   5.482
  185POPC   C2821204   1.596   5.496   5.318
  185POPC   H8R21205   1.510   5.552   5.276
  185POPC   H8S21206   1.586   5.395   5.272
  185POPC   C2921207   1.735   5.551   5.290
  185POPC   H9121208   1.801   5.464   5.289
  185POPC  C21021209   1.769   5.680   5.274
  185POPC  H10121210   1.874   5.706   5.255
  185POPC  C21121211   1.683   5.803   5.294
  185POPC  H11R21212   1.720   5.862   5.380
  185POPC  H11S21213   1.577   5.777   5.318
  185POPC  C21221214   1.676   5.897   5.163
  185POPC  H12R21215   1.770   5.951   5.136
  185POPC  H12S21216   1.599   5.975   5.183
  185POPC  C21321217   1.649   5.817   5.027
  185POPC  H13R21218   1.556   5.758   5.047
  185POPC  H13S21219   1.741   5.759   5.006
  185POPC  C21421220   1.652   5.916   4.912
  185POPC  H14R21221   1.747   5.973   4.912
  185POPC  H14S21222   1.570   5.990   4.921
  185POPC  C21521223   1.635   5.847   4.778
  185POPC  H15R21224   1.600   5.920   4.703
  185POPC  H15S21225   1.558   5.767   4.786
  185POPC  C21621226   1.764   5.795   4.725
  185POPC  H16R21227   1.815   5.742   4.808
  185POPC  H16S21228   1.828   5.881   4.696
  185POPC  C21721229   1.757   5.709   4.601
  185POPC  H17R21230   1.709   5.611   4.623
  185POPC  H17S21231   1.856   5.681   4.559
  185POPC  C21821232   1.687   5.782   4.485
  185POPC  H18R21233   1.713   5.890   4.476
  185POPC  H18S21234   1.578   5.775   4.500
  185POPC  H18T21235   1.713   5.750   4.381
  185POPC   C3321236   1.528   6.153   5.659
  185POPC   H3X21237   1.528   6.263   5.675
  185POPC   H3Y21238   1.427   6.113   5.637
  185POPC   C3421239   1.632   6.129   5.550
  185POPC   H4X21240   1.641   6.020   5.533
  185POPC   H4Y21241   1.731   6.170   5.579
  185POPC   C3521242   1.595   6.183   5.415
  185POPC   H5X21243   1.654   6.125   5.341
  185POPC   H5Y21244   1.613   6.292   5.407
  185POPC   C3621245   1.440   6.170   5.368
  185POPC   H6X21246   1.375   6.222   5.441
  185POPC   H6Y21247   1.426   6.063   5.393
  185POPC   C3721248   1.415   6.195   5.222
  185POPC   H7X21249   1.509   6.174   5.167
  185POPC   H7Y21250   1.398   6.305   5.218
  185POPC   C3821251   1.307   6.109   5.160
  185POPC   H8X21252   1.207   6.124   5.204
  185POPC   H8Y21253   1.341   6.003   5.166
  185POPC   C3921254   1.303   6.144   5.003
  185POPC   H9X21255   1.406   6.167   4.966
  185POPC   H9Y21256   1.242   6.235   4.993
  185POPC  C31021257   1.265   6.030   4.914
  185POPC  H10X21258   1.158   6.001   4.921
  185POPC  H10Y21259   1.334   5.945   4.932
  185POPC  C31121260   1.270   6.079   4.765
  185POPC  H11X21261   1.375   6.092   4.732
  185POPC  H11Y21262   1.227   6.181   4.773
  185POPC  C31221263   1.188   5.987   4.680
  185POPC  H12X21264   1.084   5.972   4.715
  185POPC  H12Y21265   1.238   5.889   4.691
  185POPC  C31321266   1.181   6.028   4.537
  185POPC  H13X21267   1.135   5.941   4.485
  185POPC  H13Y21268   1.279   6.049   4.487
  185POPC  C31421269   1.073   6.138   4.518
  185POPC  H14X21270   1.090   6.229   4.578
  185POPC  H14Y21271   0.970   6.101   4.538
  185POPC  C31521272   1.073   6.176   4.371
  185POPC  H15X21273   1.038   6.091   4.308
  185POPC  H15Y21274   1.173   6.210   4.337
  185POPC  C31621275   0.983   6.299   4.360
  185POPC  H16X21276   0.889   6.294   4.419
  185POPC  H16Y21277   0.945   6.312   4.256
  185POPC  H16Z21278   1.025   6.397   4.389
  186POPC     N21279   3.788   5.220   6.310
  186POPC   C1221280   3.807   5.334   6.209
  186POPC  H12A21281   3.807   5.431   6.257
  186POPC  H12B21282   3.720   5.344   6.145
  186POPC   C1321283   3.891   5.224   6.423
  186POPC  H13A21284   3.987   5.195   6.383
  186POPC  H13B21285   3.895   5.321   6.471
  186POPC  H13C21286   3.855   5.153   6.496
  186POPC   C1421287   3.664   5.242   6.383
  186POPC  H14A21288   3.576   5.235   6.321
  186POPC  H14B21289   3.664   5.171   6.465
  186POPC  H14C21290   3.660   5.343   6.422
  186POPC   C1521291   3.769   5.085   6.251
  186POPC  H15A21292   3.673   5.090   6.202
  186POPC  H15B21293   3.765   5.005   6.323
  186POPC  H15C21294   3.844   5.058   6.178
  186POPC   C1121295   3.937   5.338   6.122
  186POPC  H11A21296   3.924   5.422   6.050
  186POPC  H11B21297   3.941   5.237   6.076
  186POPC     P21298   4.114   5.500   6.244
  186POPC   O1321299   4.258   5.480   6.243
  186POPC   O1421300   4.053   5.534   6.377
  186POPC   O1221301   4.047   5.355   6.207
  186POPC   O1121302   4.071   5.599   6.133
  186POPC    C121303   3.991   5.710   6.162
  186POPC    HA21304   4.051   5.778   6.227
  186POPC    HB21305   3.902   5.684   6.223
  186POPC    C221306   3.979   5.793   6.034
  186POPC    HS21307   3.910   5.879   6.044
  186POPC   O2121308   3.958   5.710   5.923
  186POPC   C2121309   3.839   5.659   5.920
  186POPC   O2221310   3.755   5.675   6.006
  186POPC   C2221311   3.815   5.571   5.799
  186POPC   H2R21312   3.720   5.606   5.754
  186POPC   H2S21313   3.798   5.470   5.844
  186POPC    C321314   4.114   5.877   6.006
  186POPC    HX21315   4.199   5.808   5.987
  186POPC    HY21316   4.133   5.930   6.102
  186POPC   O3121317   4.099   5.953   5.886
  186POPC   C3121318   4.111   6.086   5.894
  186POPC   O3221319   4.138   6.146   5.996
  186POPC   C3221320   4.120   6.152   5.756
  186POPC   H2X21321   4.093   6.076   5.679
  186POPC   H2Y21322   4.225   6.179   5.728
  186POPC   C2321323   3.920   5.559   5.688
  186POPC   H3R21324   3.887   5.473   5.625
  186POPC   H3S21325   4.015   5.526   5.736
  186POPC   C2421326   3.951   5.678   5.597
  186POPC   H4R21327   4.043   5.647   5.543
  186POPC   H4S21328   3.972   5.770   5.657
  186POPC   C2521329   3.845   5.706   5.494
  186POPC   H5R21330   3.744   5.721   5.537
  186POPC   H5S21331   3.839   5.607   5.444
  186POPC   C2621332   3.876   5.813   5.390
  186POPC   H6R21333   3.971   5.778   5.345
  186POPC   H6S21334   3.882   5.917   5.429
  186POPC   C2721335   3.762   5.821   5.280
  186POPC   H7R21336   3.668   5.821   5.340
  186POPC   H7S21337   3.770   5.727   5.221
  186POPC   C2821338   3.760   5.938   5.180
  186POPC   H8R21339   3.750   6.033   5.236
  186POPC   H8S21340   3.669   5.907   5.125
  186POPC   C2921341   3.885   5.941   5.090
  186POPC   H9121342   3.984   5.947   5.138
  186POPC  C21021343   3.879   5.928   4.956
  186POPC  H10121344   3.974   5.945   4.901
  186POPC  C21121345   3.751   5.912   4.876
  186POPC  H11R21346   3.668   5.971   4.920
  186POPC  H11S21347   3.708   5.810   4.890
  186POPC  C21221348   3.761   5.933   4.731
  186POPC  H12R21349   3.667   5.911   4.677
  186POPC  H12S21350   3.842   5.866   4.694
  186POPC  C21321351   3.805   6.080   4.692
  186POPC  H13R21352   3.914   6.085   4.709
  186POPC  H13S21353   3.746   6.148   4.758
  186POPC  C21421354   3.775   6.111   4.548
  186POPC  H14R21355   3.667   6.098   4.523
  186POPC  H14S21356   3.835   6.031   4.500
  186POPC  C21521357   3.809   6.260   4.528
  186POPC  H15R21358   3.920   6.258   4.523
  186POPC  H15S21359   3.787   6.330   4.611
  186POPC  C21621360   3.760   6.315   4.394
  186POPC  H16R21361   3.651   6.294   4.393
  186POPC  H16S21362   3.810   6.265   4.308
  186POPC  C21721363   3.757   6.466   4.381
  186POPC  H17R21364   3.674   6.514   4.437
  186POPC  H17S21365   3.741   6.495   4.275
  186POPC  C21821366   3.883   6.533   4.421
  186POPC  H18R21367   3.973   6.494   4.369
  186POPC  H18S21368   3.899   6.528   4.531
  186POPC  H18T21369   3.890   6.641   4.397
  186POPC   C3321370   4.021   6.270   5.744
  186POPC   H3X21371   4.047   6.346   5.821
  186POPC   H3Y21372   3.916   6.244   5.770
  186POPC   C3421373   4.025   6.335   5.603
  186POPC   H4X21374   4.130   6.372   5.599
  186POPC   H4Y21375   3.950   6.417   5.606
  186POPC   C3521376   4.006   6.250   5.479
  186POPC   H5X21377   3.909   6.198   5.494
  186POPC   H5Y21378   4.085   6.175   5.457
  186POPC   C3621379   3.999   6.339   5.353
  186POPC   H6X21380   4.093   6.393   5.328
  186POPC   H6Y21381   3.911   6.405   5.370
  186POPC   C3721382   3.971   6.255   5.228
  186POPC   H7X21383   3.883   6.188   5.241
  186POPC   H7Y21384   4.058   6.187   5.214
  186POPC   C3821385   3.938   6.334   5.100
  186POPC   H8X21386   3.999   6.301   5.013
  186POPC   H8Y21387   3.981   6.436   5.111
  186POPC   C3921388   3.790   6.335   5.055
  186POPC   H9X21389   3.726   6.376   5.136
  186POPC   H9Y21390   3.753   6.233   5.032
  186POPC  C31021391   3.766   6.425   4.923
  186POPC  H10X21392   3.846   6.396   4.852
  186POPC  H10Y21393   3.774   6.531   4.955
  186POPC  C31121394   3.625   6.405   4.869
  186POPC  H11X21395   3.551   6.404   4.952
  186POPC  H11Y21396   3.619   6.304   4.823
  186POPC  C31221397   3.586   6.518   4.771
  186POPC  H12X21398   3.626   6.506   4.668
  186POPC  H12Y21399   3.630   6.613   4.808
  186POPC  C31321400   3.439   6.514   4.756
  186POPC  H13X21401   3.388   6.536   4.852
  186POPC  H13Y21402   3.410   6.411   4.725
  186POPC  C31421403   3.383   6.633   4.675
  186POPC  H14X21404   3.419   6.725   4.727
  186POPC  H14Y21405   3.273   6.638   4.691
  186POPC  C31521406   3.418   6.646   4.525
  186POPC  H15X21407   3.395   6.553   4.468
  186POPC  H15Y21408   3.527   6.670   4.523
  186POPC  C31621409   3.339   6.760   4.464
  186POPC  H16X21410   3.297   6.725   4.367
  186POPC  H16Y21411   3.399   6.853   4.451
  186POPC  H16Z21412   3.250   6.781   4.527
  187POPC     N21413   6.633   5.113   2.116
  187POPC   C1221414   6.483   5.125   2.130
  187POPC  H12A21415   6.447   5.024   2.115
  187POPC  H12B21416   6.442   5.175   2.043
  187POPC   C1321417   6.698   5.247   2.120
  187POPC  H13A21418   6.659   5.302   2.036
  187POPC  H13B21419   6.657   5.302   2.203
  187POPC  H13C21420   6.805   5.242   2.109
  187POPC   C1421421   6.688   5.034   2.231
  187POPC  H14A21422   6.656   4.931   2.224
  187POPC  H14B21423   6.794   5.019   2.216
  187POPC  H14C21424   6.667   5.064   2.332
  187POPC   C1521425   6.659   5.048   1.982
  187POPC  H15A21426   6.604   4.955   1.978
  187POPC  H15B21427   6.762   5.027   1.957
  187POPC  H15C21428   6.619   5.120   1.911
  187POPC   C1121429   6.426   5.187   2.259
  187POPC  H11A21430   6.462   5.147   2.356
  187POPC  H11B21431   6.319   5.157   2.256
  187POPC     P21432   6.327   5.411   2.185
  187POPC   O1321433   6.281   5.331   2.068
  187POPC   O1421434   6.376   5.551   2.160
  187POPC   O1221435   6.442   5.330   2.254
  187POPC   O1121436   6.219   5.415   2.297
  187POPC    C121437   6.250   5.447   2.432
  187POPC    HA21438   6.308   5.541   2.437
  187POPC    HB21439   6.307   5.370   2.489
  187POPC    C221440   6.116   5.476   2.504
  187POPC    HS21441   6.135   5.531   2.599
  187POPC   O2121442   6.043   5.354   2.520
  187POPC   C2121443   6.069   5.301   2.644
  187POPC   O2221444   6.142   5.347   2.725
  187POPC   C2221445   5.969   5.182   2.667
  187POPC   H2R21446   6.000   5.139   2.765
  187POPC   H2S21447   5.992   5.117   2.580
  187POPC    C321448   6.033   5.572   2.415
  187POPC    HX21449   5.928   5.560   2.450
  187POPC    HY21450   6.037   5.531   2.312
  187POPC   O3121451   6.083   5.708   2.418
  187POPC   C3121452   6.011   5.809   2.363
  187POPC   O3221453   5.918   5.800   2.283
  187POPC   C3221454   6.068   5.936   2.420
  187POPC   H2X21455   6.072   6.009   2.336
  187POPC   H2Y21456   6.171   5.909   2.452
  187POPC   C2321457   5.812   5.211   2.678
  187POPC   H3R21458   5.766   5.110   2.685
  187POPC   H3S21459   5.759   5.263   2.596
  187POPC   C2421460   5.784   5.295   2.801
  187POPC   H4R21461   5.673   5.299   2.809
  187POPC   H4S21462   5.832   5.394   2.785
  187POPC   C2521463   5.849   5.240   2.931
  187POPC   H5R21464   5.816   5.303   3.015
  187POPC   H5S21465   5.958   5.258   2.921
  187POPC   C2621466   5.810   5.089   2.955
  187POPC   H6R21467   5.866   5.015   2.894
  187POPC   H6S21468   5.704   5.060   2.938
  187POPC   C2721469   5.850   5.065   3.103
  187POPC   H7R21470   5.800   5.141   3.167
  187POPC   H7S21471   5.960   5.082   3.107
  187POPC   C2821472   5.821   4.920   3.146
  187POPC   H8R21473   5.879   4.852   3.080
  187POPC   H8S21474   5.717   4.910   3.108
  187POPC   C2921475   5.819   4.896   3.296
  187POPC   H9121476   5.918   4.900   3.344
  187POPC  C21021477   5.715   4.864   3.370
  187POPC  H10121478   5.724   4.846   3.478
  187POPC  C21121479   5.570   4.857   3.323
  187POPC  H11R21480   5.511   4.775   3.369
  187POPC  H11S21481   5.563   4.827   3.216
  187POPC  C21221482   5.496   4.988   3.324
  187POPC  H12R21483   5.397   4.970   3.278
  187POPC  H12S21484   5.546   5.057   3.252
  187POPC  C21321485   5.482   5.050   3.467
  187POPC  H13R21486   5.560   5.129   3.458
  187POPC  H13S21487   5.501   4.967   3.539
  187POPC  C21421488   5.352   5.128   3.487
  187POPC  H14R21489   5.269   5.060   3.459
  187POPC  H14S21490   5.338   5.215   3.420
  187POPC  C21521491   5.336   5.166   3.639
  187POPC  H15R21492   5.372   5.082   3.701
  187POPC  H15S21493   5.227   5.163   3.659
  187POPC  C21621494   5.403   5.298   3.672
  187POPC  H16R21495   5.400   5.379   3.595
  187POPC  H16S21496   5.511   5.276   3.684
  187POPC  C21721497   5.343   5.364   3.797
  187POPC  H17R21498   5.236   5.383   3.774
  187POPC  H17S21499   5.393   5.461   3.818
  187POPC  C21821500   5.347   5.272   3.920
  187POPC  H18R21501   5.278   5.185   3.911
  187POPC  H18S21502   5.321   5.339   4.005
  187POPC  H18T21503   5.447   5.228   3.940
  187POPC   C3321504   5.982   5.994   2.537
  187POPC   H3X21505   5.998   5.940   2.633
  187POPC   H3Y21506   5.880   6.010   2.496
  187POPC   C3421507   6.046   6.136   2.577
  187POPC   H4X21508   6.054   6.183   2.477
  187POPC   H4Y21509   6.148   6.119   2.616
  187POPC   C3521510   5.960   6.224   2.674
  187POPC   H5X21511   5.857   6.245   2.637
  187POPC   H5Y21512   6.011   6.322   2.679
  187POPC   C3621513   5.950   6.169   2.822
  187POPC   H6X21514   5.969   6.060   2.828
  187POPC   H6Y21515   5.850   6.185   2.868
  187POPC   C3721516   6.067   6.220   2.912
  187POPC   H7X21517   6.070   6.328   2.886
  187POPC   H7Y21518   6.159   6.164   2.884
  187POPC   C3821519   6.037   6.202   3.062
  187POPC   H8X21520   6.011   6.094   3.061
  187POPC   H8Y21521   5.945   6.262   3.084
  187POPC   C3921522   6.149   6.236   3.150
  187POPC   H9X21523   6.184   6.337   3.120
  187POPC   H9Y21524   6.234   6.170   3.124
  187POPC  C31021525   6.120   6.221   3.297
  187POPC  H10X21526   6.087   6.117   3.321
  187POPC  H10Y21527   6.028   6.272   3.333
  187POPC  C31121528   6.253   6.260   3.375
  187POPC  H11X21529   6.212   6.302   3.470
  187POPC  H11Y21530   6.310   6.342   3.328
  187POPC  C31221531   6.338   6.136   3.421
  187POPC  H12X21532   6.386   6.109   3.325
  187POPC  H12Y21533   6.277   6.045   3.438
  187POPC  C31321534   6.438   6.165   3.529
  187POPC  H13X21535   6.507   6.245   3.496
  187POPC  H13Y21536   6.502   6.074   3.539
  187POPC  C31421537   6.380   6.196   3.677
  187POPC  H14X21538   6.304   6.120   3.702
  187POPC  H14Y21539   6.330   6.294   3.658
  187POPC  C31521540   6.486   6.212   3.786
  187POPC  H15X21541   6.552   6.299   3.766
  187POPC  H15Y21542   6.544   6.119   3.765
  187POPC  C31621543   6.433   6.222   3.922
  187POPC  H16X21544   6.511   6.225   4.001
  187POPC  H16Y21545   6.370   6.132   3.937
  187POPC  H16Z21546   6.359   6.304   3.930
  188POPC     N21547   5.606   4.774   1.555
  188POPC   C1221548   5.618   4.815   1.702
  188POPC  H12A21549   5.632   4.922   1.707
  188POPC  H12B21550   5.705   4.766   1.743
  188POPC   C1321551   5.519   4.655   1.537
  188POPC  H13A21552   5.550   4.570   1.596
  188POPC  H13B21553   5.421   4.689   1.567
  188POPC  H13C21554   5.507   4.620   1.436
  188POPC   C1421555   5.541   4.888   1.475
  188POPC  H14A21556   5.539   4.868   1.369
  188POPC  H14B21557   5.442   4.903   1.516
  188POPC  H14C21558   5.605   4.973   1.490
  188POPC   C1521559   5.735   4.743   1.496
  188POPC  H15A21560   5.805   4.826   1.496
  188POPC  H15B21561   5.725   4.698   1.398
  188POPC  H15C21562   5.785   4.664   1.550
  188POPC   C1121563   5.484   4.799   1.795
  188POPC  H11A21564   5.519   4.801   1.900
  188POPC  H11B21565   5.452   4.693   1.783
  188POPC     P21566   5.395   5.039   1.795
  188POPC   O1321567   5.304   5.116   1.712
  188POPC   O1421568   5.539   5.079   1.799
  188POPC   O1221569   5.378   4.885   1.762
  188POPC   O1121570   5.346   5.055   1.947
  188POPC    C121571   5.266   4.951   2.000
  188POPC    HA21572   5.318   4.853   2.010
  188POPC    HB21573   5.177   4.954   1.934
  188POPC    C221574   5.203   4.985   2.135
  188POPC    HS21575   5.140   5.076   2.123
  188POPC   O2121576   5.312   5.000   2.226
  188POPC   C2121577   5.316   5.097   2.321
  188POPC   O2221578   5.228   5.180   2.343
  188POPC   C2221579   5.437   5.081   2.410
  188POPC   H2R21580   5.508   5.163   2.387
  188POPC   H2S21581   5.480   4.981   2.384
  188POPC    C321582   5.109   4.870   2.188
  188POPC    HX21583   5.150   4.769   2.166
  188POPC    HY21584   5.019   4.877   2.124
  188POPC   O3121585   5.069   4.878   2.332
  188POPC   C3121586   4.962   4.961   2.359
  188POPC   O3221587   4.892   5.013   2.276
  188POPC   C3221588   4.939   4.970   2.511
  188POPC   H2X21589   5.005   4.898   2.563
  188POPC   H2Y21590   4.834   4.938   2.527
  188POPC   C2321591   5.398   5.092   2.560
  188POPC   H3R21592   5.482   5.057   2.624
  188POPC   H3S21593   5.301   5.037   2.564
  188POPC   C2421594   5.389   5.241   2.600
  188POPC   H4R21595   5.314   5.302   2.546
  188POPC   H4S21596   5.497   5.265   2.605
  188POPC   C2521597   5.322   5.248   2.748
  188POPC   H5R21598   5.366   5.166   2.809
  188POPC   H5S21599   5.215   5.218   2.749
  188POPC   C2621600   5.356   5.375   2.823
  188POPC   H6R21601   5.271   5.443   2.804
  188POPC   H6S21602   5.456   5.408   2.788
  188POPC   C2721603   5.348   5.337   2.976
  188POPC   H7R21604   5.407   5.244   2.993
  188POPC   H7S21605   5.243   5.324   3.008
  188POPC   C2821606   5.393   5.454   3.069
  188POPC   H8R21607   5.360   5.435   3.174
  188POPC   H8S21608   5.365   5.557   3.037
  188POPC   C2921609   5.546   5.462   3.073
  188POPC   H9121610   5.605   5.398   3.005
  188POPC  C21021611   5.614   5.529   3.165
  188POPC  H10121612   5.719   5.499   3.179
  188POPC  C21121613   5.551   5.611   3.275
  188POPC  H11R21614   5.470   5.555   3.326
  188POPC  H11S21615   5.500   5.704   3.241
  188POPC  C21221616   5.648   5.659   3.385
  188POPC  H12R21617   5.619   5.757   3.428
  188POPC  H12S21618   5.745   5.682   3.335
  188POPC  C21321619   5.666   5.561   3.501
  188POPC  H13R21620   5.568   5.520   3.534
  188POPC  H13S21621   5.712   5.605   3.592
  188POPC  C21421622   5.760   5.441   3.453
  188POPC  H14R21623   5.847   5.499   3.416
  188POPC  H14S21624   5.718   5.369   3.381
  188POPC  C21521625   5.802   5.342   3.572
  188POPC  H15R21626   5.714   5.283   3.605
  188POPC  H15S21627   5.838   5.408   3.654
  188POPC  C21621628   5.905   5.244   3.523
  188POPC  H16R21629   5.991   5.305   3.488
  188POPC  H16S21630   5.879   5.174   3.441
  188POPC  C21721631   5.948   5.144   3.640
  188POPC  H17R21632   5.977   5.191   3.736
  188POPC  H17S21633   6.036   5.092   3.598
  188POPC  C21821634   5.839   5.042   3.673
  188POPC  H18R21635   5.830   4.964   3.595
  188POPC  H18S21636   5.738   5.088   3.682
  188POPC  H18T21637   5.854   4.997   3.773
  188POPC   C3321638   4.978   5.109   2.563
  188POPC   H3X21639   4.914   5.183   2.511
  188POPC   H3Y21640   5.083   5.140   2.541
  188POPC   C3421641   4.956   5.119   2.713
  188POPC   H4X21642   4.852   5.101   2.745
  188POPC   H4Y21643   4.985   5.220   2.749
  188POPC   C3521644   5.040   5.025   2.799
  188POPC   H5X21645   5.143   5.023   2.757
  188POPC   H5Y21646   4.987   4.927   2.804
  188POPC   C3621647   5.060   5.068   2.944
  188POPC   H6X21648   5.106   5.168   2.957
  188POPC   H6Y21649   5.134   4.998   2.990
  188POPC   C3721650   4.925   5.065   3.028
  188POPC   H7X21651   4.879   4.966   3.010
  188POPC   H7Y21652   4.849   5.133   2.984
  188POPC   C3821653   4.935   5.097   3.177
  188POPC   H8X21654   5.003   5.025   3.227
  188POPC   H8Y21655   4.840   5.083   3.232
  188POPC   C3921656   4.979   5.242   3.213
  188POPC   H9X21657   4.901   5.314   3.182
  188POPC   H9Y21658   5.070   5.267   3.154
  188POPC  C31021659   5.003   5.248   3.364
  188POPC  H10X21660   5.100   5.197   3.377
  188POPC  H10Y21661   4.927   5.180   3.409
  188POPC  C31121662   4.988   5.385   3.425
  188POPC  H11X21663   4.967   5.367   3.533
  188POPC  H11Y21664   4.917   5.452   3.373
  188POPC  C31221665   5.121   5.459   3.415
  188POPC  H12X21666   5.150   5.484   3.311
  188POPC  H12Y21667   5.197   5.394   3.464
  188POPC  C31321668   5.122   5.598   3.497
  188POPC  H13X21669   5.145   5.570   3.602
  188POPC  H13Y21670   5.019   5.641   3.493
  188POPC  C31421671   5.213   5.716   3.448
  188POPC  H14X21672   5.166   5.748   3.352
  188POPC  H14Y21673   5.312   5.669   3.430
  188POPC  C31521674   5.237   5.825   3.546
  188POPC  H15X21675   5.142   5.841   3.602
  188POPC  H15Y21676   5.274   5.919   3.502
  188POPC  C31621677   5.342   5.787   3.657
  188POPC  H16X21678   5.362   5.881   3.712
  188POPC  H16Y21679   5.432   5.740   3.613
  188POPC  H16Z21680   5.295   5.729   3.740
  189SAPI   C1221681   3.087   5.230   6.860
  189SAPI    H221682   2.977   5.213   6.859
  189SAPI    O221683   3.122   5.324   6.966
  189SAPI   HO221684   3.046   5.380   6.984
  189SAPI   C1321685   3.154   5.095   6.890
  189SAPI    H321686   3.127   5.031   6.803
  189SAPI    O321687   3.100   5.030   7.009
  189SAPI   HO321688   3.097   4.935   6.991
  189SAPI   C1421689   3.301   5.119   6.901
  189SAPI    H421690   3.305   5.177   6.995
  189SAPI    O421691   3.374   4.998   6.924
  189SAPI   HO421692   3.414   4.996   7.011
  189SAPI   C1521693   3.359   5.192   6.782
  189SAPI    H521694   3.378   5.110   6.709
  189SAPI    O521695   3.493   5.244   6.804
  189SAPI   HO521696   3.551   5.203   6.740
  189SAPI   C1621697   3.269   5.297   6.710
  189SAPI    H621698   3.289   5.395   6.758
  189SAPI    O621699   3.301   5.307   6.569
  189SAPI   HO621700   3.309   5.400   6.546
  189SAPI   C1121701   3.117   5.273   6.725
  189SAPI    H121702   3.104   5.185   6.660
  189SAPI     P21703   2.905   5.396   6.608
  189SAPI   O1321704   2.854   5.535   6.602
  189SAPI   O1421705   2.818   5.302   6.676
  189SAPI   O1221706   3.053   5.392   6.677
  189SAPI   O1121707   2.927   5.346   6.462
  189SAPI    C121708   3.022   5.405   6.376
  189SAPI    HA21709   3.057   5.501   6.419
  189SAPI    HB21710   3.118   5.349   6.368
  189SAPI    C221711   2.964   5.427   6.230
  189SAPI    HS21712   3.026   5.504   6.179
  189SAPI   O2121713   2.830   5.458   6.243
  189SAPI   C2121714   2.807   5.587   6.276
  189SAPI   O2221715   2.892   5.672   6.270
  189SAPI   C2221716   2.654   5.601   6.319
  189SAPI   H2R21717   2.609   5.500   6.329
  189SAPI   H2S21718   2.650   5.644   6.421
  189SAPI    C321719   2.970   5.299   6.143
  189SAPI    HX21720   2.887   5.236   6.181
  189SAPI    HY21721   3.069   5.248   6.154
  189SAPI   O3121722   2.945   5.328   6.003
  189SAPI   C3121723   2.895   5.213   5.946
  189SAPI   O3221724   2.904   5.105   5.991
  189SAPI   C3221725   2.857   5.235   5.798
  189SAPI   H2X21726   2.751   5.202   5.789
  189SAPI   H2Y21727   2.928   5.178   5.735
  189SAPI   C2321728   2.565   5.679   6.217
  189SAPI   H3R21729   2.604   5.783   6.219
  189SAPI   H3S21730   2.456   5.679   6.239
  189SAPI   C2421731   2.592   5.635   6.072
  189SAPI   H4R21732   2.558   5.531   6.056
  189SAPI   H4S21733   2.699   5.629   6.045
  189SAPI   C2521734   2.514   5.735   5.982
  189SAPI   H5R21735   2.530   5.843   5.997
  189SAPI   C2621736   2.432   5.705   5.876
  189SAPI   H6R21737   2.386   5.786   5.816
  189SAPI   C2721738   2.398   5.567   5.818
  189SAPI   H7R21739   2.458   5.493   5.876
  189SAPI   H7S21740   2.437   5.570   5.714
  189SAPI   C2821741   2.251   5.550   5.811
  189SAPI   H8R21742   2.202   5.556   5.910
  189SAPI   C2921743   2.171   5.524   5.702
  189SAPI   H9R21744   2.064   5.502   5.715
  189SAPI  C21021745   2.221   5.509   5.560
  189SAPI  H10R21746   2.332   5.503   5.559
  189SAPI  H10S21747   2.197   5.605   5.509
  189SAPI  C21121748   2.164   5.382   5.500
  189SAPI  H11R21749   2.157   5.302   5.575
  189SAPI  C21221750   2.134   5.361   5.376
  189SAPI  H12R21751   2.083   5.266   5.356
  189SAPI  C21321752   2.136   5.459   5.263
  189SAPI  H13R21753   2.150   5.560   5.305
  189SAPI  H13S21754   2.029   5.474   5.236
  189SAPI  C21421755   2.240   5.419   5.166
  189SAPI  H14R21756   2.333   5.383   5.213
  189SAPI  C21521757   2.226   5.429   5.032
  189SAPI  H15R21758   2.318   5.403   4.977
  189SAPI  C21621759   2.097   5.481   4.964
  189SAPI  H16R21760   2.108   5.571   4.900
  189SAPI  H16S21761   2.022   5.509   5.041
  189SAPI  C21721762   2.030   5.377   4.872
  189SAPI  H17R21763   1.921   5.395   4.865
  189SAPI  H17S21764   2.028   5.280   4.926
  189SAPI  C21821765   2.089   5.351   4.738
  189SAPI  H18R21766   2.026   5.278   4.683
  189SAPI  H18S21767   2.187   5.298   4.743
  189SAPI  C21921768   2.092   5.473   4.646
  189SAPI  H19R21769   2.189   5.520   4.671
  189SAPI  H19S21770   2.008   5.540   4.675
  189SAPI  C22021771   2.091   5.433   4.500
  189SAPI  H20R21772   2.102   5.519   4.432
  189SAPI  H20S21773   1.987   5.393   4.493
  189SAPI  H20T21774   2.159   5.352   4.466
  189SAPI   C3321775   2.877   5.386   5.764
  189SAPI   H3X21776   2.977   5.421   5.796
  189SAPI   H3Y21777   2.789   5.439   5.807
  189SAPI   C3421778   2.844   5.412   5.616
  189SAPI   H4X21779   2.767   5.333   5.600
  189SAPI   H4Y21780   2.928   5.384   5.549
  189SAPI   C3521781   2.796   5.557   5.581
  189SAPI   H5X21782   2.874   5.630   5.610
  189SAPI   H5Y21783   2.701   5.580   5.634
  189SAPI   C3621784   2.765   5.583   5.426
  189SAPI   H6X21785   2.686   5.512   5.392
  189SAPI   H6Y21786   2.859   5.568   5.369
  189SAPI   C3721787   2.724   5.723   5.396
  189SAPI   H7X21788   2.648   5.751   5.472
  189SAPI   H7Y21789   2.666   5.726   5.300
  189SAPI   C3821790   2.844   5.818   5.395
  189SAPI   H8X21791   2.906   5.803   5.304
  189SAPI   H8Y21792   2.896   5.798   5.491
  189SAPI   C3921793   2.809   5.968   5.401
  189SAPI   H9X21794   2.896   6.007   5.457
  189SAPI   H9Y21795   2.718   5.982   5.462
  189SAPI  C31021796   2.815   6.034   5.268
  189SAPI  H10X21797   2.918   6.042   5.226
  189SAPI  H10Y21798   2.775   6.137   5.270
  189SAPI  C31121799   2.709   5.973   5.174
  189SAPI  H11X21800   2.619   5.967   5.240
  189SAPI  H11Y21801   2.728   5.865   5.156
  189SAPI  C31221802   2.675   6.043   5.046
  189SAPI  H12X21803   2.607   5.992   4.975
  189SAPI  H12Y21804   2.768   6.067   4.991
  189SAPI  C31321805   2.611   6.187   5.061
  189SAPI  H13X21806   2.684   6.252   5.115
  189SAPI  H13Y21807   2.515   6.202   5.115
  189SAPI  C31421808   2.584   6.247   4.921
  189SAPI  H14X21809   2.517   6.172   4.873
  189SAPI  H14Y21810   2.679   6.256   4.863
  189SAPI  C31521811   2.497   6.374   4.919
  189SAPI  H15X21812   2.567   6.453   4.954
  189SAPI  H15Y21813   2.406   6.371   4.982
  189SAPI  C31621814   2.426   6.404   4.789
  189SAPI  H16X21815   2.322   6.431   4.817
  189SAPI  H16Y21816   2.406   6.311   4.732
  189SAPI  C31721817   2.494   6.499   4.696
  189SAPI  H17X21818   2.599   6.476   4.666
  189SAPI  H17Y21819   2.491   6.590   4.759
  189SAPI  C31821820   2.398   6.526   4.586
  189SAPI  H18X21821   2.300   6.563   4.623
  189SAPI  H18Y21822   2.382   6.446   4.511
  189SAPI  H18Z21823   2.453   6.596   4.521
  190SAPI   C1221824   0.757   2.909   6.444
  190SAPI    H221825   0.807   2.812   6.422
  190SAPI    O221826   0.685   2.968   6.335
  190SAPI   HO221827   0.750   3.010   6.279
  190SAPI   C1321828   0.659   2.881   6.544
  190SAPI    H321829   0.720   2.834   6.625
  190SAPI    O321830   0.556   2.784   6.511
  190SAPI   HO321831   0.530   2.813   6.423
  190SAPI   C1421832   0.604   3.004   6.613
  190SAPI    H421833   0.541   3.054   6.536
  190SAPI    O421834   0.526   2.963   6.731
  190SAPI   HO421835   0.443   2.953   6.684
  190SAPI   C1521836   0.708   3.111   6.648
  190SAPI    H521837   0.749   3.084   6.748
  190SAPI    O521838   0.641   3.236   6.679
  190SAPI   HO521839   0.567   3.206   6.733
  190SAPI   C1621840   0.838   3.126   6.565
  190SAPI    H621841   0.811   3.203   6.490
  190SAPI    O621842   0.951   3.179   6.640
  190SAPI   HO621843   1.034   3.141   6.610
  190SAPI   C1121844   0.873   3.006   6.480
  190SAPI    H121845   0.941   2.944   6.543
  190SAPI     P21846   1.112   3.052   6.361
  190SAPI   O1321847   1.151   3.054   6.509
  190SAPI   O1421848   1.163   3.169   6.283
  190SAPI   O1221849   0.950   3.053   6.364
  190SAPI   O1121850   1.155   2.913   6.297
  190SAPI    C121851   1.066   2.838   6.214
  190SAPI    HA21852   1.014   2.764   6.278
  190SAPI    HB21853   0.985   2.901   6.173
  190SAPI    C221854   1.154   2.769   6.104
  190SAPI    HS21855   1.240   2.706   6.136
  190SAPI   O2121856   1.194   2.880   6.027
  190SAPI   C2121857   1.318   2.905   5.998
  190SAPI   O2221858   1.416   2.853   6.047
  190SAPI   C2221859   1.313   2.990   5.872
  190SAPI   H2R21860   1.403   2.967   5.810
  190SAPI   H2S21861   1.229   2.950   5.811
  190SAPI    C321862   1.077   2.669   6.013
  190SAPI    HX21863   1.003   2.737   5.964
  190SAPI    HY21864   1.018   2.600   6.076
  190SAPI   O3121865   1.159   2.598   5.914
  190SAPI   C3121866   1.193   2.472   5.934
  190SAPI   O3221867   1.152   2.404   6.028
  190SAPI   C3221868   1.274   2.418   5.822
  190SAPI   H2X21869   1.241   2.313   5.810
  190SAPI   H2Y21870   1.381   2.436   5.845
  190SAPI   C2321871   1.293   3.142   5.898
  190SAPI   H3R21872   1.376   3.172   5.965
  190SAPI   H3S21873   1.199   3.153   5.957
  190SAPI   C2421874   1.273   3.232   5.771
  190SAPI   H4R21875   1.377   3.258   5.742
  190SAPI   H4S21876   1.232   3.328   5.810
  190SAPI   C2521877   1.185   3.183   5.660
  190SAPI   H5R21878   1.086   3.161   5.701
  190SAPI   C2621879   1.214   3.154   5.534
  190SAPI   H6R21880   1.125   3.131   5.475
  190SAPI   C2721881   1.346   3.170   5.457
  190SAPI   H7R21882   1.392   3.072   5.430
  190SAPI   H7S21883   1.422   3.210   5.527
  190SAPI   C2821884   1.330   3.259   5.337
  190SAPI   H8R21885   1.353   3.362   5.365
  190SAPI   C2921886   1.296   3.233   5.208
  190SAPI   H9R21887   1.303   3.314   5.134
  190SAPI  C21021888   1.257   3.096   5.158
  190SAPI  H10R21889   1.153   3.097   5.121
  190SAPI  H10S21890   1.256   3.012   5.231
  190SAPI  C21121891   1.350   3.064   5.043
  190SAPI  H11R21892   1.429   2.990   5.064
  190SAPI  C21221893   1.341   3.107   4.917
  190SAPI  H12R21894   1.426   3.086   4.852
  190SAPI  C21321895   1.232   3.200   4.873
  190SAPI  H13R21896   1.157   3.207   4.955
  190SAPI  H13S21897   1.166   3.168   4.790
  190SAPI  C21421898   1.284   3.342   4.841
  190SAPI  H14R21899   1.278   3.422   4.915
  190SAPI  C21521900   1.314   3.375   4.721
  190SAPI  H15R21901   1.361   3.474   4.712
  190SAPI  C21621902   1.315   3.289   4.596
  190SAPI  H16R21903   1.252   3.200   4.618
  190SAPI  H16S21904   1.418   3.248   4.586
  190SAPI  C21721905   1.276   3.368   4.469
  190SAPI  H17R21906   1.355   3.444   4.450
  190SAPI  H17S21907   1.179   3.421   4.482
  190SAPI  C21821908   1.264   3.283   4.340
  190SAPI  H18R21909   1.363   3.236   4.325
  190SAPI  H18S21910   1.241   3.354   4.257
  190SAPI  C21921911   1.171   3.162   4.350
  190SAPI  H19R21912   1.208   3.079   4.414
  190SAPI  H19S21913   1.175   3.105   4.254
  190SAPI  C22021914   1.027   3.193   4.378
  190SAPI  H20R21915   0.977   3.255   4.301
  190SAPI  H20S21916   1.021   3.257   4.469
  190SAPI  H20T21917   0.962   3.103   4.390
  190SAPI   C3321918   1.235   2.489   5.685
  190SAPI   H3X21919   1.301   2.457   5.601
  190SAPI   H3Y21920   1.239   2.600   5.682
  190SAPI   C3421921   1.092   2.461   5.629
  190SAPI   H4X21922   1.018   2.486   5.708
  190SAPI   H4Y21923   1.087   2.351   5.615
  190SAPI   C3521924   1.058   2.537   5.497
  190SAPI   H5X21925   1.085   2.644   5.504
  190SAPI   H5Y21926   0.950   2.533   5.471
  190SAPI   C3621927   1.145   2.488   5.384
  190SAPI   H6X21928   1.141   2.377   5.384
  190SAPI   H6Y21929   1.253   2.512   5.397
  190SAPI   C3721930   1.099   2.549   5.246
  190SAPI   H7X21931   1.119   2.657   5.258
  190SAPI   H7Y21932   0.990   2.537   5.234
  190SAPI   C3821933   1.184   2.491   5.128
  190SAPI   H8X21934   1.216   2.385   5.136
  190SAPI   H8Y21935   1.281   2.542   5.142
  190SAPI   C3921936   1.127   2.509   4.988
  190SAPI   H9X21937   1.040   2.577   4.977
  190SAPI   H9Y21938   1.073   2.421   4.947
  190SAPI  C31021939   1.232   2.540   4.882
  190SAPI  H10X21940   1.187   2.519   4.783
  190SAPI  H10Y21941   1.325   2.482   4.898
  190SAPI  C31121942   1.264   2.692   4.883
  190SAPI  H11X21943   1.300   2.723   4.983
  190SAPI  H11Y21944   1.178   2.760   4.863
  190SAPI  C31221945   1.374   2.729   4.780
  190SAPI  H12X21946   1.465   2.679   4.820
  190SAPI  H12Y21947   1.384   2.837   4.804
  190SAPI  C31321948   1.362   2.723   4.626
  190SAPI  H13X21949   1.284   2.796   4.593
  190SAPI  H13Y21950   1.331   2.623   4.590
  190SAPI  C31421951   1.493   2.771   4.557
  190SAPI  H14X21952   1.579   2.707   4.587
  190SAPI  H14Y21953   1.515   2.873   4.595
  190SAPI  C31521954   1.490   2.765   4.406
  190SAPI  H15X21955   1.485   2.662   4.365
  190SAPI  H15Y21956   1.570   2.826   4.358
  190SAPI  C31621957   1.360   2.823   4.361
  190SAPI  H16X21958   1.335   2.915   4.418
  190SAPI  H16Y21959   1.279   2.748   4.372
  190SAPI  C31721960   1.368   2.850   4.200
  190SAPI  H17X21961   1.452   2.919   4.180
  190SAPI  H17Y21962   1.278   2.903   4.163
  190SAPI  C31821963   1.388   2.720   4.116
  190SAPI  H18X21964   1.318   2.640   4.151
  190SAPI  H18Y21965   1.489   2.678   4.136
  190SAPI  H18Z21966   1.388   2.747   4.009
  191SAPI   C1221967   4.146   4.844   1.888
  191SAPI    H221968   4.223   4.866   1.964
  191SAPI    O221969   4.018   4.823   1.956
  191SAPI   HO221970   4.030   4.750   2.017
  191SAPI   C1321971   4.132   4.955   1.780
  191SAPI    H321972   4.235   4.985   1.750
  191SAPI    O321973   4.069   5.074   1.829
  191SAPI   HO321974   4.122   5.128   1.889
  191SAPI   C1421975   4.053   4.906   1.654
  191SAPI    H421976   3.949   4.929   1.686
  191SAPI    O421977   4.071   4.990   1.540
  191SAPI   HO421978   3.986   4.995   1.496
  191SAPI   C1521979   4.051   4.759   1.619
  191SAPI    H521980   4.126   4.754   1.537
  191SAPI    O521981   3.931   4.711   1.565
  191SAPI   HO521982   3.936   4.677   1.476
  191SAPI   C1621983   4.111   4.660   1.718
  191SAPI    H621984   4.023   4.610   1.764
  191SAPI    O621985   4.182   4.556   1.643
  191SAPI   HO621986   4.261   4.533   1.693
  191SAPI   C1121987   4.199   4.713   1.829
  191SAPI    H121988   4.297   4.741   1.785
  191SAPI     P21989   4.339   4.514   1.934
  191SAPI   O1321990   4.352   4.455   1.800
  191SAPI   O1421991   4.304   4.416   2.036
  191SAPI   O1221992   4.213   4.618   1.934
  191SAPI   O1121993   4.457   4.605   1.978
  191SAPI    C121994   4.526   4.599   2.105
  191SAPI    HA21995   4.485   4.683   2.166
  191SAPI    HB21996   4.505   4.508   2.165
  191SAPI    C221997   4.676   4.603   2.093
  191SAPI    HS21998   4.715   4.657   2.004
  191SAPI   O2121999   4.721   4.463   2.092
  191SAPI   C2122000   4.848   4.443   2.057
  191SAPI   O2222001   4.929   4.525   2.019
  191SAPI   C2222002   4.884   4.300   2.089
  191SAPI   H2R22003   4.864   4.285   2.197
  191SAPI   H2S22004   4.813   4.244   2.024
  191SAPI    C322005   4.735   4.675   2.211
  191SAPI    HX22006   4.689   4.775   2.229
  191SAPI    HY22007   4.843   4.693   2.190
  191SAPI   O3122008   4.703   4.609   2.337
  191SAPI   C3122009   4.799   4.532   2.396
  191SAPI   O3222010   4.916   4.526   2.362
  191SAPI   C3222011   4.732   4.468   2.517
  191SAPI   H2X22012   4.639   4.413   2.493
  191SAPI   H2Y22013   4.707   4.550   2.588
  191SAPI   C2322014   5.029   4.251   2.067
  191SAPI   H3R22015   5.081   4.327   2.129
  191SAPI   H3S22016   5.059   4.256   1.960
  191SAPI   C2422017   5.048   4.107   2.128
  191SAPI   H4R22018   5.060   4.103   2.238
  191SAPI   H4S22019   5.149   4.082   2.087
  191SAPI   C2522020   4.948   4.004   2.079
  191SAPI   H5R22021   4.943   4.008   1.969
  191SAPI   C2622022   4.858   3.927   2.146
  191SAPI   H6R22023   4.795   3.861   2.083
  191SAPI   C2722024   4.832   3.916   2.288
  191SAPI   H7R22025   4.898   3.982   2.348
  191SAPI   H7S22026   4.855   3.810   2.312
  191SAPI   C2822027   4.694   3.960   2.332
  191SAPI   H8R22028   4.673   4.066   2.311
  191SAPI   C2922029   4.606   3.892   2.408
  191SAPI   H9R22030   4.510   3.933   2.442
  191SAPI  C21022031   4.634   3.750   2.457
  191SAPI  H10R22032   4.724   3.751   2.522
  191SAPI  H10S22033   4.657   3.690   2.366
  191SAPI  C21122034   4.523   3.687   2.534
  191SAPI  H11R22035   4.491   3.595   2.482
  191SAPI  C21222036   4.449   3.726   2.644
  191SAPI  H12R22037   4.375   3.659   2.690
  191SAPI  C21322038   4.475   3.851   2.731
  191SAPI  H13R22039   4.386   3.873   2.794
  191SAPI  H13S22040   4.495   3.940   2.668
  191SAPI  C21422041   4.594   3.826   2.822
  191SAPI  H14R22042   4.692   3.814   2.774
  191SAPI  C21522043   4.595   3.831   2.959
  191SAPI  H15R22044   4.695   3.821   3.004
  191SAPI  C21622045   4.489   3.842   3.055
  191SAPI  H16R22046   4.407   3.773   3.026
  191SAPI  H16S22047   4.429   3.932   3.028
  191SAPI  C21722048   4.518   3.836   3.204
  191SAPI  H17R22049   4.425   3.865   3.258
  191SAPI  H17S22050   4.595   3.912   3.229
  191SAPI  C21822051   4.560   3.699   3.265
  191SAPI  H18R22052   4.645   3.653   3.210
  191SAPI  H18S22053   4.469   3.635   3.260
  191SAPI  C21922054   4.596   3.708   3.413
  191SAPI  H19R22055   4.503   3.729   3.471
  191SAPI  H19S22056   4.673   3.787   3.422
  191SAPI  C22022057   4.635   3.570   3.478
  191SAPI  H20R22058   4.710   3.519   3.412
  191SAPI  H20S22059   4.546   3.506   3.492
  191SAPI  H20T22060   4.684   3.581   3.577
  191SAPI   C3322061   4.825   4.371   2.592
  191SAPI   H3X22062   4.916   4.424   2.627
  191SAPI   H3Y22063   4.855   4.293   2.519
  191SAPI   C3422064   4.764   4.317   2.721
  191SAPI   H4X22065   4.670   4.264   2.694
  191SAPI   H4Y22066   4.736   4.405   2.784
  191SAPI   C3522067   4.855   4.230   2.812
  191SAPI   H5X22068   4.950   4.286   2.817
  191SAPI   H5Y22069   4.875   4.131   2.767
  191SAPI   C3622070   4.790   4.213   2.952
  191SAPI   H6X22071   4.711   4.137   2.932
  191SAPI   H6Y22072   4.757   4.310   2.994
  191SAPI   C3722073   4.899   4.139   3.046
  191SAPI   H7X22074   4.995   4.194   3.058
  191SAPI   H7Y22075   4.934   4.045   2.999
  191SAPI   C3822076   4.830   4.101   3.178
  191SAPI   H8X22077   4.888   4.018   3.224
  191SAPI   H8Y22078   4.736   4.050   3.148
  191SAPI   C3922079   4.821   4.219   3.278
  191SAPI   H9X22080   4.745   4.286   3.232
  191SAPI   H9Y22081   4.918   4.271   3.268
  191SAPI  C31022082   4.781   4.173   3.413
  191SAPI  H10X22083   4.826   4.077   3.447
  191SAPI  H10Y22084   4.675   4.141   3.404
  191SAPI  C31122085   4.831   4.275   3.509
  191SAPI  H11X22086   4.800   4.372   3.463
  191SAPI  H11Y22087   4.941   4.288   3.520
  191SAPI  C31222088   4.781   4.260   3.652
  191SAPI  H12X22089   4.808   4.352   3.708
  191SAPI  H12Y22090   4.830   4.174   3.702
  191SAPI  C31322091   4.635   4.234   3.648
  191SAPI  H13X22092   4.595   4.143   3.597
  191SAPI  H13Y22093   4.577   4.314   3.597
  191SAPI  C31422094   4.575   4.229   3.788
  191SAPI  H14X22095   4.617   4.311   3.850
  191SAPI  H14Y22096   4.604   4.133   3.835
  191SAPI  C31522097   4.424   4.247   3.796
  191SAPI  H15X22098   4.384   4.149   3.764
  191SAPI  H15Y22099   4.381   4.333   3.739
  191SAPI  C31622100   4.380   4.272   3.936
  191SAPI  H16X22101   4.432   4.198   4.001
  191SAPI  H16Y22102   4.271   4.250   3.941
  191SAPI  C31722103   4.396   4.419   4.004
  191SAPI  H17X22104   4.501   4.456   4.006
  191SAPI  H17Y22105   4.381   4.399   4.112
  191SAPI  C31822106   4.306   4.526   3.947
  191SAPI  H18X22107   4.323   4.553   3.840
  191SAPI  H18Y22108   4.325   4.624   3.995
  191SAPI  H18Z22109   4.200   4.496   3.961
  192SAPI   C1222110   0.102   6.350   2.010
  192SAPI    H222111   0.202   6.322   2.051
  192SAPI    O222112   0.113   6.377   1.872
  192SAPI   HO222113   0.157   6.463   1.869
  192SAPI   C1322114   0.018   6.238   2.047
  192SAPI    H322115   6.908   6.223   2.155
  192SAPI    O322116   0.063   6.111   1.995
  192SAPI   HO322117   6.901   6.048   2.006
  192SAPI   C1422118   6.793   6.272   1.993
  192SAPI    H422119   6.797   6.278   1.882
  192SAPI    O422120   6.701   6.161   2.010
  192SAPI   HO422121   6.690   6.146   2.104
  192SAPI   C1522122   6.728   6.409   2.028
  192SAPI    H522123   6.689   6.388   2.130
  192SAPI    O522124   6.613   6.442   1.945
  192SAPI   HO522125   6.542   6.478   2.000
  192SAPI   C1622126   6.829   6.522   2.042
  192SAPI    H622127   6.829   6.565   1.940
  192SAPI    O622128   6.785   6.620   2.136
  192SAPI   HO622129   6.835   6.700   2.117
  192SAPI   C1122130   0.060   6.468   2.087
  192SAPI    H122131   0.041   6.433   2.191
  192SAPI     P22132   0.291   6.593   2.177
  192SAPI   O1322133   0.365   6.709   2.124
  192SAPI   O1422134   0.359   6.457   2.194
  192SAPI   O1222135   0.164   6.569   2.077
  192SAPI   O1122136   0.234   6.630   2.316
  192SAPI    C122137   0.321   6.625   2.430
  192SAPI    HA22138   0.304   6.528   2.481
  192SAPI    HB22139   0.429   6.634   2.405
  192SAPI    C222140   0.288   6.737   2.533
  192SAPI    HS22141   0.351   6.724   2.623
  192SAPI   O2122142   0.150   6.722   2.568
  192SAPI   C2122143   0.105   6.613   2.624
  192SAPI   O2222144   0.165   6.510   2.649
  192SAPI   C2222145   6.882   6.659   2.672
  192SAPI   H2R22146   6.818   6.679   2.583
  192SAPI   H2S22147   6.834   6.576   2.728
  192SAPI    C322148   0.315   6.882   2.479
  192SAPI    HX22149   0.248   6.897   2.392
  192SAPI    HY22150   0.419   6.883   2.440
  192SAPI   O3122151   0.289   0.080   2.572
  192SAPI   C3122152   0.389   0.098   2.656
  192SAPI   O3222153   0.505   0.057   2.638
  192SAPI   C3222154   0.338   0.178   2.786
  192SAPI   H2X22155   0.228   0.167   2.795
  192SAPI   H2Y22156   0.361   0.286   2.778
  192SAPI   C2322157   6.888   6.788   2.760
  192SAPI   H3R22158   6.904   6.863   2.680
  192SAPI   H3S22159   0.063   6.776   2.830
  192SAPI   C2422160   6.752   6.814   2.828
  192SAPI   H4R22161   6.745   6.754   2.922
  192SAPI   H4S22162   6.662   6.769   2.781
  192SAPI   C2522163   6.733   0.053   2.854
  192SAPI   H5R22164   6.739   0.110   2.761
  192SAPI   C2622165   6.745   0.118   2.974
  192SAPI   H6R22166   6.718   0.224   2.987
  192SAPI   C2722167   6.756   0.050   3.107
  192SAPI   H7R22168   6.741   6.849   3.110
  192SAPI   H7S22169   6.671   0.072   3.175
  192SAPI   C2822170   6.886   0.086   3.180
  192SAPI   H8R22171   0.062   0.077   3.112
  192SAPI   C2922172   6.898   0.158   3.299
  192SAPI   H9R22173   0.087   0.193   3.335
  192SAPI  C21022174   6.788   0.196   3.390
  192SAPI  H10R22175   6.697   0.236   3.341
  192SAPI  H10S22176   6.833   0.279   3.448
  192SAPI  C21122177   6.752   0.074   3.469
  192SAPI  H11R22178   6.692   6.906   3.419
  192SAPI  C21222179   6.787   0.050   3.595
  192SAPI  H12R22180   6.765   6.859   3.634
  192SAPI  C21322181   6.885   0.127   3.674
  192SAPI  H13R22182   6.831   0.166   3.763
  192SAPI  H13S22183   0.018   0.214   3.620
  192SAPI  C21422184   0.099   0.048   3.722
  192SAPI  H14R22185   0.141   6.895   3.642
  192SAPI  C21522186   0.160   0.073   3.843
  192SAPI  H15R22187   0.256   0.022   3.862
  192SAPI  C21622188   0.125   0.170   3.953
  192SAPI  H16R22189   0.126   0.277   3.925
  192SAPI  H16S22190   0.208   0.184   4.025
  192SAPI  C21722191   0.009   0.109   4.034
  192SAPI  H17R22192   0.047   0.014   4.078
  192SAPI  H17S22193   6.834   0.079   3.967
  192SAPI  C21822194   6.873   0.192   4.148
  192SAPI  H18R22195   6.813   0.277   4.108
  192SAPI  H18S22196   0.052   0.243   4.193
  192SAPI  C21922197   6.802   0.105   4.258
  192SAPI  H19R22198   6.842   0.002   4.241
  192SAPI  H19S22199   6.694   0.096   4.234
  192SAPI  C22022200   6.815   0.162   4.392
  192SAPI  H20R22201   0.008   0.195   4.423
  192SAPI  H20S22202   6.779   0.093   4.472
  192SAPI  H20T22203   6.760   0.257   4.405
  192SAPI   C3322204   0.385   0.119   2.920
  192SAPI   H3X22205   0.495   0.103   2.917
  192SAPI   H3Y22206   0.328   0.023   2.928
  192SAPI   C3422207   0.357   0.212   3.034
  192SAPI   H4X22208   0.249   0.238   3.043
  192SAPI   H4Y22209   0.411   0.308   3.020
  192SAPI   C3522210   0.414   0.152   3.170
  192SAPI   H5X22211   0.523   0.158   3.151
  192SAPI   H5Y22212   0.369   0.055   3.200
  192SAPI   C3622213   0.380   0.256   3.276
  192SAPI   H6X22214   0.272   0.278   3.262
  192SAPI   H6Y22215   0.431   0.352   3.254
  192SAPI   C3722216   0.427   0.211   3.415
  192SAPI   H7X22217   0.536   0.231   3.416
  192SAPI   H7Y22218   0.412   0.103   3.436
  192SAPI   C3822219   0.352   0.284   3.527
  192SAPI   H8X22220   0.295   0.230   3.607
  192SAPI   H8Y22221   0.282   0.362   3.489
  192SAPI   C3922222   0.453   0.371   3.612
  192SAPI   H9X22223   0.495   0.442   3.538
  192SAPI   H9Y22224   0.536   0.305   3.647
  192SAPI  C31022225   0.385   0.462   3.727
  192SAPI  H10X22226   0.342   0.386   3.795
  192SAPI  H10Y22227   0.295   0.515   3.691
  192SAPI  C31122228   0.478   0.556   3.804
  192SAPI  H11X22229   0.510   0.646   3.747
  192SAPI  H11Y22230   0.567   0.497   3.833
  192SAPI  C31222231   0.406   0.601   3.936
  192SAPI  H12X22232   0.393   0.510   3.999
  192SAPI  H12Y22233   0.302   0.634   3.916
  192SAPI  C31322234   0.481   0.709   4.010
  192SAPI  H13X22235   0.522   0.785   3.940
  192SAPI  H13Y22236   0.574   0.663   4.051
  192SAPI  C31422237   0.414   0.781   4.126
  192SAPI  H14X22238   0.381   0.706   4.201
  192SAPI  H14Y22239   0.327   0.845   4.100
  192SAPI  C31522240   0.504   0.868   4.216
  192SAPI  H15X22241   0.556   0.944   4.153
  192SAPI  H15Y22242   0.587   0.813   4.265
  192SAPI  C31622243   0.426   0.943   4.324
  192SAPI  H16X22244   0.352   1.013   4.279
  192SAPI  H16Y22245   0.501   0.997   4.384
  192SAPI  C31722246   0.336   0.851   4.417
  192SAPI  H17X22247   0.407   0.777   4.460
  192SAPI  H17Y22248   0.273   0.786   4.352
  192SAPI  C31822249   0.254   0.924   4.517
  192SAPI  H18X22250   0.321   0.953   4.601
  192SAPI  H18Y22251   0.175   0.854   4.552
  192SAPI  H18Z22252   0.210   1.014   4.470
  193SOD    SOD22253   2.054   5.549   1.088
  194SOD    SOD22254   4.545   5.430   6.866
  195SOD    SOD22255   2.245   1.463   7.719
  196SOD    SOD22256   0.743   6.527   1.262
  197SOD    SOD22257   2.610   1.353   6.479
  198SOD    SOD22258   3.472   4.233   8.005
  199SOD    SOD22259   4.832   4.839   0.063
  200SOD    SOD22260   4.695   3.630   1.199
  201SOD    SOD22261   4.495   5.497   1.899
  202SOD    SOD22262   4.770   3.073   1.143
  203SOD    SOD22263   4.795   4.040   6.057
  204SOD    SOD22264   2.238   3.021   6.549
  205SOD    SOD22265   0.875   3.813   1.149
  206SOD    SOD22266   4.776   4.122   1.570
  207SOD    SOD22267   6.109   3.405   7.571
  208SOD    SOD22268   3.692   6.564   8.199
  209SOD    SOD22269   3.864   2.761   2.001
  210SOD    SOD22270   6.427   2.663   7.868
  211SOD    SOD22271   0.401   4.097   7.579
  212SOD    SOD22272   5.815   5.433   1.901
  213SOD    SOD22273   3.886   5.935   6.950
  214SOD    SOD22274   3.246   3.494   8.478
  215SOD    SOD22275   3.862   5.809   1.551
  216SOD    SOD22276   6.381   0.743   7.033
  217SOD    SOD22277   2.915   0.020   6.652
  218SOD    SOD22278   5.475   4.113   1.325
  219SOD    SOD22279   5.056   3.801   7.123
  220SOD    SOD22280   1.892   5.875   6.772
  221SOD    SOD22281   3.899   3.995   6.760
  222SOD    SOD22282   1.711   6.742   1.946
  223SOD    SOD22283   4.368   0.018   1.560
  224SOD    SOD22284   4.840   2.049   0.060
  225SOD    SOD22285   5.481   6.880   6.168
  226SOD    SOD22286   3.434   3.433   1.476
  227SOD    SOD22287   0.518   2.993   1.012
  228SOD    SOD22288   3.903   1.164   7.378
  229SOD    SOD22289   0.620   0.576   6.421
  230SOD    SOD22290   4.009   3.595   0.152
  231SOD    SOD22291   1.280   4.913   6.981
  232SOD    SOD22292   2.237   3.885   7.359
  233SOD    SOD22293   2.290   1.929   2.183
  234CLA    CLA22294   5.299   2.081   8.049
  235CLA    CLA22295   2.862   0.224   8.557
  236CLA    CLA22296   4.900   6.681   7.089
  237CLA    CLA22297   4.352   4.075   6.839
  238CLA    CLA22298   3.144   3.036   0.185
  239CLA    CLA22299   0.564   3.072   7.667
  240CLA    CLA22300   1.362   6.636   1.751
  241CLA    CLA22301   0.724   6.314   0.457
  242CLA    CLA22302   1.486   2.610   7.735
  243CLA    CLA22303   3.661   3.980   0.203
  244CLA    CLA22304   4.365   4.701   8.566
  245CLA    CLA22305   4.016   3.557   8.460
  246CLA    CLA22306   5.819   3.147   0.292
  247CLA    CLA22307   3.972   2.996   7.980
  248CLA    CLA22308   0.313   2.445   1.550
  249CLA    CLA22309   6.190   2.242   7.324
  250CLA    CLA22310   3.163   2.863   7.552
  251TIP3   OH222311   0.676   3.795   1.028
  251TIP3    H122312   0.607   3.734   1.054
  251TIP3    H222313   0.689   3.779   0.935
  252TIP3   OH222314   2.142   5.066   1.625
  252TIP3    H122315   2.115   5.118   1.549
  252TIP3    H222316   2.114   4.976   1.604
  253TIP3   OH222317   6.739   4.953   1.049
  253TIP3    H122318   6.714   4.974   0.958
  253TIP3    H222319   6.656   4.940   1.094
  254TIP3   OH222320   6.608   0.245   8.256
  254TIP3    H122321   6.552   0.255   8.179
  254TIP3    H222322   6.551   0.203   8.321
  255TIP3   OH222323   5.203   4.632   7.207
  255TIP3    H122324   5.162   4.567   7.264
  255TIP3    H222325   5.296   4.630   7.230
  256TIP3   OH222326   2.825   6.158   8.545
  256TIP3    H122327   2.907   6.152   8.494
  256TIP3    H222328   2.794   6.247   8.530
  257TIP3   OH222329   5.541   0.553   1.483
  257TIP3    H122330   5.564   0.615   1.552
  257TIP3    H222331   5.577   0.469   1.513
  258TIP3   OH222332   1.542   3.455   1.468
  258TIP3    H122333   1.617   3.476   1.412
  258TIP3    H222334   1.479   3.525   1.453
  259TIP3   OH222335   0.494   1.051   0.253
  259TIP3    H122336   0.587   1.071   0.241
  259TIP3    H222337   0.492   0.957   0.269
  260TIP3   OH222338   4.740   6.031   8.480
  260TIP3    H122339   4.746   5.966   8.550
  260TIP3    H222340   4.727   5.979   8.400
  261TIP3   OH222341   1.429   4.738   7.031
  261TIP3    H122342   1.479   4.725   6.951
  261TIP3    H222343   1.394   4.652   7.053
  262TIP3   OH222344   6.735   1.476   2.029
  262TIP3    H122345   6.788   1.403   1.996
  262TIP3    H222346   6.645   1.444   2.026
  263TIP3   OH222347   6.124   1.539   8.383
  263TIP3    H122348   6.206   1.551   8.336
  263TIP3    H222349   6.122   1.612   8.446
  264TIP3   OH222350   5.792   6.066   1.056
  264TIP3    H122351   5.759   6.145   1.011
  264TIP3    H222352   5.718   6.005   1.055
  265TIP3   OH222353   3.643   2.645   0.881
  265TIP3    H122354   3.616   2.604   0.798
  265TIP3    H222355   3.629   2.577   0.947
  266TIP3   OH222356   0.988   0.470   8.084
  266TIP3    H122357   0.985   0.542   8.020
  266TIP3    H222358   0.896   0.443   8.093
  267TIP3   OH222359   0.069   5.392   0.223
  267TIP3    H122360   0.095   5.342   0.300
  267TIP3    H222361   0.023   5.468   0.259
  268TIP3   OH222362   5.238   2.569   0.449
  268TIP3    H122363   5.293   2.626   0.503
  268TIP3    H222364   5.162   2.623   0.427
  269TIP3   OH222365   3.253   6.545   0.196
  269TIP3    H122366   3.254   6.493   0.276
  269TIP3    H222367   3.304   6.493   0.134
  270TIP3   OH222368   6.458   2.065   0.651
  270TIP3    H122369   6.454   1.975   0.618
  270TIP3    H222370   6.483   2.118   0.575
  271TIP3   OH222371   2.699   4.523   6.860
  271TIP3    H122372   2.700   4.619   6.860
  271TIP3    H222373   2.610   4.500   6.834
  272TIP3   OH222374   3.549   0.177   0.824
  272TIP3    H122375   3.596   0.119   0.764
  272TIP3    H222376   3.523   0.120   0.897
  273TIP3   OH222377   1.205   1.224   7.836
  273TIP3    H122378   1.206   1.283   7.761
  273TIP3    H222379   1.115   1.228   7.869
  274TIP3   OH222380   1.149   6.794   8.153
  274TIP3    H122381   1.107   6.732   8.212
  274TIP3    H222382   1.243   6.781   8.166
  275TIP3   OH222383   4.364   2.953   0.663
  275TIP3    H122384   4.329   2.907   0.739
  275TIP3    H222385   4.448   2.911   0.645
  276TIP3   OH222386   3.660   6.134   1.248
  276TIP3    H122387   3.662   6.086   1.331
  276TIP3    H222388   3.568   6.156   1.236
  277TIP3   OH222389   4.368   0.739   8.548
  277TIP3    H122390   4.445   0.684   8.553
  277TIP3    H222391   4.391   0.818   0.031
  278TIP3   OH222392   1.392   3.666   7.487
  278TIP3    H122393   1.445   3.641   7.412
  278TIP3    H222394   1.368   3.583   7.528
  279TIP3   OH222395   2.372   6.639   0.142
  279TIP3    H122396   2.378   6.547   0.118
  279TIP3    H222397   2.333   6.682   0.066
  280TIP3   OH222398   4.870   5.354   8.111
  280TIP3    H122399   4.796   5.412   8.093
  280TIP3    H222400   4.843   5.269   8.074
  281TIP3   OH222401   6.553   6.684   1.303
  281TIP3    H122402   6.585   6.633   1.228
  281TIP3    H222403   6.458   6.672   1.300
  282TIP3   OH222404   1.724   4.328   6.306
  282TIP3    H122405   1.672   4.302   6.229
  282TIP3    H222406   1.725   4.423   6.303
  283TIP3   OH222407   6.564   2.253   8.042
  283TIP3    H122408   6.646   2.282   8.002
  283TIP3    H222409   6.496   2.301   7.996
  284TIP3   OH222410   3.497   6.318   0.272
  284TIP3    H122411   3.445   6.386   0.316
  284TIP3    H222412   3.588   6.345   0.284
  285TIP3   OH222413   0.673   6.651   8.555
  285TIP3    H122414   0.739   6.617   0.048
  285TIP3    H222415   0.719   6.718   8.505
  286TIP3   OH222416   2.671   1.183   6.617
  286TIP3    H122417   2.760   1.148   6.610
  286TIP3    H222418   2.619   1.107   6.645
  287TIP3   OH222419   6.184   4.049   7.025
  287TIP3    H122420   6.184   3.962   6.984
  287TIP3    H222421   6.131   4.103   6.967
  288TIP3   OH222422   6.293   3.020   0.154
  288TIP3    H122423   6.231   3.068   0.098
  288TIP3    H222424   6.363   3.082   0.171
  289TIP3   OH222425   0.633   2.289   0.532
  289TIP3    H122426   0.667   2.200   0.539
  289TIP3    H222427   0.656   2.317   0.444
  290TIP3   OH222428   2.042   6.082   7.258
  290TIP3    H122429   2.124   6.105   7.302
  290TIP3    H222430   2.069   6.060   7.169
  291TIP3   OH222431   0.598   5.969   7.338
  291TIP3    H122432   0.612   6.053   7.294
  291TIP3    H222433   0.680   5.953   7.385
  292TIP3   OH222434   3.520   2.402   8.053
  292TIP3    H122435   3.590   2.414   8.116
  292TIP3    H222436   3.487   2.491   8.036
  293TIP3   OH222437   4.835   5.553   1.584
  293TIP3    H122438   4.869   5.640   1.562
  293TIP3    H222439   4.898   5.492   1.545
  294TIP3   OH222440   6.324   5.156   6.414
  294TIP3    H122441   6.281   5.125   6.335
  294TIP3    H222442   6.418   5.146   6.396
  295TIP3   OH222443   0.446   1.989   1.357
  295TIP3    H122444   0.465   1.918   1.419
  295TIP3    H222445   0.485   2.067   1.398
  296TIP3   OH222446   0.301   0.994   7.715
  296TIP3    H122447   0.370   1.019   7.653
  296TIP3    H222448   0.293   0.899   7.704
  297TIP3   OH222449   2.343   6.756   7.652
  297TIP3    H122450   2.298   6.804   7.582
  297TIP3    H222451   2.323   6.805   7.732
  298TIP3   OH222452   2.264   5.117   0.018
  298TIP3    H122453   2.345   5.099   8.536
  298TIP3    H222454   2.295   5.144   0.105
  299TIP3   OH222455   1.762   0.155   0.594
  299TIP3    H122456   1.782   0.189   0.508
  299TIP3    H222457   1.824   0.083   0.607
  300TIP3   OH222458   4.692   1.527   7.335
  300TIP3    H122459   4.615   1.471   7.340
  300TIP3    H222460   4.718   1.542   7.426
  301TIP3   OH222461   2.304   6.859   7.330
  301TIP3    H122462   2.338   6.770   7.325
  301TIP3    H222463   2.228   6.860   7.272
  302TIP3   OH222464   0.670   2.572   8.377
  302TIP3    H122465   0.714   2.581   8.292
  302TIP3    H222466   0.704   2.490   8.412
  303TIP3   OH222467   3.036   3.269   7.535
  303TIP3    H122468   3.094   3.210   7.488
  303TIP3    H222469   3.039   3.351   7.485
  304TIP3   OH222470   3.644   3.158   0.136
  304TIP3    H122471   3.579   3.105   0.182
  304TIP3    H222472   3.644   3.124   0.047
  305TIP3   OH222473   3.033   4.229   7.857
  305TIP3    H122474   2.985   4.204   7.936
  305TIP3    H222475   3.019   4.323   7.849
  306TIP3   OH222476   5.002   0.256   0.969
  306TIP3    H122477   5.049   0.192   0.915
  306TIP3    H222478   5.005   0.337   0.917
  307TIP3   OH222479   6.501   4.161   7.510
  307TIP3    H122480   6.417   4.206   7.515
  307TIP3    H222481   6.545   4.201   7.436
  308TIP3   OH222482   2.760   5.400   8.273
  308TIP3    H122483   2.733   5.313   8.303
  308TIP3    H222484   2.822   5.430   8.339
  309TIP3   OH222485   4.853   6.261   8.159
  309TIP3    H122486   4.766   6.259   8.120
  309TIP3    H222487   4.885   6.350   8.144
  310TIP3   OH222488   5.167   1.754   6.505
  310TIP3    H122489   5.193   1.831   6.556
  310TIP3    H222490   5.248   1.719   6.470
  311TIP3   OH222491   4.186   3.164   0.309
  311TIP3    H122492   4.132   3.178   0.232
  311TIP3    H222493   4.125   3.171   0.383
  312TIP3   OH222494   4.865   6.711   8.329
  312TIP3    H122495   4.932   6.642   8.325
  312TIP3    H222496   4.914   6.792   8.340
  313TIP3   OH222497   3.895   3.348   7.304
  313TIP3    H122498   3.898   3.324   7.397
  313TIP3    H222499   3.844   3.429   7.302
  314TIP3   OH222500   3.303   0.909   5.968
  314TIP3    H122501   3.388   0.935   5.932
  314TIP3    H222502   3.324   0.853   6.042
  315TIP3   OH222503   4.675   2.916   0.761
  315TIP3    H122504   4.659   2.899   0.668
  315TIP3    H222505   4.766   2.890   0.775
  316TIP3   OH222506   5.865   0.426   8.358
  316TIP3    H122507   5.769   0.423   8.350
  316TIP3    H222508   5.882   0.402   8.449
  317TIP3   OH222509   5.496   1.371   7.554
  317TIP3    H122510   5.508   1.432   7.481
  317TIP3    H222511   5.584   1.339   7.574
  318TIP3   OH222512   5.251   1.592   7.234
  318TIP3    H122513   5.260   1.608   7.141
  318TIP3    H222514   5.230   1.498   7.240
  319TIP3   OH222515   6.155   0.952   0.258
  319TIP3    H122516   6.087   0.994   0.310
  319TIP3    H222517   6.229   1.013   0.261
  320TIP3   OH222518   1.081   6.652   8.468
  320TIP3    H122519   1.060   6.593   8.540
  320TIP3    H222520   1.162   6.696   8.495
  321TIP3   OH222521   2.715   6.720   0.541
  321TIP3    H122522   2.659   6.797   0.543
  321TIP3    H222523   2.803   6.754   0.524
  322TIP3   OH222524   5.591   0.343   0.353
  322TIP3    H122525   5.685   0.350   0.372
  322TIP3    H222526   5.584   0.274   0.288
  323TIP3   OH222527   2.685   5.055   0.522
  323TIP3    H122528   2.712   4.966   0.502
  323TIP3    H222529   2.598   5.046   0.562
  324TIP3   OH222530   2.102   0.084   7.561
  324TIP3    H122531   2.143   0.140   7.495
  324TIP3    H222532   2.025   0.048   7.518
  325TIP3   OH222533   5.076   4.866   7.309
  325TIP3    H122534   5.125   4.787   7.284
  325TIP3    H222535   4.984   4.843   7.294
  326TIP3   OH222536   1.041   5.962   7.921
  326TIP3    H122537   0.987   5.885   7.903
  326TIP3    H222538   1.131   5.932   7.911
  327TIP3   OH222539   5.738   5.661   1.837
  327TIP3    H122540   5.648   5.688   1.851
  327TIP3    H222541   5.790   5.741   1.847
  328TIP3   OH222542   0.822   3.123   8.099
  328TIP3    H122543   0.734   3.089   8.115
  328TIP3    H222544   0.830   3.126   8.004
  329TIP3   OH222545   2.061   5.962   0.667
  329TIP3    H122546   2.093   5.873   0.651
  329TIP3    H222547   2.115   6.017   0.610
  330TIP3   OH222548   0.047   2.069   0.165
  330TIP3    H122549   0.063   2.154   0.207
  330TIP3    H222550   0.058   2.005   0.235
  331TIP3   OH222551   1.870   2.063   8.244
  331TIP3    H122552   1.857   2.110   8.326
  331TIP3    H222553   1.788   2.015   8.230
  332TIP3   OH222554   6.731   1.844   0.661
  332TIP3    H122555   6.769   1.918   0.614
  332TIP3    H222556   6.675   1.800   0.596
  333TIP3   OH222557   3.015   4.927   8.436
  333TIP3    H122558   3.058   4.979   8.369
  333TIP3    H222559   2.944   4.983   8.468
  334TIP3   OH222560   1.749   0.077   0.898
  334TIP3    H122561   1.662   0.117   0.892
  334TIP3    H222562   1.735   6.908   0.952
  335TIP3   OH222563   3.395   6.148   0.043
  335TIP3    H122564   3.463   6.199   0.087
  335TIP3    H222565   3.442   6.092   8.549
  336TIP3   OH222566   1.783   5.515   0.450
  336TIP3    H122567   1.833   5.496   0.529
  336TIP3    H222568   1.820   5.458   0.383
  337TIP3   OH222569   4.489   3.344   0.057
  337TIP3    H122570   4.440   3.426   0.050
  337TIP3    H222571   4.450   3.287   8.558
  338TIP3   OH222572   2.741   1.115   0.721
  338TIP3    H122573   2.826   1.078   0.700
  338TIP3    H222574   2.729   1.186   0.658
  339TIP3   OH222575   1.705   3.043   0.907
  339TIP3    H122576   1.635   2.995   0.950
  339TIP3    H222577   1.768   2.975   0.881
  340TIP3   OH222578   2.481   6.873   0.194
  340TIP3    H122579   2.509   6.781   0.199
  340TIP3    H222580   2.400   6.870   0.144
  341TIP3   OH222581   3.306   3.917   0.489
  341TIP3    H122582   3.307   3.873   0.404
  341TIP3    H222583   3.350   3.856   0.548
  342TIP3   OH222584   5.888   2.045   1.776
  342TIP3    H122585   5.957   2.015   1.716
  342TIP3    H222586   5.934   2.100   1.839
  343TIP3   OH222587   4.462   1.211   8.525
  343TIP3    H122588   4.462   1.215   0.053
  343TIP3    H222589   4.481   1.301   8.496
  344TIP3   OH222590   4.826   4.218   1.363
  344TIP3    H122591   4.810   4.272   1.285
  344TIP3    H222592   4.921   4.206   1.364
  345TIP3   OH222593   0.765   1.779   8.055
  345TIP3    H122594   0.842   1.834   8.040
  345TIP3    H222595   0.693   1.841   8.065
  346TIP3   OH222596   5.069   3.815   0.425
  346TIP3    H122597   5.153   3.850   0.393
  346TIP3    H222598   5.007   3.887   0.415
  347TIP3   OH222599   6.521   5.671   7.437
  347TIP3    H122600   6.578   5.602   7.471
  347TIP3    H222601   6.578   5.723   7.381
  348TIP3   OH222602   0.518   3.444   6.550
  348TIP3    H122603   0.527   3.361   6.596
  348TIP3    H222604   0.486   3.421   6.463
  349TIP3   OH222605   4.280   0.226   2.216
  349TIP3    H122606   4.301   0.319   2.226
  349TIP3    H222607   4.223   0.206   2.290
  350TIP3   OH222608   6.042   1.988   0.018
  350TIP3    H122609   5.949   1.971   0.033
  350TIP3    H222610   6.045   2.032   8.500
  351TIP3   OH222611   2.890   6.279   6.848
  351TIP3    H122612   2.873   6.190   6.815
  351TIP3    H222613   2.981   6.297   6.822
  352TIP3   OH222614   6.014   3.244   8.478
  352TIP3    H122615   5.968   3.310   8.425
  352TIP3    H222616   6.106   3.254   8.452
  353TIP3   OH222617   5.386   1.714   6.309
  353TIP3    H122618   5.335   1.665   6.244
  353TIP3    H222619   5.450   1.650   6.341
  354TIP3   OH222620   1.627   2.734   0.387
  354TIP3    H122621   1.616   2.684   0.306
  354TIP3    H222622   1.701   2.692   0.431
  355TIP3   OH222623   1.995   4.629   1.884
  355TIP3    H122624   1.943   4.586   1.952
  355TIP3    H222625   2.078   4.650   1.926
  356TIP3   OH222626   6.721   4.156   1.151
  356TIP3    H122627   6.777   4.080   1.133
  356TIP3    H222628   6.632   4.121   1.152
  357TIP3   OH222629   5.367   0.223   1.372
  357TIP3    H122630   5.408   0.164   1.308
  357TIP3    H222631   5.378   0.310   1.333
  358TIP3   OH222632   3.924   6.015   0.684
  358TIP3    H122633   3.838   5.992   0.649
  358TIP3    H222634   3.908   6.095   0.735
  359TIP3   OH222635   4.494   4.747   7.963
  359TIP3    H122636   4.511   4.841   7.952
  359TIP3    H222637   4.409   4.744   8.008
  360TIP3   OH222638   0.287   3.428   1.462
  360TIP3    H122639   0.194   3.442   1.479
  360TIP3    H222640   0.302   3.336   1.484
  361TIP3   OH222641   2.829   6.823   1.347
  361TIP3    H122642   2.805   6.787   1.432
  361TIP3    H222643   2.755   6.803   1.290
  362TIP3   OH222644   6.866   2.406   7.343
  362TIP3    H122645   0.023   2.367   7.400
  362TIP3    H222646   6.799   2.338   7.335
  363TIP3   OH222647   4.849   4.175   7.337
  363TIP3    H122648   4.755   4.163   7.341
  363TIP3    H222649   4.867   4.196   7.245
  364TIP3   OH222650   3.080   5.334   8.223
  364TIP3    H122651   3.105   5.242   8.234
  364TIP3    H222652   3.055   5.363   8.310
  365TIP3   OH222653   6.885   6.378   1.491
  365TIP3    H122654   0.008   6.463   1.520
  365TIP3    H222655   0.009   6.316   1.557
  366TIP3   OH222656   4.572   5.581   7.038
  366TIP3    H122657   4.522   5.660   7.016
  366TIP3    H222658   4.608   5.598   7.125
  367TIP3   OH222659   0.113   2.578   6.499
  367TIP3    H122660   0.104   2.486   6.471
  367TIP3    H222661   0.091   2.628   6.421
  368TIP3   OH222662   6.097   3.294   1.300
  368TIP3    H122663   6.078   3.365   1.361
  368TIP3    H222664   6.130   3.338   1.222
  369TIP3   OH222665   3.460   0.528   0.961
  369TIP3    H122666   3.365   0.534   0.970
  369TIP3    H222667   3.474   0.474   0.883
  370TIP3   OH222668   1.031   1.060   0.824
  370TIP3    H122669   1.125   1.069   0.837
  370TIP3    H222670   0.992   1.101   0.902
  371TIP3   OH222671   0.720   5.779   1.476
  371TIP3    H122672   0.645   5.733   1.513
  371TIP3    H222673   0.707   5.776   1.382
  372TIP3   OH222674   2.103   0.201   8.508
  372TIP3    H122675   2.178   0.195   8.449
  372TIP3    H222676   2.137   0.244   0.020
  373TIP3   OH222677   2.392   3.357   6.863
  373TIP3    H122678   2.375   3.417   6.936
  373TIP3    H222679   2.476   3.385   6.827
  374TIP3   OH222680   3.777   5.172   7.828
  374TIP3    H122681   3.687   5.165   7.858
  374TIP3    H222682   3.771   5.220   7.745
  375TIP3   OH222683   4.985   4.866   7.876
  375TIP3    H122684   4.948   4.805   7.812
  375TIP3    H222685   5.074   4.881   7.846
  376TIP3   OH222686   6.625   0.462   7.311
  376TIP3    H122687   6.637   0.457   7.406
  376TIP3    H222688   6.548   0.408   7.294
  377TIP3   OH222689   6.104   3.676   1.130
  377TIP3    H122690   6.198   3.662   1.140
  377TIP3    H222691   6.077   3.611   1.065
  378TIP3   OH222692   3.992   1.865   0.949
  378TIP3    H122693   3.925   1.805   0.982
  378TIP3    H222694   3.953   1.906   0.872
  379TIP3   OH222695   3.754   0.790   7.427
  379TIP3    H122696   3.774   0.796   7.334
  379TIP3    H222697   3.738   0.880   7.454
  380TIP3   OH222698   3.629   5.797   7.576
  380TIP3    H122699   3.710   5.780   7.623
  380TIP3    H222700   3.655   5.806   7.484
  381TIP3   OH222701   2.727   3.906   8.128
  381TIP3    H122702   2.648   3.926   8.177
  381TIP3    H222703   2.732   3.811   8.126
  382TIP3   OH222704   3.589   1.880   0.215
  382TIP3    H122705   3.559   1.794   0.246
  382TIP3    H222706   3.527   1.903   0.146
  383TIP3   OH222707   5.022   3.529   8.289
  383TIP3    H122708   5.108   3.491   8.274
  383TIP3    H222709   4.991   3.487   8.370
  384TIP3   OH222710   1.268   6.004   7.278
  384TIP3    H122711   1.343   5.997   7.219
  384TIP3    H222712   1.230   5.917   7.278
  385TIP3   OH222713   4.709   4.508   1.324
  385TIP3    H122714   4.709   4.415   1.349
  385TIP3    H222715   4.738   4.509   1.233
  386TIP3   OH222716   0.277   4.311   7.541
  386TIP3    H122717   0.262   4.385   7.600
  386TIP3    H222718   0.299   4.351   7.457
  387TIP3   OH222719   4.889   2.018   2.169
  387TIP3    H122720   4.829   2.090   2.188
  387TIP3    H222721   4.931   2.043   2.087
  388TIP3   OH222722   3.431   6.269   1.183
  388TIP3    H122723   3.461   6.360   1.185
  388TIP3    H222724   3.418   6.250   1.090
  389TIP3   OH222725   2.653   5.579   6.810
  389TIP3    H122726   2.619   5.536   6.731
  389TIP3    H222727   2.665   5.507   6.872
  390TIP3   OH222728   0.268   5.142   1.554
  390TIP3    H122729   0.321   5.063   1.545
  390TIP3    H222730   0.256   5.174   1.465
  391TIP3   OH222731   3.841   4.352   0.913
  391TIP3    H122732   3.775   4.328   0.848
  391TIP3    H222733   3.923   4.357   0.862
  392TIP3   OH222734   6.157   2.594   0.984
  392TIP3    H122735   6.237   2.545   0.964
  392TIP3    H222736   6.109   2.537   1.044
  393TIP3   OH222737   2.939   6.812   0.995
  393TIP3    H122738   2.947   6.838   0.903
  393TIP3    H222739   2.932   6.894   1.043
  394TIP3   OH222740   2.261   1.889   6.931
  394TIP3    H122741   2.238   1.807   6.886
  394TIP3    H222742   2.191   1.902   6.995
  395TIP3   OH222743   5.987   2.726   6.916
  395TIP3    H122744   6.000   2.751   6.825
  395TIP3    H222745   5.977   2.631   6.914
  396TIP3   OH222746   5.605   0.824   6.867
  396TIP3    H122747   5.576   0.851   6.779
  396TIP3    H222748   5.562   0.887   6.926
  397TIP3   OH222749   4.108   3.442   0.283
  397TIP3    H122750   4.057   3.364   0.307
  397TIP3    H222751   4.160   3.462   0.362
  398TIP3   OH222752   4.956   2.703   0.382
  398TIP3    H122753   4.992   2.789   0.360
  398TIP3    H222754   4.878   2.722   0.433
  399TIP3   OH222755   0.981   1.393   8.505
  399TIP3    H122756   0.909   1.331   8.493
  399TIP3    H222757   1.058   1.338   8.522
  400TIP3   OH222758   2.740   6.017   0.205
  400TIP3    H122759   2.779   6.075   0.139
  400TIP3    H222760   2.648   6.042   0.207
  401TIP3   OH222761   4.671   1.224   0.849
  401TIP3    H122762   4.706   1.255   0.932
  401TIP3    H222763   4.585   1.263   0.841
  402TIP3   OH222764   1.788   5.688   7.580
  402TIP3    H122765   1.753   5.732   7.503
  402TIP3    H222766   1.855   5.628   7.546
  403TIP3   OH222767   5.046   2.148   7.509
  403TIP3    H122768   5.023   2.055   7.511
  403TIP3    H222769   5.070   2.164   7.418
  404TIP3   OH222770   4.015   6.368   2.538
  404TIP3    H122771   4.084   6.394   2.477
  404TIP3    H222772   3.977   6.289   2.500
  405TIP3   OH222773   6.204   3.184   1.675
  405TIP3    H122774   6.188   3.092   1.653
  405TIP3    H222775   6.142   3.202   1.745
  406TIP3   OH222776   1.372   6.800   7.505
  406TIP3    H122777   1.421   6.718   7.505
  406TIP3    H222778   1.438   6.869   7.500
  407TIP3   OH222779   3.294   6.803   0.270
  407TIP3    H122780   3.288   6.711   0.245
  407TIP3    H222781   3.216   6.844   0.233
  408TIP3   OH222782   2.721   6.174   6.539
  408TIP3    H122783   2.778   6.100   6.522
  408TIP3    H222784   2.765   6.249   6.499
  409TIP3   OH222785   5.110   0.947   0.069
  409TIP3    H122786   5.155   1.030   0.080
  409TIP3    H222787   5.096   0.940   8.541
  410TIP3   OH222788   3.119   3.593   1.836
  410TIP3    H122789   3.113   3.676   1.787
  410TIP3    H222790   3.030   3.578   1.868
  411TIP3   OH222791   2.792   3.011   0.994
  411TIP3    H122792   2.784   3.025   0.900
  411TIP3    H222793   2.754   3.090   1.033
  412TIP3   OH222794   3.025   4.573   6.740
  412TIP3    H122795   2.980   4.508   6.686
  412TIP3    H222796   2.991   4.657   6.710
  413TIP3   OH222797   1.181   6.373   1.877
  413TIP3    H122798   1.205   6.290   1.835
  413TIP3    H222799   1.224   6.440   1.823
  414TIP3   OH222800   6.754   4.804   8.312
  414TIP3    H122801   6.697   4.768   8.380
  414TIP3    H222802   6.722   4.894   8.299
  415TIP3   OH222803   2.231   1.481   0.038
  415TIP3    H122804   2.290   1.548   0.003
  415TIP3    H222805   2.158   1.530   0.076
  416TIP3   OH222806   1.466   6.080   8.227
  416TIP3    H122807   1.494   6.149   8.166
  416TIP3    H222808   1.545   6.057   8.275
  417TIP3   OH222809   1.389   3.154   7.585
  417TIP3    H122810   1.293   3.151   7.578
  417TIP3    H222811   1.418   3.068   7.553
  418TIP3   OH222812   2.816   2.614   0.917
  418TIP3    H122813   2.794   2.643   0.828
  418TIP3    H222814   2.896   2.661   0.938
  419TIP3   OH222815   3.845   2.553   7.746
  419TIP3    H122816   3.896   2.504   7.811
  419TIP3    H222817   3.813   2.630   7.794
  420TIP3   OH222818   1.914   3.339   6.717
  420TIP3    H122819   1.903   3.429   6.689
  420TIP3    H222820   1.843   3.324   6.780
  421TIP3   OH222821   1.017   6.463   1.597
  421TIP3    H122822   0.948   6.449   1.533
  421TIP3    H222823   1.042   6.375   1.626
  422TIP3   OH222824   4.927   4.052   0.489
  422TIP3    H122825   4.943   4.137   0.449
  422TIP3    H222826   4.834   4.034   0.471
  423TIP3   OH222827   6.324   5.590   0.980
  423TIP3    H122828   6.360   5.532   1.047
  423TIP3    H222829   6.362   5.675   1.000
  424TIP3   OH222830   3.161   1.753   6.653
  424TIP3    H122831   3.222   1.703   6.599
  424TIP3    H222832   3.094   1.783   6.591
  425TIP3   OH222833   5.239   2.656   7.153
  425TIP3    H122834   5.240   2.579   7.096
  425TIP3    H222835   5.150   2.659   7.188
  426TIP3   OH222836   4.687   2.124   1.880
  426TIP3    H122837   4.742   2.045   1.877
  426TIP3    H222838   4.677   2.150   1.788
  427TIP3   OH222839   5.827   2.221   6.438
  427TIP3    H122840   5.897   2.211   6.502
  427TIP3    H222841   5.839   2.149   6.376
  428TIP3   OH222842   2.930   2.905   1.232
  428TIP3    H122843   2.975   2.822   1.218
  428TIP3    H222844   2.871   2.913   1.157
  429TIP3   OH222845   5.461   0.977   8.471
  429TIP3    H122846   5.460   1.072   8.478
  429TIP3    H222847   5.466   0.959   8.378
  430TIP3   OH222848   3.078   6.000   1.444
  430TIP3    H122849   3.101   5.921   1.395
  430TIP3    H222850   3.137   6.067   1.410
  431TIP3   OH222851   1.610   3.110   0.325
  431TIP3    H122852   1.634   3.044   0.259
  431TIP3    H222853   1.580   3.058   0.400
  432TIP3   OH222854   5.062   3.370   1.664
  432TIP3    H122855   5.047   3.325   1.581
  432TIP3    H222856   5.006   3.324   1.727
  433TIP3   OH222857   1.037   2.273   8.427
  433TIP3    H122858   1.130   2.287   8.413
  433TIP3    H222859   1.028   2.178   8.434
  434TIP3   OH222860   1.594   0.306   1.609
  434TIP3    H122861   1.631   0.289   1.696
  434TIP3    H222862   1.504   0.275   1.616
  435TIP3   OH222863   0.541   6.063   8.368
  435TIP3    H122864   0.453   6.097   8.356
  435TIP3    H222865   0.537   5.972   8.339
  436TIP3   OH222866   6.612   5.507   0.675
  436TIP3    H122867   6.536   5.463   0.714
  436TIP3    H222868   6.576   5.558   0.603
  437TIP3   OH222869   3.907   5.749   2.213
  437TIP3    H122870   3.906   5.843   2.232
  437TIP3    H222871   3.974   5.714   2.272
  438TIP3   OH222872   1.126   1.562   7.432
  438TIP3    H122873   1.132   1.656   7.451
  438TIP3    H222874   1.177   1.551   7.351
  439TIP3   OH222875   4.688   3.178   8.020
  439TIP3    H122876   4.739   3.250   8.056
  439TIP3    H222877   4.728   3.099   8.057
  440TIP3   OH222878   6.897   2.480   0.836
  440TIP3    H122879   6.850   2.415   0.888
  440TIP3    H222880   6.839   2.555   0.833
  441TIP3   OH222881   4.830   5.838   1.620
  441TIP3    H122882   4.784   5.913   1.582
  441TIP3    H222883   4.890   5.877   1.684
  442TIP3   OH222884   0.550   6.648   0.484
  442TIP3    H122885   0.458   6.672   0.471
  442TIP3    H222886   0.551   6.552   0.485
  443TIP3   OH222887   0.040   2.044   2.452
  443TIP3    H122888   0.079   2.077   2.371
  443TIP3    H222889   6.856   2.064   2.445
  444TIP3   OH222890   6.620   5.157   1.386
  444TIP3    H122891   6.713   5.135   1.376
  444TIP3    H222892   6.603   5.219   1.315
  445TIP3   OH222893   2.976   3.014   7.737
  445TIP3    H122894   2.949   3.082   7.675
  445TIP3    H222895   3.041   2.963   7.690
  446TIP3   OH222896   6.158   4.649   0.170
  446TIP3    H122897   6.138   4.618   0.258
  446TIP3    H222898   6.224   4.587   0.137
  447TIP3   OH222899   5.646   1.189   2.282
  447TIP3    H122900   5.630   1.096   2.266
  447TIP3    H222901   5.562   1.231   2.265
  448TIP3   OH222902   3.084   1.499   1.437
  448TIP3    H122903   3.130   1.570   1.394
  448TIP3    H222904   3.130   1.488   1.521
  449TIP3   OH222905   2.836   2.554   7.700
  449TIP3    H122906   2.771   2.608   7.655
  449TIP3    H222907   2.791   2.472   7.719
  450TIP3   OH222908   6.223   2.165   1.729
  450TIP3    H122909   6.175   2.242   1.700
  450TIP3    H222910   6.229   2.175   1.824
  451TIP3   OH222911   5.658   0.059   1.518
  451TIP3    H122912   5.569   0.025   1.513
  451TIP3    H222913   5.674   0.074   1.611
  452TIP3   OH222914   1.894   4.477   1.173
  452TIP3    H122915   1.805   4.497   1.204
  452TIP3    H222916   1.949   4.546   1.210
  453TIP3   OH222917   3.248   2.977   6.984
  453TIP3    H122918   3.262   2.900   6.928
  453TIP3    H222919   3.239   2.941   7.072
  454TIP3   OH222920   4.119   5.891   8.015
  454TIP3    H122921   4.200   5.845   8.038
  454TIP3    H222922   4.140   5.984   8.026
  455TIP3   OH222923   0.903   2.259   2.125
  455TIP3    H122924   0.913   2.254   2.220
  455TIP3    H222925   0.855   2.340   2.111
  456TIP3   OH222926   1.010   4.279   0.411
  456TIP3    H122927   0.997   4.248   0.500
  456TIP3    H222928   1.088   4.231   0.380
  457TIP3   OH222929   6.095   6.608   1.135
  457TIP3    H122930   6.184   6.625   1.164
  457TIP3    H222931   6.054   6.561   1.208
  458TIP3   OH222932   3.609   0.635   8.554
  458TIP3    H122933   3.698   0.641   8.520
  458TIP3    H222934   3.575   0.725   8.546
  459TIP3   OH222935   4.167   2.436   7.317
  459TIP3    H122936   4.111   2.410   7.244
  459TIP3    H222937   4.126   2.395   7.394
  460TIP3   OH222938   1.366   0.536   2.094
  460TIP3    H122939   1.315   0.456   2.109
  460TIP3    H222940   1.333   0.598   2.159
  461TIP3   OH222941   1.002   5.213   0.548
  461TIP3    H122942   0.958   5.128   0.553
  461TIP3    H222943   1.035   5.228   0.637
  462TIP3   OH222944   3.663   0.943   1.883
  462TIP3    H122945   3.747   0.964   1.841
  462TIP3    H222946   3.674   0.853   1.915
  463TIP3   OH222947   2.436   6.606   7.227
  463TIP3    H122948   2.452   6.527   7.280
  463TIP3    H222949   2.518   6.654   7.231
  464TIP3   OH222950   2.914   2.191   2.161
  464TIP3    H122951   2.908   2.096   2.173
  464TIP3    H222952   2.844   2.212   2.099
  465TIP3   OH222953   3.267   5.057   0.227
  465TIP3    H122954   3.361   5.040   0.235
  465TIP3    H222955   3.229   5.025   0.309
  466TIP3   OH222956   1.348   4.268   6.829
  466TIP3    H122957   1.372   4.176   6.838
  466TIP3    H222958   1.259   4.265   6.792
  467TIP3   OH222959   4.661   6.850   7.043
  467TIP3    H122960   4.712   6.789   7.095
  467TIP3    H222961   4.602   6.892   7.105
  468TIP3   OH222962   0.936   5.360   1.977
  468TIP3    H122963   0.949   5.303   1.902
  468TIP3    H222964   0.868   5.316   2.029
  469TIP3   OH222965   3.492   3.135   7.297
  469TIP3    H122966   3.576   3.133   7.250
  469TIP3    H222967   3.513   3.100   7.383
  470TIP3   OH222968   0.449   2.694   8.218
  470TIP3    H122969   0.489   2.612   8.247
  470TIP3    H222970   0.371   2.704   8.273
  471TIP3   OH222971   4.146   3.350   6.677
  471TIP3    H122972   4.177   3.337   6.767
  471TIP3    H222973   4.136   3.444   6.668
  472TIP3   OH222974   3.585   5.617   0.875
  472TIP3    H122975   3.654   5.571   0.923
  472TIP3    H222976   3.573   5.566   0.795
  473TIP3   OH222977   3.654   5.498   8.452
  473TIP3    H122978   3.743   5.496   8.416
  473TIP3    H222979   3.657   5.439   8.527
  474TIP3   OH222980   3.461   2.482   7.414
  474TIP3    H122981   3.499   2.431   7.343
  474TIP3    H222982   3.377   2.439   7.432
  475TIP3   OH222983   3.846   3.271   2.214
  475TIP3    H122984   3.782   3.244   2.279
  475TIP3    H222985   3.795   3.303   2.141
  476TIP3   OH222986   1.469   3.248   7.052
  476TIP3    H122987   1.385   3.218   7.019
  476TIP3    H222988   1.449   3.294   7.133
  477TIP3   OH222989   4.270   4.692   6.016
  477TIP3    H122990   4.245   4.784   6.022
  477TIP3    H222991   4.366   4.693   6.014
  478TIP3   OH222992   1.740   6.827   6.726
  478TIP3    H122993   1.831   6.798   6.738
  478TIP3    H222994   1.727   6.826   6.631
  479TIP3   OH222995   0.449   0.409   1.446
  479TIP3    H122996   0.501   0.393   1.367
  479TIP3    H222997   0.438   0.323   1.486
  480TIP3   OH222998   5.442   1.052   1.186
  480TIP3    H122999   5.535   1.073   1.186
  480TIP3    H223000   5.420   1.036   1.278
  481TIP3   OH223001   6.298   0.994   1.805
  481TIP3    H123002   6.350   1.037   1.872
  481TIP3    H223003   6.315   1.044   1.725
  482TIP3   OH223004   4.661   0.266   1.161
  482TIP3    H123005   4.716   0.343   1.152
  482TIP3    H223006   4.702   0.214   1.230
  483TIP3   OH223007   4.026   3.625   7.639
  483TIP3    H123008   4.019   3.682   7.562
  483TIP3    H223009   3.977   3.547   7.615
  484TIP3   OH223010   0.907   0.588   6.894
  484TIP3    H123011   0.989   0.554   6.929
  484TIP3    H223012   0.909   0.566   6.801
  485TIP3   OH223013   4.132   1.969   0.243
  485TIP3    H123014   4.122   2.064   0.235
  485TIP3    H223015   4.066   1.932   0.185
  486TIP3   OH223016   2.590   6.827   7.528
  486TIP3    H123017   2.531   6.786   7.591
  486TIP3    H223018   2.558   0.007   7.519
  487TIP3   OH223019   6.773   2.008   6.379
  487TIP3    H123020   6.822   1.950   6.437
  487TIP3    H223021   6.836   2.037   6.314
  488TIP3   OH223022   0.829   0.093   0.529
  488TIP3    H123023   0.759   0.158   0.528
  488TIP3    H223024   0.871   0.102   0.444
  489TIP3   OH223025   5.178   4.714   1.628
  489TIP3    H123026   5.243   4.761   1.681
  489TIP3    H223027   5.133   4.657   1.690
  490TIP3   OH223028   2.318   6.152   7.623
  490TIP3    H123029   2.403   6.182   7.655
  490TIP3    H223030   2.323   6.163   7.528
  491TIP3   OH223031   2.433   6.146   7.124
  491TIP3    H123032   2.452   6.198   7.047
  491TIP3    H223033   2.502   6.080   7.127
  492TIP3   OH223034   0.098   2.571   7.611
  492TIP3    H123035   0.151   2.612   7.680
  492TIP3    H223036   0.011   2.609   7.621
  493TIP3   OH223037   1.118   2.870   6.728
  493TIP3    H123038   1.076   2.918   6.799
  493TIP3    H223039   1.125   2.934   6.657
  494TIP3   OH223040   1.855   6.417   2.197
  494TIP3    H123041   1.890   6.360   2.265
  494TIP3    H223042   1.883   6.378   2.115
  495TIP3   OH223043   6.474   6.327   0.727
  495TIP3    H123044   6.480   6.238   0.762
  495TIP3    H223045   6.476   6.384   0.803
  496TIP3   OH223046   0.946   5.804   0.194
  496TIP3    H123047   0.956   5.854   0.274
  496TIP3    H223048   0.950   5.712   0.222
  497TIP3   OH223049   1.103   6.549   1.283
  497TIP3    H123050   1.130   6.593   1.364
  497TIP3    H223051   1.169   6.481   1.270
  498TIP3   OH223052   4.305   3.984   7.913
  498TIP3    H123053   4.226   3.943   7.879
  498TIP3    H223054   4.374   3.959   7.852
  499TIP3   OH223055   3.505   6.329   7.067
  499TIP3    H123056   3.550   6.315   7.149
  499TIP3    H223057   3.566   6.300   7.000
  500TIP3   OH223058   4.714   3.335   6.232
  500TIP3    H123059   4.727   3.429   6.247
  500TIP3    H223060   4.801   3.297   6.242
  501TIP3   OH223061   1.450   4.679   7.662
  501TIP3    H123062   1.413   4.745   7.719
  501TIP3    H223063   1.448   4.598   7.713
  502TIP3   OH223064   1.844   3.162   8.045
  502TIP3    H123065   1.894   3.124   7.973
  502TIP3    H223066   1.848   3.257   8.030
  503TIP3   OH223067   0.560   4.145   7.767
  503TIP3    H123068   0.653   4.149   7.792
  503TIP3    H223069   0.515   4.128   7.850
  504TIP3   OH223070   0.405   0.492   6.421
  504TIP3    H123071   0.396   0.398   6.439
  504TIP3    H223072   0.317   0.527   6.436
  505TIP3   OH223073   1.869   0.858   0.884
  505TIP3    H123074   1.910   0.874   0.799
  505TIP3    H223075   1.794   0.801   0.864
  506TIP3   OH223076   1.392   5.537   7.869
  506TIP3    H123077   1.481   5.515   7.842
  506TIP3    H223078   1.355   5.584   7.794
  507TIP3   OH223079   0.086   4.885   7.923
  507TIP3    H123080   0.058   4.794   7.913
  507TIP3    H223081   0.005   4.935   7.923
  508TIP3   OH223082   2.544   1.832   8.332
  508TIP3    H123083   2.501   1.913   8.359
  508TIP3    H223084   2.605   1.858   8.263
  509TIP3   OH223085   6.857   4.916   1.764
  509TIP3    H123086   0.020   4.853   1.770
  509TIP3    H223087   6.898   5.001   1.782
  510TIP3   OH223088   5.153   1.325   7.229
  510TIP3    H123089   5.079   1.347   7.284
  510TIP3    H223090   5.206   1.266   7.282
  511TIP3   OH223091   2.783   0.548   8.480
  511TIP3    H123092   2.788   0.454   8.498
  511TIP3    H223093   2.808   0.556   8.388
  512TIP3   OH223094   0.088   4.069   1.083
  512TIP3    H123095   0.048   4.124   1.151
  512TIP3    H223096   0.175   4.048   1.117
  513TIP3   OH223097   1.903   1.333   7.648
  513TIP3    H123098   1.837   1.394   7.680
  513TIP3    H223099   1.968   1.388   7.605
  514TIP3   OH223100   2.142   1.191   2.389
  514TIP3    H123101   2.080   1.130   2.430
  514TIP3    H223102   2.088   1.266   2.363
  515TIP3   OH223103   0.811   5.874   0.909
  515TIP3    H123104   0.799   5.940   0.841
  515TIP3    H223105   0.738   5.814   0.897
  516TIP3   OH223106   2.413   4.264   0.005
  516TIP3    H123107   2.442   4.236   8.485
  516TIP3    H223108   2.439   4.193   0.063
  517TIP3   OH223109   1.365   2.862   7.591
  517TIP3    H123110   1.304   2.854   7.518
  517TIP3    H223111   1.411   2.779   7.593
  518TIP3   OH223112   5.852   0.211   0.003
  518TIP3    H123113   5.914   0.256   0.061
  518TIP3    H223114   5.846   0.122   0.039
  519TIP3   OH223115   2.547   1.089   0.195
  519TIP3    H123116   2.612   1.018   0.189
  519TIP3    H223117   2.484   1.069   0.126
  520TIP3   OH223118   1.273   5.832   7.839
  520TIP3    H123119   1.340   5.854   7.775
  520TIP3    H223120   1.320   5.788   7.910
  521TIP3   OH223121   5.477   6.378   1.601
  521TIP3    H123122   5.572   6.366   1.608
  521TIP3    H223123   5.462   6.394   1.508
  522TIP3   OH223124   4.735   0.830   7.193
  522TIP3    H123125   4.809   0.857   7.138
  522TIP3    H223126   4.762   0.853   7.282
  523TIP3   OH223127   3.949   0.788   8.192
  523TIP3    H123128   3.984   0.775   8.281
  523TIP3    H223129   3.997   0.726   8.138
  524TIP3   OH223130   3.932   6.495   0.887
  524TIP3    H123131   3.954   6.407   0.856
  524TIP3    H223132   3.905   6.542   0.808
  525TIP3   OH223133   1.960   4.338   7.072
  525TIP3    H123134   1.910   4.413   7.040
  525TIP3    H223135   1.984   4.289   6.993
  526TIP3   OH223136   0.577   2.809   1.118
  526TIP3    H123137   0.663   2.774   1.140
  526TIP3    H223138   0.518   2.769   1.182
  527TIP3   OH223139   4.395   5.651   2.435
  527TIP3    H123140   4.460   5.680   2.499
  527TIP3    H223141   4.426   5.565   2.407
  528TIP3   OH223142   1.511   0.479   8.457
  528TIP3    H123143   1.555   0.396   8.437
  528TIP3    H223144   1.503   0.524   8.373
  529TIP3   OH223145   3.893   6.023   8.317
  529TIP3    H123146   3.989   6.026   8.309
  529TIP3    H223147   3.872   5.930   8.305
  530TIP3   OH223148   1.150   6.158   6.716
  530TIP3    H123149   1.132   6.136   6.807
  530TIP3    H223150   1.174   6.074   6.676
  531TIP3   OH223151   4.605   6.303   8.001
  531TIP3    H123152   4.621   6.393   8.031
  531TIP3    H223153   4.515   6.285   8.028
  532TIP3   OH223154   3.801   1.315   1.307
  532TIP3    H123155   3.810   1.240   1.249
  532TIP3    H223156   3.786   1.276   1.394
  533TIP3   OH223157   6.081   0.193   0.169
  533TIP3    H123158   6.127   0.117   0.134
  533TIP3    H223159   6.150   0.258   0.181
  534TIP3   OH223160   4.173   0.414   8.213
  534TIP3    H123161   4.261   0.418   8.249
  534TIP3    H223162   4.164   0.325   8.181
  535TIP3   OH223163   2.142   1.462   0.416
  535TIP3    H123164   2.069   1.402   0.434
  535TIP3    H223165   2.202   1.448   0.489
  536TIP3   OH223166   3.309   3.445   6.926
  536TIP3    H123167   3.351   3.359   6.932
  536TIP3    H223168   3.219   3.431   6.954
  537TIP3   OH223169   1.907   5.722   1.123
  537TIP3    H123170   1.905   5.793   1.187
  537TIP3    H223171   1.847   5.751   1.054
  538TIP3   OH223172   2.497   1.428   6.679
  538TIP3    H123173   2.456   1.514   6.677
  538TIP3    H223174   2.425   1.367   6.695
  539TIP3   OH223175   4.997   4.552   0.427
  539TIP3    H123176   5.059   4.502   0.480
  539TIP3    H223177   4.922   4.494   0.417
  540TIP3   OH223178   6.365   1.789   0.609
  540TIP3    H123179   6.344   1.809   0.518
  540TIP3    H223180   6.423   1.713   0.605
  541TIP3   OH223181   4.452   0.386   6.922
  541TIP3    H123182   4.409   0.374   6.837
  541TIP3    H223183   4.545   0.385   6.901
  542TIP3   OH223184   6.152   1.737   8.561
  542TIP3    H123185   6.110   1.823   8.558
  542TIP3    H223186   6.241   1.756   0.026
  543TIP3   OH223187   6.647   6.761   0.980
  543TIP3    H123188   6.554   6.783   0.971
  543TIP3    H223189   6.675   6.736   0.892
  544TIP3   OH223190   1.315   4.150   0.011
  544TIP3    H123191   1.376   4.078   8.561
  544TIP3    H223192   1.369   4.229   0.004
  545TIP3   OH223193   5.763   5.389   7.785
  545TIP3    H123194   5.813   5.308   7.789
  545TIP3    H223195   5.780   5.423   7.697
  546TIP3   OH223196   6.862   0.029   7.111
  546TIP3    H123197   6.825   0.097   7.167
  546TIP3    H223198   0.037   0.066   7.082
  547TIP3   OH223199   2.753   0.710   0.717
  547TIP3    H123200   2.659   0.695   0.709
  547TIP3    H223201   2.773   0.695   0.809
  548TIP3   OH223202   4.188   4.094   0.812
  548TIP3    H123203   4.160   4.185   0.802
  548TIP3    H223204   4.213   4.066   0.724
  549TIP3   OH223205   6.276   5.596   1.615
  549TIP3    H123206   6.288   5.536   1.689
  549TIP3    H223207   6.296   5.682   1.651
  550TIP3   OH223208   5.122   2.755   2.055
  550TIP3    H123209   5.173   2.684   2.016
  550TIP3    H223210   5.159   2.835   2.017
  551TIP3   OH223211   1.925   3.821   0.639
  551TIP3    H123212   1.921   3.765   0.717
  551TIP3    H223213   1.891   3.906   0.668
  552TIP3   OH223214   4.883   2.225   0.530
  552TIP3    H123215   4.813   2.266   0.580
  552TIP3    H223216   4.927   2.167   0.592
  553TIP3   OH223217   1.118   5.307   1.628
  553TIP3    H123218   1.168   5.230   1.601
  553TIP3    H223219   1.027   5.285   1.606
  554TIP3   OH223220   5.554   2.966   0.159
  554TIP3    H123221   5.553   3.018   0.079
  554TIP3    H223222   5.614   3.013   0.217
  555TIP3   OH223223   2.717   5.856   8.536
  555TIP3    H123224   2.744   5.931   0.021
  555TIP3    H223225   2.625   5.842   8.560
  556TIP3   OH223226   1.519   2.374   0.018
  556TIP3    H123227   1.536   2.302   8.525
  556TIP3    H223228   1.444   2.345   0.070
  557TIP3   OH223229   4.030   0.653   7.380
  557TIP3    H123230   4.068   0.674   7.294
  557TIP3    H223231   3.947   0.700   7.381
  558TIP3   OH223232   4.995   3.154   6.562
  558TIP3    H123233   5.078   3.133   6.604
  558TIP3    H223234   5.014   3.155   6.468
  559TIP3   OH223235   4.765   4.319   1.123
  559TIP3    H123236   4.669   4.318   1.116
  559TIP3    H223237   4.795   4.279   1.041
  560TIP3   OH223238   3.828   4.715   0.208
  560TIP3    H123239   3.833   4.625   0.240
  560TIP3    H223240   3.749   4.717   0.154
  561TIP3   OH223241   1.209   2.115   0.097
  561TIP3    H123242   1.246   2.036   0.058
  561TIP3    H223243   1.244   2.117   0.186
  562TIP3   OH223244   6.279   5.143   7.572
  562TIP3    H123245   6.283   5.157   7.667
  562TIP3    H223246   6.225   5.215   7.540
  563TIP3   OH223247   4.373   2.078   0.045
  563TIP3    H123248   4.328   2.135   8.550
  563TIP3    H223249   4.304   2.048   0.104
  564TIP3   OH223250   2.173   3.608   8.525
  564TIP3    H123251   2.110   3.578   8.459
  564TIP3    H223252   2.118   3.637   0.031
  565TIP3   OH223253   1.814   3.102   8.451
  565TIP3    H123254   1.873   3.149   8.392
  565TIP3    H223255   1.755   3.054   8.393
  566TIP3   OH223256   3.759   3.630   8.192
  566TIP3    H123257   3.841   3.621   8.145
  566TIP3    H223258   3.697   3.574   8.145
  567TIP3   OH223259   3.757   2.907   1.852
  567TIP3    H123260   3.749   2.941   1.763
  567TIP3    H223261   3.762   2.985   1.908
  568TIP3   OH223262   2.839   1.846   0.630
  568TIP3    H123263   2.931   1.820   0.643
  568TIP3    H223264   2.814   1.888   0.712
  569TIP3   OH223265   6.562   6.168   7.518
  569TIP3    H123266   6.471   6.138   7.523
  569TIP3    H223267   6.592   6.141   7.431
  570TIP3   OH223268   2.924   2.064   7.308
  570TIP3    H123269   2.859   2.129   7.279
  570TIP3    H223270   2.897   1.983   7.266
  571TIP3   OH223271   5.682   5.793   1.273
  571TIP3    H123272   5.614   5.778   1.208
  571TIP3    H223273   5.635   5.822   1.351
  572TIP3   OH223274   3.562   1.886   8.259
  572TIP3    H123275   3.534   1.977   8.250
  572TIP3    H223276   3.610   1.867   8.179
  573TIP3   OH223277   6.693   3.172   0.690
  573TIP3    H123278   6.695   3.202   0.781
  573TIP3    H223279   6.667   3.249   0.640
  574TIP3   OH223280   0.597   0.095   1.924
  574TIP3    H123281   0.593   0.003   1.897
  574TIP3    H223282   0.669   0.132   1.872
  575TIP3   OH223283   5.140   0.829   5.879
  575TIP3    H123284   5.056   0.817   5.923
  575TIP3    H223285   5.204   0.833   5.950
  576TIP3   OH223286   3.758   6.825   7.948
  576TIP3    H123287   3.808   6.789   7.875
  576TIP3    H223288   3.812   6.807   8.025
  577TIP3   OH223289   3.450   0.682   0.649
  577TIP3    H123290   3.443   0.587   0.649
  577TIP3    H223291   3.498   0.703   0.729
  578TIP3   OH223292   3.047   4.847   1.285
  578TIP3    H123293   3.079   4.937   1.289
  578TIP3    H223294   3.029   4.832   1.192
  579TIP3   OH223295   6.574   4.280   1.840
  579TIP3    H123296   6.598   4.349   1.901
  579TIP3    H223297   6.646   4.277   1.777
  580TIP3   OH223298   6.135   1.366   2.125
  580TIP3    H123299   6.147   1.458   2.102
  580TIP3    H223300   6.041   1.356   2.141
  581TIP3   OH223301   5.648   1.825   7.352
  581TIP3    H123302   5.605   1.863   7.429
  581TIP3    H223303   5.663   1.900   7.294
  582TIP3   OH223304   0.148   4.999   0.304
  582TIP3    H123305   0.196   4.944   0.367
  582TIP3    H223306   0.136   5.082   0.349
  583TIP3   OH223307   4.733   3.487   0.694
  583TIP3    H123308   4.778   3.532   0.623
  583TIP3    H223309   4.693   3.410   0.652
  584TIP3   OH223310   1.766   5.790   8.533
  584TIP3    H123311   1.859   5.779   8.516
  584TIP3    H223312   1.762   5.838   0.049
  585TIP3   OH223313   3.007   0.912   7.809
  585TIP3    H123314   2.980   0.879   7.895
  585TIP3    H223315   3.048   0.837   7.766
  586TIP3   OH223316   1.973   3.820   8.306
  586TIP3    H123317   1.973   3.908   8.270
  586TIP3    H223318   1.976   3.832   8.401
  587TIP3   OH223319   0.718   0.637   6.649
  587TIP3    H123320   0.670   0.571   6.699
  587TIP3    H223321   0.793   0.590   6.612
  588TIP3   OH223322   0.538   2.790   7.885
  588TIP3    H123323   0.631   2.809   7.875
  588TIP3    H223324   0.535   2.711   7.938
  589TIP3   OH223325   6.891   1.410   0.426
  589TIP3    H123326   0.042   1.393   0.354
  589TIP3    H223327   6.818   1.456   0.387
  590TIP3   OH223328   4.930   1.214   1.578
  590TIP3    H123329   4.926   1.127   1.537
  590TIP3    H223330   4.974   1.269   1.513
  591TIP3   OH223331   2.142   0.016   0.463
  591TIP3    H123332   2.210   0.079   0.440
  591TIP3    H223333   2.177   6.841   0.435
  592TIP3   OH223334   6.671   5.608   6.611
  592TIP3    H123335   6.766   5.605   6.601
  592TIP3    H223336   6.640   5.532   6.561
  593TIP3   OH223337   2.735   2.415   0.435
  593TIP3    H123338   2.654   2.430   0.386
  593TIP3    H223339   2.791   2.488   0.411
  594TIP3   OH223340   4.477   0.229   1.993
  594TIP3    H123341   4.415   0.201   2.060
  594TIP3    H223342   4.517   0.309   2.029
  595TIP3   OH223343   3.459   5.416   1.504
  595TIP3    H123344   3.531   5.373   1.552
  595TIP3    H223345   3.380   5.378   1.542
  596TIP3   OH223346   3.674   1.586   1.622
  596TIP3    H123347   3.585   1.550   1.632
  596TIP3    H223348   3.722   1.551   1.697
  597TIP3   OH223349   3.052   1.568   1.818
  597TIP3    H123350   3.085   1.550   1.906
  597TIP3    H223351   2.992   1.496   1.799
  598TIP3   OH223352   6.025   6.846   2.164
  598TIP3    H123353   5.932   6.834   2.146
  598TIP3    H223354   6.037   0.032   2.167
  599TIP3   OH223355   6.808   3.381   7.317
  599TIP3    H123356   6.782   3.360   7.228
  599TIP3    H223357   6.792   3.475   7.325
  600TIP3   OH223358   6.650   3.914   0.063
  600TIP3    H123359   6.597   3.867   8.566
  600TIP3    H223360   6.586   3.945   0.128
  601TIP3   OH223361   4.672   3.508   1.388
  601TIP3    H123362   4.730   3.550   1.452
  601TIP3    H223363   4.596   3.480   1.439
  602TIP3   OH223364   0.870   3.277   1.617
  602TIP3    H123365   0.857   3.188   1.586
  602TIP3    H223366   0.814   3.285   1.694
  603TIP3   OH223367   2.814   6.725   7.479
  603TIP3    H123368   2.826   6.633   7.454
  603TIP3    H223369   2.721   6.742   7.464
  604TIP3   OH223370   3.082   6.628   0.677
  604TIP3    H123371   3.055   6.704   0.626
  604TIP3    H223372   3.147   6.661   0.738
  605TIP3   OH223373   0.809   1.796   0.462
  605TIP3    H123374   0.731   1.750   0.433
  605TIP3    H223375   0.870   1.727   0.486
  606TIP3   OH223376   5.991   1.011   8.457
  606TIP3    H123377   5.978   1.105   8.465
  606TIP3    H223378   6.067   1.002   8.398
  607TIP3   OH223379   4.127   5.899   0.879
  607TIP3    H123380   4.118   5.839   0.952
  607TIP3    H223381   4.040   5.904   0.840
  608TIP3   OH223382   1.808   0.663   2.074
  608TIP3    H123383   1.830   0.753   2.049
  608TIP3    H223384   1.870   0.642   2.144
  609TIP3   OH223385   0.138   5.768   0.120
  609TIP3    H123386   0.223   5.730   0.143
  609TIP3    H223387   0.135   5.764   0.024
  610TIP3   OH223388   6.649   0.250   0.885
  610TIP3    H123389   6.737   0.231   0.853
  610TIP3    H223390   6.591   0.202   0.826
  611TIP3   OH223391   4.977   1.695   7.210
  611TIP3    H123392   4.968   1.640   7.132
  611TIP3    H223393   5.059   1.667   7.250
  612TIP3   OH223394   1.076   6.087   1.863
  612TIP3    H123395   1.038   6.115   1.946
  612TIP3    H223396   1.122   6.006   1.883
  613TIP3   OH223397   3.761   0.433   0.900
  613TIP3    H123398   3.744   0.360   0.960
  613TIP3    H223399   3.737   0.399   0.814
  614TIP3   OH223400   5.062   5.942   8.433
  614TIP3    H123401   5.037   5.995   8.357
  614TIP3    H223402   5.071   6.006   8.504
  615TIP3   OH223403   3.269   4.912   7.216
  615TIP3    H123404   3.220   4.832   7.197
  615TIP3    H223405   3.214   4.983   7.183
  616TIP3   OH223406   0.562   5.470   8.361
  616TIP3    H123407   0.632   5.482   8.297
  616TIP3    H223408   0.606   5.442   8.441
  617TIP3   OH223409   2.906   2.486   2.411
  617TIP3    H123410   2.986   2.434   2.400
  617TIP3    H223411   2.845   2.427   2.456
  618TIP3   OH223412   2.470   6.762   8.287
  618TIP3    H123413   2.470   6.825   8.358
  618TIP3    H223414   2.427   6.807   8.214
  619TIP3   OH223415   2.110   6.862   0.724
  619TIP3    H123416   2.103   6.897   0.634
  619TIP3    H223417   2.197   6.822   0.727
  620TIP3   OH223418   3.221   5.612   7.546
  620TIP3    H123419   3.158   5.554   7.590
  620TIP3    H223420   3.198   5.700   7.576
  621TIP3   OH223421   3.073   2.267   2.377
  621TIP3    H123422   3.027   2.223   2.306
  621TIP3    H223423   3.159   2.287   2.341
  622TIP3   OH223424   1.004   5.596   6.985
  622TIP3    H123425   1.019   5.691   6.990
  622TIP3    H223426   1.023   5.574   6.894
  623TIP3   OH223427   3.934   0.500   6.899
  623TIP3    H123428   3.946   0.573   6.838
  623TIP3    H223429   4.017   0.495   6.947
  624TIP3   OH223430   5.877   1.300   2.208
  624TIP3    H123431   5.924   1.291   2.291
  624TIP3    H223432   5.786   1.282   2.231
  625TIP3   OH223433   0.145   2.609   6.076
  625TIP3    H123434   0.134   2.546   6.004
  625TIP3    H223435   0.225   2.656   6.053
  626TIP3   OH223436   5.074   0.727   1.307
  626TIP3    H123437   5.098   0.810   1.349
  626TIP3    H223438   4.989   0.704   1.344
  627TIP3   OH223439   6.382   4.895   0.499
  627TIP3    H123440   6.390   4.973   0.555
  627TIP3    H223441   6.324   4.922   0.428
  628TIP3   OH223442   3.825   0.903   0.926
  628TIP3    H123443   3.839   0.828   0.984
  628TIP3    H223444   3.822   0.979   0.984
  629TIP3   OH223445   3.647   5.685   7.946
  629TIP3    H123446   3.714   5.753   7.951
  629TIP3    H223447   3.621   5.669   8.037
  630TIP3   OH223448   4.381   0.612   6.523
  630TIP3    H123449   4.338   0.591   6.440
  630TIP3    H223450   4.368   0.534   6.577
  631TIP3   OH223451   6.733   1.178   1.263
  631TIP3    H123452   6.685   1.253   1.229
  631TIP3    H223453   6.820   1.212   1.284
  632TIP3   OH223454   1.557   6.034   7.433
  632TIP3    H123455   1.644   5.997   7.419
  632TIP3    H223456   1.509   6.013   7.353
  633TIP3   OH223457   4.921   3.397   8.492
  633TIP3    H123458   4.966   3.326   8.446
  633TIP3    H223459   4.881   3.354   0.001
  634TIP3   OH223460   6.036   2.953   6.412
  634TIP3    H123461   6.121   2.962   6.370
  634TIP3    H223462   5.977   2.925   6.342
  635TIP3   OH223463   5.259   0.059   7.692
  635TIP3    H123464   5.205   0.131   7.661
  635TIP3    H223465   5.334   0.058   7.633
  636TIP3   OH223466   4.309   1.757   8.074
  636TIP3    H123467   4.359   1.772   8.154
  636TIP3    H223468   4.218   1.751   8.104
  637TIP3   OH223469   2.788   3.559   0.023
  637TIP3    H123470   2.733   3.556   8.511
  637TIP3    H223471   2.750   3.492   0.081
  638TIP3   OH223472   3.991   4.283   0.635
  638TIP3    H123473   4.013   4.374   0.614
  638TIP3    H223474   4.066   4.232   0.605
  639TIP3   OH223475   5.509   2.087   6.902
  639TIP3    H123476   5.604   2.097   6.904
  639TIP3    H223477   5.484   2.111   6.813
  640TIP3   OH223478   4.489   5.401   1.451
  640TIP3    H123479   4.504   5.307   1.461
  640TIP3    H223480   4.525   5.422   1.365
  641TIP3   OH223481   6.817   3.940   6.142
  641TIP3    H123482   6.855   4.024   6.117
  641TIP3    H223483   6.892   3.882   6.150
  642TIP3   OH223484   0.800   4.701   8.162
  642TIP3    H123485   0.747   4.622   8.153
  642TIP3    H223486   0.794   4.723   8.255
  643TIP3   OH223487   0.971   6.188   1.624
  643TIP3    H123488   0.982   6.160   1.715
  643TIP3    H223489   0.969   6.106   1.574
  644TIP3   OH223490   0.885   6.683   1.370
  644TIP3    H123491   0.962   6.643   1.329
  644TIP3    H223492   0.897   6.777   1.357
  645TIP3   OH223493   1.272   2.042   1.038
  645TIP3    H123494   1.321   1.998   0.968
  645TIP3    H223495   1.323   2.122   1.056
  646TIP3   OH223496   6.064   3.596   0.203
  646TIP3    H123497   6.005   3.524   0.180
  646TIP3    H223498   6.148   3.570   0.166
  647TIP3   OH223499   4.159   0.778   8.390
  647TIP3    H123500   4.228   0.805   8.329
  647TIP3    H223501   4.205   0.762   8.472
  648TIP3   OH223502   5.936   1.881   0.429
  648TIP3    H123503   5.997   1.943   0.390
  648TIP3    H223504   5.991   1.823   0.482
  649TIP3   OH223505   6.633   0.437   0.436
  649TIP3    H123506   6.570   0.505   0.414
  649TIP3    H223507   6.694   0.480   0.496
  650TIP3   OH223508   6.388   6.117   7.191
  650TIP3    H123509   6.477   6.149   7.192
  650TIP3    H223510   6.387   6.048   7.258
  651TIP3   OH223511   4.780   2.450   1.407
  651TIP3    H123512   4.791   2.448   1.502
  651TIP3    H223513   4.696   2.406   1.392
  652TIP3   OH223514   5.450   4.685   8.550
  652TIP3    H123515   5.525   4.683   8.491
  652TIP3    H223516   5.457   4.604   0.033
  653TIP3   OH223517   0.567   3.250   7.957
  653TIP3    H123518   0.563   3.341   7.927
  653TIP3    H223519   0.569   3.198   7.877
  654TIP3   OH223520   4.481   3.403   0.374
  654TIP3    H123521   4.520   3.323   0.408
  654TIP3    H223522   4.495   3.399   0.279
  655TIP3   OH223523   1.782   4.973   0.010
  655TIP3    H123524   1.769   4.942   0.100
  655TIP3    H223525   1.782   5.069   0.018
  656TIP3   OH223526   6.720   3.987   1.611
  656TIP3    H123527   6.630   3.958   1.625
  656TIP3    H223528   6.760   3.984   1.698
  657TIP3   OH223529   6.899   0.860   7.937
  657TIP3    H123530   6.805   0.862   7.953
  657TIP3    H223531   0.026   0.805   8.007
  658TIP3   OH223532   0.332   4.690   2.462
  658TIP3    H123533   0.324   4.600   2.431
  658TIP3    H223534   0.307   4.686   2.555
  659TIP3   OH223535   6.414   1.826   0.063
  659TIP3    H123536   6.485   1.765   0.079
  659TIP3    H223537   6.456   1.902   0.022
  660TIP3   OH223538   1.393   1.203   0.084
  660TIP3    H123539   1.415   1.113   0.059
  660TIP3    H223540   1.429   1.213   0.172
  661TIP3   OH223541   4.561   4.238   1.563
  661TIP3    H123542   4.525   4.185   1.634
  661TIP3    H223543   4.488   4.246   1.501
  662TIP3   OH223544   6.522   2.658   7.225
  662TIP3    H123545   6.476   2.640   7.307
  662TIP3    H223546   6.593   2.718   7.251
  663TIP3   OH223547   3.222   1.678   0.005
  663TIP3    H123548   3.312   1.680   0.037
  663TIP3    H223549   3.217   1.751   8.510
  664TIP3   OH223550   3.941   3.197   0.110
  664TIP3    H123551   3.850   3.167   0.109
  664TIP3    H223552   3.934   3.291   0.127
  665TIP3   OH223553   1.749   2.239   7.343
  665TIP3    H123554   1.770   2.262   7.433
  665TIP3    H223555   1.799   2.300   7.290
  666TIP3   OH223556   0.073   6.660   0.567
  666TIP3    H123557   0.084   6.655   0.662
  666TIP3    H223558   0.046   6.572   0.540
  667TIP3   OH223559   6.460   5.955   7.950
  667TIP3    H123560   6.507   5.966   7.867
  667TIP3    H223561   6.478   6.036   7.998
  668TIP3   OH223562   0.975   6.592   7.949
  668TIP3    H123563   1.059   6.636   7.934
  668TIP3    H223564   0.975   6.573   8.043
  669TIP3   OH223565   3.318   3.656   7.130
  669TIP3    H123566   3.374   3.579   7.132
  669TIP3    H223567   3.331   3.693   7.043
  670TIP3   OH223568   5.985   6.452   1.553
  670TIP3    H123569   6.024   6.530   1.514
  670TIP3    H223570   6.050   6.422   1.617
  671TIP3   OH223571   6.115   2.493   8.469
  671TIP3    H123572   6.022   2.473   8.458
  671TIP3    H223573   6.124   2.513   8.562
  672TIP3   OH223574   0.458   6.404   8.154
  672TIP3    H123575   0.393   6.471   8.134
  672TIP3    H223576   0.469   6.410   8.249
  673TIP3   OH223577   3.708   3.834   6.947
  673TIP3    H123578   3.653   3.840   6.869
  673TIP3    H223579   3.646   3.831   7.020
  674TIP3   OH223580   3.123   4.793   7.495
  674TIP3    H123581   3.049   4.759   7.446
  674TIP3    H223582   3.157   4.718   7.543
  675TIP3   OH223583   2.692   6.136   0.999
  675TIP3    H123584   2.733   6.105   1.080
  675TIP3    H223585   2.653   6.057   0.961
  676TIP3   OH223586   5.331   1.196   7.428
  676TIP3    H123587   5.375   1.126   7.379
  676TIP3    H223588   5.399   1.232   7.485
  677TIP3   OH223589   6.611   5.492   7.886
  677TIP3    H123590   6.671   5.518   7.955
  677TIP3    H223591   6.540   5.556   7.890
  678TIP3   OH223592   5.414   4.480   1.298
  678TIP3    H123593   5.335   4.531   1.318
  678TIP3    H223594   5.407   4.462   1.204
  679TIP3   OH223595   3.230   6.580   7.647
  679TIP3    H123596   3.219   6.626   7.729
  679TIP3    H223597   3.249   6.648   7.582
  680TIP3   OH223598   1.864   2.402   7.166
  680TIP3    H123599   1.877   2.379   7.074
  680TIP3    H223600   1.847   2.496   7.166
  681TIP3   OH223601   4.310   6.813   7.427
  681TIP3    H123602   4.363   6.809   7.506
  681TIP3    H223603   4.225   6.846   7.457
  682TIP3   OH223604   6.349   1.994   0.957
  682TIP3    H123605   6.337   2.022   1.048
  682TIP3    H223606   6.366   1.900   0.963
  683TIP3   OH223607   4.593   2.620   0.894
  683TIP3    H123608   4.501   2.617   0.867
  683TIP3    H223609   4.604   2.543   0.950
  684TIP3   OH223610   4.949   1.622   0.202
  684TIP3    H123611   5.029   1.577   0.174
  684TIP3    H223612   4.878   1.562   0.178
  685TIP3   OH223613   3.725   0.296   1.755
  685TIP3    H123614   3.706   0.216   1.803
  685TIP3    H223615   3.639   0.338   1.742
  686TIP3   OH223616   4.538   6.441   7.092
  686TIP3    H123617   4.501   6.502   7.029
  686TIP3    H223618   4.627   6.425   7.061
  687TIP3   OH223619   1.436   4.412   0.081
  687TIP3    H123620   1.438   4.508   0.075
  687TIP3    H223621   1.454   4.394   0.173
  688TIP3   OH223622   6.853   0.727   8.268
  688TIP3    H123623   6.787   0.672   8.226
  688TIP3    H223624   6.807   0.807   8.291
  689TIP3   OH223625   5.262   3.306   7.874
  689TIP3    H123626   5.297   3.225   7.912
  689TIP3    H223627   5.266   3.292   7.779
  690TIP3   OH223628   3.298   1.393   7.579
  690TIP3    H123629   3.307   1.306   7.539
  690TIP3    H223630   3.381   1.406   7.626
  691TIP3   OH223631   1.618   3.850   1.247
  691TIP3    H123632   1.627   3.755   1.251
  691TIP3    H223633   1.625   3.879   1.339
  692TIP3   OH223634   3.256   2.934   1.502
  692TIP3    H123635   3.316   2.874   1.545
  692TIP3    H223636   3.174   2.885   1.496
  693TIP3   OH223637   1.748   4.989   1.472
  693TIP3    H123638   1.814   4.931   1.511
  693TIP3    H223639   1.688   5.008   1.544
  694TIP3   OH223640   0.543   5.516   1.900
  694TIP3    H123641   0.516   5.431   1.935
  694TIP3    H223642   0.620   5.497   1.848
  695TIP3   OH223643   1.837   6.342   6.475
  695TIP3    H123644   1.770   6.381   6.531
  695TIP3    H223645   1.890   6.417   6.446
  696TIP3   OH223646   2.536   2.833   7.739
  696TIP3    H123647   2.576   2.918   7.721
  696TIP3    H223648   2.518   2.834   7.833
  697TIP3   OH223649   1.119   3.697   7.578
  697TIP3    H123650   1.203   3.699   7.532
  697TIP3    H223651   1.142   3.675   7.669
  698TIP3   OH223652   3.441   0.233   1.288
  698TIP3    H123653   3.507   0.302   1.278
  698TIP3    H223654   3.455   0.200   1.376
  699TIP3   OH223655   5.835   6.080   8.340
  699TIP3    H123656   5.817   6.087   8.434
  699TIP3    H223657   5.891   6.002   8.333
  700TIP3   OH223658   1.290   3.053   8.187
  700TIP3    H123659   1.245   2.991   8.244
  700TIP3    H223660   1.292   3.135   8.237
  701TIP3   OH223661   2.873   2.266   7.706
  701TIP3    H123662   2.899   2.184   7.666
  701TIP3    H223663   2.955   2.312   7.722
  702TIP3   OH223664   1.613   5.565   6.636
  702TIP3    H123665   1.636   5.627   6.567
  702TIP3    H223666   1.692   5.561   6.691
  703TIP3   OH223667   4.572   2.635   0.019
  703TIP3    H123668   4.649   2.583   8.562
  703TIP3    H223669   4.564   2.623   0.114
  704TIP3   OH223670   4.403   1.382   1.721
  704TIP3    H123671   4.492   1.371   1.688
  704TIP3    H223672   4.408   1.357   1.813
  705TIP3   OH223673   0.442   6.825   1.677
  705TIP3    H123674   0.519   6.819   1.622
  705TIP3    H223675   0.467   6.783   1.759
  706TIP3   OH223676   3.027   5.793   8.470
  706TIP3    H123677   2.945   5.821   8.511
  706TIP3    H223678   3.095   5.815   8.533
  707TIP3   OH223679   4.664   1.714   1.663
  707TIP3    H123680   4.678   1.625   1.693
  707TIP3    H223681   4.570   1.718   1.644
  708TIP3   OH223682   4.687   5.646   1.910
  708TIP3    H123683   4.720   5.646   1.820
  708TIP3    H223684   4.735   5.717   1.953
  709TIP3   OH223685   4.454   3.752   1.249
  709TIP3    H123686   4.375   3.698   1.242
  709TIP3    H223687   4.449   3.791   1.336
  710TIP3   OH223688   3.815   4.252   2.162
  710TIP3    H123689   3.834   4.182   2.100
  710TIP3    H223690   3.898   4.298   2.174
  711TIP3   OH223691   2.322   3.270   1.285
  711TIP3    H123692   2.393   3.329   1.261
  711TIP3    H223693   2.359   3.182   1.274
  712TIP3   OH223694   3.843   6.393   1.128
  712TIP3    H123695   3.879   6.452   1.063
  712TIP3    H223696   3.841   6.307   1.085
  713TIP3   OH223697   1.415   6.852   1.128
  713TIP3    H123698   1.462   6.822   1.206
  713TIP3    H223699   1.343   6.904   1.162
  714TIP3   OH223700   3.899   4.888   6.049
  714TIP3    H123701   3.844   4.941   5.990
  714TIP3    H223702   3.846   4.811   6.069
  715TIP3   OH223703   4.258   2.523   1.259
  715TIP3    H123704   4.235   2.515   1.166
  715TIP3    H223705   4.349   2.552   1.259
  716TIP3   OH223706   6.335   1.144   1.566
  716TIP3    H123707   6.363   1.233   1.585
  716TIP3    H223708   6.259   1.154   1.508
  717TIP3   OH223709   1.839   1.110   0.231
  717TIP3    H123710   1.933   1.107   0.246
  717TIP3    H223711   1.804   1.037   0.282
  718TIP3   OH223712   0.897   2.239   1.809
  718TIP3    H123713   0.837   2.218   1.881
  718TIP3    H223714   0.983   2.213   1.842
  719TIP3   OH223715   3.129   2.246   1.305
  719TIP3    H123716   3.095   2.275   1.221
  719TIP3    H223717   3.103   2.314   1.367
  720TIP3   OH223718   1.766   1.696   7.463
  720TIP3    H123719   1.698   1.728   7.522
  720TIP3    H223720   1.742   1.605   7.447
  721TIP3   OH223721   0.544   0.604   0.428
  721TIP3    H123722   0.491   0.526   0.417
  721TIP3    H223723   0.499   0.656   0.494
  722TIP3   OH223724   3.636   5.032   0.784
  722TIP3    H123725   3.579   4.955   0.792
  722TIP3    H223726   3.589   5.090   0.723
  723TIP3   OH223727   5.615   6.755   8.283
  723TIP3    H123728   5.637   6.747   8.190
  723TIP3    H223729   5.591   6.847   8.294
  724TIP3   OH223730   1.264   1.347   8.462
  724TIP3    H123731   1.295   1.274   8.409
  724TIP3    H223732   1.301   1.331   8.549
  725TIP3   OH223733   2.014   4.979   6.771
  725TIP3    H123734   2.107   5.004   6.778
  725TIP3    H223735   2.009   4.929   6.690
  726TIP3   OH223736   2.531   2.281   1.737
  726TIP3    H123737   2.589   2.205   1.730
  726TIP3    H223738   2.534   2.304   1.830
  727TIP3   OH223739   6.737   0.191   7.314
  727TIP3    H123740   6.753   0.127   7.383
  727TIP3    H223741   6.655   0.163   7.273
  728TIP3   OH223742   0.195   0.964   1.364
  728TIP3    H123743   0.182   0.871   1.382
  728TIP3    H223744   0.170   1.008   1.445
  729TIP3   OH223745   3.793   1.666   7.069
  729TIP3    H123746   3.788   1.760   7.088
  729TIP3    H223747   3.851   1.631   7.137
  730TIP3   OH223748   2.642   4.206   0.140
  730TIP3    H123749   2.710   4.201   0.207
  730TIP3    H223750   2.620   4.299   0.136
  731TIP3   OH223751   1.050   0.747   0.060
  731TIP3    H123752   1.120   0.687   0.088
  731TIP3    H223753   0.970   0.696   0.068
  732TIP3   OH223754   3.214   3.376   0.140
  732TIP3    H123755   3.190   3.284   0.141
  732TIP3    H223756   3.138   3.421   0.179
  733TIP3   OH223757   4.723   3.357   1.718
  733TIP3    H123758   4.672   3.321   1.645
  733TIP3    H223759   4.756   3.441   1.686
  734TIP3   OH223760   3.222   1.029   7.714
  734TIP3    H123761   3.218   0.964   7.644
  734TIP3    H223762   3.134   1.028   7.752
  735TIP3   OH223763   3.095   1.375   0.828
  735TIP3    H123764   3.010   1.400   0.791
  735TIP3    H223765   3.106   1.433   0.904
  736TIP3   OH223766   4.517   1.352   2.594
  736TIP3    H123767   4.481   1.430   2.553
  736TIP3    H223768   4.609   1.374   2.609
  737TIP3   OH223769   1.735   3.587   6.933
  737TIP3    H123770   1.685   3.509   6.907
  737TIP3    H223771   1.792   3.605   6.858
  738TIP3   OH223772   2.298   1.002   1.619
  738TIP3    H123773   2.385   1.001   1.580
  738TIP3    H223774   2.308   1.055   1.698
  739TIP3   OH223775   1.384   1.547   0.836
  739TIP3    H123776   1.410   1.553   0.744
  739TIP3    H223777   1.439   1.611   0.881
  740TIP3   OH223778   2.605   5.059   7.045
  740TIP3    H123779   2.690   5.102   7.053
  740TIP3    H223780   2.582   5.068   6.953
  741TIP3   OH223781   2.438   4.835   0.939
  741TIP3    H123782   2.376   4.811   0.870
  741TIP3    H223783   2.433   4.763   1.002
  742TIP3   OH223784   0.095   2.493   8.009
  742TIP3    H123785   0.144   2.430   8.062
  742TIP3    H223786   0.162   2.540   7.959
  743TIP3   OH223787   4.725   1.097   1.834
  743TIP3    H123788   4.749   1.075   1.924
  743TIP3    H223789   4.660   1.031   1.810
  744TIP3   OH223790   1.642   3.790   8.302
  744TIP3    H123791   1.729   3.825   8.285
  744TIP3    H223792   1.638   3.780   8.397
  745TIP3   OH223793   4.812   3.769   7.195
  745TIP3    H123794   4.766   3.756   7.278
  745TIP3    H223795   4.767   3.843   7.154
  746TIP3   OH223796   5.417   4.196   1.760
  746TIP3    H123797   5.458   4.110   1.749
  746TIP3    H223798   5.489   4.254   1.783
  747TIP3   OH223799   1.828   2.236   6.476
  747TIP3    H123800   1.869   2.253   6.391
  747TIP3    H223801   1.775   2.158   6.461
  748TIP3   OH223802   5.829   5.299   6.463
  748TIP3    H123803   5.833   5.385   6.420
  748TIP3    H223804   5.919   5.284   6.493
  749TIP3   OH223805   1.952   0.193   6.676
  749TIP3    H123806   1.996   0.153   6.751
  749TIP3    H223807   1.967   0.131   6.605
  750TIP3   OH223808   6.490   1.083   8.330
  750TIP3    H123809   6.584   1.072   8.339
  750TIP3    H223810   6.453   1.027   8.398
  751TIP3   OH223811   6.442   2.129   0.394
  751TIP3    H123812   6.479   2.204   0.347
  751TIP3    H223813   6.369   2.100   0.338
  752TIP3   OH223814   5.415   1.182   0.232
  752TIP3    H123815   5.466   1.262   0.244
  752TIP3    H223816   5.416   1.139   0.317
  753TIP3   OH223817   6.413   3.996   6.519
  753TIP3    H123818   6.416   4.058   6.446
  753TIP3    H223819   6.325   4.004   6.554
  754TIP3   OH223820   3.863   3.654   7.214
  754TIP3    H123821   3.770   3.647   7.238
  754TIP3    H223822   3.868   3.617   7.126
  755TIP3   OH223823   1.074   1.861   1.150
  755TIP3    H123824   1.128   1.940   1.140
  755TIP3    H223825   1.092   1.810   1.071
  756TIP3   OH223826   4.846   3.180   6.798
  756TIP3    H123827   4.860   3.178   6.703
  756TIP3    H223828   4.775   3.242   6.811
  757TIP3   OH223829   2.920   2.355   7.354
  757TIP3    H123830   2.934   2.408   7.432
  757TIP3    H223831   2.871   2.412   7.295
  758TIP3   OH223832   4.601   4.403   0.739
  758TIP3    H123833   4.662   4.343   0.781
  758TIP3    H223834   4.648   4.486   0.735
  759TIP3   OH223835   6.533   0.341   2.589
  759TIP3    H123836   6.471   0.318   2.658
  759TIP3    H223837   6.479   0.367   2.515
  760TIP3   OH223838   2.954   6.395   0.681
  760TIP3    H123839   3.015   6.468   0.685
  760TIP3    H223840   2.880   6.423   0.735
  761TIP3   OH223841   1.234   6.091   0.776
  761TIP3    H123842   1.220   6.173   0.729
  761TIP3    H223843   1.180   6.027   0.730
  762TIP3   OH223844   1.659   6.054   1.006
  762TIP3    H123845   1.725   6.110   0.964
  762TIP3    H223846   1.658   6.083   1.097
  763TIP3   OH223847   0.245   4.563   2.688
  763TIP3    H123848   0.234   4.639   2.745
  763TIP3    H223849   0.168   4.509   2.704
  764TIP3   OH223850   2.809   2.658   1.701
  764TIP3    H123851   2.719   2.689   1.696
  764TIP3    H223852   2.805   2.565   1.678
  765TIP3   OH223853   2.307   2.376   6.931
  765TIP3    H123854   2.261   2.429   6.867
  765TIP3    H223855   2.259   2.389   7.012
  766TIP3   OH223856   6.176   0.509   8.213
  766TIP3    H123857   6.100   0.474   8.166
  766TIP3    H223858   6.161   0.486   8.304
  767TIP3   OH223859   2.146   5.069   7.365
  767TIP3    H123860   2.066   5.024   7.339
  767TIP3    H223861   2.131   5.098   7.455
  768TIP3   OH223862   4.146   6.542   1.739
  768TIP3    H123863   4.233   6.524   1.705
  768TIP3    H223864   4.161   6.596   1.817
  769TIP3   OH223865   1.516   6.817   7.233
  769TIP3    H123866   1.444   6.869   7.270
  769TIP3    H223867   1.546   6.868   7.158
  770TIP3   OH223868   4.175   4.483   6.144
  770TIP3    H123869   4.192   4.560   6.089
  770TIP3    H223870   4.085   4.458   6.122
  771TIP3   OH223871   5.801   6.712   1.400
  771TIP3    H123872   5.893   6.714   1.427
  771TIP3    H223873   5.765   6.795   1.431
  772TIP3   OH223874   3.096   1.734   0.632
  772TIP3    H123875   3.167   1.759   0.691
  772TIP3    H223876   3.051   1.662   0.677
  773TIP3   OH223877   4.373   4.282   1.360
  773TIP3    H123878   4.413   4.228   1.291
  773TIP3    H223879   4.318   4.221   1.409
  774TIP3   OH223880   4.056   6.872   0.596
  774TIP3    H123881   4.067   0.043   0.546
  774TIP3    H223882   4.050   6.901   0.687
  775TIP3   OH223883   1.530   1.514   1.582
  775TIP3    H123884   1.586   1.591   1.576
  775TIP3    H223885   1.538   1.471   1.497
  776TIP3   OH223886   4.790   3.876   0.808
  776TIP3    H123887   4.859   3.872   0.742
  776TIP3    H223888   4.712   3.843   0.764
  777TIP3   OH223889   3.193   0.802   0.724
  777TIP3    H123890   3.176   0.782   0.816
  777TIP3    H223891   3.283   0.772   0.709
  778TIP3   OH223892   2.683   3.971   6.204
  778TIP3    H123893   2.662   3.900   6.265
  778TIP3    H223894   2.602   4.020   6.194
  779TIP3   OH223895   4.698   2.829   1.049
  779TIP3    H123896   4.668   2.794   0.965
  779TIP3    H223897   4.704   2.752   1.106
  780TIP3   OH223898   5.981   3.548   0.884
  780TIP3    H123899   6.013   3.482   0.822
  780TIP3    H223900   5.895   3.516   0.911
  781TIP3   OH223901   1.587   4.657   8.015
  781TIP3    H123902   1.522   4.719   8.048
  781TIP3    H223903   1.538   4.597   7.959
  782TIP3   OH223904   0.166   3.791   8.176
  782TIP3    H123905   0.228   3.742   8.122
  782TIP3    H223906   0.128   3.855   8.117
  783TIP3   OH223907   6.286   6.085   7.546
  783TIP3    H123908   6.335   6.011   7.582
  783TIP3    H223909   6.244   6.051   7.467
  784TIP3   OH223910   1.385   4.867   0.598
  784TIP3    H123911   1.360   4.954   0.628
  784TIP3    H223912   1.312   4.811   0.622
  785TIP3   OH223913   6.645   6.561   7.336
  785TIP3    H123914   6.644   6.524   7.248
  785TIP3    H223915   6.618   6.652   7.324
  786TIP3   OH223916   3.361   2.285   6.775
  786TIP3    H123917   3.432   2.242   6.822
  786TIP3    H223918   3.315   2.215   6.730
  787TIP3   OH223919   6.837   3.521   8.183
  787TIP3    H123920   6.901   3.449   8.187
  787TIP3    H223921   6.862   3.572   8.106
  788TIP3   OH223922   5.572   6.573   7.525
  788TIP3    H123923   5.569   6.644   7.462
  788TIP3    H223924   5.663   6.545   7.526
  789TIP3   OH223925   4.028   1.017   7.524
  789TIP3    H123926   4.108   0.981   7.485
  789TIP3    H223927   4.054   1.044   7.612
  790TIP3   OH223928   2.112   2.655   8.068
  790TIP3    H123929   2.134   2.619   8.154
  790TIP3    H223930   2.114   2.750   8.081
  791TIP3   OH223931   0.622   4.597   6.918
  791TIP3    H123932   0.698   4.612   6.975
  791TIP3    H223933   0.659   4.587   6.831
  792TIP3   OH223934   1.254   1.548   1.514
  792TIP3    H123935   1.348   1.568   1.510
  792TIP3    H223936   1.214   1.601   1.446
  793TIP3   OH223937   1.592   1.993   7.128
  793TIP3    H123938   1.593   2.084   7.096
  793TIP3    H223939   1.655   1.992   7.199
  794TIP3   OH223940   5.524   4.610   7.037
  794TIP3    H123941   5.507   4.704   7.041
  794TIP3    H223942   5.564   4.597   6.950
  795TIP3   OH223943   0.520   5.033   1.172
  795TIP3    H123944   0.548   4.947   1.204
  795TIP3    H223945   0.531   5.028   1.077
  796TIP3   OH223946   0.823   4.681   7.097
  796TIP3    H123947   0.877   4.676   7.176
  796TIP3    H223948   0.836   4.770   7.064
  797TIP3   OH223949   3.540   5.454   0.632
  797TIP3    H123950   3.475   5.488   0.571
  797TIP3    H223951   3.506   5.370   0.661
  798TIP3   OH223952   1.270   1.144   0.896
  798TIP3    H123953   1.268   1.161   0.802
  798TIP3    H223954   1.298   1.227   0.934
  799TIP3   OH223955   2.371   5.154   0.552
  799TIP3    H123956   2.281   5.124   0.544
  799TIP3    H223957   2.393   5.142   0.644
  800TIP3   OH223958   6.508   5.589   6.846
  800TIP3    H123959   6.572   5.571   6.777
  800TIP3    H223960   6.437   5.634   6.801
  801TIP3   OH223961   4.136   4.515   0.611
  801TIP3    H123962   4.185   4.596   0.618
  801TIP3    H223963   4.066   4.523   0.676
  802TIP3   OH223964   2.632   1.761   1.286
  802TIP3    H123965   2.714   1.724   1.254
  802TIP3    H223966   2.578   1.684   1.306
  803TIP3   OH223967   2.377   4.539   7.670
  803TIP3    H123968   2.448   4.556   7.732
  803TIP3    H223969   2.358   4.446   7.681
  804TIP3   OH223970   3.913   2.574   8.046
  804TIP3    H123971   3.996   2.607   8.082
  804TIP3    H223972   3.852   2.647   8.057
  805TIP3   OH223973   5.992   6.860   1.111
  805TIP3    H123974   6.073   6.909   1.102
  805TIP3    H223975   6.019   6.770   1.129
  806TIP3   OH223976   5.111   1.119   6.972
  806TIP3    H123977   5.066   1.036   6.959
  806TIP3    H223978   5.112   1.132   7.067
  807TIP3   OH223979   4.012   3.760   7.407
  807TIP3    H123980   4.089   3.780   7.354
  807TIP3    H223981   3.951   3.719   7.345
  808TIP3   OH223982   0.771   2.854   0.504
  808TIP3    H123983   0.760   2.760   0.490
  808TIP3    H223984   0.683   2.887   0.519
  809TIP3   OH223985   3.639   6.286   0.866
  809TIP3    H123986   3.713   6.253   0.916
  809TIP3    H223987   3.678   6.330   0.791
  810TIP3   OH223988   5.211   6.438   6.540
  810TIP3    H123989   5.207   6.353   6.496
  810TIP3    H223990   5.195   6.418   6.632
  811TIP3   OH223991   5.881   2.521   1.430
  811TIP3    H123992   5.807   2.491   1.378
  811TIP3    H223993   5.850   2.519   1.520
  812TIP3   OH223994   1.962   4.503   6.639
  812TIP3    H123995   1.920   4.441   6.580
  812TIP3    H223996   1.891   4.560   6.669
  813TIP3   OH223997   1.842   2.221   8.465
  813TIP3    H123998   1.869   2.310   8.444
  813TIP3    H223999   1.844   2.217   8.561
  814TIP3   OH224000   3.463   4.141   1.620
  814TIP3    H124001   3.441   4.203   1.691
  814TIP3    H224002   3.401   4.162   1.550
  815TIP3   OH224003   1.326   0.633   0.603
  815TIP3    H124004   1.282   0.577   0.668
  815TIP3    H224005   1.405   0.585   0.580
  816TIP3   OH224006   3.340   5.330   1.258
  816TIP3    H124007   3.349   5.362   1.168
  816TIP3    H224008   3.405   5.380   1.308
  817TIP3   OH224009   1.193   5.661   1.323
  817TIP3    H124010   1.151   5.666   1.237
  817TIP3    H224011   1.125   5.691   1.384
  818TIP3   OH224012   4.873   3.991   1.154
  818TIP3    H124013   4.846   3.907   1.191
  818TIP3    H224014   4.818   4.055   1.199
  819TIP3   OH224015   2.872   4.657   7.710
  819TIP3    H124016   2.808   4.590   7.735
  819TIP3    H224017   2.925   4.614   7.643
  820TIP3   OH224018   0.496   6.028   7.599
  820TIP3    H124019   0.417   5.978   7.579
  820TIP3    H224020   0.568   5.966   7.586
  821TIP3   OH224021   1.901   1.773   0.676
  821TIP3    H124022   1.994   1.762   0.658
  821TIP3    H224023   1.897   1.803   0.767
  822TIP3   OH224024   2.720   0.223   1.620
  822TIP3    H124025   2.678   0.144   1.654
  822TIP3    H224026   2.720   0.212   1.525
  823TIP3   OH224027   5.328   1.334   7.771
  823TIP3    H124028   5.381   1.371   7.699
  823TIP3    H224029   5.372   1.252   7.793
  824TIP3   OH224030   5.871   4.153   1.132
  824TIP3    H124031   5.818   4.230   1.110
  824TIP3    H224032   5.947   4.158   1.073
  825TIP3   OH224033   1.789   5.593   8.208
  825TIP3    H124034   1.864   5.651   8.224
  825TIP3    H224035   1.778   5.596   8.113
  826TIP3   OH224036   0.987   0.999   0.554
  826TIP3    H124037   0.995   1.006   0.649
  826TIP3    H224038   1.067   1.039   0.520
  827TIP3   OH224039   2.561   1.497   1.322
  827TIP3    H124040   2.558   1.428   1.389
  827TIP3    H224041   2.650   1.493   1.287
  828TIP3   OH224042   1.677   6.184   1.235
  828TIP3    H124043   1.618   6.209   1.307
  828TIP3    H224044   1.763   6.212   1.263
  829TIP3   OH224045   5.270   0.587   1.457
  829TIP3    H124046   5.336   0.533   1.414
  829TIP3    H224047   5.231   0.638   1.387
  830TIP3   OH224048   0.978   4.708   0.889
  830TIP3    H124049   0.971   4.660   0.971
  830TIP3    H224050   0.888   4.725   0.863
  831TIP3   OH224051   3.717   1.131   6.528
  831TIP3    H124052   3.797   1.104   6.485
  831TIP3    H224053   3.746   1.175   6.608
  832TIP3   OH224054   5.474   1.492   2.024
  832TIP3    H124055   5.492   1.564   2.084
  832TIP3    H224056   5.473   1.414   2.080
  833TIP3   OH224057   4.552   5.908   0.278
  833TIP3    H124058   4.591   5.861   0.205
  833TIP3    H224059   4.513   5.986   0.239
  834TIP3   OH224060   5.803   3.868   8.396
  834TIP3    H124061   5.730   3.911   8.441
  834TIP3    H224062   5.878   3.880   8.456
  835TIP3   OH224063   1.547   6.520   7.949
  835TIP3    H124064   1.562   6.444   8.005
  835TIP3    H224065   1.469   6.498   7.898
  836TIP3   OH224066   3.466   4.495   0.781
  836TIP3    H124067   3.474   4.455   0.868
  836TIP3    H224068   3.478   4.421   0.721
  837TIP3   OH224069   3.210   6.421   0.439
  837TIP3    H124070   3.241   6.427   0.529
  837TIP3    H224071   3.154   6.343   0.438
  838TIP3   OH224072   2.084   0.351   0.513
  838TIP3    H124073   2.154   0.295   0.547
  838TIP3    H224074   2.124   0.437   0.504
  839TIP3   OH224075   1.387   6.215   6.223
  839TIP3    H124076   1.334   6.281   6.179
  839TIP3    H224077   1.474   6.255   6.232
  840TIP3   OH224078   5.090   3.039   7.922
  840TIP3    H124079   5.182   3.046   7.947
  840TIP3    H224080   5.051   2.983   7.989
  841TIP3   OH224081   1.925   4.559   0.057
  841TIP3    H124082   1.849   4.592   0.010
  841TIP3    H224083   1.962   4.492   8.565
  842TIP3   OH224084   4.692   1.321   1.681
  842TIP3    H124085   4.696   1.263   1.757
  842TIP3    H224086   4.770   1.298   1.629
  843TIP3   OH224087   5.255   6.727   6.861
  843TIP3    H124088   5.212   6.646   6.836
  843TIP3    H224089   5.249   6.783   6.783
  844TIP3   OH224090   6.857   2.059   0.548
  844TIP3    H124091   6.823   2.141   0.514
  844TIP3    H224092   6.905   2.083   0.627
  845TIP3   OH224093   4.327   3.960   6.528
  845TIP3    H124094   4.352   4.021   6.459
  845TIP3    H224095   4.339   4.010   6.609
  846TIP3   OH224096   5.496   2.092   7.814
  846TIP3    H124097   5.452   2.046   7.885
  846TIP3    H224098   5.490   2.185   7.838
  847TIP3   OH224099   4.031   2.166   0.966
  847TIP3    H124100   4.102   2.208   1.016
  847TIP3    H224101   4.062   2.077   0.950
  848TIP3   OH224102   6.752   2.219   0.948
  848TIP3    H124103   6.708   2.135   0.933
  848TIP3    H224104   6.758   2.226   1.043
  849TIP3   OH224105   1.377   3.660   1.360
  849TIP3    H124106   1.319   3.710   1.417
  849TIP3    H224107   1.371   3.703   1.275
  850TIP3   OH224108   6.374   6.505   6.777
  850TIP3    H124109   6.300   6.458   6.816
  850TIP3    H224110   6.428   6.437   6.738
  851TIP3   OH224111   2.113   0.743   0.033
  851TIP3    H124112   2.053   0.683   8.556
  851TIP3    H224113   2.071   0.829   0.024
  852TIP3   OH224114   2.685   5.451   0.865
  852TIP3    H124115   2.750   5.518   0.847
  852TIP3    H224116   2.728   5.390   0.924
  853TIP3   OH224117   1.596   6.305   7.482
  853TIP3    H124118   1.588   6.216   7.448
  853TIP3    H224119   1.528   6.312   7.549
  854TIP3   OH224120   5.377   3.924   0.955
  854TIP3    H124121   5.427   3.886   1.027
  854TIP3    H224122   5.286   3.899   0.974
  855TIP3   OH224123   0.296   2.177   6.811
  855TIP3    H124124   0.231   2.248   6.806
  855TIP3    H224125   0.319   2.160   6.720
  856TIP3   OH224126   6.458   6.859   7.389
  856TIP3    H124127   6.508   6.866   7.307
  856TIP3    H224128   6.380   6.809   7.366
  857TIP3   OH224129   5.264   1.527   7.957
  857TIP3    H124130   5.305   1.613   7.965
  857TIP3    H224131   5.323   1.477   7.901
  858TIP3   OH224132   1.486   6.057   0.445
  858TIP3    H124133   1.577   6.039   0.423
  858TIP3    H224134   1.487   6.082   0.537
  859TIP3   OH224135   0.841   1.505   6.854
  859TIP3    H124136   0.934   1.507   6.877
  859TIP3    H224137   0.839   1.511   6.759
  860TIP3   OH224138   1.941   6.209   0.989
  860TIP3    H124139   2.021   6.258   0.967
  860TIP3    H224140   1.902   6.189   0.904
  861TIP3   OH224141   0.599   3.807   1.843
  861TIP3    H124142   0.546   3.813   1.763
  861TIP3    H224143   0.548   3.852   1.910
  862TIP3   OH224144   0.471   2.376   8.205
  862TIP3    H124145   0.501   2.339   8.288
  862TIP3    H224146   0.392   2.325   8.184
  863TIP3   OH224147   6.074   2.471   1.245
  863TIP3    H124148   6.053   2.378   1.234
  863TIP3    H224149   6.029   2.495   1.326
  864TIP3   OH224150   5.584   5.684   6.741
  864TIP3    H124151   5.610   5.612   6.798
  864TIP3    H224152   5.624   5.664   6.657
  865TIP3   OH224153   5.853   4.880   7.846
  865TIP3    H124154   5.872   4.881   7.939
  865TIP3    H224155   5.936   4.858   7.804
  866TIP3   OH224156   6.576   0.399   2.103
  866TIP3    H124157   6.600   0.324   2.157
  866TIP3    H224158   6.570   0.472   2.165
  867TIP3   OH224159   0.942   0.535   0.504
  867TIP3    H124160   0.876   0.531   0.435
  867TIP3    H224161   0.998   0.459   0.488
  868TIP3   OH224162   1.552   5.541   1.604
  868TIP3    H124163   1.573   5.459   1.647
  868TIP3    H224164   1.473   5.523   1.553
  869TIP3   OH224165   3.599   3.630   7.325
  869TIP3    H124166   3.529   3.564   7.325
  869TIP3    H224167   3.554   3.713   7.309
  870TIP3   OH224168   2.573   2.960   0.691
  870TIP3    H124169   2.504   2.922   0.746
  870TIP3    H224170   2.619   3.021   0.749
  871TIP3   OH224171   5.560   2.445   0.048
  871TIP3    H124172   5.471   2.418   0.071
  871TIP3    H224173   5.553   2.538   0.030
  872TIP3   OH224174   1.799   0.528   1.719
  872TIP3    H124175   1.727   0.548   1.779
  872TIP3    H224176   1.759   0.534   1.632
  873TIP3   OH224177   0.672   4.458   8.198
  873TIP3    H124178   0.766   4.446   8.187
  873TIP3    H224179   0.653   4.422   8.285
  874TIP3   OH224180   6.905   6.011   6.960
  874TIP3    H124181   0.068   6.043   6.906
  874TIP3    H224182   0.029   5.931   7.001
  875TIP3   OH224183   2.569   5.812   1.276
  875TIP3    H124184   2.656   5.850   1.291
  875TIP3    H224185   2.511   5.888   1.269
  876TIP3   OH224186   3.719   0.332   6.869
  876TIP3    H124187   3.789   0.392   6.894
  876TIP3    H224188   3.678   0.374   6.794
  877TIP3   OH224189   5.435   2.361   7.791
  877TIP3    H124190   5.347   2.328   7.808
  877TIP3    H224191   5.444   2.357   7.696
  878TIP3   OH224192   5.189   1.722   8.259
  878TIP3    H124193   5.208   1.741   8.351
  878TIP3    H224194   5.224   1.635   8.244
  879TIP3   OH224195   6.101   0.792   6.761
  879TIP3    H124196   6.020   0.748   6.737
  879TIP3    H224197   6.074   0.862   6.820
  880TIP3   OH224198   1.078   2.934   0.162
  880TIP3    H124199   1.097   2.908   0.252
  880TIP3    H224200   0.987   2.908   0.148
  881TIP3   OH224201   4.952   4.769   8.450
  881TIP3    H124202   4.949   4.834   8.380
  881TIP3    H224203   5.038   4.728   8.441
  882TIP3   OH224204   3.809   4.737   6.791
  882TIP3    H124205   3.732   4.778   6.832
  882TIP3    H224206   3.777   4.652   6.762
  883TIP3   OH224207   2.148   2.376   7.599
  883TIP3    H124208   2.078   2.438   7.579
  883TIP3    H224209   2.156   2.378   7.695
  884TIP3   OH224210   4.803   6.373   7.013
  884TIP3    H124211   4.866   6.315   7.057
  884TIP3    H224212   4.823   6.460   7.047
  885TIP3   OH224213   1.432   5.627   7.436
  885TIP3    H124214   1.384   5.698   7.477
  885TIP3    H224215   1.369   5.556   7.427
  886TIP3   OH224216   6.373   4.979   0.910
  886TIP3    H124217   6.283   4.973   0.879
  886TIP3    H224218   6.425   4.933   0.844
  887TIP3   OH224219   6.796   2.759   0.863
  887TIP3    H124220   6.801   2.844   0.908
  887TIP3    H224221   6.717   2.718   0.897
  888TIP3   OH224222   0.384   3.453   1.148
  888TIP3    H124223   0.291   3.474   1.158
  888TIP3    H224224   0.428   3.514   1.207
  889TIP3   OH224225   5.046   0.873   6.334
  889TIP3    H124226   5.030   0.781   6.315
  889TIP3    H224227   5.005   0.887   6.420
  890TIP3   OH224228   6.869   5.191   7.627
  890TIP3    H124229   0.040   5.191   7.575
  890TIP3    H224230   6.899   5.197   7.718
  891TIP3   OH224231   2.734   2.190   1.059
  891TIP3    H124232   2.779   2.107   1.041
  891TIP3    H224233   2.793   2.236   1.119
  892TIP3   OH224234   6.102   2.394   6.642
  892TIP3    H124235   6.085   2.305   6.612
  892TIP3    H224236   6.060   2.450   6.576
  893TIP3   OH224237   6.012   5.240   6.896
  893TIP3    H124238   6.091   5.275   6.854
  893TIP3    H224239   5.944   5.303   6.874
  894TIP3   OH224240   1.755   1.316   1.615
  894TIP3    H124241   1.670   1.349   1.642
  894TIP3    H224242   1.752   1.316   1.519
  895TIP3   OH224243   0.666   2.915   1.555
  895TIP3    H124244   0.705   2.828   1.556
  895TIP3    H224245   0.739   2.975   1.545
  896TIP3   OH224246   3.849   4.824   7.179
  896TIP3    H124247   3.753   4.827   7.187
  896TIP3    H224248   3.879   4.799   7.266
  897TIP3   OH224249   0.031   2.659   0.325
  897TIP3    H124250   0.055   2.591   0.261
  897TIP3    H224251   0.115   2.700   0.348
  898TIP3   OH224252   1.533   3.563   0.735
  898TIP3    H124253   1.483   3.539   0.813
  898TIP3    H224254   1.590   3.634   0.765
  899TIP3   OH224255   0.214   3.733   7.497
  899TIP3    H124256   0.246   3.663   7.555
  899TIP3    H224257   0.291   3.786   7.480
  900TIP3   OH224258   5.551   6.736   0.132
  900TIP3    H124259   5.590   6.650   0.141
  900TIP3    H224260   5.485   6.726   0.063
  901TIP3   OH224261   6.360   6.803   0.855
  901TIP3    H124262   6.325   6.850   0.931
  901TIP3    H224263   6.316   6.718   0.856
  902TIP3   OH224264   1.642   4.059   8.127
  902TIP3    H124265   1.595   4.076   8.046
  902TIP3    H224266   1.734   4.068   8.104
  903TIP3   OH224267   2.580   0.059   8.473
  903TIP3    H124268   2.610   0.089   8.559
  903TIP3    H224269   2.660   0.028   8.430
  904TIP3   OH224270   0.834   6.849   7.098
  904TIP3    H124271   0.874   6.780   7.151
  904TIP3    H224272   0.740   6.830   7.101
  905TIP3   OH224273   5.746   2.019   2.299
  905TIP3    H124274   5.784   1.944   2.345
  905TIP3    H224275   5.656   1.991   2.278
  906TIP3   OH224276   3.950   2.969   7.656
  906TIP3    H124277   3.983   2.979   7.746
  906TIP3    H224278   3.855   2.970   7.665
  907TIP3   OH224279   1.666   1.275   6.777
  907TIP3    H124280   1.692   1.362   6.807
  907TIP3    H224281   1.727   1.255   6.706
  908TIP3   OH224282   3.573   1.147   7.727
  908TIP3    H124283   3.514   1.155   7.801
  908TIP3    H224284   3.558   1.226   7.675
  909TIP3   OH224285   0.528   1.936   0.357
  909TIP3    H124286   0.487   1.850   0.345
  909TIP3    H224287   0.500   1.964   0.444
  910TIP3   OH224288   6.628   6.841   8.062
  910TIP3    H124289   6.657   6.885   7.982
  910TIP3    H224290   6.658   6.750   8.051
  911TIP3   OH224291   4.974   2.038   1.076
  911TIP3    H124292   4.916   1.964   1.096
  911TIP3    H224293   4.937   2.112   1.123
  912TIP3   OH224294   3.473   3.871   0.922
  912TIP3    H124295   3.507   3.881   0.833
  912TIP3    H224296   3.536   3.919   0.977
  913TIP3   OH224297   4.434   6.218   2.014
  913TIP3    H124298   4.410   6.287   2.076
  913TIP3    H224299   4.453   6.142   2.069
  914TIP3   OH224300   2.651   0.063   6.071
  914TIP3    H124301   2.662   0.134   6.008
  914TIP3    H224302   2.694   6.897   6.030
  915TIP3   OH224303   0.770   2.323   0.291
  915TIP3    H124304   0.751   2.256   0.225
  915TIP3    H224305   0.713   2.397   0.267
  916TIP3   OH224306   4.921   5.190   7.139
  916TIP3    H124307   4.983   5.133   7.185
  916TIP3    H224308   4.931   5.167   7.046
  917TIP3   OH224309   0.167   3.683   6.987
  917TIP3    H124310   0.177   3.774   6.957
  917TIP3    H224311   0.123   3.690   7.071
  918TIP3   OH224312   2.209   0.949   7.874
  918TIP3    H124313   2.163   1.033   7.866
  918TIP3    H224314   2.153   0.897   7.932
  919TIP3   OH224315   4.985   5.938   0.304
  919TIP3    H124316   4.981   5.982   0.219
  919TIP3    H224317   5.061   5.881   0.299
  920TIP3   OH224318   0.838   0.335   6.113
  920TIP3    H124319   0.917   0.383   6.139
  920TIP3    H224320   0.859   0.243   6.132
  921TIP3   OH224321   2.626   1.073   1.210
  921TIP3    H124322   2.712   1.103   1.182
  921TIP3    H224323   2.609   0.996   1.154
  922TIP3   OH224324   0.729   6.715   8.159
  922TIP3    H124325   0.786   6.710   8.236
  922TIP3    H224326   0.726   6.625   8.126
  923TIP3   OH224327   6.632   0.966   1.702
  923TIP3    H124328   6.544   0.954   1.665
  923TIP3    H224329   6.636   1.059   1.722
  924TIP3   OH224330   2.660   4.693   6.527
  924TIP3    H124331   2.591   4.661   6.586
  924TIP3    H224332   2.738   4.644   6.552
  925TIP3   OH224333   4.648   0.980   6.706
  925TIP3    H124334   4.654   1.055   6.646
  925TIP3    H224335   4.628   0.906   6.650
  926TIP3   OH224336   4.116   0.385   0.265
  926TIP3    H124337   4.180   0.455   0.254
  926TIP3    H224338   4.032   0.430   0.266
  927TIP3   OH224339   6.588   1.059   7.256
  927TIP3    H124340   6.532   0.983   7.269
  927TIP3    H224341   6.540   1.131   7.298
  928TIP3   OH224342   4.698   0.591   6.930
  928TIP3    H124343   4.734   0.587   6.841
  928TIP3    H224344   4.641   0.668   6.928
  929TIP3   OH224345   6.408   1.104   0.620
  929TIP3    H124346   6.475   1.109   0.551
  929TIP3    H224347   6.453   1.135   0.698
  930TIP3   OH224348   5.678   5.039   6.980
  930TIP3    H124349   5.746   4.977   6.954
  930TIP3    H224350   5.599   5.008   6.935
  931TIP3   OH224351   2.612   5.385   2.224
  931TIP3    H124352   2.580   5.474   2.238
  931TIP3    H224353   2.545   5.329   2.263
  932TIP3   OH224354   3.773   0.025   1.675
  932TIP3    H124355   3.853   0.071   1.700
  932TIP3    H224356   3.803   6.848   1.647
  933TIP3   OH224357   3.719   2.096   1.353
  933TIP3    H124358   3.735   2.137   1.268
  933TIP3    H224359   3.768   2.014   1.350
  934TIP3   OH224360   1.177   1.775   0.622
  934TIP3    H124361   1.096   1.749   0.579
  934TIP3    H224362   1.246   1.734   0.570
  935TIP3   OH224363   3.143   1.074   1.675
  935TIP3    H124364   3.097   1.107   1.752
  935TIP3    H224365   3.198   1.003   1.709
  936TIP3   OH224366   6.558   6.174   8.072
  936TIP3    H124367   6.652   6.190   8.073
  936TIP3    H224368   6.522   6.246   8.125
  937TIP3   OH224369   6.399   2.773   0.081
  937TIP3    H124370   6.381   2.861   0.114
  937TIP3    H224371   6.415   2.721   0.160
  938TIP3   OH224372   0.254   3.830   2.210
  938TIP3    H124373   0.274   3.763   2.275
  938TIP3    H224374   0.329   3.890   2.213
  939TIP3   OH224375   1.989   6.308   7.047
  939TIP3    H124376   1.922   6.302   6.978
  939TIP3    H224377   2.072   6.316   6.999
  940TIP3   OH224378   5.950   5.878   1.262
  940TIP3    H124379   6.008   5.802   1.256
  940TIP3    H224380   5.861   5.841   1.263
  941TIP3   OH224381   4.728   1.985   8.197
  941TIP3    H124382   4.758   2.074   8.179
  941TIP3    H224383   4.758   1.934   8.122
  942TIP3   OH224384   1.999   4.062   1.815
  942TIP3    H124385   1.911   4.077   1.782
  942TIP3    H224386   1.994   3.980   1.862
  943TIP3   OH224387   3.980   2.975   0.700
  943TIP3    H124388   4.043   2.988   0.771
  943TIP3    H224389   4.000   2.888   0.665
  944TIP3   OH224390   2.975   5.941   1.000
  944TIP3    H124391   2.970   5.988   0.917
  944TIP3    H224392   3.059   5.895   0.996
  945TIP3   OH224393   0.974   4.302   1.085
  945TIP3    H124394   0.896   4.247   1.074
  945TIP3    H224395   0.939   4.392   1.087
  946TIP3   OH224396   6.461   0.369   1.034
  946TIP3    H124397   6.514   0.383   1.113
  946TIP3    H224398   6.516   0.315   0.977
  947TIP3   OH224399   3.280   6.634   1.425
  947TIP3    H124400   3.242   6.564   1.372
  947TIP3    H224401   3.226   6.710   1.405
  948TIP3   OH224402   4.551   2.203   7.012
  948TIP3    H124403   4.496   2.152   6.952
  948TIP3    H224404   4.501   2.205   7.094
  949TIP3   OH224405   3.342   5.081   1.657
  949TIP3    H124406   3.284   5.006   1.668
  949TIP3    H224407   3.301   5.134   1.589
  950TIP3   OH224408   1.418   0.270   7.805
  950TIP3    H124409   1.333   0.305   7.780
  950TIP3    H224410   1.398   0.187   7.849
  951TIP3   OH224411   1.621   2.525   1.915
  951TIP3    H124412   1.713   2.540   1.893
  951TIP3    H224413   1.573   2.591   1.865
  952TIP3   OH224414   4.484   1.924   1.171
  952TIP3    H124415   4.522   1.841   1.203
  952TIP3    H224416   4.405   1.898   1.124
  953TIP3   OH224417   0.388   5.662   7.900
  953TIP3    H124418   0.446   5.693   7.969
  953TIP3    H224419   0.343   5.586   7.938
  954TIP3   OH224420   5.294   5.499   6.618
  954TIP3    H124421   5.297   5.413   6.575
  954TIP3    H224422   5.370   5.499   6.677
  955TIP3   OH224423   1.079   0.424   6.249
  955TIP3    H124424   1.143   0.362   6.214
  955TIP3    H224425   1.130   0.501   6.271
  956TIP3   OH224426   1.709   4.343   7.555
  956TIP3    H124427   1.751   4.276   7.501
  956TIP3    H224428   1.776   4.411   7.566
  957TIP3   OH224429   0.051   5.670   6.356
  957TIP3    H124430   0.141   5.640   6.345
  957TIP3    H224431   0.012   5.606   6.415
  958TIP3   OH224432   3.894   6.901   1.077
  958TIP3    H124433   3.967   6.850   1.114
  958TIP3    H224434   3.825   6.837   1.062
  959TIP3   OH224435   4.422   6.850   1.360
  959TIP3    H124436   4.428   0.021   1.308
  959TIP3    H224437   4.412   6.781   1.295
  960TIP3   OH224438   5.535   5.879   0.207
  960TIP3    H124439   5.442   5.880   0.181
  960TIP3    H224440   5.579   5.931   0.140
  961TIP3   OH224441   2.131   2.529   8.327
  961TIP3    H124442   2.135   2.550   8.420
  961TIP3    H224443   2.058   2.468   8.319
  962TIP3   OH224444   5.250   5.710   7.492
  962TIP3    H124445   5.157   5.721   7.474
  962TIP3    H224446   5.276   5.635   7.437
  963TIP3   OH224447   5.519   3.240   8.144
  963TIP3    H124448   5.571   3.177   8.095
  963TIP3    H224449   5.580   3.311   8.165
  964TIP3   OH224450   5.674   3.991   1.254
  964TIP3    H124451   5.704   3.907   1.219
  964TIP3    H224452   5.724   4.057   1.206
  965TIP3   OH224453   6.518   6.435   0.449
  965TIP3    H124454   6.501   6.405   0.538
  965TIP3    H224455   6.486   6.526   0.448
  966TIP3   OH224456   5.878   0.057   2.757
  966TIP3    H124457   5.887   0.005   2.677
  966TIP3    H224458   5.813   0.123   2.736
  967TIP3   OH224459   1.543   4.180   1.461
  967TIP3    H124460   1.513   4.231   1.386
  967TIP3    H224461   1.636   4.163   1.443
  968TIP3   OH224462   3.150   0.260   1.280
  968TIP3    H124463   3.153   0.232   1.371
  968TIP3    H224464   3.239   0.245   1.247
  969TIP3   OH224465   6.132   1.246   1.433
  969TIP3    H124466   6.123   1.223   1.340
  969TIP3    H224467   6.106   1.338   1.438
  970TIP3   OH224468   3.326   2.025   1.226
  970TIP3    H124469   3.261   2.094   1.206
  970TIP3    H224470   3.368   2.055   1.307
  971TIP3   OH224471   3.814   6.022   7.436
  971TIP3    H124472   3.905   6.018   7.407
  971TIP3    H224473   3.815   6.081   7.511
  972TIP3   OH224474   2.673   0.567   7.220
  972TIP3    H124475   2.592   0.557   7.169
  972TIP3    H224476   2.720   0.637   7.176
  973TIP3   OH224477   0.999   2.388   6.256
  973TIP3    H124478   1.057   2.374   6.181
  973TIP3    H224479   1.043   2.345   6.329
  974TIP3   OH224480   5.446   2.363   8.064
  974TIP3    H124481   5.450   2.407   7.979
  974TIP3    H224482   5.415   2.275   8.044
  975TIP3   OH224483   2.668   3.858   0.725
  975TIP3    H124484   2.718   3.818   0.796
  975TIP3    H224485   2.712   3.942   0.709
  976TIP3   OH224486   5.033   6.388   0.712
  976TIP3    H124487   4.948   6.350   0.691
  976TIP3    H224488   5.025   6.481   0.690
  977TIP3   OH224489   1.749   1.209   7.969
  977TIP3    H124490   1.739   1.123   8.009
  977TIP3    H224491   1.662   1.230   7.935
  978TIP3   OH224492   1.861   5.226   6.814
  978TIP3    H124493   1.891   5.137   6.802
  978TIP3    H224494   1.766   5.218   6.826
  979TIP3   OH224495   3.324   5.694   8.138
  979TIP3    H124496   3.290   5.642   8.065
  979TIP3    H224497   3.248   5.742   8.171
  980TIP3   OH224498   5.632   2.387   2.255
  980TIP3    H124499   5.594   2.302   2.231
  980TIP3    H224500   5.710   2.365   2.305
  981TIP3   OH224501   0.061   4.476   6.464
  981TIP3    H124502   0.134   4.535   6.484
  981TIP3    H224503   0.093   4.420   6.394
  982TIP3   OH224504   1.360   3.756   6.224
  982TIP3    H124505   1.323   3.833   6.267
  982TIP3    H224506   1.390   3.700   6.296
  983TIP3   OH224507   6.725   3.086   6.735
  983TIP3    H124508   6.720   3.182   6.736
  983TIP3    H224509   6.666   3.060   6.665
  984TIP3   OH224510   0.525   0.194   0.871
  984TIP3    H124511   0.584   0.256   0.827
  984TIP3    H224512   0.558   0.189   0.961
  985TIP3   OH224513   2.022   6.060   6.904
  985TIP3    H124514   2.078   6.131   6.872
  985TIP3    H224515   2.062   6.033   6.987
  986TIP3   OH224516   2.711   4.783   0.146
  986TIP3    H124517   2.698   4.827   0.062
  986TIP3    H224518   2.774   4.838   0.192
  987TIP3   OH224519   1.529   3.741   0.482
  987TIP3    H124520   1.594   3.792   0.530
  987TIP3    H224521   1.567   3.653   0.475
  988TIP3   OH224522   5.182   3.151   1.465
  988TIP3    H124523   5.189   3.212   1.392
  988TIP3    H224524   5.151   3.069   1.426
  989TIP3   OH224525   3.089   3.122   1.233
  989TIP3    H124526   3.142   3.104   1.156
  989TIP3    H224527   3.032   3.045   1.242
  990TIP3   OH224528   5.784   4.352   6.896
  990TIP3    H124529   5.794   4.298   6.818
  990TIP3    H224530   5.764   4.439   6.862
  991TIP3   OH224531   3.273   1.406   1.102
  991TIP3    H124532   3.189   1.453   1.108
  991TIP3    H224533   3.320   1.432   1.181
  992TIP3   OH224534   3.614   4.256   0.086
  992TIP3    H124535   3.634   4.167   0.115
  992TIP3    H224536   3.580   4.300   0.164
  993TIP3   OH224537   1.729   4.587   6.436
  993TIP3    H124538   1.732   4.610   6.529
  993TIP3    H224539   1.678   4.657   6.395
  994TIP3   OH224540   1.801   3.737   7.925
  994TIP3    H124541   1.707   3.754   7.914
  994TIP3    H224542   1.808   3.642   7.923
  995TIP3   OH224543   4.139   1.120   1.201
  995TIP3    H124544   4.178   1.128   1.115
  995TIP3    H224545   4.126   1.210   1.231
  996TIP3   OH224546   4.810   2.962   7.712
  996TIP3    H124547   4.876   2.893   7.723
  996TIP3    H224548   4.852   3.041   7.747
  997TIP3   OH224549   5.712   4.809   7.232
  997TIP3    H124550   5.623   4.793   7.200
  997TIP3    H224551   5.758   4.726   7.217
  998TIP3   OH224552   4.757   4.543   6.647
  998TIP3    H124553   4.775   4.633   6.619
  998TIP3    H224554   4.839   4.496   6.631
  999TIP3   OH224555   2.710   1.367   6.899
  999TIP3    H124556   2.630   1.380   6.949
  999TIP3    H224557   2.681   1.324   6.818
 1000TIP3   OH224558   1.458   0.727   1.486
 1000TIP3    H124559   1.401   0.663   1.443
 1000TIP3    H224560   1.541   0.682   1.500
 1001TIP3   OH224561   4.542   4.030   0.108
 1001TIP3    H124562   4.485   4.022   0.032
 1001TIP3    H224563   4.512   4.108   0.153
 1002TIP3   OH224564   3.127   0.084   2.222
 1002TIP3    H124565   3.134   0.156   2.159
 1002TIP3    H224566   3.148   0.123   2.306
 1003TIP3   OH224567   2.838   5.620   7.827
 1003TIP3    H124568   2.891   5.547   7.857
 1003TIP3    H224569   2.834   5.680   7.902
 1004TIP3   OH224570   1.265   3.878   7.882
 1004TIP3    H124571   1.246   3.785   7.872
 1004TIP3    H224572   1.203   3.908   7.949
 1005TIP3   OH224573   6.347   6.887   1.270
 1005TIP3    H124574   6.443   6.887   1.276
 1005TIP3    H224575   6.327   0.050   1.211
 1006TIP3   OH224576   2.409   2.201   6.317
 1006TIP3    H124577   2.423   2.285   6.275
 1006TIP3    H224578   2.339   2.160   6.265
 1007TIP3   OH224579   6.486   3.011   8.107
 1007TIP3    H124580   6.404   2.992   8.152
 1007TIP3    H224581   6.465   3.005   8.014
 1008TIP3   OH224582   3.407   4.019   8.097
 1008TIP3    H124583   3.372   3.984   8.179
 1008TIP3    H224584   3.471   3.954   8.069
 1009TIP3   OH224585   6.690   2.352   2.137
 1009TIP3    H124586   6.617   2.413   2.148
 1009TIP3    H224587   6.657   2.269   2.172
 1010TIP3   OH224588   6.545   4.939   8.563
 1010TIP3    H124589   6.599   4.990   8.503
 1010TIP3    H224590   6.550   4.986   0.079
 1011TIP3   OH224591   1.836   5.192   1.685
 1011TIP3    H124592   1.915   5.236   1.718
 1011TIP3    H224593   1.831   5.218   1.593
 1012TIP3   OH224594   6.638   3.680   6.814
 1012TIP3    H124595   6.598   3.714   6.894
 1012TIP3    H224596   6.579   3.611   6.785
 1013TIP3   OH224597   5.008   0.176   0.076
 1013TIP3    H124598   5.090   0.200   0.034
 1013TIP3    H224599   5.000   0.236   0.150
 1014TIP3   OH224600   5.900   6.843   6.896
 1014TIP3    H124601   5.874   6.858   6.805
 1014TIP3    H224602   5.868   0.010   6.944
 1015TIP3   OH224603   6.360   3.610   0.971
 1015TIP3    H124604   6.357   3.522   0.933
 1015TIP3    H224605   6.432   3.606   1.034
 1016TIP3   OH224606   6.134   6.493   8.364
 1016TIP3    H124607   6.183   6.425   8.411
 1016TIP3    H224608   6.042   6.475   8.384
 1017TIP3   OH224609   0.515   4.552   0.754
 1017TIP3    H124610   0.535   4.509   0.671
 1017TIP3    H224611   0.520   4.482   0.819
 1018TIP3   OH224612   3.502   2.161   8.424
 1018TIP3    H124613   3.523   2.168   8.331
 1018TIP3    H224614   3.415   2.201   8.432
 1019TIP3   OH224615   2.410   0.539   7.112
 1019TIP3    H124616   2.379   0.580   7.031
 1019TIP3    H224617   2.396   0.445   7.098
 1020TIP3   OH224618   6.669   1.667   1.643
 1020TIP3    H124619   6.746   1.657   1.699
 1020TIP3    H224620   6.685   1.608   1.569
 1021TIP3   OH224621   4.591   4.781   1.609
 1021TIP3    H124622   4.605   4.688   1.627
 1021TIP3    H224623   4.661   4.825   1.657
 1022TIP3   OH224624   5.849   6.858   7.237
 1022TIP3    H124625   5.883   6.884   7.323
 1022TIP3    H224626   5.842   0.031   7.189
 1023TIP3   OH224627   3.294   2.092   0.825
 1023TIP3    H124628   3.297   2.127   0.736
 1023TIP3    H224629   3.358   2.144   0.873
 1024TIP3   OH224630   0.216   6.356   7.721
 1024TIP3    H124631   0.143   6.387   7.775
 1024TIP3    H224632   0.276   6.317   7.784
 1025TIP3   OH224633   3.889   5.912   1.342
 1025TIP3    H124634   3.876   6.006   1.352
 1025TIP3    H224635   3.943   5.902   1.264
 1026TIP3   OH224636   2.542   0.188   6.634
 1026TIP3    H124637   2.575   0.266   6.679
 1026TIP3    H224638   2.560   0.116   6.694
 1027TIP3   OH224639   1.208   2.683   7.046
 1027TIP3    H124640   1.132   2.723   7.003
 1027TIP3    H224641   1.282   2.739   7.020
 1028TIP3   OH224642   5.932   4.479   0.090
 1028TIP3    H124643   5.964   4.567   0.110
 1028TIP3    H224644   5.991   4.421   0.138
 1029TIP3   OH224645   5.374   6.614   6.435
 1029TIP3    H124646   5.331   6.645   6.355
 1029TIP3    H224647   5.308   6.560   6.478
 1030TIP3   OH224648   0.953   4.191   7.605
 1030TIP3    H124649   1.043   4.223   7.599
 1030TIP3    H224650   0.957   4.101   7.574
 1031TIP3   OH224651   3.835   5.089   0.972
 1031TIP3    H124652   3.793   5.020   0.920
 1031TIP3    H224653   3.865   5.153   0.907
 1032TIP3   OH224654   3.522   6.651   1.575
 1032TIP3    H124655   3.550   6.565   1.608
 1032TIP3    H224656   3.437   6.633   1.534
 1033TIP3   OH224657   2.157   2.723   7.735
 1033TIP3    H124658   2.252   2.726   7.724
 1033TIP3    H224659   2.142   2.647   7.792
 1034TIP3   OH224660   5.617   3.238   7.660
 1034TIP3    H124661   5.666   3.173   7.610
 1034TIP3    H224662   5.528   3.234   7.624
 1035TIP3   OH224663   6.560   1.829   0.382
 1035TIP3    H124664   6.614   1.854   0.307
 1035TIP3    H224665   6.474   1.865   0.363
 1036TIP3   OH224666   0.452   5.364   1.346
 1036TIP3    H124667   0.379   5.400   1.295
 1036TIP3    H224668   0.437   5.397   1.435
 1037TIP3   OH224669   2.710   4.290   7.058
 1037TIP3    H124670   2.687   4.369   7.106
 1037TIP3    H224671   2.627   4.258   7.023
 1038TIP3   OH224672   3.962   6.611   6.512
 1038TIP3    H124673   3.866   6.614   6.520
 1038TIP3    H224674   3.978   6.532   6.459
 1039TIP3   OH224675   2.591   2.379   1.277
 1039TIP3    H124676   2.525   2.310   1.269
 1039TIP3    H224677   2.674   2.333   1.270
 1040TIP3   OH224678   2.993   3.503   7.370
 1040TIP3    H124679   3.053   3.572   7.342
 1040TIP3    H224680   2.913   3.518   7.319
 1041TIP3   OH224681   3.756   5.802   0.174
 1041TIP3    H124682   3.805   5.753   0.107
 1041TIP3    H224683   3.791   5.891   0.168
 1042TIP3   OH224684   6.289   4.438   1.470
 1042TIP3    H124685   6.219   4.417   1.409
 1042TIP3    H224686   6.310   4.530   1.451
 1043TIP3   OH224687   5.558   0.663   1.211
 1043TIP3    H124688   5.558   0.622   1.298
 1043TIP3    H224689   5.472   0.704   1.204
 1044TIP3   OH224690   3.268   2.224   8.163
 1044TIP3    H124691   3.262   2.274   8.245
 1044TIP3    H224692   3.216   2.145   8.180
 1045TIP3   OH224693   6.619   2.254   6.413
 1045TIP3    H124694   6.690   2.191   6.409
 1045TIP3    H224695   6.610   2.287   6.323
 1046TIP3   OH224696   1.299   3.966   6.396
 1046TIP3    H124697   1.372   4.029   6.395
 1046TIP3    H224698   1.225   4.016   6.431
 1047TIP3   OH224699   1.894   1.407   0.587
 1047TIP3    H124700   1.945   1.422   0.667
 1047TIP3    H224701   1.816   1.462   0.598
 1048TIP3   OH224702   6.130   4.215   2.297
 1048TIP3    H124703   6.046   4.181   2.329
 1048TIP3    H224704   6.109   4.305   2.269
 1049TIP3   OH224705   2.871   4.670   8.488
 1049TIP3    H124706   2.941   4.731   8.464
 1049TIP3    H224707   2.912   4.584   8.486
 1050TIP3   OH224708   3.742   1.595   1.358
 1050TIP3    H124709   3.768   1.518   1.307
 1050TIP3    H224710   3.711   1.559   1.441
 1051TIP3   OH224711   5.238   2.950   7.189
 1051TIP3    H124712   5.270   2.924   7.103
 1051TIP3    H224713   5.204   2.870   7.228
 1052TIP3   OH224714   4.578   4.508   1.669
 1052TIP3    H124715   4.607   4.424   1.634
 1052TIP3    H224716   4.491   4.490   1.704
 1053TIP3   OH224717   6.176   1.551   1.147
 1053TIP3    H124718   6.124   1.524   1.071
 1053TIP3    H224719   6.141   1.637   1.171
 1054TIP3   OH224720   3.709   3.921   1.959
 1054TIP3    H124721   3.637   3.915   1.896
 1054TIP3    H224722   3.685   3.861   2.029
 1055TIP3   OH224723   2.316   4.463   7.171
 1055TIP3    H124724   2.247   4.502   7.118
 1055TIP3    H224725   2.338   4.381   7.126
 1056TIP3   OH224726   2.465   4.993   1.310
 1056TIP3    H124727   2.524   4.998   1.235
 1056TIP3    H224728   2.518   4.956   1.381
 1057TIP3   OH224729   3.669   3.536   0.411
 1057TIP3    H124730   3.741   3.498   0.361
 1057TIP3    H224731   3.590   3.506   0.365
 1058TIP3   OH224732   3.068   2.008   7.040
 1058TIP3    H124733   2.992   1.956   7.068
 1058TIP3    H224734   3.053   2.023   6.946
 1059TIP3   OH224735   6.495   3.054   0.474
 1059TIP3    H124736   6.457   2.993   0.537
 1059TIP3    H224737   6.579   3.079   0.512
 1060TIP3   OH224738   6.280   3.524   6.435
 1060TIP3    H124739   6.325   3.470   6.501
 1060TIP3    H224740   6.281   3.470   6.356
 1061TIP3   OH224741   3.591   6.632   2.638
 1061TIP3    H124742   3.666   6.573   2.645
 1061TIP3    H224743   3.525   6.594   2.696
 1062TIP3   OH224744   0.019   2.643   1.799
 1062TIP3    H124745   6.861   2.645   1.731
 1062TIP3    H224746   6.880   2.627   1.880
 1063TIP3   OH224747   4.379   1.955   1.595
 1063TIP3    H124748   4.321   1.921   1.526
 1063TIP3    H224749   4.386   1.883   1.657
 1064TIP3   OH224750   6.318   2.411   6.961
 1064TIP3    H124751   6.376   2.486   6.948
 1064TIP3    H224752   6.335   2.384   7.051
 1065TIP3   OH224753   3.309   4.327   8.145
 1065TIP3    H124754   3.248   4.384   8.098
 1065TIP3    H224755   3.291   4.345   8.238
 1066TIP3   OH224756   2.817   6.660   8.041
 1066TIP3    H124757   2.738   6.627   7.998
 1066TIP3    H224758   2.887   6.643   7.979
 1067TIP3   OH224759   6.712   2.849   8.122
 1067TIP3    H124760   6.798   2.876   8.090
 1067TIP3    H224761   6.660   2.929   8.121
 1068TIP3   OH224762   6.138   6.176   8.058
 1068TIP3    H124763   6.115   6.136   7.974
 1068TIP3    H224764   6.180   6.259   8.034
 1069TIP3   OH224765   4.624   3.894   5.968
 1069TIP3    H124766   4.634   3.802   5.993
 1069TIP3    H224767   4.532   3.902   5.943
 1070TIP3   OH224768   1.126   5.028   7.542
 1070TIP3    H124769   1.126   4.940   7.579
 1070TIP3    H224770   1.206   5.032   7.489
 1071TIP3   OH224771   5.693   2.737   0.646
 1071TIP3    H124772   5.677   2.822   0.603
 1071TIP3    H224773   5.787   2.736   0.663
 1072TIP3   OH224774   0.776   4.282   0.280
 1072TIP3    H124775   0.763   4.359   0.225
 1072TIP3    H224776   0.864   4.293   0.317
 1073TIP3   OH224777   4.526   6.500   1.509
 1073TIP3    H124778   4.528   6.595   1.510
 1073TIP3    H224779   4.433   6.478   1.500
 1074TIP3   OH224780   2.569   0.752   8.053
 1074TIP3    H124781   2.532   0.788   7.973
 1074TIP3    H224782   2.626   0.681   8.024
 1075TIP3   OH224783   3.537   6.838   7.699
 1075TIP3    H124784   3.554   0.021   7.718
 1075TIP3    H224785   3.561   6.793   7.780
 1076TIP3   OH224786   0.152   2.440   1.280
 1076TIP3    H124787   0.116   2.522   1.245
 1076TIP3    H224788   0.183   2.463   1.368
 1077TIP3   OH224789   0.820   5.593   6.706
 1077TIP3    H124790   0.754   5.530   6.676
 1077TIP3    H224791   0.901   5.543   6.711
 1078TIP3   OH224792   0.441   5.515   1.576
 1078TIP3    H124793   0.473   5.587   1.629
 1078TIP3    H224794   0.376   5.472   1.631
 1079TIP3   OH224795   0.593   1.195   7.818
 1079TIP3    H124796   0.663   1.251   7.785
 1079TIP3    H224797   0.513   1.245   7.801
 1080TIP3   OH224798   1.653   4.737   7.487
 1080TIP3    H124799   1.582   4.725   7.550
 1080TIP3    H224800   1.694   4.820   7.513
 1081TIP3   OH224801   6.110   5.997   0.843
 1081TIP3    H124802   6.123   6.079   0.797
 1081TIP3    H224803   6.075   6.022   0.929
 1082TIP3   OH224804   6.564   5.009   0.258
 1082TIP3    H124805   6.617   5.065   0.315
 1082TIP3    H224806   6.611   4.925   0.258
 1083TIP3   OH224807   5.582   1.379   0.126
 1083TIP3    H124808   5.559   1.463   0.166
 1083TIP3    H224809   5.666   1.395   0.084
 1084TIP3   OH224810   6.798   3.820   2.358
 1084TIP3    H124811   6.811   3.801   2.265
 1084TIP3    H224812   6.705   3.802   2.373
 1085TIP3   OH224813   2.248   2.941   7.434
 1085TIP3    H124814   2.259   2.932   7.339
 1085TIP3    H224815   2.184   3.012   7.444
 1086TIP3   OH224816   5.477   4.484   0.525
 1086TIP3    H124817   5.483   4.543   0.450
 1086TIP3    H224818   5.518   4.403   0.495
 1087TIP3   OH224819   5.463   2.692   7.426
 1087TIP3    H124820   5.443   2.690   7.332
 1087TIP3    H224821   5.487   2.782   7.445
 1088TIP3   OH224822   4.986   6.108   6.302
 1088TIP3    H124823   5.060   6.162   6.330
 1088TIP3    H224824   4.975   6.129   6.209
 1089TIP3   OH224825   3.589   0.926   6.406
 1089TIP3    H124826   3.661   0.871   6.436
 1089TIP3    H224827   3.608   1.013   6.440
 1090TIP3   OH224828   6.166   0.874   1.222
 1090TIP3    H124829   6.203   0.866   1.310
 1090TIP3    H224830   6.120   0.792   1.207
 1091TIP3   OH224831   2.494   3.432   8.113
 1091TIP3    H124832   2.427   3.368   8.136
 1091TIP3    H224833   2.532   3.458   8.197
 1092TIP3   OH224834   1.860   5.625   6.702
 1092TIP3    H124835   1.904   5.621   6.616
 1092TIP3    H224836   1.926   5.596   6.764
 1093TIP3   OH224837   0.659   1.696   7.569
 1093TIP3    H124838   0.621   1.672   7.654
 1093TIP3    H224839   0.702   1.616   7.539
 1094TIP3   OH224840   3.155   5.691   0.968
 1094TIP3    H124841   3.231   5.747   0.982
 1094TIP3    H224842   3.186   5.624   0.907
 1095TIP3   OH224843   3.137   3.883   8.216
 1095TIP3    H124844   3.137   3.841   8.130
 1095TIP3    H224845   3.070   3.951   8.210
 1096TIP3   OH224846   3.787   1.363   7.016
 1096TIP3    H124847   3.880   1.345   7.010
 1096TIP3    H224848   3.776   1.406   7.101
 1097TIP3   OH224849   3.436   6.583   7.208
 1097TIP3    H124850   3.358   6.583   7.153
 1097TIP3    H224851   3.493   6.515   7.171
 1098TIP3   OH224852   0.364   2.938   7.092
 1098TIP3    H124853   0.457   2.916   7.083
 1098TIP3    H224854   0.363   3.011   7.154
 1099TIP3   OH224855   2.031   0.385   7.971
 1099TIP3    H124856   2.051   0.292   7.961
 1099TIP3    H224857   2.115   0.429   7.957
 1100TIP3   OH224858   5.372   5.795   7.127
 1100TIP3    H124859   5.354   5.880   7.087
 1100TIP3    H224860   5.455   5.808   7.173
 1101TIP3   OH224861   2.031   5.848   1.737
 1101TIP3    H124862   2.001   5.776   1.792
 1101TIP3    H224863   1.960   5.912   1.742
 1102TIP3   OH224864   0.171   6.144   0.514
 1102TIP3    H124865   0.265   6.160   0.520
 1102TIP3    H224866   0.162   6.082   0.442
 1103TIP3   OH224867   5.233   1.770   8.525
 1103TIP3    H124868   5.307   1.830   8.524
 1103TIP3    H224869   5.222   1.747   0.050
 1104TIP3   OH224870   5.111   3.753   7.936
 1104TIP3    H124871   5.118   3.666   7.975
 1104TIP3    H224872   5.195   3.795   7.955
 1105TIP3   OH224873   5.472   5.883   7.514
 1105TIP3    H124874   5.416   5.937   7.458
 1105TIP3    H224875   5.423   5.801   7.524
 1106TIP3   OH224876   3.242   1.290   6.820
 1106TIP3    H124877   3.263   1.196   6.819
 1106TIP3    H224878   3.275   1.322   6.736
 1107TIP3   OH224879   1.709   4.687   8.490
 1107TIP3    H124880   1.666   4.742   8.556
 1107TIP3    H224881   1.762   4.748   8.439
 1108TIP3   OH224882   4.935   3.468   7.410
 1108TIP3    H124883   4.930   3.373   7.399
 1108TIP3    H224884   4.934   3.481   7.505
 1109TIP3   OH224885   5.239   5.191   0.784
 1109TIP3    H124886   5.287   5.264   0.744
 1109TIP3    H224887   5.268   5.114   0.735
 1110TIP3   OH224888   0.722   6.208   7.260
 1110TIP3    H124889   0.809   6.177   7.235
 1110TIP3    H224890   0.737   6.289   7.308
 1111TIP3   OH224891   2.826   6.800   1.649
 1111TIP3    H124892   2.849   6.837   1.734
 1111TIP3    H224893   2.734   6.777   1.657
 1112TIP3   OH224894   0.052   3.923   2.047
 1112TIP3    H124895   0.121   3.926   2.114
 1112TIP3    H224896   0.015   3.835   2.055
 1113TIP3   OH224897   1.424   6.760   8.218
 1113TIP3    H124898   1.435   6.676   8.263
 1113TIP3    H224899   1.511   6.800   8.223
 1114TIP3   OH224900   4.622   5.738   2.554
 1114TIP3    H124901   4.707   5.768   2.520
 1114TIP3    H224902   4.642   5.704   2.641
 1115TIP3   OH224903   3.669   2.514   0.233
 1115TIP3    H124904   3.589   2.548   0.272
 1115TIP3    H224905   3.640   2.449   0.169
 1116TIP3   OH224906   6.899   3.834   1.458
 1116TIP3    H124907   0.001   3.881   1.376
 1116TIP3    H224908   6.848   3.894   1.513
 1117TIP3   OH224909   5.327   1.382   0.670
 1117TIP3    H124910   5.397   1.410   0.729
 1117TIP3    H224911   5.278   1.317   0.720
 1118TIP3   OH224912   1.917   2.115   1.840
 1118TIP3    H124913   1.924   2.208   1.820
 1118TIP3    H224914   1.996   2.077   1.802
 1119TIP3   OH224915   6.809   2.395   8.384
 1119TIP3    H124916   6.868   2.417   8.456
 1119TIP3    H224917   6.822   2.465   8.320
 1120TIP3   OH224918   4.335   2.420   1.592
 1120TIP3    H124919   4.360   2.347   1.648
 1120TIP3    H224920   4.240   2.419   1.590
 1121TIP3   OH224921   6.841   0.466   0.933
 1121TIP3    H124922   6.797   0.446   1.016
 1121TIP3    H224923   6.841   0.562   0.929
 1122TIP3   OH224924   1.919   6.455   8.436
 1122TIP3    H124925   1.850   6.393   8.461
 1122TIP3    H224926   1.937   6.503   8.517
 1123TIP3   OH224927   4.387   4.518   7.104
 1123TIP3    H124928   4.367   4.447   7.043
 1123TIP3    H224929   4.302   4.556   7.125
 1124TIP3   OH224930   3.842   5.639   6.507
 1124TIP3    H124931   3.909   5.600   6.452
 1124TIP3    H224932   3.890   5.697   6.566
 1125TIP3   OH224933   2.402   4.389   8.152
 1125TIP3    H124934   2.341   4.341   8.095
 1125TIP3    H224935   2.346   4.448   8.203
 1126TIP3   OH224936   4.181   3.006   7.061
 1126TIP3    H124937   4.141   2.936   7.112
 1126TIP3    H224938   4.247   3.043   7.119
 1127TIP3   OH224939   1.729   6.812   2.161
 1127TIP3    H124940   1.803   6.824   2.220
 1127TIP3    H224941   1.652   6.816   2.219
 1128TIP3   OH224942   1.339   3.236   1.008
 1128TIP3    H124943   1.397   3.271   1.076
 1128TIP3    H224944   1.251   3.261   1.036
 1129TIP3   OH224945   0.195   1.504   7.578
 1129TIP3    H124946   0.195   1.409   7.569
 1129TIP3    H224947   0.245   1.535   7.503
 1130TIP3   OH224948   6.323   0.130   1.038
 1130TIP3    H124949   6.233   0.149   1.011
 1130TIP3    H224950   6.361   0.215   1.058
 1131TIP3   OH224951   5.782   0.552   8.105
 1131TIP3    H124952   5.834   0.509   8.173
 1131TIP3    H224953   5.741   0.480   8.058
 1132TIP3   OH224954   0.495   1.630   0.331
 1132TIP3    H124955   0.418   1.588   0.369
 1132TIP3    H224956   0.562   1.624   0.399
 1133TIP3   OH224957   2.616   5.927   7.037
 1133TIP3    H124958   2.689   5.865   7.035
 1133TIP3    H224959   2.603   5.951   6.945
 1134TIP3   OH224960   2.056   5.827   0.020
 1134TIP3    H124961   2.071   5.838   0.114
 1134TIP3    H224962   2.125   5.767   8.559
 1135TIP3   OH224963   6.794   1.278   8.536
 1135TIP3    H124964   6.856   1.216   8.497
 1135TIP3    H224965   6.825   1.289   0.059
 1136TIP3   OH224966   4.396   5.933   7.803
 1136TIP3    H124967   4.346   6.012   7.824
 1136TIP3    H224968   4.385   5.922   7.708
 1137TIP3   OH224969   2.033   4.076   8.190
 1137TIP3    H124970   2.028   4.170   8.177
 1137TIP3    H224971   2.118   4.062   8.231
 1138TIP3   OH224972   5.536   6.755   7.757
 1138TIP3    H124973   5.451   6.731   7.794
 1138TIP3    H224974   5.543   6.703   7.677
 1139TIP3   OH224975   6.348   4.476   0.069
 1139TIP3    H124976   6.358   4.533   8.559
 1139TIP3    H224977   6.351   4.387   0.034
 1140TIP3   OH224978   2.833   4.758   0.929
 1140TIP3    H124979   2.786   4.680   0.960
 1140TIP3    H224980   2.923   4.745   0.957
 1141TIP3   OH224981   3.426   4.049   6.464
 1141TIP3    H124982   3.463   4.136   6.451
 1141TIP3    H224983   3.499   3.989   6.445
 1142TIP3   OH224984   5.840   6.303   0.154
 1142TIP3    H124985   5.862   6.312   0.247
 1142TIP3    H224986   5.860   6.212   0.133
 1143TIP3   OH224987   5.179   5.867   0.574
 1143TIP3    H124988   5.125   5.913   0.639
 1143TIP3    H224989   5.132   5.785   0.557
 1144TIP3   OH224990   0.160   5.661   7.394
 1144TIP3    H124991   0.189   5.701   7.476
 1144TIP3    H224992   0.075   5.702   7.376
 1145TIP3   OH224993   3.647   1.951   1.917
 1145TIP3    H124994   3.726   2.004   1.927
 1145TIP3    H224995   3.678   1.861   1.911
 1146TIP3   OH224996   2.980   6.306   2.206
 1146TIP3    H124997   3.019   6.374   2.152
 1146TIP3    H224998   2.891   6.338   2.225
 1147TIP3   OH224999   6.871   0.151   6.355
 1147TIP3    H125000   6.901   0.232   6.396
 1147TIP3    H225001   6.852   0.093   6.429
 1148TIP3   OH225002   0.068   0.440   1.255
 1148TIP3    H125003   0.089   0.436   1.348
 1148TIP3    H225004   0.002   0.371   1.242
 1149TIP3   OH225005   2.891   5.606   0.746
 1149TIP3    H125006   2.933   5.522   0.729
 1149TIP3    H225007   2.953   5.671   0.714
 1150TIP3   OH225008   2.490   3.102   1.612
 1150TIP3    H125009   2.496   3.197   1.606
 1150TIP3    H225010   2.580   3.071   1.605
 1151TIP3   OH225011   0.309   1.612   7.342
 1151TIP3    H125012   0.331   1.705   7.342
 1151TIP3    H225013   0.216   1.609   7.318
 1152TIP3   OH225014   1.310   4.077   1.307
 1152TIP3    H125015   1.356   4.034   1.234
 1152TIP3    H225016   1.379   4.093   1.371
 1153TIP3   OH225017   0.443   2.602   1.251
 1153TIP3    H125018   0.462   2.510   1.231
 1153TIP3    H225019   0.433   2.603   1.346
 1154TIP3   OH225020   2.333   3.301   0.969
 1154TIP3    H125021   2.324   3.294   1.064
 1154TIP3    H225022   2.261   3.250   0.933
 1155TIP3   OH225023   5.883   4.096   0.735
 1155TIP3    H125024   5.963   4.113   0.786
 1155TIP3    H225025   5.863   4.004   0.754
 1156TIP3   OH225026   0.792   4.416   0.722
 1156TIP3    H125027   0.740   4.381   0.649
 1156TIP3    H225028   0.730   4.422   0.795
 1157TIP3   OH225029   1.253   2.049   0.640
 1157TIP3    H125030   1.169   2.095   0.644
 1157TIP3    H225031   1.229   1.957   0.623
 1158TIP3   OH225032   4.432   2.100   7.938
 1158TIP3    H125033   4.424   2.191   7.907
 1158TIP3    H225034   4.519   2.073   7.909
 1159TIP3   OH225035   2.766   1.592   0.197
 1159TIP3    H125036   2.704   1.609   0.126
 1159TIP3    H225037   2.817   1.517   0.166
 1160TIP3   OH225038   0.564   1.980   8.039
 1160TIP3    H125039   0.534   1.975   7.948
 1160TIP3    H225040   0.605   2.066   8.046
 1161TIP3   OH225041   2.436   3.287   8.366
 1161TIP3    H125042   2.463   3.363   8.418
 1161TIP3    H225043   2.519   3.248   8.337
 1162TIP3   OH225044   2.363   0.809   0.173
 1162TIP3    H125045   2.401   0.841   0.091
 1162TIP3    H225046   2.281   0.767   0.146
 1163TIP3   OH225047   4.323   1.758   0.220
 1163TIP3    H125048   4.392   1.751   0.154
 1163TIP3    H225049   4.302   1.852   0.224
 1164TIP3   OH225050   6.169   4.447   0.810
 1164TIP3    H125051   6.163   4.377   0.745
 1164TIP3    H225052   6.214   4.518   0.764
 1165TIP3   OH225053   1.175   4.463   8.148
 1165TIP3    H125054   1.215   4.463   8.061
 1165TIP3    H225055   1.238   4.418   8.203
 1166TIP3   OH225056   5.990   5.671   7.879
 1166TIP3    H125057   6.006   5.692   7.787
 1166TIP3    H225058   5.905   5.711   7.898
 1167TIP3   OH225059   1.690   6.012   8.388
 1167TIP3    H125060   1.743   5.937   8.415
 1167TIP3    H225061   1.754   6.079   8.364
 1168TIP3   OH225062   4.220   4.806   0.605
 1168TIP3    H125063   4.310   4.833   0.627
 1168TIP3    H225064   4.172   4.888   0.598
 1169TIP3   OH225065   6.172   1.266   7.073
 1169TIP3    H125066   6.190   1.236   7.162
 1169TIP3    H225067   6.088   1.313   7.080
 1170TIP3   OH225068   3.910   4.739   0.963
 1170TIP3    H125069   3.934   4.807   0.901
 1170TIP3    H225070   3.884   4.664   0.909
 1171TIP3   OH225071   1.035   4.951   6.374
 1171TIP3    H125072   1.086   5.006   6.432
 1171TIP3    H225073   0.964   5.007   6.343
 1172TIP3   OH225074   3.481   3.959   1.222
 1172TIP3    H125075   3.567   3.988   1.190
 1172TIP3    H225076   3.423   4.033   1.206
 1173TIP3   OH225077   1.451   4.328   7.521
 1173TIP3    H125078   1.463   4.266   7.450
 1173TIP3    H225079   1.540   4.347   7.551
 1174TIP3   OH225080   6.215   2.189   8.029
 1174TIP3    H125081   6.205   2.268   8.082
 1174TIP3    H225082   6.164   2.206   7.950
 1175TIP3   OH225083   1.268   0.261   8.062
 1175TIP3    H125084   1.252   0.312   7.983
 1175TIP3    H225085   1.363   0.266   8.075
 1176TIP3   OH225086   5.101   6.826   0.157
 1176TIP3    H125087   5.029   6.887   0.135
 1176TIP3    H225088   5.057   6.750   0.195
 1177TIP3   OH225089   5.932   5.052   7.558
 1177TIP3    H125090   6.006   5.003   7.594
 1177TIP3    H225091   5.938   5.039   7.463
 1178TIP3   OH225092   5.361   0.772   1.644
 1178TIP3    H125093   5.329   0.710   1.579
 1178TIP3    H225094   5.449   0.741   1.667
 1179TIP3   OH225095   1.331   0.265   1.661
 1179TIP3    H125096   1.298   0.177   1.677
 1179TIP3    H225097   1.267   0.323   1.701
 1180TIP3   OH225098   5.488   0.579   6.991
 1180TIP3    H125099   5.554   0.645   7.010
 1180TIP3    H225100   5.415   0.628   6.953
 1181TIP3   OH225101   6.021   4.253   7.795
 1181TIP3    H125102   5.932   4.264   7.830
 1181TIP3    H225103   6.007   4.226   7.704
 1182TIP3   OH225104   6.629   2.731   2.254
 1182TIP3    H125105   6.573   2.786   2.308
 1182TIP3    H225106   6.715   2.734   2.296
 1183TIP3   OH225107   3.947   5.087   8.457
 1183TIP3    H125108   3.935   5.060   8.548
 1183TIP3    H225109   3.993   5.014   8.416
 1184TIP3   OH225110   4.898   4.262   7.087
 1184TIP3    H125111   4.954   4.256   7.010
 1184TIP3    H225112   4.816   4.298   7.054
 1185TIP3   OH225113   5.720   1.000   0.613
 1185TIP3    H125114   5.797   0.945   0.624
 1185TIP3    H225115   5.709   1.007   0.518
 1186TIP3   OH225116   2.563   1.318   1.834
 1186TIP3    H125117   2.597   1.406   1.847
 1186TIP3    H225118   2.627   1.261   1.876
 1187TIP3   OH225119   1.513   5.833   0.767
 1187TIP3    H125120   1.514   5.790   0.681
 1187TIP3    H225121   1.493   5.925   0.748
 1188TIP3   OH225122   0.864   5.204   1.528
 1188TIP3    H125123   0.844   5.161   1.610
 1188TIP3    H225124   0.780   5.214   1.484
 1189TIP3   OH225125   3.528   3.245   1.608
 1189TIP3    H125126   3.502   3.276   1.695
 1189TIP3    H225127   3.604   3.190   1.624
 1190TIP3   OH225128   2.304   6.241   7.354
 1190TIP3    H125129   2.328   6.225   7.263
 1190TIP3    H225130   2.360   6.312   7.382
 1191TIP3   OH225131   0.260   3.067   7.753
 1191TIP3    H125132   0.351   3.072   7.723
 1191TIP3    H225133   0.230   2.980   7.726
 1192TIP3   OH225134   2.750   5.034   7.842
 1192TIP3    H125135   2.823   4.974   7.859
 1192TIP3    H225136   2.754   5.098   7.912
 1193TIP3   OH225137   0.947   5.449   7.947
 1193TIP3    H125138   0.989   5.513   7.890
 1193TIP3    H225139   0.860   5.435   7.908
 1194TIP3   OH225140   0.548   2.578   1.694
 1194TIP3    H125141   0.480   2.538   1.640
 1194TIP3    H225142   0.627   2.573   1.640
 1195TIP3   OH225143   5.470   4.246   0.329
 1195TIP3    H125144   5.457   4.151   0.323
 1195TIP3    H225145   5.565   4.257   0.335
 1196TIP3   OH225146   5.882   0.448   7.086
 1196TIP3    H125147   5.927   0.465   7.169
 1196TIP3    H225148   5.861   0.535   7.051
 1197TIP3   OH225149   1.284   3.417   7.516
 1197TIP3    H125150   1.299   3.401   7.609
 1197TIP3    H225151   1.207   3.364   7.495
 1198TIP3   OH225152   1.587   2.171   6.298
 1198TIP3    H125153   1.502   2.194   6.261
 1198TIP3    H225154   1.570   2.093   6.350
 1199TIP3   OH225155   2.603   4.852   7.207
 1199TIP3    H125156   2.599   4.933   7.156
 1199TIP3    H225157   2.524   4.852   7.260
 1200TIP3   OH225158   2.697   4.139   7.330
 1200TIP3    H125159   2.774   4.085   7.347
 1200TIP3    H225160   2.711   4.175   7.243
 1201TIP3   OH225161   2.180   1.129   7.388
 1201TIP3    H125162   2.229   1.060   7.342
 1201TIP3    H225163   2.091   1.121   7.355
 1202TIP3   OH225164   4.745   0.679   8.337
 1202TIP3    H125165   4.808   0.649   8.402
 1202TIP3    H225166   4.798   0.720   8.268
 1203TIP3   OH225167   5.859   2.543   7.251
 1203TIP3    H125168   5.780   2.563   7.302
 1203TIP3    H225169   5.826   2.511   7.167
 1204TIP3   OH225170   0.162   1.985   1.323
 1204TIP3    H125171   0.167   2.029   1.239
 1204TIP3    H225172   0.253   1.982   1.354
 1205TIP3   OH225173   4.107   2.370   7.926
 1205TIP3    H125174   4.173   2.351   7.992
 1205TIP3    H225175   4.028   2.393   7.977
 1206TIP3   OH225176   1.234   4.021   1.988
 1206TIP3    H125177   1.218   3.929   2.012
 1206TIP3    H225178   1.209   4.026   1.895
 1207TIP3   OH225179   0.108   4.678   8.183
 1207TIP3    H125180   0.186   4.727   8.210
 1207TIP3    H225181   0.036   4.719   8.231
 1208TIP3   OH225182   2.016   1.966   6.690
 1208TIP3    H125183   1.929   1.970   6.650
 1208TIP3    H225184   2.072   1.927   6.623
 1209TIP3   OH225185   6.000   5.751   0.760
 1209TIP3    H125186   6.032   5.841   0.758
 1209TIP3    H225187   5.933   5.750   0.828
 1210TIP3   OH225188   3.700   2.711   1.499
 1210TIP3    H125189   3.626   2.752   1.543
 1210TIP3    H225190   3.706   2.624   1.540
 1211TIP3   OH225191   5.996   5.262   2.277
 1211TIP3    H125192   6.015   5.182   2.325
 1211TIP3    H225193   6.047   5.330   2.321
 1212TIP3   OH225194   1.379   4.870   8.130
 1212TIP3    H125195   1.388   4.965   8.135
 1212TIP3    H225196   1.365   4.843   8.221
 1213TIP3   OH225197   2.154   1.675   0.624
 1213TIP3    H125198   2.161   1.615   0.698
 1213TIP3    H225199   2.128   1.620   0.550
 1214TIP3   OH225200   0.668   4.488   7.417
 1214TIP3    H125201   0.671   4.515   7.509
 1214TIP3    H225202   0.609   4.551   7.375
 1215TIP3   OH225203   4.767   3.453   7.175
 1215TIP3    H125204   4.830   3.403   7.228
 1215TIP3    H225205   4.797   3.544   7.181
 1216TIP3   OH225206   6.108   4.113   0.081
 1216TIP3    H125207   6.017   4.086   0.066
 1216TIP3    H225208   6.159   4.033   0.069
 1217TIP3   OH225209   4.399   5.109   7.511
 1217TIP3    H125210   4.431   5.129   7.423
 1217TIP3    H225211   4.469   5.058   7.551
 1218TIP3   OH225212   6.810   5.710   7.619
 1218TIP3    H125213   6.770   5.623   7.615
 1218TIP3    H225214   6.783   5.753   7.538
 1219TIP3   OH225215   0.825   5.160   8.417
 1219TIP3    H125216   0.744   5.156   8.367
 1219TIP3    H225217   0.893   5.182   8.353
 1220TIP3   OH225218   1.330   5.105   0.755
 1220TIP3    H125219   1.371   5.137   0.836
 1220TIP3    H225220   1.244   5.147   0.753
 1221TIP3   OH225221   5.947   0.142   7.825
 1221TIP3    H125222   5.929   0.053   7.795
 1221TIP3    H225223   6.041   0.152   7.814
 1222TIP3   OH225224   6.126   4.597   7.036
 1222TIP3    H125225   6.077   4.520   7.010
 1222TIP3    H225226   6.169   4.572   7.118
 1223TIP3   OH225227   2.742   3.036   1.835
 1223TIP3    H125228   2.663   3.024   1.887
 1223TIP3    H225229   2.810   3.054   1.899
 1224TIP3   OH225230   3.746   1.017   7.960
 1224TIP3    H125231   3.681   1.042   8.025
 1224TIP3    H225232   3.699   1.018   7.877
 1225TIP3   OH225233   3.954   2.808   1.575
 1225TIP3    H125234   4.023   2.782   1.513
 1225TIP3    H225235   3.876   2.759   1.546
 1226TIP3   OH225236   0.839   3.762   1.947
 1226TIP3    H125237   0.746   3.783   1.945
 1226TIP3    H225238   0.845   3.680   1.997
 1227TIP3   OH225239   3.499   2.343   1.356
 1227TIP3    H125240   3.471   2.257   1.388
 1227TIP3    H225241   3.459   2.405   1.417
 1228TIP3   OH225242   4.639   5.517   8.313
 1228TIP3    H125243   4.549   5.533   8.283
 1228TIP3    H225244   4.692   5.528   8.234
 1229TIP3   OH225245   3.150   2.363   7.722
 1229TIP3    H125246   3.147   2.398   7.633
 1229TIP3    H225247   3.235   2.319   7.728
 1230TIP3   OH225248   1.094   2.891   1.370
 1230TIP3    H125249   1.166   2.930   1.320
 1230TIP3    H225250   1.022   2.885   1.307
 1231TIP3   OH225251   4.794   4.116   0.120
 1231TIP3    H125252   4.862   4.051   0.102
 1231TIP3    H225253   4.712   4.072   0.098
 1232TIP3   OH225254   6.899   1.781   2.596
 1232TIP3    H125255   6.815   1.806   2.635
 1232TIP3    H225256   0.031   1.864   2.572
 1233TIP3   OH225257   3.960   6.680   0.332
 1233TIP3    H125258   4.010   6.610   0.374
 1233TIP3    H225259   3.949   6.651   0.241
 1234TIP3   OH225260   0.192   6.498   6.935
 1234TIP3    H125261   0.268   6.442   6.952
 1234TIP3    H225262   0.119   6.456   6.980
 1235TIP3   OH225263   2.498   0.903   1.477
 1235TIP3    H125264   2.540   0.981   1.441
 1235TIP3    H225265   2.446   0.869   1.404
 1236TIP3   OH225266   0.545   2.600   0.875
 1236TIP3    H125267   0.588   2.657   0.939
 1236TIP3    H225268   0.611   2.534   0.854
 1237TIP3   OH225269   1.917   6.589   1.292
 1237TIP3    H125270   1.834   6.592   1.340
 1237TIP3    H225271   1.919   6.500   1.255
 1238TIP3   OH225272   2.245   3.659   2.252
 1238TIP3    H125273   2.316   3.721   2.233
 1238TIP3    H225274   2.285   3.595   2.312
 1239TIP3   OH225275   6.633   0.889   8.045
 1239TIP3    H125276   6.559   0.870   7.988
 1239TIP3    H225277   6.638   0.814   8.105
 1240TIP3   OH225278   3.392   5.693   1.796
 1240TIP3    H125279   3.447   5.767   1.821
 1240TIP3    H225280   3.425   5.620   1.847
 1241TIP3   OH225281   1.183   5.303   1.215
 1241TIP3    H125282   1.183   5.224   1.161
 1241TIP3    H225283   1.116   5.286   1.282
 1242TIP3   OH225284   5.491   5.000   7.572
 1242TIP3    H125285   5.431   4.934   7.536
 1242TIP3    H225286   5.524   5.047   7.496
 1243TIP3   OH225287   3.021   6.362   1.350
 1243TIP3    H125288   2.953   6.426   1.368
 1243TIP3    H225289   2.994   6.321   1.268
 1244TIP3   OH225290   3.031   4.502   7.010
 1244TIP3    H125291   3.024   4.533   6.920
 1244TIP3    H225292   2.965   4.553   7.058
 1245TIP3   OH225293   6.342   3.897   8.281
 1245TIP3    H125294   6.301   3.852   8.354
 1245TIP3    H225295   6.323   3.990   8.295
 1246TIP3   OH225296   0.667   5.177   7.224
 1246TIP3    H125297   0.687   5.146   7.313
 1246TIP3    H225298   0.711   5.114   7.166
 1247TIP3   OH225299   3.723   2.724   2.190
 1247TIP3    H125300   3.652   2.757   2.245
 1247TIP3    H225301   3.750   2.642   2.232
 1248TIP3   OH225302   4.048   2.457   0.335
 1248TIP3    H125303   4.040   2.494   0.422
 1248TIP3    H225304   4.004   2.372   0.341
 1249TIP3   OH225305   3.013   0.048   0.775
 1249TIP3    H125306   3.011   0.022   0.683
 1249TIP3    H225307   2.962   0.128   0.779
 1250TIP3   OH225308   4.115   2.723   1.391
 1250TIP3    H125309   4.191   2.780   1.379
 1250TIP3    H225310   4.129   2.652   1.329
 1251TIP3   OH225311   5.812   2.701   8.350
 1251TIP3    H125312   5.824   2.725   8.442
 1251TIP3    H225313   5.879   2.635   8.333
 1252TIP3   OH225314   5.200   3.310   0.192
 1252TIP3    H125315   5.127   3.251   0.171
 1252TIP3    H225316   5.257   3.307   0.115
 1253TIP3   OH225317   2.186   0.871   7.539
 1253TIP3    H125318   2.209   0.960   7.511
 1253TIP3    H225319   2.233   0.859   7.621
 1254TIP3   OH225320   5.125   3.506   8.002
 1254TIP3    H125321   5.056   3.484   8.064
 1254TIP3    H225322   5.176   3.425   7.994
 1255TIP3   OH225323   1.630   4.984   7.807
 1255TIP3    H125324   1.696   5.048   7.834
 1255TIP3    H225325   1.666   4.900   7.835
 1256TIP3   OH225326   6.135   4.241   0.993
 1256TIP3    H125327   6.219   4.198   0.976
 1256TIP3    H225328   6.148   4.331   0.960
 1257TIP3   OH225329   2.526   5.567   8.061
 1257TIP3    H125330   2.621   5.555   8.064
 1257TIP3    H225331   2.512   5.656   8.094
 1258TIP3   OH225332   0.832   1.513   7.471
 1258TIP3    H125333   0.916   1.501   7.426
 1258TIP3    H225334   0.793   1.425   7.472
 1259TIP3   OH225335   4.134   4.119   1.366
 1259TIP3    H125336   4.058   4.123   1.424
 1259TIP3    H225337   4.110   4.054   1.300
 1260TIP3   OH225338   6.117   5.457   0.051
 1260TIP3    H125339   6.044   5.497   0.098
 1260TIP3    H225340   6.080   5.431   8.534
 1261TIP3   OH225341   6.784   2.942   1.967
 1261TIP3    H125342   6.814   2.961   2.056
 1261TIP3    H225343   6.738   2.858   1.975
 1262TIP3   OH225344   5.821   2.639   2.023
 1262TIP3    H125345   5.880   2.586   2.076
 1262TIP3    H225346   5.778   2.697   2.086
 1263TIP3   OH225347   0.936   1.155   7.585
 1263TIP3    H125348   0.934   1.059   7.585
 1263TIP3    H225349   0.860   1.181   7.534
 1264TIP3   OH225350   3.690   4.087   6.821
 1264TIP3    H125351   3.629   4.160   6.807
 1264TIP3    H225352   3.708   4.088   6.915
 1265TIP3   OH225353   2.042   2.079   7.751
 1265TIP3    H125354   2.041   1.998   7.701
 1265TIP3    H225355   2.127   2.080   7.795
 1266TIP3   OH225356   2.512   3.115   7.437
 1266TIP3    H125357   2.498   3.031   7.392
 1266TIP3    H225358   2.426   3.157   7.437
 1267TIP3   OH225359   4.478   0.186   0.884
 1267TIP3    H125360   4.571   0.164   0.888
 1267TIP3    H225361   4.474   0.278   0.908
 1268TIP3   OH225362   0.963   6.659   7.268
 1268TIP3    H125363   1.030   6.706   7.219
 1268TIP3    H225364   0.951   6.711   7.348
 1269TIP3   OH225365   2.605   0.754   8.514
 1269TIP3    H125366   2.653   0.828   8.477
 1269TIP3    H225367   2.673   0.690   8.538
 1270TIP3   OH225368   6.649   6.152   0.456
 1270TIP3    H125369   6.690   6.219   0.402
 1270TIP3    H225370   6.555   6.173   0.455
 1271TIP3   OH225371   0.001   6.666   1.376
 1271TIP3    H125372   0.044   6.629   1.453
 1271TIP3    H225373   6.825   6.694   1.407
 1272TIP3   OH225374   0.593   3.937   8.021
 1272TIP3    H125375   0.667   3.990   8.053
 1272TIP3    H225376   0.583   3.868   8.087
 1273TIP3   OH225377   0.347   4.687   1.295
 1273TIP3    H125378   0.384   4.700   1.208
 1273TIP3    H225379   0.268   4.635   1.280
 1274TIP3   OH225380   4.491   0.208   0.494
 1274TIP3    H125381   4.399   0.228   0.509
 1274TIP3    H225382   4.504   0.122   0.535
 1275TIP3   OH225383   6.062   2.509   0.178
 1275TIP3    H125384   6.019   2.450   0.239
 1275TIP3    H225385   5.998   2.578   0.161
 1276TIP3   OH225386   4.334   4.574   1.366
 1276TIP3    H125387   4.396   4.506   1.390
 1276TIP3    H225388   4.249   4.530   1.368
 1277TIP3   OH225389   6.647   4.063   0.731
 1277TIP3    H125390   6.680   4.139   0.778
 1277TIP3    H225391   6.666   3.989   0.789
 1278TIP3   OH225392   1.012   2.504   7.127
 1278TIP3    H125393   1.058   2.490   7.210
 1278TIP3    H225394   1.079   2.542   7.069
 1279TIP3   OH225395   5.826   3.774   1.170
 1279TIP3    H125396   5.812   3.683   1.197
 1279TIP3    H225397   5.918   3.777   1.144
 1280TIP3   OH225398   2.065   5.842   0.289
 1280TIP3    H125399   2.086   5.752   0.312
 1280TIP3    H225400   2.118   5.895   0.349
 1281TIP3   OH225401   1.051   0.101   1.889
 1281TIP3    H125402   1.131   0.086   1.940
 1281TIP3    H225403   1.003   0.167   1.940
 1282TIP3   OH225404   5.914   1.337   7.054
 1282TIP3    H125405   5.898   1.369   6.965
 1282TIP3    H225406   5.843   1.377   7.106
 1283TIP3   OH225407   0.903   3.458   2.395
 1283TIP3    H125408   0.960   3.511   2.450
 1283TIP3    H225409   0.837   3.422   2.455
 1284TIP3   OH225410   1.465   1.532   7.969
 1284TIP3    H125411   1.521   1.576   8.034
 1284TIP3    H225412   1.395   1.595   7.952
 1285TIP3   OH225413   0.100   6.124   7.587
 1285TIP3    H125414   0.151   6.193   7.629
 1285TIP3    H225415   0.012   6.133   7.624
 1286TIP3   OH225416   6.380   1.400   1.238
 1286TIP3    H125417   6.309   1.463   1.230
 1286TIP3    H225418   6.345   1.320   1.198
 1287TIP3   OH225419   6.743   6.249   7.715
 1287TIP3    H125420   6.688   6.205   7.650
 1287TIP3    H225421   6.734   6.342   7.695
 1288TIP3   OH225422   0.054   5.714   7.087
 1288TIP3    H125423   0.082   5.691   6.999
 1288TIP3    H225424   0.120   5.675   7.145
 1289TIP3   OH225425   3.302   3.978   0.058
 1289TIP3    H125426   3.334   3.912   0.121
 1289TIP3    H225427   3.381   4.007   0.013
 1290TIP3   OH225428   0.279   6.775   7.618
 1290TIP3    H125429   0.310   6.695   7.576
 1290TIP3    H225430   0.210   6.746   7.679
 1291TIP3   OH225431   4.651   1.399   6.063
 1291TIP3    H125432   4.629   1.346   6.140
 1291TIP3    H225433   4.625   1.488   6.087
 1292TIP3   OH225434   4.025   6.240   7.515
 1292TIP3    H125435   4.104   6.240   7.460
 1292TIP3    H225436   4.058   6.232   7.604
 1293TIP3   OH225437   3.994   5.272   6.712
 1293TIP3    H125438   3.907   5.309   6.700
 1293TIP3    H225439   3.980   5.192   6.763
 1294TIP3   OH225440   0.535   2.238   1.447
 1294TIP3    H125441   0.595   2.250   1.520
 1294TIP3    H225442   0.457   2.286   1.472
 1295TIP3   OH225443   5.906   1.127   2.008
 1295TIP3    H125444   5.972   1.065   2.038
 1295TIP3    H225445   5.891   1.185   2.082
 1296TIP3   OH225446   6.863   0.343   7.659
 1296TIP3    H125447   0.028   0.285   7.679
 1296TIP3    H225448   6.902   0.414   7.607
 1297TIP3   OH225449   2.285   0.212   0.948
 1297TIP3    H125450   2.196   0.194   0.917
 1297TIP3    H225451   2.281   0.301   0.982
 1298TIP3   OH225452   4.176   3.986   1.702
 1298TIP3    H125453   4.204   4.077   1.696
 1298TIP3    H225454   4.179   3.965   1.795
 1299TIP3   OH225455   0.888   2.914   1.116
 1299TIP3    H125456   0.879   2.819   1.111
 1299TIP3    H225457   0.797   2.946   1.116
 1300TIP3   OH225458   2.967   6.792   6.836
 1300TIP3    H125459   2.953   6.698   6.841
 1300TIP3    H225460   2.956   6.822   6.927
 1301TIP3   OH225461   1.623   0.499   1.964
 1301TIP3    H125462   1.544   0.500   2.018
 1301TIP3    H225463   1.684   0.557   2.011
 1302TIP3   OH225464   6.651   4.571   0.482
 1302TIP3    H125465   6.590   4.536   0.417
 1302TIP3    H225466   6.661   4.500   0.546
 1303TIP3   OH225467   3.738   2.098   8.519
 1303TIP3    H125468   3.658   2.132   8.480
 1303TIP3    H225469   3.808   2.133   8.464
 1304TIP3   OH225470   6.863   0.783   1.585
 1304TIP3    H125471   6.779   0.754   1.622
 1304TIP3    H225472   6.904   0.832   1.656
 1305TIP3   OH225473   6.013   0.973   6.945
 1305TIP3    H125474   5.929   0.997   6.905
 1305TIP3    H225475   6.007   1.005   7.035
 1306TIP3   OH225476   5.864   5.482   0.158
 1306TIP3    H125477   5.853   5.569   0.120
 1306TIP3    H225478   5.790   5.432   0.124
 1307TIP3   OH225479   1.228   1.744   0.940
 1307TIP3    H125480   1.260   1.662   0.904
 1307TIP3    H225481   1.222   1.804   0.865
 1308TIP3   OH225482   3.063   1.254   8.160
 1308TIP3    H125483   3.085   1.313   8.088
 1308TIP3    H225484   3.091   1.301   8.239
 1309TIP3   OH225485   1.854   0.745   0.628
 1309TIP3    H125486   1.814   0.660   0.607
 1309TIP3    H225487   1.939   0.742   0.585
 1310TIP3   OH225488   6.164   2.108   0.772
 1310TIP3    H125489   6.138   2.031   0.721
 1310TIP3    H225490   6.234   2.077   0.829
 1311TIP3   OH225491   3.765   1.178   1.558
 1311TIP3    H125492   3.820   1.100   1.551
 1311TIP3    H225493   3.735   1.178   1.649
 1312TIP3   OH225494   5.436   1.295   8.478
 1312TIP3    H125495   5.478   1.347   8.409
 1312TIP3    H225496   5.493   1.307   8.554
 1313TIP3   OH225497   1.657   4.403   7.184
 1313TIP3    H125498   1.713   4.445   7.119
 1313TIP3    H225499   1.619   4.475   7.234
 1314TIP3   OH225500   5.795   4.449   6.596
 1314TIP3    H125501   5.829   4.361   6.615
 1314TIP3    H225502   5.861   4.490   6.541
 1315TIP3   OH225503   6.102   4.663   7.387
 1315TIP3    H125504   6.137   4.748   7.359
 1315TIP3    H225505   6.021   4.685   7.432
 1316TIP3   OH225506   1.856   0.510   2.313
 1316TIP3    H125507   1.873   0.421   2.282
 1316TIP3    H225508   1.941   0.553   2.306
 1317TIP3   OH225509   4.188   0.518   7.014
 1317TIP3    H125510   4.246   0.557   6.949
 1317TIP3    H225511   4.238   0.445   7.050
 1318TIP3   OH225512   1.248   0.557   8.552
 1318TIP3    H125513   1.291   0.626   8.502
 1318TIP3    H225514   1.319   0.499   0.011
 1319TIP3   OH225515   0.555   5.282   1.020
 1319TIP3    H125516   0.550   5.374   1.046
 1319TIP3    H225517   0.527   5.233   1.098
 1320TIP3   OH225518   0.002   2.455   2.032
 1320TIP3    H125519   6.890   2.420   1.946
 1320TIP3    H225520   6.837   2.432   2.087
 1321TIP3   OH225521   4.182   2.815   7.864
 1321TIP3    H125522   4.208   2.903   7.834
 1321TIP3    H225523   4.127   2.831   7.940
 1322TIP3   OH225524   6.120   6.453   7.072
 1322TIP3    H125525   6.037   6.496   7.089
 1322TIP3    H225526   6.113   6.420   6.982
 1323TIP3   OH225527   5.810   3.226   0.594
 1323TIP3    H125528   5.750   3.184   0.655
 1323TIP3    H225529   5.811   3.168   0.517
 1324TIP3   OH225530   4.153   6.534   7.618
 1324TIP3    H125531   4.116   6.576   7.696
 1324TIP3    H225532   4.092   6.555   7.548
 1325TIP3   OH225533   3.721   2.890   0.979
 1325TIP3    H125534   3.774   2.880   1.058
 1325TIP3    H225535   3.684   2.803   0.964
 1326TIP3   OH225536   5.533   0.634   8.034
 1326TIP3    H125537   5.543   0.601   8.123
 1326TIP3    H225538   5.621   0.663   8.009
 1327TIP3   OH225539   2.383   2.029   2.367
 1327TIP3    H125540   2.431   2.111   2.367
 1327TIP3    H225541   2.332   2.030   2.448
 1328TIP3   OH225542   3.573   1.513   1.102
 1328TIP3    H125543   3.511   1.564   1.154
 1328TIP3    H225544   3.552   1.422   1.121
 1329TIP3   OH225545   5.292   4.924   8.544
 1329TIP3    H125546   5.360   4.859   8.561
 1329TIP3    H225547   5.330   4.982   8.478
 1330TIP3   OH225548   2.265   2.765   1.387
 1330TIP3    H125549   2.354   2.798   1.399
 1330TIP3    H225550   2.261   2.686   1.441
 1331TIP3   OH225551   0.860   2.738   7.180
 1331TIP3    H125552   0.894   2.663   7.132
 1331TIP3    H225553   0.916   2.811   7.155
 1332TIP3   OH225554   4.563   4.187   7.024
 1332TIP3    H125555   4.594   4.269   6.987
 1332TIP3    H225556   4.481   4.169   6.977
 1333TIP3   OH225557   3.353   4.265   1.364
 1333TIP3    H125558   3.276   4.322   1.376
 1333TIP3    H225559   3.355   4.247   1.270
 1334TIP3   OH225560   1.266   5.081   1.599
 1334TIP3    H125561   1.265   5.002   1.544
 1334TIP3    H225562   1.246   5.049   1.687
 1335TIP3   OH225563   5.705   1.850   0.285
 1335TIP3    H125564   5.618   1.837   0.323
 1335TIP3    H225565   5.762   1.863   0.361
 1336TIP3   OH225566   4.502   1.205   7.198
 1336TIP3    H125567   4.508   1.232   7.290
 1336TIP3    H225568   4.536   1.280   7.148
 1337TIP3   OH225569   4.833   0.911   7.426
 1337TIP3    H125570   4.822   0.993   7.473
 1337TIP3    H225571   4.923   0.884   7.445
 1338TIP3   OH225572   0.123   2.200   2.248
 1338TIP3    H125573   0.130   2.295   2.258
 1338TIP3    H225574   0.106   2.187   2.155
 1339TIP3   OH225575   0.026   6.216   0.016
 1339TIP3    H125576   6.843   6.218   8.557
 1339TIP3    H225577   0.038   6.299   0.063
 1340TIP3   OH225578   6.485   5.795   2.093
 1340TIP3    H125579   6.580   5.785   2.094
 1340TIP3    H225580   6.452   5.707   2.112
 1341TIP3   OH225581   5.305   0.751   6.787
 1341TIP3    H125582   5.279   0.842   6.806
 1341TIP3    H225583   5.223   0.702   6.786
 1342TIP3   OH225584   0.989   2.783   1.617
 1342TIP3    H125585   1.058   2.778   1.683
 1342TIP3    H225586   1.035   2.812   1.538
 1343TIP3   OH225587   4.819   4.334   7.725
 1343TIP3    H125588   4.802   4.270   7.794
 1343TIP3    H225589   4.733   4.366   7.700
 1344TIP3   OH225590   2.785   5.685   1.491
 1344TIP3    H125591   2.700   5.687   1.535
 1344TIP3    H225592   2.846   5.654   1.558
 1345TIP3   OH225593   0.802   2.649   1.136
 1345TIP3    H125594   0.884   2.634   1.184
 1345TIP3    H225595   0.776   2.562   1.105
 1346TIP3   OH225596   1.599   1.502   6.643
 1346TIP3    H125597   1.535   1.525   6.710
 1346TIP3    H225598   1.551   1.444   6.584
 1347TIP3   OH225599   0.977   3.921   0.955
 1347TIP3    H125600   0.914   3.946   0.888
 1347TIP3    H225601   1.055   3.972   0.935
 1348TIP3   OH225602   1.699   6.106   6.508
 1348TIP3    H125603   1.753   6.177   6.473
 1348TIP3    H225604   1.628   6.151   6.555
 1349TIP3   OH225605   4.874   6.806   6.474
 1349TIP3    H125606   4.795   6.756   6.453
 1349TIP3    H225607   4.847   6.864   6.545
 1350TIP3   OH225608   0.155   6.401   1.274
 1350TIP3    H125609   0.131   6.317   1.236
 1350TIP3    H225610   0.082   6.423   1.332
 1351TIP3   OH225611   4.245   5.578   1.074
 1351TIP3    H125612   4.233   5.490   1.111
 1351TIP3    H225613   4.245   5.565   0.979
 1352TIP3   OH225614   2.025   1.458   0.815
 1352TIP3    H125615   2.006   1.532   0.872
 1352TIP3    H225616   2.087   1.405   0.865
 1353TIP3   OH225617   5.992   2.631   1.707
 1353TIP3    H125618   5.906   2.607   1.740
 1353TIP3    H225619   5.974   2.681   1.627
 1354TIP3   OH225620   2.975   5.612   0.382
 1354TIP3    H125621   3.011   5.699   0.400
 1354TIP3    H225622   3.031   5.577   0.313
 1355TIP3   OH225623   1.671   0.236   1.865
 1355TIP3    H125624   1.681   0.331   1.869
 1355TIP3    H225625   1.626   0.213   1.946
 1356TIP3   OH225626   1.630   0.672   2.298
 1356TIP3    H125627   1.645   0.596   2.242
 1356TIP3    H225628   1.715   0.692   2.336
 1357TIP3   OH225629   5.513   1.947   6.362
 1357TIP3    H125630   5.440   2.006   6.380
 1357TIP3    H225631   5.472   1.862   6.348
 1358TIP3   OH225632   4.697   4.620   0.027
 1358TIP3    H125633   4.723   4.533   8.566
 1358TIP3    H225634   4.602   4.615   0.038
 1359TIP3   OH225635   0.288   5.853   6.933
 1359TIP3    H125636   0.305   5.883   6.843
 1359TIP3    H225637   0.309   5.760   6.932
 1360TIP3   OH225638   4.264   5.372   7.439
 1360TIP3    H125639   4.344   5.361   7.388
 1360TIP3    H225640   4.220   5.287   7.432
 1361TIP3   OH225641   2.120   6.183   0.164
 1361TIP3    H125642   2.142   6.205   0.073
 1361TIP3    H225643   2.059   6.110   0.157
 1362TIP3   OH225644   4.954   1.835   6.802
 1362TIP3    H125645   5.046   1.826   6.779
 1362TIP3    H225646   4.907   1.802   6.726
 1363TIP3   OH225647   3.528   6.793   0.135
 1363TIP3    H125648   3.589   6.802   0.208
 1363TIP3    H225649   3.442   6.812   0.172
 1364TIP3   OH225650   5.518   0.604   8.313
 1364TIP3    H125651   5.464   0.648   8.378
 1364TIP3    H225652   5.563   0.534   8.362
 1365TIP3   OH225653   5.384   6.113   2.428
 1365TIP3    H125654   5.299   6.149   2.404
 1365TIP3    H225655   5.372   6.018   2.425
 1366TIP3   OH225656   2.485   3.069   1.203
 1366TIP3    H125657   2.505   2.984   1.243
 1366TIP3    H225658   2.571   3.109   1.187
 1367TIP3   OH225659   5.799   2.395   7.017
 1367TIP3    H125660   5.881   2.426   6.980
 1367TIP3    H225661   5.820   2.309   7.054
 1368TIP3   OH225662   4.403   3.132   8.440
 1368TIP3    H125663   4.314   3.152   8.469
 1368TIP3    H225664   4.415   3.040   8.462
 1369TIP3   OH225665   5.426   5.476   1.591
 1369TIP3    H125666   5.395   5.566   1.598
 1369TIP3    H225667   5.357   5.423   1.632
 1370TIP3   OH225668   1.667   4.493   0.888
 1370TIP3    H125669   1.596   4.437   0.854
 1370TIP3    H225670   1.742   4.434   0.895
 1371TIP3   OH225671   3.186   2.376   8.367
 1371TIP3    H125672   3.166   2.468   8.386
 1371TIP3    H225673   3.227   2.344   8.448
 1372TIP3   OH225674   2.735   1.594   1.578
 1372TIP3    H125675   2.777   1.558   1.501
 1372TIP3    H225676   2.759   1.687   1.577
 1373TIP3   OH225677   1.412   4.710   0.106
 1373TIP3    H125678   1.376   4.703   0.195
 1373TIP3    H225679   1.429   4.803   0.094
 1374TIP3   OH225680   5.863   2.711   1.213
 1374TIP3    H125681   5.840   2.674   1.127
 1374TIP3    H225682   5.880   2.635   1.268
 1375TIP3   OH225683   4.532   5.587   7.851
 1375TIP3    H125684   4.504   5.533   7.777
 1375TIP3    H225685   4.572   5.664   7.812
 1376TIP3   OH225686   3.517   3.845   1.797
 1376TIP3    H125687   3.431   3.879   1.821
 1376TIP3    H225688   3.535   3.884   1.710
 1377TIP3   OH225689   0.108   5.687   8.343
 1377TIP3    H125690   0.027   5.654   8.381
 1377TIP3    H225691   0.146   5.611   8.299
 1378TIP3   OH225692   4.262   0.711   7.186
 1378TIP3    H125693   4.229   0.646   7.124
 1378TIP3    H225694   4.290   0.785   7.132
 1379TIP3   OH225695   2.008   3.397   0.077
 1379TIP3    H125696   2.094   3.432   0.057
 1379TIP3    H225697   1.951   3.430   0.008
 1380TIP3   OH225698   6.169   4.242   0.611
 1380TIP3    H125699   6.247   4.275   0.567
 1380TIP3    H225700   6.169   4.148   0.592
 1381TIP3   OH225701   2.251   2.064   2.604
 1381TIP3    H125702   2.261   2.135   2.668
 1381TIP3    H225703   2.159   2.068   2.579
 1382TIP3   OH225704   4.908   6.601   7.601
 1382TIP3    H125705   4.964   6.554   7.539
 1382TIP3    H225706   4.968   6.655   7.652
 1383TIP3   OH225707   5.625   2.650   0.957
 1383TIP3    H125708   5.693   2.585   0.941
 1383TIP3    H225709   5.590   2.629   1.043
 1384TIP3   OH225710   0.970   2.527   7.937
 1384TIP3    H125711   0.920   2.504   7.859
 1384TIP3    H225712   1.059   2.495   7.918
 1385TIP3   OH225713   3.153   6.315   6.856
 1385TIP3    H125714   3.199   6.259   6.920
 1385TIP3    H225715   3.199   6.300   6.774
 1386TIP3   OH225716   5.543   5.700   0.785
 1386TIP3    H125717   5.560   5.618   0.739
 1386TIP3    H225718   5.511   5.759   0.717
 1387TIP3   OH225719   1.686   0.960   8.096
 1387TIP3    H125720   1.610   0.936   8.044
 1387TIP3    H225721   1.650   0.994   8.178
 1388TIP3   OH225722   3.917   0.049   8.184
 1388TIP3    H125723   3.988   0.099   8.144
 1388TIP3    H225724   3.848   0.113   8.198
 1389TIP3   OH225725   4.914   6.646   2.396
 1389TIP3    H125726   4.883   6.564   2.434
 1389TIP3    H225727   4.968   6.618   2.322
 1390TIP3   OH225728   5.381   3.375   7.518
 1390TIP3    H125729   5.300   3.322   7.521
 1390TIP3    H225730   5.352   3.463   7.542
 1391TIP3   OH225731   6.735   3.098   7.336
 1391TIP3    H125732   6.813   3.087   7.390
 1391TIP3    H225733   6.768   3.124   7.250
 1392TIP3   OH225734   6.892   5.822   7.853
 1392TIP3    H125735   6.884   5.757   7.922
 1392TIP3    H225736   6.883   5.772   7.771
 1393TIP3   OH225737   3.779   1.850   7.305
 1393TIP3    H125738   3.711   1.790   7.337
 1393TIP3    H225739   3.750   1.937   7.334
 1394TIP3   OH225740   3.442   0.369   6.429
 1394TIP3    H125741   3.491   0.298   6.387
 1394TIP3    H225742   3.505   0.442   6.433
 1395TIP3   OH225743   6.356   4.386   0.475
 1395TIP3    H125744   6.428   4.409   0.415
 1395TIP3    H225745   6.356   4.456   0.540
 1396TIP3   OH225746   4.098   0.401   1.711
 1396TIP3    H125747   4.183   0.445   1.705
 1396TIP3    H225748   4.045   0.441   1.642
 1397TIP3   OH225749   2.137   1.270   0.993
 1397TIP3    H125750   2.045   1.248   0.990
 1397TIP3    H225751   2.183   1.189   0.972
 1398TIP3   OH225752   6.450   5.520   1.864
 1398TIP3    H125753   6.442   5.446   1.805
 1398TIP3    H225754   6.395   5.498   1.939
 1399TIP3   OH225755   3.811   1.587   0.282
 1399TIP3    H125756   3.888   1.580   0.339
 1399TIP3    H225757   3.848   1.601   0.195
 1400TIP3   OH225758   2.585   6.539   0.335
 1400TIP3    H125759   2.611   6.604   0.400
 1400TIP3    H225760   2.524   6.585   0.278
 1401TIP3   OH225761   5.032   0.921   2.048
 1401TIP3    H125762   4.964   0.988   2.051
 1401TIP3    H225763   4.989   0.841   2.077
 1402TIP3   OH225764   4.469   2.685   1.282
 1402TIP3    H125765   4.548   2.662   1.233
 1402TIP3    H225766   4.496   2.684   1.374
 1403TIP3   OH225767   5.219   1.237   0.074
 1403TIP3    H125768   5.293   1.230   0.135
 1403TIP3    H225769   5.258   1.273   8.561
 1404TIP3   OH225770   0.355   5.289   0.842
 1404TIP3    H125771   0.292   5.272   0.913
 1404TIP3    H225772   0.435   5.316   0.886
 1405TIP3   OH225773   0.094   2.394   6.823
 1405TIP3    H125774   0.022   2.457   6.812
 1405TIP3    H225775   0.058   2.326   6.879
 1406TIP3   OH225776   4.159   4.309   1.168
 1406TIP3    H125777   4.130   4.366   1.240
 1406TIP3    H225778   4.244   4.275   1.197
 1407TIP3   OH225779   3.754   0.028   0.682
 1407TIP3    H125780   3.830   0.032   0.740
 1407TIP3    H225781   3.785   0.063   0.599
 1408TIP3   OH225782   5.441   0.384   6.764
 1408TIP3    H125783   5.373   0.355   6.704
 1408TIP3    H225784   5.395   0.403   6.846
 1409TIP3   OH225785   1.722   5.742   0.902
 1409TIP3    H125786   1.648   5.683   0.888
 1409TIP3    H225787   1.684   5.830   0.893
 1410TIP3   OH225788   1.188   4.491   6.402
 1410TIP3    H125789   1.165   4.429   6.471
 1410TIP3    H225790   1.104   4.532   6.378
 1411TIP3   OH225791   4.242   1.526   2.025
 1411TIP3    H125792   4.172   1.506   2.087
 1411TIP3    H225793   4.314   1.468   2.049
 1412TIP3   OH225794   3.734   1.576   7.542
 1412TIP3    H125795   3.803   1.626   7.586
 1412TIP3    H225796   3.668   1.642   7.520
 1413TIP3   OH225797   5.049   2.376   7.127
 1413TIP3    H125798   4.979   2.316   7.102
 1413TIP3    H225799   5.021   2.411   7.212
 1414TIP3   OH225800   3.133   0.669   6.965
 1414TIP3    H125801   3.223   0.671   6.933
 1414TIP3    H225802   3.100   0.757   6.951
 1415TIP3   OH225803   6.794   3.090   7.072
 1415TIP3    H125804   6.746   3.135   7.002
 1415TIP3    H225805   6.851   3.029   7.026
 1416TIP3   OH225806   1.117   6.505   0.163
 1416TIP3    H125807   1.097   6.429   0.218
 1416TIP3    H225808   1.189   6.476   0.107
 1417TIP3   OH225809   1.120   4.774   6.570
 1417TIP3    H125810   1.106   4.837   6.499
 1417TIP3    H225811   1.047   4.714   6.564
 1418TIP3   OH225812   3.086   2.278   0.918
 1418TIP3    H125813   3.082   2.323   0.834
 1418TIP3    H225814   3.157   2.214   0.907
 1419TIP3   OH225815   4.025   0.272   1.285
 1419TIP3    H125816   3.997   0.364   1.278
 1419TIP3    H225817   3.946   0.225   1.311
 1420TIP3   OH225818   3.357   0.693   6.760
 1420TIP3    H125819   3.413   0.771   6.753
 1420TIP3    H225820   3.373   0.645   6.678
 1421TIP3   OH225821   1.411   4.466   7.008
 1421TIP3    H125822   1.389   4.399   6.943
 1421TIP3    H225823   1.365   4.438   7.087
 1422TIP3   OH225824   4.680   3.930   0.489
 1422TIP3    H125825   4.616   3.874   0.532
 1422TIP3    H225826   4.639   4.017   0.487
 1423TIP3   OH225827   6.535   4.691   8.459
 1423TIP3    H125828   6.535   4.772   8.509
 1423TIP3    H225829   6.469   4.705   8.390
 1424TIP3   OH225830   6.900   6.337   0.737
 1424TIP3    H125831   0.061   6.320   0.674
 1424TIP3    H225832   6.840   6.263   0.725
 1425TIP3   OH225833   2.179   0.943   8.376
 1425TIP3    H125834   2.093   0.953   8.417
 1425TIP3    H225835   2.201   0.850   8.388
 1426TIP3   OH225836   0.203   2.728   1.578
 1426TIP3    H125837   0.135   2.706   1.641
 1426TIP3    H225838   0.242   2.643   1.555
 1427TIP3   OH225839   4.181   3.781   0.703
 1427TIP3    H125840   4.268   3.818   0.690
 1427TIP3    H225841   4.175   3.766   0.797
 1428TIP3   OH225842   2.284   1.165   1.848
 1428TIP3    H125843   2.311   1.222   1.921
 1428TIP3    H225844   2.191   1.147   1.866
 1429TIP3   OH225845   0.203   2.376   1.836
 1429TIP3    H125846   0.262   2.354   1.764
 1429TIP3    H225847   0.178   2.467   1.820
 1430TIP3   OH225848   0.565   0.215   8.515
 1430TIP3    H125849   0.599   0.227   0.037
 1430TIP3    H225850   0.635   0.246   8.458
 1431TIP3   OH225851   5.361   1.917   0.412
 1431TIP3    H125852   5.325   1.864   0.483
 1431TIP3    H225853   5.341   1.868   0.332
 1432TIP3   OH225854   5.620   3.098   0.764
 1432TIP3    H125855   5.655   3.039   0.831
 1432TIP3    H225856   5.623   3.047   0.683
 1433TIP3   OH225857   4.204   1.501   7.278
 1433TIP3    H125858   4.291   1.488   7.317
 1433TIP3    H225859   4.163   1.567   7.334
 1434TIP3   OH225860   0.561   1.683   7.828
 1434TIP3    H125861   0.615   1.685   7.907
 1434TIP3    H225862   0.516   1.767   7.828
 1435TIP3   OH225863   4.244   6.835   7.798
 1435TIP3    H125864   4.187   6.851   7.874
 1435TIP3    H225865   4.269   0.012   7.768
 1436TIP3   OH225866   1.638   2.753   1.427
 1436TIP3    H125867   1.711   2.758   1.365
 1436TIP3    H225868   1.653   2.671   1.474
 1437TIP3   OH225869   0.356   2.845   6.319
 1437TIP3    H125870   0.322   2.932   6.339
 1437TIP3    H225871   0.310   2.820   6.239
 1438TIP3   OH225872   2.932   4.065   6.259
 1438TIP3    H125873   2.970   4.124   6.193
 1438TIP3    H225874   2.843   4.050   6.228
 1439TIP3   OH225875   5.526   3.506   0.180
 1439TIP3    H125876   5.501   3.539   0.094
 1439TIP3    H225877   5.543   3.584   0.232
 1440TIP3   OH225878   3.851   4.091   6.559
 1440TIP3    H125879   3.778   4.151   6.570
 1440TIP3    H225880   3.883   4.108   6.470
 1441TIP3   OH225881   0.424   4.078   7.342
 1441TIP3    H125882   0.405   3.993   7.302
 1441TIP3    H225883   0.417   4.140   7.270
 1442TIP3   OH225884   6.305   1.881   0.350
 1442TIP3    H125885   6.283   1.800   0.305
 1442TIP3    H225886   6.239   1.944   0.320
 1443TIP3   OH225887   0.210   4.863   7.665
 1443TIP3    H125888   0.284   4.922   7.679
 1443TIP3    H225889   0.158   4.870   7.745
 1444TIP3   OH225890   3.260   6.229   2.050
 1444TIP3    H125891   3.319   6.220   2.126
 1444TIP3    H225892   3.221   6.315   2.061
 1445TIP3   OH225893   4.875   2.096   0.283
 1445TIP3    H125894   4.871   2.167   0.347
 1445TIP3    H225895   4.929   2.029   0.324
 1446TIP3   OH225896   6.791   1.486   8.270
 1446TIP3    H125897   6.717   1.442   8.312
 1446TIP3    H225898   6.861   1.481   8.335
 1447TIP3   OH225899   5.867   1.511   8.289
 1447TIP3    H125900   5.850   1.600   8.318
 1447TIP3    H225901   5.959   1.496   8.312
 1448TIP3   OH225902   2.128   5.743   6.756
 1448TIP3    H125903   2.188   5.771   6.825
 1448TIP3    H225904   2.095   5.658   6.785
 1449TIP3   OH225905   1.509   6.744   0.738
 1449TIP3    H125906   1.508   6.824   0.790
 1449TIP3    H225907   1.502   6.774   0.647
 1450TIP3   OH225908   0.608   0.259   0.568
 1450TIP3    H125909   0.565   0.340   0.597
 1450TIP3    H225910   0.546   0.220   0.507
 1451TIP3   OH225911   2.034   6.002   1.509
 1451TIP3    H125912   2.100   5.977   1.444
 1451TIP3    H225913   2.024   5.924   1.564
 1452TIP3   OH225914   5.224   0.438   6.923
 1452TIP3    H125915   5.249   0.390   7.001
 1452TIP3    H225916   5.136   0.407   6.902
 1453TIP3   OH225917   5.389   2.530   1.521
 1453TIP3    H125918   5.467   2.584   1.537
 1453TIP3    H225919   5.411   2.446   1.561
 1454TIP3   OH225920   1.533   0.292   8.166
 1454TIP3    H125921   1.556   0.222   8.227
 1454TIP3    H225922   1.616   0.338   8.150
 1455TIP3   OH225923   4.992   0.106   2.445
 1455TIP3    H125924   4.995   0.157   2.364
 1455TIP3    H225925   4.993   0.172   2.514
 1456TIP3   OH225926   5.973   0.001   1.530
 1456TIP3    H125927   5.924   6.906   1.612
 1456TIP3    H225928   6.041   0.067   1.547
 1457TIP3   OH225929   1.526   2.583   6.634
 1457TIP3    H125930   1.553   2.625   6.553
 1457TIP3    H225931   1.592   2.515   6.649
 1458TIP3   OH225932   5.746   0.336   2.043
 1458TIP3    H125933   5.790   0.309   2.124
 1458TIP3    H225934   5.774   0.426   2.030
 1459TIP3   OH225935   2.453   3.356   7.825
 1459TIP3    H125936   2.504   3.404   7.890
 1459TIP3    H225937   2.500   3.272   7.816
 1460TIP3   OH225938   4.338   6.764   8.504
 1460TIP3    H125939   4.433   6.771   8.503
 1460TIP3    H225940   4.307   6.854   8.511
 1461TIP3   OH225941   5.565   2.622   1.259
 1461TIP3    H125942   5.562   2.678   1.337
 1461TIP3    H225943   5.583   2.535   1.293
 1462TIP3   OH225944   3.369   2.794   0.880
 1462TIP3    H125945   3.447   2.846   0.899
 1462TIP3    H225946   3.360   2.736   0.956
 1463TIP3   OH225947   4.313   6.634   6.270
 1463TIP3    H125948   4.393   6.606   6.316
 1463TIP3    H225949   4.323   6.599   6.181
 1464TIP3   OH225950   6.409   2.621   7.465
 1464TIP3    H125951   6.322   2.598   7.497
 1464TIP3    H225952   6.447   2.538   7.438
 1465TIP3   OH225953   5.296   5.415   8.306
 1465TIP3    H125954   5.211   5.452   8.283
 1465TIP3    H225955   5.299   5.331   8.260
 1466TIP3   OH225956   6.365   0.469   1.891
 1466TIP3    H125957   6.382   0.544   1.834
 1466TIP3    H225958   6.443   0.462   1.946
 1467TIP3   OH225959   5.667   4.053   7.992
 1467TIP3    H125960   5.669   4.004   7.910
 1467TIP3    H225961   5.733   4.122   7.981
 1468TIP3   OH225962   0.292   0.186   6.491
 1468TIP3    H125963   0.214   0.237   6.512
 1468TIP3    H225964   0.258   0.104   6.455
 1469TIP3   OH225965   0.497   3.223   1.639
 1469TIP3    H125966   0.551   3.298   1.663
 1469TIP3    H225967   0.507   3.214   1.544
 1470TIP3   OH225968   0.881   0.539   7.708
 1470TIP3    H125969   0.814   0.498   7.763
 1470TIP3    H225970   0.936   0.588   7.769
 1471TIP3   OH225971   1.531   0.180   8.421
 1471TIP3    H125972   1.448   0.169   8.466
 1471TIP3    H225973   1.583   0.104   8.446
 1472TIP3   OH225974   3.547   1.837   1.151
 1472TIP3    H125975   3.463   1.882   1.163
 1472TIP3    H225976   3.576   1.818   1.240
 1473TIP3   OH225977   2.427   2.708   2.345
 1473TIP3    H125978   2.445   2.703   2.251
 1473TIP3    H225979   2.332   2.706   2.352
 1474TIP3   OH225980   2.092   1.818   8.303
 1474TIP3    H125981   2.109   1.873   8.379
 1474TIP3    H225982   2.020   1.762   8.329
 1475TIP3   OH225983   0.649   0.418   1.859
 1475TIP3    H125984   0.634   0.483   1.791
 1475TIP3    H225985   0.567   0.416   1.908
 1476TIP3   OH225986   6.579   2.755   1.569
 1476TIP3    H125987   6.506   2.694   1.554
 1476TIP3    H225988   6.657   2.701   1.562
 1477TIP3   OH225989   0.659   6.828   0.217
 1477TIP3    H125990   0.581   6.843   0.271
 1477TIP3    H225991   0.632   6.760   0.156
 1478TIP3   OH225992   0.826   3.630   1.298
 1478TIP3    H125993   0.773   3.551   1.305
 1478TIP3    H225994   0.842   3.656   1.389
 1479TIP3   OH225995   2.751   2.723   0.652
 1479TIP3    H125996   2.828   2.751   0.601
 1479TIP3    H225997   2.693   2.799   0.650
 1480TIP3   OH225998   6.486   0.442   7.830
 1480TIP3    H125999   6.450   0.358   7.804
 1480TIP3    H226000   6.574   0.422   7.861
 1481TIP3   OH226001   1.374   2.382   6.874
 1481TIP3    H126002   1.318   2.451   6.909
 1481TIP3    H226003   1.314   2.318   6.837
 1482TIP3   OH226004   0.536   5.550   6.776
 1482TIP3    H126005   0.442   5.541   6.792
 1482TIP3    H226006   0.544   5.565   6.682
 1483TIP3   OH226007   4.596   0.915   8.344
 1483TIP3    H126008   4.627   0.824   8.346
 1483TIP3    H226009   4.652   0.958   8.281
 1484TIP3   OH226010   4.686   3.171   8.438
 1484TIP3    H126011   4.667   3.195   8.347
 1484TIP3    H226012   4.605   3.130   8.469
 1485TIP3   OH226013   1.894   2.006   0.507
 1485TIP3    H126014   1.961   1.997   0.440
 1485TIP3    H226015   1.905   1.930   0.564
 1486TIP3   OH226016   2.741   1.371   0.886
 1486TIP3    H126017   2.677   1.314   0.843
 1486TIP3    H226018   2.715   1.459   0.860
 1487TIP3   OH226019   4.399   6.466   0.939
 1487TIP3    H126020   4.407   6.416   0.857
 1487TIP3    H226021   4.315   6.510   0.932
 1488TIP3   OH226022   2.232   5.426   0.720
 1488TIP3    H126023   2.319   5.410   0.684
 1488TIP3    H226024   2.243   5.500   0.778
 1489TIP3   OH226025   2.605   3.449   6.724
 1489TIP3    H126026   2.680   3.423   6.671
 1489TIP3    H226027   2.556   3.509   6.668
 1490TIP3   OH226028   3.735   3.900   8.009
 1490TIP3    H126029   3.654   3.848   8.009
 1490TIP3    H226030   3.801   3.841   8.045
 1491TIP3   OH226031   5.013   1.980   8.041
 1491TIP3    H126032   5.022   1.888   8.066
 1491TIP3    H226033   5.102   2.015   8.045
 1492TIP3   OH226034   4.420   6.484   7.332
 1492TIP3    H126035   4.481   6.448   7.268
 1492TIP3    H226036   4.476   6.527   7.397
 1493TIP3   OH226037   4.066   4.843   8.411
 1493TIP3    H126038   4.105   4.837   8.324
 1493TIP3    H226039   4.129   4.800   8.469
 1494TIP3   OH226040   5.766   2.785   1.785
 1494TIP3    H126041   5.818   2.760   1.861
 1494TIP3    H226042   5.712   2.858   1.815
 1495TIP3   OH226043   4.507   4.054   6.328
 1495TIP3    H126044   4.533   3.962   6.336
 1495TIP3    H226045   4.489   4.066   6.235
 1496TIP3   OH226046   1.505   0.860   6.830
 1496TIP3    H126047   1.544   0.885   6.914
 1496TIP3    H226048   1.465   0.941   6.798
 1497TIP3   OH226049   6.670   6.362   6.039
 1497TIP3    H126050   6.577   6.370   6.061
 1497TIP3    H226051   6.682   6.268   6.022
 1498TIP3   OH226052   1.384   0.002   7.920
 1498TIP3    H126053   1.323   6.863   7.864
 1498TIP3    H226054   1.336   0.012   8.003
 1499TIP3   OH226055   2.909   2.958   6.593
 1499TIP3    H126056   2.859   2.940   6.513
 1499TIP3    H226057   2.998   2.930   6.573
 1500TIP3   OH226058   4.528   5.295   1.063
 1500TIP3    H126059   4.587   5.308   1.137
 1500TIP3    H226060   4.441   5.288   1.103
 1501TIP3   OH226061   1.912   3.636   0.860
 1501TIP3    H126062   1.936   3.617   0.950
 1501TIP3    H226063   1.900   3.550   0.819
 1502TIP3   OH226064   5.505   1.489   1.165
 1502TIP3    H126065   5.496   1.566   1.108
 1502TIP3    H226066   5.572   1.514   1.228
 1503TIP3   OH226067   3.641   0.633   6.900
 1503TIP3    H126068   3.722   0.586   6.881
 1503TIP3    H226069   3.655   0.721   6.866
 1504TIP3   OH226070   0.753   0.441   0.003
 1504TIP3    H126071   0.837   0.449   8.525
 1504TIP3    H226072   0.708   0.523   8.550
 1505TIP3   OH226073   6.404   3.241   1.158
 1505TIP3    H126074   6.387   3.153   1.124
 1505TIP3    H226075   6.343   3.251   1.231
 1506TIP3   OH226076   6.775   4.727   1.994
 1506TIP3    H126077   6.815   4.712   1.908
 1506TIP3    H226078   6.837   4.687   2.056
 1507TIP3   OH226079   3.554   4.546   8.382
 1507TIP3    H126080   3.633   4.598   8.397
 1507TIP3    H226081   3.567   4.466   8.432
 1508TIP3   OH226082   3.625   0.519   1.495
 1508TIP3    H126083   3.591   0.535   1.407
 1508TIP3    H226084   3.571   0.574   1.552
 1509TIP3   OH226085   6.536   0.199   0.348
 1509TIP3    H126086   6.566   0.277   0.396
 1509TIP3    H226087   6.462   0.167   0.400
 1510TIP3   OH226088   3.608   4.806   7.889
 1510TIP3    H126089   3.578   4.776   7.975
 1510TIP3    H226090   3.672   4.874   7.908
 1511TIP3   OH226091   5.455   6.492   7.118
 1511TIP3    H126092   5.551   6.499   7.115
 1511TIP3    H226093   5.439   6.398   7.112
 1512TIP3   OH226094   5.860   0.724   7.216
 1512TIP3    H126095   5.837   0.736   7.124
 1512TIP3    H226096   5.780   0.745   7.264
 1513TIP3   OH226097   1.735   6.588   7.728
 1513TIP3    H126098   1.699   6.616   7.813
 1513TIP3    H226099   1.815   6.639   7.718
 1514TIP3   OH226100   4.012   1.348   8.153
 1514TIP3    H126101   4.003   1.282   8.222
 1514TIP3    H226102   3.937   1.334   8.096
 1515TIP3   OH226103   2.053   3.092   6.880
 1515TIP3    H126104   2.012   3.146   6.812
 1515TIP3    H226105   2.078   3.011   6.835
 1516TIP3   OH226106   2.838   1.125   0.053
 1516TIP3    H126107   2.810   1.085   8.537
 1516TIP3    H226108   2.895   1.060   0.093
 1517TIP3   OH226109   1.671   3.675   1.771
 1517TIP3    H126110   1.743   3.618   1.747
 1517TIP3    H226111   1.685   3.694   1.864
 1518TIP3   OH226112   2.723   1.283   0.302
 1518TIP3    H126113   2.804   1.233   0.297
 1518TIP3    H226114   2.656   1.224   0.267
 1519TIP3   OH226115   5.635   2.480   0.469
 1519TIP3    H126116   5.556   2.458   0.519
 1519TIP3    H226117   5.701   2.496   0.536
 1520TIP3   OH226118   6.195   6.834   6.810
 1520TIP3    H126119   6.121   6.775   6.799
 1520TIP3    H226120   6.156   0.011   6.821
 1521TIP3   OH226121   2.136   2.719   1.702
 1521TIP3    H126122   2.105   2.726   1.793
 1521TIP3    H226123   2.190   2.798   1.689
 1522TIP3   OH226124   4.826   2.900   6.268
 1522TIP3    H126125   4.819   2.860   6.181
 1522TIP3    H226126   4.777   2.841   6.325
 1523TIP3   OH226127   3.020   1.775   1.624
 1523TIP3    H126128   2.930   1.806   1.634
 1523TIP3    H226129   3.026   1.699   1.682
 1524TIP3   OH226130   1.993   4.201   6.273
 1524TIP3    H126131   1.912   4.150   6.266
 1524TIP3    H226132   1.963   4.290   6.294
 1525TIP3   OH226133   1.946   4.900   7.231
 1525TIP3    H126134   1.871   4.903   7.290
 1525TIP3    H226135   1.976   4.809   7.233
 1526TIP3   OH226136   6.658   6.139   1.589
 1526TIP3    H126137   6.565   6.153   1.572
 1526TIP3    H226138   6.661   6.095   1.674
 1527TIP3   OH226139   2.357   2.088   7.768
 1527TIP3    H126140   2.390   2.040   7.844
 1527TIP3    H226141   2.434   2.126   7.727
 1528TIP3   OH226142   4.738   3.232   1.469
 1528TIP3    H126143   4.767   3.308   1.419
 1528TIP3    H226144   4.816   3.203   1.517
 1529TIP3   OH226145   0.008   5.200   1.768
 1529TIP3    H126146   0.022   5.260   1.840
 1529TIP3    H226147   6.836   5.230   1.727
 1530TIP3   OH226148   1.340   6.331   8.089
 1530TIP3    H126149   1.380   6.258   8.041
 1530TIP3    H226150   1.306   6.389   8.021
 1531TIP3   OH226151   0.038   0.810   7.643
 1531TIP3    H126152   0.037   0.842   7.733
 1531TIP3    H226153   0.041   0.889   7.589
 1532TIP3   OH226154   5.046   4.074   1.468
 1532TIP3    H126155   5.085   4.086   1.555
 1532TIP3    H226156   5.094   4.001   1.430
 1533TIP3   OH226157   2.551   5.900   0.966
 1533TIP3    H126158   2.540   5.836   0.896
 1533TIP3    H226159   2.540   5.850   1.046
 1534TIP3   OH226160   5.379   1.769   1.618
 1534TIP3    H126161   5.412   1.757   1.707
 1534TIP3    H226162   5.329   1.851   1.621
 1535TIP3   OH226163   4.265   1.927   8.369
 1535TIP3    H126164   4.258   1.979   8.289
 1535TIP3    H226165   4.354   1.942   8.399
 1536TIP3   OH226166   1.197   2.159   7.235
 1536TIP3    H126167   1.283   2.124   7.258
 1536TIP3    H226168   1.195   2.246   7.275
 1537TIP3   OH226169   6.129   4.742   7.995
 1537TIP3    H126170   6.149   4.651   8.014
 1537TIP3    H226171   6.037   4.752   8.021
 1538TIP3   OH226172   1.108   1.722   1.368
 1538TIP3    H126173   1.068   1.774   1.436
 1538TIP3    H226174   1.104   1.777   1.289
 1539TIP3   OH226175   3.320   3.719   0.704
 1539TIP3    H126176   3.375   3.709   0.782
 1539TIP3    H226177   3.346   3.647   0.647
 1540TIP3   OH226178   1.201   5.258   0.365
 1540TIP3    H126179   1.145   5.257   0.443
 1540TIP3    H226180   1.198   5.168   0.332
 1541TIP3   OH226181   2.841   6.449   0.016
 1541TIP3    H126182   2.860   6.424   0.107
 1541TIP3    H226183   2.774   6.517   0.023
 1542TIP3   OH226184   1.887   4.007   7.978
 1542TIP3    H126185   1.947   4.019   8.052
 1542TIP3    H226186   1.881   3.912   7.968
 1543TIP3   OH226187   0.311   0.371   7.572
 1543TIP3    H126188   0.240   0.435   7.572
 1543TIP3    H226189   0.377   0.408   7.514
 1544TIP3   OH226190   4.014   2.447   0.632
 1544TIP3    H126191   4.064   2.365   0.635
 1544TIP3    H226192   3.940   2.432   0.691
 1545TIP3   OH226193   6.290   1.929   8.293
 1545TIP3    H126194   6.334   1.853   8.330
 1545TIP3    H226195   6.353   1.966   8.232
 1546TIP3   OH226196   1.350   5.760   0.477
 1546TIP3    H126197   1.336   5.854   0.480
 1546TIP3    H226198   1.263   5.722   0.490
 1547TIP3   OH226199   0.151   5.221   7.444
 1547TIP3    H126200   0.073   5.240   7.391
 1547TIP3    H226201   0.199   5.304   7.445
 1548TIP3   OH226202   5.005   2.848   1.708
 1548TIP3    H126203   5.061   2.790   1.657
 1548TIP3    H226204   5.053   2.864   1.789
 1549TIP3   OH226205   2.976   3.908   6.594
 1549TIP3    H126206   3.033   3.906   6.671
 1549TIP3    H226207   2.888   3.894   6.630
 1550TIP3   OH226208   4.006   5.974   0.262
 1550TIP3    H126209   4.032   6.056   0.306
 1550TIP3    H226210   4.054   5.906   0.309
 1551TIP3   OH226211   2.176   6.386   7.938
 1551TIP3    H126212   2.157   6.394   7.845
 1551TIP3    H226213   2.117   6.449   7.980
 1552TIP3   OH226214   3.226   3.685   0.053
 1552TIP3    H126215   3.141   3.729   0.058
 1552TIP3    H226216   3.268   3.703   0.137
 1553TIP3   OH226217   1.467   5.961   2.478
 1553TIP3    H126218   1.551   5.946   2.521
 1553TIP3    H226219   1.472   6.050   2.445
 1554TIP3   OH226220   3.926   0.506   8.291
 1554TIP3    H126221   4.015   0.484   8.262
 1554TIP3    H226222   3.936   0.529   8.383
 1555TIP3   OH226223   6.400   5.324   1.603
 1555TIP3    H126224   6.334   5.302   1.669
 1555TIP3    H226225   6.380   5.266   1.529
 1556TIP3   OH226226   2.732   1.943   8.131
 1556TIP3    H126227   2.795   1.872   8.143
 1556TIP3    H226228   2.781   2.022   8.153
 1557TIP3   OH226229   6.525   2.401   8.350
 1557TIP3    H126230   6.489   2.378   8.435
 1557TIP3    H226231   6.614   2.365   8.350
 1558TIP3   OH226232   6.403   1.739   1.072
 1558TIP3    H126233   6.379   1.687   1.148
 1558TIP3    H226234   6.428   1.675   1.005
 1559TIP3   OH226235   4.538   4.310   8.384
 1559TIP3    H126236   4.469   4.348   8.330
 1559TIP3    H226237   4.509   4.220   8.400
 1560TIP3   OH226238   2.781   5.316   7.998
 1560TIP3    H126239   2.780   5.336   8.091
 1560TIP3    H226240   2.862   5.356   7.966
 1561TIP3   OH226241   5.896   4.622   0.931
 1561TIP3    H126242   5.956   4.659   0.866
 1561TIP3    H226243   5.812   4.662   0.911
 1562TIP3   OH226244   4.835   2.180   7.154
 1562TIP3    H126245   4.774   2.119   7.113
 1562TIP3    H226246   4.780   2.237   7.208
 1563TIP3   OH226247   5.216   1.900   1.262
 1563TIP3    H126248   5.296   1.941   1.296
 1563TIP3    H226249   5.232   1.891   1.168
 1564TIP3   OH226250   3.932   2.370   1.596
 1564TIP3    H126251   3.985   2.384   1.675
 1564TIP3    H226252   3.995   2.343   1.530
 1565TIP3   OH226253   1.455   4.480   7.861
 1565TIP3    H126254   1.538   4.436   7.881
 1565TIP3    H226255   1.388   4.420   7.894
 1566TIP3   OH226256   5.765   4.293   0.232
 1566TIP3    H126257   5.826   4.271   0.302
 1566TIP3    H226258   5.812   4.357   0.179
 1567TIP3   OH226259   5.564   6.138   6.967
 1567TIP3    H126260   5.492   6.077   6.953
 1567TIP3    H226261   5.547   6.209   6.906
 1568TIP3   OH226262   0.430   3.565   7.372
 1568TIP3    H126263   0.445   3.507   7.447
 1568TIP3    H226264   0.339   3.549   7.347
 1569TIP3   OH226265   2.254   0.030   6.832
 1569TIP3    H126266   2.345   0.039   6.860
 1569TIP3    H226267   2.205   0.091   6.887
 1570TIP3   OH226268   5.882   2.700   7.995
 1570TIP3    H126269   5.906   2.663   8.079
 1570TIP3    H226270   5.921   2.641   7.930
 1571TIP3   OH226271   2.319   3.829   7.145
 1571TIP3    H126272   2.311   3.733   7.139
 1571TIP3    H226273   2.406   3.847   7.108
 1572TIP3   OH226274   2.055   1.894   1.202
 1572TIP3    H126275   1.992   1.876   1.272
 1572TIP3    H226276   2.072   1.988   1.210
 1573TIP3   OH226277   1.504   2.732   6.364
 1573TIP3    H126278   1.474   2.760   6.278
 1573TIP3    H226279   1.550   2.808   6.399
 1574TIP3   OH226280   4.420   4.600   8.250
 1574TIP3    H126281   4.392   4.638   8.334
 1574TIP3    H226282   4.510   4.629   8.240
 1575TIP3   OH226283   4.878   6.583   2.016
 1575TIP3    H126284   4.926   6.656   2.055
 1575TIP3    H226285   4.945   6.516   2.000
 1576TIP3   OH226286   3.624   4.659   6.534
 1576TIP3    H126287   3.542   4.636   6.578
 1576TIP3    H226288   3.686   4.593   6.564
 1577TIP3   OH226289   4.421   3.884   1.016
 1577TIP3    H126290   4.329   3.900   0.996
 1577TIP3    H226291   4.419   3.833   1.097
 1578TIP3   OH226292   1.446   4.357   0.807
 1578TIP3    H126293   1.399   4.423   0.756
 1578TIP3    H226294   1.447   4.279   0.751
 1579TIP3   OH226295   0.991   0.953   0.232
 1579TIP3    H126296   1.002   0.877   0.174
 1579TIP3    H226297   0.996   0.916   0.320
 1580TIP3   OH226298   0.903   1.894   0.825
 1580TIP3    H126299   0.983   1.842   0.812
 1580TIP3    H226300   0.840   1.832   0.862
 1581TIP3   OH226301   2.123   4.180   0.211
 1581TIP3    H126302   2.103   4.183   0.305
 1581TIP3    H226303   2.219   4.175   0.207
 1582TIP3   OH226304   6.151   3.506   1.793
 1582TIP3    H126305   6.061   3.491   1.764
 1582TIP3    H226306   6.148   3.489   1.888
 1583TIP3   OH226307   6.151   3.649   7.004
 1583TIP3    H126308   6.103   3.708   6.947
 1583TIP3    H226309   6.173   3.703   7.081
 1584TIP3   OH226310   5.112   1.190   7.616
 1584TIP3    H126311   5.169   1.230   7.682
 1584TIP3    H226312   5.161   1.199   7.534
 1585TIP3   OH226313   3.760   2.539   1.951
 1585TIP3    H126314   3.718   2.536   1.865
 1585TIP3    H226315   3.787   2.448   1.967
 1586TIP3   OH226316   4.717   0.920   0.369
 1586TIP3    H126317   4.649   0.859   0.397
 1586TIP3    H226318   4.688   0.952   0.284
 1587TIP3   OH226319   4.322   5.928   6.522
 1587TIP3    H126320   4.347   5.980   6.445
 1587TIP3    H226321   4.362   5.975   6.596
 1588TIP3   OH226322   1.050   3.013   0.758
 1588TIP3    H126323   1.011   2.932   0.791
 1588TIP3    H226324   1.136   2.987   0.726
 1589TIP3   OH226325   6.716   0.068   1.118
 1589TIP3    H126326   6.692   6.893   1.080
 1589TIP3    H226327   6.687   0.132   1.054
 1590TIP3   OH226328   1.397   1.239   0.386
 1590TIP3    H126329   1.483   1.277   0.407
 1590TIP3    H226330   1.344   1.314   0.360
 1591TIP3   OH226331   3.054   6.877   7.109
 1591TIP3    H126332   3.092   0.026   7.176
 1591TIP3    H226333   3.055   6.791   7.150
 1592TIP3   OH226334   4.327   2.665   0.581
 1592TIP3    H126335   4.285   2.716   0.650
 1592TIP3    H226336   4.309   2.714   0.501
 1593TIP3   OH226337   4.284   2.904   1.251
 1593TIP3    H126338   4.300   2.991   1.286
 1593TIP3    H226339   4.368   2.859   1.258
 1594TIP3   OH226340   5.895   3.440   1.726
 1594TIP3    H126341   5.809   3.474   1.750
 1594TIP3    H226342   5.879   3.348   1.705
 1595TIP3   OH226343   4.154   5.132   0.136
 1595TIP3    H126344   4.211   5.148   0.211
 1595TIP3    H226345   4.065   5.140   0.172
 1596TIP3   OH226346   0.727   5.395   0.007
 1596TIP3    H126347   0.758   5.413   0.096
 1596TIP3    H226348   0.751   5.303   8.559
 1597TIP3   OH226349   5.554   0.089   0.814
 1597TIP3    H126350   5.648   0.079   0.829
 1597TIP3    H226351   5.529   0.010   0.765
 1598TIP3   OH226352   4.707   1.533   6.805
 1598TIP3    H126353   4.719   1.626   6.786
 1598TIP3    H226354   4.630   1.508   6.753
 1599TIP3   OH226355   4.408   1.640   1.597
 1599TIP3    H126356   4.369   1.637   1.509
 1599TIP3    H226357   4.410   1.549   1.625
 1600TIP3   OH226358   6.402   6.863   0.403
 1600TIP3    H126359   6.333   0.018   0.388
 1600TIP3    H226360   6.417   6.823   0.317
 1601TIP3   OH226361   4.016   5.645   1.465
 1601TIP3    H126362   4.042   5.554   1.476
 1601TIP3    H226363   4.068   5.677   1.391
 1602TIP3   OH226364   2.935   4.927   6.185
 1602TIP3    H126365   2.852   4.907   6.228
 1602TIP3    H226366   2.915   5.000   6.127
 1603TIP3   OH226367   0.992   0.491   8.434
 1603TIP3    H126368   0.981   0.499   8.339
 1603TIP3    H226369   1.087   0.500   8.447
 1604TIP3   OH226370   1.457   3.492   1.014
 1604TIP3    H126371   1.537   3.446   1.041
 1604TIP3    H226372   1.403   3.424   0.974
 1605TIP3   OH226373   3.077   3.716   7.220
 1605TIP3    H126374   3.166   3.700   7.189
 1605TIP3    H226375   3.022   3.707   7.143
 1606TIP3   OH226376   5.620   6.473   0.138
 1606TIP3    H126377   5.700   6.420   0.144
 1606TIP3    H226378   5.560   6.418   0.088
 1607TIP3   OH226379   3.435   2.713   1.141
 1607TIP3    H126380   3.470   2.793   1.178
 1607TIP3    H226381   3.379   2.677   1.209
 1608TIP3   OH226382   6.891   1.015   7.474
 1608TIP3    H126383   6.803   1.054   7.482
 1608TIP3    H226384   6.883   0.956   7.399
 1609TIP3   OH226385   4.641   2.067   0.954
 1609TIP3    H126386   4.736   2.063   0.952
 1609TIP3    H226387   4.617   2.040   1.043
 1610TIP3   OH226388   1.984   1.524   0.190
 1610TIP3    H126389   1.896   1.537   0.223
 1610TIP3    H226390   2.039   1.521   0.268
 1611TIP3   OH226391   4.367   4.197   6.146
 1611TIP3    H126392   4.303   4.135   6.179
 1611TIP3    H226393   4.316   4.258   6.091
 1612TIP3   OH226394   4.324   0.457   0.677
 1612TIP3    H126395   4.392   0.452   0.744
 1612TIP3    H226396   4.344   0.537   0.629
 1613TIP3   OH226397   1.894   0.015   7.364
 1613TIP3    H126398   1.854   6.846   7.328
 1613TIP3    H226399   1.839   0.087   7.333
 1614TIP3   OH226400   0.181   1.074   1.662
 1614TIP3    H126401   0.193   0.995   1.715
 1614TIP3    H226402   0.145   1.138   1.723
 1615TIP3   OH226403   6.283   5.583   0.348
 1615TIP3    H126404   6.339   5.507   0.357
 1615TIP3    H226405   6.194   5.550   0.362
 1616TIP3   OH226406   0.037   1.987   7.087
 1616TIP3    H126407   0.005   2.067   7.046
 1616TIP3    H226408   0.024   1.920   7.019
 1617TIP3   OH226409   4.967   4.388   8.403
 1617TIP3    H126410   4.886   4.400   8.452
 1617TIP3    H226411   5.032   4.442   8.448
 1618TIP3   OH226412   4.107   2.339   1.394
 1618TIP3    H126413   4.140   2.415   1.347
 1618TIP3    H226414   4.146   2.264   1.348
 1619TIP3   OH226415   5.869   5.309   1.220
 1619TIP3    H126416   5.852   5.237   1.160
 1619TIP3    H226417   5.847   5.388   1.169
 1620TIP3   OH226418   6.481   6.395   2.331
 1620TIP3    H126419   6.387   6.379   2.335
 1620TIP3    H226420   6.491   6.487   2.353
 1621TIP3   OH226421   1.127   0.109   1.396
 1621TIP3    H126422   1.153   0.096   1.488
 1621TIP3    H226423   1.034   0.088   1.395
 1622TIP3   OH226424   3.326   4.887   7.776
 1622TIP3    H126425   3.420   4.894   7.791
 1622TIP3    H226426   3.297   4.821   7.840
 1623TIP3   OH226427   5.967   1.293   7.355
 1623TIP3    H126428   5.942   1.229   7.289
 1623TIP3    H226429   5.998   1.241   7.429
 1624TIP3   OH226430   3.663   0.072   2.246
 1624TIP3    H126431   3.657   0.167   2.249
 1624TIP3    H226432   3.591   0.041   2.301
 1625TIP3   OH226433   3.559   4.811   6.824
 1625TIP3    H126434   3.531   4.719   6.823
 1625TIP3    H226435   3.480   4.859   6.850
 1626TIP3   OH226436   3.433   4.797   7.447
 1626TIP3    H126437   3.363   4.853   7.413
 1626TIP3    H226438   3.446   4.730   7.380
 1627TIP3   OH226439   4.156   2.725   6.621
 1627TIP3    H126440   4.250   2.741   6.622
 1627TIP3    H226441   4.147   2.634   6.595
 1628TIP3   OH226442   6.860   2.333   7.668
 1628TIP3    H126443   6.819   2.418   7.649
 1628TIP3    H226444   0.028   2.331   7.613
 1629TIP3   OH226445   5.621   2.577   6.864
 1629TIP3    H126446   5.674   2.509   6.905
 1629TIP3    H226447   5.543   2.531   6.833
 1630TIP3   OH226448   0.774   5.854   0.579
 1630TIP3    H126449   0.734   5.924   0.527
 1630TIP3    H226450   0.717   5.844   0.655
 1631TIP3   OH226451   5.008   3.726   6.607
 1631TIP3    H126452   4.998   3.819   6.589
 1631TIP3    H226453   4.942   3.684   6.553
 1632TIP3   OH226454   1.320   5.729   6.029
 1632TIP3    H126455   1.385   5.660   6.019
 1632TIP3    H226456   1.335   5.788   5.955
 1633TIP3   OH226457   2.885   3.014   6.868
 1633TIP3    H126458   2.860   3.000   6.777
 1633TIP3    H226459   2.961   3.072   6.864
 1634TIP3   OH226460   5.353   1.951   7.293
 1634TIP3    H126461   5.289   2.021   7.278
 1634TIP3    H226462   5.319   1.876   7.244
 1635TIP3   OH226463   3.957   0.552   8.565
 1635TIP3    H126464   3.911   0.468   0.001
 1635TIP3    H226465   3.958   0.582   0.088
 1636TIP3   OH226466   1.954   2.328   1.558
 1636TIP3    H126467   1.896   2.255   1.537
 1636TIP3    H226468   1.938   2.346   1.650
 1637TIP3   OH226469   5.559   2.276   0.311
 1637TIP3    H126470   5.640   2.226   0.310
 1637TIP3    H226471   5.583   2.360   0.349
 1638TIP3   OH226472   3.030   1.008   0.187
 1638TIP3    H126473   3.121   1.038   0.180
 1638TIP3    H226474   3.036   0.922   0.227
 1639TIP3   OH226475   1.745   6.449   7.291
 1639TIP3    H126476   1.835   6.416   7.291
 1639TIP3    H226477   1.704   6.408   7.367
 1640TIP3   OH226478   1.080   2.381   6.788
 1640TIP3    H126479   1.049   2.372   6.698
 1640TIP3    H226480   1.027   2.319   6.838
 1641TIP3   OH226481   3.491   4.073   8.437
 1641TIP3    H126482   3.574   4.120   8.434
 1641TIP3    H226483   3.427   4.135   8.402
 1642TIP3   OH226484   0.003   5.983   6.393
 1642TIP3    H126485   0.079   6.042   6.395
 1642TIP3    H226486   0.012   5.936   6.310
 1643TIP3   OH226487   3.830   2.467   7.291
 1643TIP3    H126488   3.876   2.484   7.373
 1643TIP3    H226489   3.760   2.533   7.288
 1644TIP3   OH226490   1.770   5.335   1.456
 1644TIP3    H126491   1.683   5.325   1.493
 1644TIP3    H226492   1.760   5.314   1.363
 1645TIP3   OH226493   0.011   4.060   2.435
 1645TIP3    H126494   6.889   3.978   2.398
 1645TIP3    H226495   6.905   4.126   2.367
 1646TIP3   OH226496   2.931   4.395   6.290
 1646TIP3    H126497   2.980   4.354   6.219
 1646TIP3    H226498   2.953   4.343   6.367
 1647TIP3   OH226499   6.480   5.905   1.510
 1647TIP3    H126500   6.470   5.852   1.589
 1647TIP3    H226501   6.423   5.981   1.525
 1648TIP3   OH226502   2.479   2.113   8.337
 1648TIP3    H126503   2.432   2.175   8.281
 1648TIP3    H226504   2.549   2.165   8.377
 1649TIP3   OH226505   4.286   5.338   1.218
 1649TIP3    H126506   4.228   5.396   1.268
 1649TIP3    H226507   4.336   5.291   1.285
 1650TIP3   OH226508   2.585   6.019   6.756
 1650TIP3    H126509   2.561   5.934   6.718
 1650TIP3    H226510   2.660   6.048   6.704
 1651TIP3   OH226511   1.117   5.568   1.712
 1651TIP3    H126512   1.089   5.618   1.635
 1651TIP3    H226513   1.119   5.477   1.682
 1652TIP3   OH226514   0.196   1.474   1.442
 1652TIP3    H126515   0.134   1.406   1.419
 1652TIP3    H226516   0.281   1.440   1.414
 1653TIP3   OH226517   5.857   1.235   1.032
 1653TIP3    H126518   5.902   1.283   0.963
 1653TIP3    H226519   5.775   1.206   0.991
 1654TIP3   OH226520   0.830   2.562   8.156
 1654TIP3    H126521   0.880   2.568   8.074
 1654TIP3    H226522   0.891   2.594   8.223
 1655TIP3   OH226523   4.657   5.837   7.939
 1655TIP3    H126524   4.723   5.906   7.933
 1655TIP3    H226525   4.589   5.864   7.877
 1656TIP3   OH226526   2.952   5.956   0.386
 1656TIP3    H126527   2.863   5.959   0.351
 1656TIP3    H226528   3.008   5.981   0.312
 1657TIP3   OH226529   2.163   6.635   8.351
 1657TIP3    H126530   2.128   6.696   8.287
 1657TIP3    H226531   2.161   6.550   8.307
 1658TIP3   OH226532   3.581   2.674   7.824
 1658TIP3    H126533   3.500   2.668   7.772
 1658TIP3    H226534   3.551   2.684   7.914
 1659TIP3   OH226535   5.188   2.306   1.458
 1659TIP3    H126536   5.129   2.306   1.534
 1659TIP3    H226537   5.275   2.289   1.495
 1660TIP3   OH226538   0.037   6.405   7.518
 1660TIP3    H126539   0.084   6.409   7.435
 1660TIP3    H226540   0.105   6.401   7.585
 1661TIP3   OH226541   1.232   1.283   0.645
 1661TIP3    H126542   1.217   1.241   0.560
 1661TIP3    H226543   1.318   1.324   0.637
 1662TIP3   OH226544   1.249   5.372   7.436
 1662TIP3    H126545   1.315   5.318   7.393
 1662TIP3    H226546   1.169   5.359   7.385
 1663TIP3   OH226547   0.734   1.241   0.728
 1663TIP3    H126548   0.819   1.275   0.701
 1663TIP3    H226549   0.753   1.155   0.765
 1664TIP3   OH226550   1.705   0.002   8.521
 1664TIP3    H126551   1.662   6.835   8.560
 1664TIP3    H226552   1.777   6.875   8.470
 1665TIP3   OH226553   6.720   1.533   2.308
 1665TIP3    H126554   6.732   1.503   2.219
 1665TIP3    H226555   6.641   1.488   2.338
 1666TIP3   OH226556   3.587   6.520   0.083
 1666TIP3    H126557   3.567   6.612   0.100
 1666TIP3    H226558   3.504   6.481   0.055
 1667TIP3   OH226559   2.147   4.314   2.010
 1667TIP3    H126560   2.062   4.358   2.018
 1667TIP3    H226561   2.133   4.246   1.944
 1668TIP3   OH226562   0.883   6.850   7.453
 1668TIP3    H126563   0.791   6.840   7.477
 1668TIP3    H226564   0.914   0.013   7.507
 1669TIP3   OH226565   0.387   4.803   1.714
 1669TIP3    H126566   0.433   4.796   1.631
 1669TIP3    H226567   0.455   4.827   1.777
 1670TIP3   OH226568   6.645   3.816   0.852
 1670TIP3    H126569   6.674   3.736   0.809
 1670TIP3    H226570   6.562   3.837   0.811
 1671TIP3   OH226571   1.032   0.961   8.427
 1671TIP3    H126572   1.030   0.891   8.492
 1671TIP3    H226573   1.004   1.040   8.474
 1672TIP3   OH226574   5.133   4.174   0.001
 1672TIP3    H126575   5.219   4.168   8.525
 1672TIP3    H226576   5.082   4.231   8.511
 1673TIP3   OH226577   2.319   0.631   7.693
 1673TIP3    H126578   2.390   0.679   7.736
 1673TIP3    H226579   2.322   0.662   7.602
 1674TIP3   OH226580   5.402   4.865   6.775
 1674TIP3    H126581   5.422   4.794   6.713
 1674TIP3    H226582   5.324   4.834   6.822
 1675TIP3   OH226583   1.065   5.682   6.410
 1675TIP3    H126584   1.016   5.744   6.465
 1675TIP3    H226585   1.070   5.602   6.462
 1676TIP3   OH226586   0.108   2.869   1.340
 1676TIP3    H126587   0.121   2.828   1.425
 1676TIP3    H226588   0.053   2.945   1.358
 1677TIP3   OH226589   3.963   3.941   7.824
 1677TIP3    H126590   3.947   3.990   7.743
 1677TIP3    H226591   3.885   3.958   7.878
 1678TIP3   OH226592   4.924   3.645   0.064
 1678TIP3    H126593   4.883   3.578   0.010
 1678TIP3    H226594   4.893   3.627   0.153
 1679TIP3   OH226595   4.947   6.355   1.507
 1679TIP3    H126596   4.941   6.288   1.439
 1679TIP3    H226597   5.033   6.341   1.547
 1680TIP3   OH226598   1.457   3.124   8.409
 1680TIP3    H126599   1.416   3.055   8.461
 1680TIP3    H226600   1.527   3.081   8.361
 1681TIP3   OH226601   2.016   6.671   0.997
 1681TIP3    H126602   2.011   6.709   1.085
 1681TIP3    H226603   2.109   6.656   0.983
 1682TIP3   OH226604   4.085   1.428   7.001
 1682TIP3    H126605   4.125   1.399   6.920
 1682TIP3    H226606   4.150   1.486   7.042
 1683TIP3   OH226607   4.537   2.059   7.386
 1683TIP3    H126608   4.590   1.984   7.358
 1683TIP3    H226609   4.458   2.021   7.423
 1684TIP3   OH226610   0.744   0.187   6.989
 1684TIP3    H126611   0.773   0.106   7.032
 1684TIP3    H226612   0.780   0.257   7.044
 1685TIP3   OH226613   4.500   1.675   7.624
 1685TIP3    H126614   4.559   1.749   7.642
 1685TIP3    H226615   4.428   1.686   7.685
 1686TIP3   OH226616   2.532   5.762   6.665
 1686TIP3    H126617   2.436   5.753   6.660
 1686TIP3    H226618   2.560   5.684   6.714
 1687TIP3   OH226619   3.575   5.628   8.196
 1687TIP3    H126620   3.486   5.660   8.183
 1687TIP3    H226621   3.565   5.549   8.249
 1688TIP3   OH226622   6.874   2.892   2.271
 1688TIP3    H126623   6.896   2.885   2.364
 1688TIP3    H226624   6.820   2.971   2.264
 1689TIP3   OH226625   6.140   1.151   1.166
 1689TIP3    H126626   6.060   1.165   1.115
 1689TIP3    H226627   6.141   1.056   1.182
 1690TIP3   OH226628   1.255   6.489   7.843
 1690TIP3    H126629   1.169   6.481   7.883
 1690TIP3    H226630   1.257   6.580   7.811
 1691TIP3   OH226631   3.258   6.682   8.362
 1691TIP3    H126632   3.232   6.721   8.279
 1691TIP3    H226633   3.322   6.743   8.399
 1692TIP3   OH226634   5.820   1.582   8.002
 1692TIP3    H126635   5.844   1.588   8.095
 1692TIP3    H226636   5.831   1.490   7.980
 1693TIP3   OH226637   2.039   5.698   7.890
 1693TIP3    H126638   2.101   5.745   7.946
 1693TIP3    H226639   2.081   5.613   7.874
 1694TIP3   OH226640   0.181   4.587   7.573
 1694TIP3    H126641   0.170   4.560   7.482
 1694TIP3    H226642   0.180   4.682   7.570
 1695TIP3   OH226643   5.074   0.452   1.180
 1695TIP3    H126644   5.147   0.394   1.156
 1695TIP3    H226645   5.112   0.539   1.185
 1696TIP3   OH226646   4.304   0.719   7.516
 1696TIP3    H126647   4.213   0.713   7.487
 1696TIP3    H226648   4.329   0.809   7.495
 1697TIP3   OH226649   3.492   2.083   1.523
 1697TIP3    H126650   3.488   1.987   1.521
 1697TIP3    H226651   3.569   2.105   1.472
 1698TIP3   OH226652   1.153   4.149   7.394
 1698TIP3    H126653   1.207   4.173   7.468
 1698TIP3    H226654   1.090   4.086   7.429
 1699TIP3   OH226655   0.111   2.835   7.198
 1699TIP3    H126656   0.197   2.869   7.174
 1699TIP3    H226657   0.130   2.765   7.261
 1700TIP3   OH226658   2.265   0.323   7.790
 1700TIP3    H126659   2.314   0.399   7.759
 1700TIP3    H226660   2.284   0.318   7.884
 1701TIP3   OH226661   1.962   4.695   6.333
 1701TIP3    H126662   1.881   4.657   6.366
 1701TIP3    H226663   2.007   4.623   6.289
 1702TIP3   OH226664   0.250   0.651   7.335
 1702TIP3    H126665   0.252   0.603   7.253
 1702TIP3    H226666   0.265   0.742   7.310
 1703TIP3   OH226667   0.580   3.834   1.391
 1703TIP3    H126668   0.665   3.800   1.419
 1703TIP3    H226669   0.564   3.792   1.307
 1704TIP3   OH226670   5.332   3.469   6.827
 1704TIP3    H126671   5.342   3.394   6.768
 1704TIP3    H226672   5.420   3.484   6.862
 1705TIP3   OH226673   3.969   1.641   7.357
 1705TIP3    H126674   3.951   1.584   7.432
 1705TIP3    H226675   3.910   1.715   7.369
 1706TIP3   OH226676   5.030   3.063   0.565
 1706TIP3    H126677   5.042   3.050   0.471
 1706TIP3    H226678   5.116   3.048   0.604
 1707TIP3   OH226679   4.662   1.526   0.167
 1707TIP3    H126680   4.710   1.461   0.116
 1707TIP3    H226681   4.617   1.579   0.101
 1708TIP3   OH226682   6.907   3.467   7.627
 1708TIP3    H126683   6.889   3.559   7.646
 1708TIP3    H226684   6.834   3.440   7.571
 1709TIP3   OH226685   6.629   2.711   1.965
 1709TIP3    H126686   6.634   2.623   1.929
 1709TIP3    H226687   6.631   2.699   2.060
 1710TIP3   OH226688   1.376   5.559   6.374
 1710TIP3    H126689   1.457   5.591   6.334
 1710TIP3    H226690   1.307   5.607   6.329
 1711TIP3   OH226691   5.975   0.480   7.848
 1711TIP3    H126692   5.971   0.422   7.924
 1711TIP3    H226693   5.896   0.534   7.856
 1712TIP3   OH226694   5.309   1.695   0.264
 1712TIP3    H126695   5.286   1.614   0.309
 1712TIP3    H226696   5.397   1.680   0.229
 1713TIP3   OH226697   3.414   6.830   2.300
 1713TIP3    H126698   3.321   6.828   2.277
 1713TIP3    H226699   3.450   6.751   2.261
 1714TIP3   OH226700   6.387   1.539   0.876
 1714TIP3    H126701   6.389   1.456   0.925
 1714TIP3    H226702   6.473   1.544   0.834
 1715TIP3   OH226703   3.827   2.500   1.056
 1715TIP3    H126704   3.876   2.467   1.132
 1715TIP3    H226705   3.735   2.493   1.082
 1716TIP3   OH226706   3.536   0.854   1.137
 1716TIP3    H126707   3.560   0.851   1.045
 1716TIP3    H226708   3.446   0.888   1.138
 1717TIP3   OH226709   0.115   5.935   0.336
 1717TIP3    H126710   0.133   5.871   0.267
 1717TIP3    H226711   0.069   5.884   0.404
 1718TIP3   OH226712   6.653   6.465   1.663
 1718TIP3    H126713   6.656   6.381   1.616
 1718TIP3    H226714   6.688   6.445   1.750
 1719TIP3   OH226715   0.459   3.887   7.597
 1719TIP3    H126716   0.434   3.873   7.688
 1719TIP3    H226717   0.538   3.835   7.584
 1720TIP3   OH226718   0.198   2.344   0.743
 1720TIP3    H126719   0.227   2.329   0.832
 1720TIP3    H226720   0.131   2.413   0.750
 1721TIP3   OH226721   3.677   4.370   6.946
 1721TIP3    H126722   3.686   4.298   7.008
 1721TIP3    H226723   3.686   4.449   6.998
 1722TIP3   OH226724   3.931   1.240   2.063
 1722TIP3    H126725   3.997   1.297   2.104
 1722TIP3    H226726   3.899   1.185   2.135
 1723TIP3   OH226727   0.069   5.273   8.539
 1723TIP3    H126728   0.122   5.335   0.024
 1723TIP3    H226729   0.128   5.245   8.469
 1724TIP3   OH226730   4.543   1.877   6.834
 1724TIP3    H126731   4.481   1.810   6.807
 1724TIP3    H226732   4.528   1.950   6.774
 1725TIP3   OH226733   3.609   3.678   0.074
 1725TIP3    H126734   3.666   3.751   0.098
 1725TIP3    H226735   3.562   3.708   8.563
 1726TIP3   OH226736   6.793   0.408   8.383
 1726TIP3    H126737   6.745   0.343   8.333
 1726TIP3    H226738   6.833   0.358   8.454
 1727TIP3   OH226739   1.730   2.446   1.337
 1727TIP3    H126740   1.808   2.414   1.382
 1727TIP3    H226741   1.657   2.407   1.385
 1728TIP3   OH226742   6.288   4.979   0.246
 1728TIP3    H126743   6.379   4.983   0.275
 1728TIP3    H226744   6.289   5.018   0.158
 1729TIP3   OH226745   6.891   2.290   6.338
 1729TIP3    H126746   0.022   2.285   6.425
 1729TIP3    H226747   0.024   2.221   6.288
 1730TIP3   OH226748   2.057   1.499   1.325
 1730TIP3    H126749   2.008   1.472   1.247
 1730TIP3    H226750   2.123   1.431   1.337
 1731TIP3   OH226751   1.237   4.735   0.865
 1731TIP3    H126752   1.265   4.658   0.913
 1731TIP3    H226753   1.150   4.755   0.899
 1732TIP3   OH226754   1.240   1.770   8.299
 1732TIP3    H126755   1.243   1.837   8.231
 1732TIP3    H226756   1.282   1.693   8.260
 1733TIP3   OH226757   1.799   2.451   6.647
 1733TIP3    H126758   1.861   2.519   6.624
 1733TIP3    H226759   1.802   2.390   6.573
 1734TIP3   OH226760   2.759   0.920   0.248
 1734TIP3    H126761   2.787   0.841   0.203
 1734TIP3    H226762   2.824   0.986   0.223
 1735TIP3   OH226763   6.854   5.396   0.610
 1735TIP3    H126764   6.763   5.426   0.607
 1735TIP3    H226765   6.902   5.468   0.651
 1736TIP3   OH226766   4.019   5.017   7.831
 1736TIP3    H126767   4.064   5.016   7.746
 1736TIP3    H226768   3.934   5.056   7.813
 1737TIP3   OH226769   3.589   1.604   0.784
 1737TIP3    H126770   3.546   1.600   0.869
 1737TIP3    H226771   3.666   1.659   0.798
 1738TIP3   OH226772   3.196   4.593   7.656
 1738TIP3    H126773   3.288   4.585   7.679
 1738TIP3    H226774   3.150   4.587   7.740
 1739TIP3   OH226775   3.064   2.320   7.107
 1739TIP3    H126776   3.038   2.232   7.082
 1739TIP3    H226777   3.033   2.330   7.197
 1740TIP3   OH226778   1.624   3.948   0.118
 1740TIP3    H126779   1.666   4.027   0.151
 1740TIP3    H226780   1.696   3.892   0.088
 1741TIP3   OH226781   6.337   6.067   1.072
 1741TIP3    H126782   6.242   6.077   1.074
 1741TIP3    H226783   6.370   6.145   1.117
 1742TIP3   OH226784   2.552   5.406   1.961
 1742TIP3    H126785   2.575   5.497   1.942
 1742TIP3    H226786   2.586   5.391   2.049
 1743TIP3   OH226787   2.577   6.080   1.922
 1743TIP3    H126788   2.634   6.010   1.956
 1743TIP3    H226789   2.611   6.160   1.963
 1744TIP3   OH226790   2.874   5.655   7.557
 1744TIP3    H126791   2.783   5.638   7.530
 1744TIP3    H226792   2.872   5.650   7.652
 1745TIP3   OH226793   5.445   1.916   8.524
 1745TIP3    H126794   5.489   1.961   8.452
 1745TIP3    H226795   5.447   1.979   0.029
 1746TIP3   OH226796   1.036   3.085   2.034
 1746TIP3    H126797   1.021   3.056   2.124
 1746TIP3    H226798   0.984   3.024   1.981
 1747TIP3   OH226799   0.768   6.584   2.259
 1747TIP3    H126800   0.734   6.561   2.346
 1747TIP3    H226801   0.862   6.595   2.273
 1748TIP3   OH226802   2.956   6.386   6.528
 1748TIP3    H126803   3.010   6.307   6.519
 1748TIP3    H226804   3.010   6.446   6.578
 1749TIP3   OH226805   4.350   1.544   0.420
 1749TIP3    H126806   4.435   1.513   0.452
 1749TIP3    H226807   4.371   1.601   0.346
 1750TIP3   OH226808   5.559   0.638   0.422
 1750TIP3    H126809   5.546   0.546   0.399
 1750TIP3    H226810   5.575   0.681   0.338
 1751TIP3   OH226811   2.531   6.400   6.124
 1751TIP3    H126812   2.522   6.317   6.170
 1751TIP3    H226813   2.581   6.456   6.184
 1752TIP3   OH226814   1.674   6.184   6.217
 1752TIP3    H126815   1.682   6.111   6.279
 1752TIP3    H226816   1.690   6.144   6.131
 1753TIP3   OH226817   4.289   5.343   1.845
 1753TIP3    H126818   4.260   5.308   1.761
 1753TIP3    H226819   4.243   5.291   1.911
 1754TIP3   OH226820   6.180   5.945   7.326
 1754TIP3    H126821   6.151   5.856   7.343
 1754TIP3    H226822   6.135   5.971   7.246
 1755TIP3   OH226823   3.370   1.505   1.326
 1755TIP3    H126824   3.410   1.442   1.386
 1755TIP3    H226825   3.362   1.585   1.378
 1756TIP3   OH226826   0.023   6.089   7.328
 1756TIP3    H126827   0.099   6.033   7.315
 1756TIP3    H226828   0.034   6.125   7.416
 1757TIP3   OH226829   1.932   1.591   7.908
 1757TIP3    H126830   1.857   1.541   7.878
 1757TIP3    H226831   1.942   1.568   8.000
 1758TIP3   OH226832   6.147   4.878   2.457
 1758TIP3    H126833   6.147   4.783   2.460
 1758TIP3    H226834   6.239   4.901   2.443
 1759TIP3   OH226835   0.826   3.540   0.045
 1759TIP3    H126836   0.789   3.502   0.125
 1759TIP3    H226837   0.921   3.526   0.054
 1760TIP3   OH226838   0.529   1.226   0.546
 1760TIP3    H126839   0.533   1.137   0.511
 1760TIP3    H226840   0.593   1.228   0.617
 1761TIP3   OH226841   4.621   4.534   7.579
 1761TIP3    H126842   4.534   4.510   7.612
 1761TIP3    H226843   4.610   4.537   7.484
 1762TIP3   OH226844   2.726   2.222   1.986
 1762TIP3    H126845   2.631   2.232   1.989
 1762TIP3    H226846   2.741   2.158   1.916
 1763TIP3   OH226847   6.705   6.503   7.595
 1763TIP3    H126848   6.679   6.526   7.506
 1763TIP3    H226849   6.794   6.470   7.586
 1764TIP3   OH226850   0.493   1.340   2.198
 1764TIP3    H126851   0.487   1.434   2.185
 1764TIP3    H226852   0.574   1.314   2.155
 1765TIP3   OH226853   1.097   0.744   0.868
 1765TIP3    H126854   1.024   0.692   0.833
 1765TIP3    H226855   1.065   0.834   0.864
 1766TIP3   OH226856   1.215   3.594   0.587
 1766TIP3    H126857   1.277   3.524   0.569
 1766TIP3    H226858   1.212   3.599   0.683
 1767TIP3   OH226859   2.821   1.265   8.301
 1767TIP3    H126860   2.903   1.250   8.255
 1767TIP3    H226861   2.794   1.179   8.332
 1768TIP3   OH226862   3.567   6.270   6.814
 1768TIP3    H126863   3.481   6.263   6.774
 1768TIP3    H226864   3.601   6.180   6.813
 1769TIP3   OH226865   1.266   1.131   6.409
 1769TIP3    H126866   1.222   1.213   6.432
 1769TIP3    H226867   1.197   1.065   6.416
 1770TIP3   OH226868   4.170   4.096   0.547
 1770TIP3    H126869   4.133   4.057   0.467
 1770TIP3    H226870   4.228   4.166   0.515
 1771TIP3   OH226871   2.158   0.787   1.708
 1771TIP3    H126872   2.222   0.840   1.661
 1771TIP3    H226873   2.137   0.838   1.787
 1772TIP3   OH226874   2.997   3.295   0.404
 1772TIP3    H126875   3.004   3.368   0.342
 1772TIP3    H226876   3.043   3.222   0.360
 1773TIP3   OH226877   4.565   0.478   7.815
 1773TIP3    H126878   4.525   0.540   7.875
 1773TIP3    H226879   4.557   0.519   7.729
 1774TIP3   OH226880   5.032   3.177   8.378
 1774TIP3    H126881   5.117   3.197   8.339
 1774TIP3    H226882   5.018   3.085   8.359
 1775TIP3   OH226883   0.368   2.924   8.065
 1775TIP3    H126884   0.419   2.905   7.986
 1775TIP3    H226885   0.392   2.855   8.126
 1776TIP3   OH226886   4.619   4.446   0.294
 1776TIP3    H126887   4.702   4.468   0.251
 1776TIP3    H226888   4.614   4.508   0.367
 1777TIP3   OH226889   6.881   5.089   1.475
 1777TIP3    H126890   0.049   5.046   1.440
 1777TIP3    H226891   6.898   5.096   1.569
 1778TIP3   OH226892   2.475   0.753   0.645
 1778TIP3    H126893   2.440   0.829   0.692
 1778TIP3    H226894   2.515   0.789   0.566
 1779TIP3   OH226895   1.348   5.812   2.261
 1779TIP3    H126896   1.391   5.831   2.344
 1779TIP3    H226897   1.255   5.818   2.280
 1780TIP3   OH226898   4.923   3.193   0.821
 1780TIP3    H126899   4.970   3.155   0.895
 1780TIP3    H226900   4.965   3.156   0.743
 1781TIP3   OH226901   1.714   1.442   7.359
 1781TIP3    H126902   1.636   1.388   7.367
 1781TIP3    H226903   1.786   1.379   7.351
 1782TIP3   OH226904   1.197   4.534   1.055
 1782TIP3    H126905   1.111   4.521   1.095
 1782TIP3    H226906   1.259   4.500   1.121
 1783TIP3   OH226907   3.157   1.437   8.338
 1783TIP3    H126908   3.190   1.418   8.426
 1783TIP3    H226909   3.100   1.513   8.350
 1784TIP3   OH226910   1.912   0.804   7.506
 1784TIP3    H126911   1.999   0.844   7.514
 1784TIP3    H226912   1.912   0.735   7.573
 1785TIP3   OH226913   5.660   6.429   8.345
 1785TIP3    H126914   5.704   6.482   8.278
 1785TIP3    H226915   5.606   6.368   8.295
 1786TIP3   OH226916   3.795   4.742   8.424
 1786TIP3    H126917   3.750   4.797   8.488
 1786TIP3    H226918   3.878   4.788   8.407
 1787TIP3   OH226919   2.927   6.008   6.446
 1787TIP3    H126920   3.002   6.051   6.488
 1787TIP3    H226921   2.935   5.916   6.472
 1788TIP3   OH226922   6.785   2.644   7.841
 1788TIP3    H126923   6.714   2.704   7.860
 1788TIP3    H226924   6.856   2.671   7.900
 1789TIP3   OH226925   4.891   5.054   8.297
 1789TIP3    H126926   4.927   5.137   8.329
 1789TIP3    H226927   4.953   5.025   8.230
 1790TIP3   OH226928   2.366   3.677   0.127
 1790TIP3    H126929   2.295   3.642   0.073
 1790TIP3    H226930   2.379   3.766   0.095
 1791TIP3   OH226931   1.088   4.990   8.467
 1791TIP3    H126932   1.122   4.925   8.406
 1791TIP3    H226933   1.151   5.062   8.463
 1792TIP3   OH226934   1.758   2.822   6.794
 1792TIP3    H126935   1.819   2.758   6.834
 1792TIP3    H226936   1.684   2.769   6.765
 1793TIP3   OH226937   5.686   2.156   1.626
 1793TIP3    H126938   5.711   2.148   1.534
 1793TIP3    H226939   5.762   2.124   1.674
 1794TIP3   OH226940   2.240   4.567   8.311
 1794TIP3    H126941   2.201   4.655   8.315
 1794TIP3    H226942   2.267   4.549   8.402
 1795TIP3   OH226943   0.299   6.737   0.384
 1795TIP3    H126944   0.255   6.808   0.338
 1795TIP3    H226945   0.302   6.665   0.321
 1796TIP3   OH226946   3.820   1.974   0.740
 1796TIP3    H126947   3.736   1.970   0.784
 1796TIP3    H226948   3.806   2.034   0.667
 1797TIP3   OH226949   5.594   5.065   7.310
 1797TIP3    H126950   5.582   5.135   7.246
 1797TIP3    H226951   5.603   4.986   7.257
 1798TIP3   OH226952   2.824   6.896   8.369
 1798TIP3    H126953   2.850   0.053   8.432
 1798TIP3    H226954   2.883   6.823   8.386
 1799TIP3   OH226955   4.117   1.264   6.671
 1799TIP3    H126956   4.166   1.343   6.691
 1799TIP3    H226957   4.166   1.193   6.713
 1800TIP3   OH226958   0.385   6.583   1.453
 1800TIP3    H126959   0.416   6.674   1.458
 1800TIP3    H226960   0.463   6.530   1.469
 1801TIP3   OH226961   0.714   3.668   0.323
 1801TIP3    H126962   0.629   3.694   0.288
 1801TIP3    H226963   0.694   3.596   0.383
 1802TIP3   OH226964   5.159   3.475   0.626
 1802TIP3    H126965   5.163   3.520   0.711
 1802TIP3    H226966   5.245   3.433   0.618
 1803TIP3   OH226967   0.325   3.706   1.974
 1803TIP3    H126968   0.362   3.662   2.051
 1803TIP3    H226969   0.281   3.783   2.009
 1804TIP3   OH226970   4.124   4.538   7.410
 1804TIP3    H126971   4.086   4.451   7.418
 1804TIP3    H226972   4.106   4.565   7.320
 1805TIP3   OH226973   6.818   1.379   7.607
 1805TIP3    H126974   6.847   1.343   7.523
 1805TIP3    H226975   6.897   1.417   7.645
 1806TIP3   OH226976   3.251   3.940   6.252
 1806TIP3    H126977   3.296   3.913   6.332
 1806TIP3    H226978   3.261   4.035   6.250
 1807TIP3   OH226979   3.482   3.418   7.137
 1807TIP3    H126980   3.470   3.326   7.114
 1807TIP3    H226981   3.548   3.449   7.074
 1808TIP3   OH226982   1.423   6.194   0.977
 1808TIP3    H126983   1.365   6.119   0.988
 1808TIP3    H226984   1.511   6.160   0.990
 1809TIP3   OH226985   2.986   5.375   0.663
 1809TIP3    H126986   3.002   5.319   0.587
 1809TIP3    H226987   2.989   5.315   0.738
 1810TIP3   OH226988   4.149   4.936   7.563
 1810TIP3    H126989   4.239   4.918   7.534
 1810TIP3    H226990   4.113   4.849   7.582
 1811TIP3   OH226991   2.758   6.482   1.309
 1811TIP3    H126992   2.757   6.530   1.392
 1811TIP3    H226993   2.714   6.399   1.328
 1812TIP3   OH226994   0.934   0.298   1.014
 1812TIP3    H126995   0.931   0.237   0.940
 1812TIP3    H226996   1.011   0.271   1.064
 1813TIP3   OH226997   5.197   2.155   6.945
 1813TIP3    H126998   5.269   2.151   6.882
 1813TIP3    H226999   5.175   2.064   6.963
 1814TIP3   OH227000   1.183   6.267   1.274
 1814TIP3    H127001   1.239   6.307   1.208
 1814TIP3    H227002   1.207   6.175   1.273
 1815TIP3   OH227003   0.914   4.916   1.086
 1815TIP3    H127004   0.916   4.979   1.014
 1815TIP3    H227005   0.876   4.837   1.048
 1816TIP3   OH227006   3.852   1.269   6.720
 1816TIP3    H127007   3.941   1.244   6.694
 1816TIP3    H227008   3.858   1.363   6.739
 1817TIP3   OH227009   1.740   2.988   0.118
 1817TIP3    H127010   1.764   3.021   0.031
 1817TIP3    H227011   1.812   2.930   0.142
 1818TIP3   OH227012   4.243   4.907   7.956
 1818TIP3    H127013   4.181   4.971   7.922
 1818TIP3    H227014   4.284   4.951   8.031
 1819TIP3   OH227015   2.035   0.499   7.513
 1819TIP3    H127016   2.036   0.594   7.517
 1819TIP3    H227017   1.980   0.472   7.586
 1820TIP3   OH227018   1.398   2.747   1.306
 1820TIP3    H127019   1.480   2.768   1.350
 1820TIP3    H227020   1.368   2.830   1.270
 1821TIP3   OH227021   3.435   3.537   0.252
 1821TIP3    H127022   3.479   3.585   0.182
 1821TIP3    H227023   3.365   3.488   0.208
 1822TIP3   OH227024   1.623   6.491   1.193
 1822TIP3    H127025   1.674   6.445   1.127
 1822TIP3    H227026   1.605   6.425   1.260
 1823TIP3   OH227027   4.908   0.441   7.571
 1823TIP3    H127028   4.848   0.376   7.607
 1823TIP3    H227029   4.861   0.524   7.581
 1824TIP3   OH227030   5.548   1.664   0.140
 1824TIP3    H127031   5.619   1.713   0.181
 1824TIP3    H227032   5.534   1.707   0.056
 1825TIP3   OH227033   4.031   4.413   6.653
 1825TIP3    H127034   4.041   4.417   6.558
 1825TIP3    H227035   3.940   4.435   6.669
 1826TIP3   OH227036   6.516   3.163   7.501
 1826TIP3    H127037   6.520   3.257   7.485
 1826TIP3    H227038   6.590   3.128   7.452
 1827TIP3   OH227039   1.335   5.425   1.422
 1827TIP3    H127040   1.279   5.362   1.376
 1827TIP3    H227041   1.287   5.508   1.416
 1828TIP3   OH227042   0.601   4.845   1.911
 1828TIP3    H127043   0.672   4.789   1.942
 1828TIP3    H227044   0.645   4.912   1.859
 1829TIP3   OH227045   2.298   3.622   1.526
 1829TIP3    H127046   2.284   3.668   1.609
 1829TIP3    H227047   2.388   3.645   1.502
 1830TIP3   OH227048   3.537   3.612   1.923
 1830TIP3    H127049   3.465   3.615   1.987
 1830TIP3    H227050   3.514   3.679   1.858
 1831TIP3   OH227051   5.618   5.930   2.049
 1831TIP3    H127052   5.713   5.924   2.040
 1831TIP3    H227053   5.590   5.840   2.064
 1832TIP3   OH227054   0.190   4.478   0.694
 1832TIP3    H127055   0.279   4.458   0.722
 1832TIP3    H227056   0.198   4.491   0.599
 1833TIP3   OH227057   3.052   5.395   1.123
 1833TIP3    H127058   3.119   5.458   1.095
 1833TIP3    H227059   2.994   5.445   1.180
 1834TIP3   OH227060   2.285   0.054   8.127
 1834TIP3    H127061   2.317   0.131   8.081
 1834TIP3    H227062   2.308   0.070   8.219
 1835TIP3   OH227063   1.569   1.716   0.981
 1835TIP3    H127064   1.634   1.761   1.034
 1835TIP3    H227065   1.541   1.781   0.916
 1836TIP3   OH227066   2.736   4.865   8.340
 1836TIP3    H127067   2.652   4.837   8.304
 1836TIP3    H227068   2.773   4.785   8.380
 1837TIP3   OH227069   6.784   5.441   6.982
 1837TIP3    H127070   6.856   5.478   6.932
 1837TIP3    H227071   6.739   5.383   6.921
 1838TIP3   OH227072   6.543   6.750   0.105
 1838TIP3    H127073   6.461   6.717   0.069
 1838TIP3    H227074   6.598   6.768   0.029
 1839TIP3   OH227075   5.677   3.070   8.009
 1839TIP3    H127076   5.719   3.059   8.095
 1839TIP3    H227077   5.747   3.056   7.946
 1840TIP3   OH227078   4.347   0.201   7.068
 1840TIP3    H127079   4.400   0.131   7.107
 1840TIP3    H227080   4.409   0.253   7.017
 1841TIP3   OH227081   2.114   6.579   7.434
 1841TIP3    H127082   2.075   6.664   7.411
 1841TIP3    H227083   2.071   6.517   7.376
 1842TIP3   OH227084   0.005   4.662   7.205
 1842TIP3    H127085   0.063   4.686   7.277
 1842TIP3    H227086   0.042   4.706   7.128
 1843TIP3   OH227087   1.134   5.074   1.011
 1843TIP3    H127088   1.223   5.037   1.010
 1843TIP3    H227089   1.078   5.000   1.033
 1844TIP3   OH227090   0.865   1.371   8.212
 1844TIP3    H127091   0.940   1.410   8.166
 1844TIP3    H227092   0.857   1.421   8.293
 1845TIP3   OH227093   5.060   1.315   0.257
 1845TIP3    H127094   5.108   1.257   0.198
 1845TIP3    H227095   4.971   1.280   0.259
 1846TIP3   OH227096   5.143   1.018   2.914
 1846TIP3    H127097   5.214   1.014   2.850
 1846TIP3    H227098   5.076   1.073   2.873
 1847TIP3   OH227099   6.696   2.997   8.386
 1847TIP3    H127100   6.775   3.009   8.439
 1847TIP3    H227101   6.666   2.909   8.406
 1848TIP3   OH227102   2.183   5.577   1.500
 1848TIP3    H127103   2.089   5.573   1.517
 1848TIP3    H227104   2.221   5.614   1.580
 1849TIP3   OH227105   5.354   3.904   1.297
 1849TIP3    H127106   5.404   3.827   1.273
 1849TIP3    H227107   5.280   3.871   1.348
 1850TIP3   OH227108   3.744   6.250   6.564
 1850TIP3    H127109   3.689   6.314   6.517
 1850TIP3    H227110   3.761   6.291   6.648
 1851TIP3   OH227111   2.528   5.816   8.171
 1851TIP3    H127112   2.535   5.887   8.107
 1851TIP3    H227113   2.617   5.808   8.207
 1852TIP3   OH227114   1.828   4.227   6.550
 1852TIP3    H127115   1.805   4.270   6.468
 1852TIP3    H227116   1.749   4.234   6.603
 1853TIP3   OH227117   0.643   0.682   7.576
 1853TIP3    H127118   0.637   0.769   7.536
 1853TIP3    H227119   0.711   0.691   7.643
 1854TIP3   OH227120   2.779   0.256   6.242
 1854TIP3    H127121   2.759   0.189   6.176
 1854TIP3    H227122   2.695   0.296   6.261
 1855TIP3   OH227123   0.670   6.331   1.118
 1855TIP3    H127124   0.666   6.356   1.026
 1855TIP3    H227125   0.580   6.309   1.141
 1856TIP3   OH227126   4.295   1.306   0.721
 1856TIP3    H127127   4.364   1.353   0.768
 1856TIP3    H227128   4.342   1.249   0.660
 1857TIP3   OH227129   6.471   2.735   0.343
 1857TIP3    H127130   6.446   2.755   0.433
 1857TIP3    H227131   6.550   2.787   0.328
 1858TIP3   OH227132   6.701   1.350   1.550
 1858TIP3    H127133   6.614   1.335   1.512
 1858TIP3    H227134   6.688   1.345   1.644
 1859TIP3   OH227135   0.966   4.735   0.014
 1859TIP3    H127136   0.975   4.704   8.491
 1859TIP3    H227137   1.003   4.823   0.013
 1860TIP3   OH227138   0.153   3.779   1.759
 1860TIP3    H127139   0.106   3.697   1.741
 1860TIP3    H227140   0.206   3.760   1.836
 1861TIP3   OH227141   3.555   1.411   7.657
 1861TIP3    H127142   3.610   1.460   7.597
 1861TIP3    H227143   3.585   1.436   7.744
 1862TIP3   OH227144   1.419   1.866   1.393
 1862TIP3    H127145   1.355   1.886   1.461
 1862TIP3    H227146   1.400   1.927   1.322
 1863TIP3   OH227147   2.291   5.313   7.833
 1863TIP3    H127148   2.357   5.312   7.902
 1863TIP3    H227149   2.219   5.262   7.868
 1864TIP3   OH227150   6.299   2.940   6.328
 1864TIP3    H127151   6.370   2.992   6.289
 1864TIP3    H227152   6.331   2.850   6.325
 1865TIP3   OH227153   2.458   1.168   0.493
 1865TIP3    H127154   2.536   1.222   0.511
 1865TIP3    H227155   2.411   1.217   0.426
 1866TIP3   OH227156   0.010   2.694   8.514
 1866TIP3    H127157   6.899   2.777   8.556
 1866TIP3    H227158   6.847   2.680   8.452
 1867TIP3   OH227159   6.641   1.558   0.098
 1867TIP3    H127160   6.640   1.474   0.052
 1867TIP3    H227161   6.668   1.621   0.031
 1868TIP3   OH227162   3.370   0.402   7.162
 1868TIP3    H127163   3.363   0.497   7.174
 1868TIP3    H227164   3.344   0.365   7.246
 1869TIP3   OH227165   6.388   2.283   7.757
 1869TIP3    H127166   6.433   2.339   7.820
 1869TIP3    H227167   6.454   2.220   7.730
 1870TIP3   OH227168   2.558   0.350   0.560
 1870TIP3    H127169   2.613   0.390   0.493
 1870TIP3    H227170   2.621   0.318   0.626
 1871TIP3   OH227171   3.596   5.516   0.307
 1871TIP3    H127172   3.646   5.592   0.278
 1871TIP3    H227173   3.662   5.454   0.338
 1872TIP3   OH227174   5.067   6.725   0.978
 1872TIP3    H127175   5.098   6.635   0.976
 1872TIP3    H227176   5.113   6.765   1.052
 1873TIP3   OH227177   3.548   3.935   7.671
 1873TIP3    H127178   3.525   3.856   7.719
 1873TIP3    H227179   3.550   4.004   7.738
 1874TIP3   OH227180   4.179   6.031   0.576
 1874TIP3    H127181   4.094   6.031   0.619
 1874TIP3    H227182   4.234   6.088   0.629
 1875TIP3   OH227183   0.771   3.903   0.482
 1875TIP3    H127184   0.747   3.822   0.437
 1875TIP3    H227185   0.701   3.964   0.460
 1876TIP3   OH227186   1.955   1.769   7.697
 1876TIP3    H127187   1.946   1.728   7.782
 1876TIP3    H227188   1.886   1.731   7.643
 1877TIP3   OH227189   6.469   4.949   7.850
 1877TIP3    H127190   6.479   4.912   7.763
 1877TIP3    H227191   6.464   5.044   7.836
 1878TIP3   OH227192   0.293   6.853   7.248
 1878TIP3    H127193   0.324   6.796   7.178
 1878TIP3    H227194   0.359   6.844   7.317
 1879TIP3   OH227195   5.095   0.882   7.487
 1879TIP3    H127196   5.171   0.840   7.445
 1879TIP3    H227197   5.128   0.968   7.515
 1880TIP3   OH227198   6.119   2.876   8.227
 1880TIP3    H127199   6.051   2.810   8.235
 1880TIP3    H227200   6.150   2.891   8.316
 1881TIP3   OH227201   3.675   2.040   7.752
 1881TIP3    H127202   3.669   2.127   7.791
 1881TIP3    H227203   3.735   1.992   7.809
 1882TIP3   OH227204   6.452   4.330   2.185
 1882TIP3    H127205   6.386   4.399   2.176
 1882TIP3    H227206   6.528   4.374   2.223
 1883TIP3   OH227207   0.003   4.338   6.770
 1883TIP3    H127208   6.861   4.349   6.690
 1883TIP3    H227209   6.877   4.259   6.811
 1884TIP3   OH227210   6.152   4.566   1.066
 1884TIP3    H127211   6.060   4.579   1.046
 1884TIP3    H227212   6.193   4.552   0.981
 1885TIP3   OH227213   3.266   5.074   6.439
 1885TIP3    H127214   3.170   5.071   6.448
 1885TIP3    H227215   3.291   5.154   6.486
 1886TIP3   OH227216   5.475   0.276   2.076
 1886TIP3    H127217   5.563   0.289   2.040
 1886TIP3    H227218   5.484   0.297   2.169
 1887TIP3   OH227219   2.802   0.201   6.799
 1887TIP3    H127220   2.852   0.282   6.796
 1887TIP3    H227221   2.786   0.186   6.892
 1888TIP3   OH227222   1.964   1.250   7.184
 1888TIP3    H127223   1.905   1.218   7.116
 1888TIP3    H227224   1.935   1.206   7.264
 1889TIP3   OH227225   5.042   0.181   1.619
 1889TIP3    H127226   4.959   0.151   1.656
 1889TIP3    H227227   5.056   0.124   1.543
 1890TIP3   OH227228   6.844   2.945   0.593
 1890TIP3    H127229   6.808   2.877   0.650
 1890TIP3    H227230   6.818   3.028   0.634
 1891TIP3   OH227231   5.842   4.805   0.540
 1891TIP3    H127232   5.889   4.887   0.553
 1891TIP3    H227233   5.754   4.831   0.514
 1892TIP3   OH227234   3.970   0.575   0.717
 1892TIP3    H127235   3.933   0.513   0.654
 1892TIP3    H227236   3.934   0.547   0.802
 1893TIP3   OH227237   1.715   4.996   7.055
 1893TIP3    H127238   1.652   4.989   7.127
 1893TIP3    H227239   1.682   5.069   7.002
 1894TIP3   OH227240   2.859   4.421   8.179
 1894TIP3    H127241   2.806   4.421   8.258
 1894TIP3    H227242   2.820   4.354   8.123
 1895TIP3   OH227243   0.819   3.116   7.795
 1895TIP3    H127244   0.733   3.091   7.761
 1895TIP3    H227245   0.878   3.046   7.765
 1896TIP3   OH227246   0.501   1.697   1.447
 1896TIP3    H127247   0.484   1.622   1.503
 1896TIP3    H227248   0.427   1.699   1.386
 1897TIP3   OH227249   4.652   3.448   8.436
 1897TIP3    H127250   4.585   3.417   8.497
 1897TIP3    H227251   4.716   3.377   8.432
 1898TIP3   OH227252   1.661   0.285   0.185
 1898TIP3    H127253   1.737   0.272   0.241
 1898TIP3    H227254   1.602   0.213   0.207
 1899TIP3   OH227255   5.311   4.315   7.901
 1899TIP3    H127256   5.287   4.402   7.868
 1899TIP3    H227257   5.299   4.257   7.826
 1900TIP3   OH227258   4.178   3.546   7.872
 1900TIP3    H127259   4.113   3.587   7.813
 1900TIP3    H227260   4.140   3.461   7.892
 1901TIP3   OH227261   4.130   6.818   6.413
 1901TIP3    H127262   4.197   6.756   6.383
 1901TIP3    H227263   4.049   6.766   6.417
 1902TIP3   OH227264   1.826   0.436   8.566
 1902TIP3    H127265   1.753   0.392   0.042
 1902TIP3    H227266   1.855   0.374   8.499
 1903TIP3   OH227267   0.503   0.755   1.207
 1903TIP3    H127268   0.518   0.787   1.296
 1903TIP3    H227269   0.532   0.828   1.151
 1904TIP3   OH227270   2.863   1.410   1.718
 1904TIP3    H127271   2.808   1.465   1.663
 1904TIP3    H227272   2.807   1.336   1.742
 1905TIP3   OH227273   4.252   6.740   0.431
 1905TIP3    H127274   4.273   6.801   0.360
 1905TIP3    H227275   4.157   6.750   0.443
 1906TIP3   OH227276   0.943   3.903   7.963
 1906TIP3    H127277   1.005   3.881   8.033
 1906TIP3    H227278   0.897   3.821   7.945
 1907TIP3   OH227279   1.946   6.806   8.466
 1907TIP3    H127280   1.952   6.720   8.507
 1907TIP3    H227281   1.977   6.792   8.376
 1908TIP3   OH227282   0.984   1.356   0.649
 1908TIP3    H127283   0.980   1.420   0.720
 1908TIP3    H227284   1.070   1.315   0.659
 1909TIP3   OH227285   1.049   0.448   1.798
 1909TIP3    H127286   1.028   0.358   1.824
 1909TIP3    H227287   0.988   0.468   1.728
 1910TIP3   OH227288   1.039   1.511   0.898
 1910TIP3    H127289   1.124   1.524   0.856
 1910TIP3    H227290   1.059   1.499   0.991
 1911TIP3   OH227291   2.489   1.785   7.767
 1911TIP3    H127292   2.413   1.780   7.709
 1911TIP3    H227293   2.478   1.868   7.814
 1912TIP3   OH227294   2.553   2.707   7.280
 1912TIP3    H127295   2.550   2.794   7.240
 1912TIP3    H227296   2.462   2.678   7.282
 1913TIP3   OH227297   5.051   5.765   0.993
 1913TIP3    H127298   5.003   5.729   0.918
 1913TIP3    H227299   5.101   5.690   1.027
 1914TIP3   OH227300   0.394   5.784   1.911
 1914TIP3    H127301   0.421   5.694   1.891
 1914TIP3    H227302   0.441   5.806   1.992
 1915TIP3   OH227303   3.316   3.981   6.708
 1915TIP3    H127304   3.350   4.036   6.638
 1915TIP3    H227305   3.349   4.020   6.788
 1916TIP3   OH227306   6.813   6.232   7.973
 1916TIP3    H127307   6.878   6.161   7.980
 1916TIP3    H227308   6.780   6.225   7.884
 1917TIP3   OH227309   3.609   6.841   1.380
 1917TIP3    H127310   3.569   0.005   1.428
 1917TIP3    H227311   3.591   6.764   1.434
 1918TIP3   OH227312   3.149   0.680   7.699
 1918TIP3    H127313   3.184   0.655   7.785
 1918TIP3    H227314   3.062   0.641   7.697
 1919TIP3   OH227315   3.318   4.636   1.331
 1919TIP3    H127316   3.319   4.731   1.343
 1919TIP3    H227317   3.317   4.600   1.420
 1920TIP3   OH227318   5.171   2.869   8.458
 1920TIP3    H127319   5.184   2.781   8.423
 1920TIP3    H227320   5.078   2.886   8.445
 1921TIP3   OH227321   2.426   6.226   6.862
 1921TIP3    H127322   2.464   6.150   6.819
 1921TIP3    H227323   2.449   6.300   6.805
 1922TIP3   OH227324   2.224   4.134   7.354
 1922TIP3    H127325   2.151   4.194   7.371
 1922TIP3    H227326   2.299   4.174   7.398
 1923TIP3   OH227327   0.122   2.204   1.557
 1923TIP3    H127328   0.204   2.249   1.534
 1923TIP3    H227329   0.141   2.160   1.640
 1924TIP3   OH227330   6.281   2.535   8.001
 1924TIP3    H127331   6.186   2.522   8.001
 1924TIP3    H227332   6.307   2.517   8.092
 1925TIP3   OH227333   4.764   0.707   1.840
 1925TIP3    H127334   4.787   0.720   1.932
 1925TIP3    H227335   4.832   0.648   1.807
 1926TIP3   OH227336   6.540   4.700   1.105
 1926TIP3    H127337   6.524   4.792   1.125
 1926TIP3    H227338   6.467   4.653   1.146
 1927TIP3   OH227339   3.638   6.756   1.099
 1927TIP3    H127340   3.557   6.794   1.066
 1927TIP3    H227341   3.639   6.776   1.192
 1928TIP3   OH227342   1.023   0.819   8.191
 1928TIP3    H127343   1.106   0.789   8.154
 1928TIP3    H227344   1.046   0.896   8.243
 1929TIP3   OH227345   4.351   1.144   1.415
 1929TIP3    H127346   4.285   1.114   1.353
 1929TIP3    H227347   4.313   1.125   1.501
 1930TIP3   OH227348   3.910   2.051   7.093
 1930TIP3    H127349   3.823   2.012   7.084
 1930TIP3    H227350   3.949   2.042   7.006
 1931TIP3   OH227351   1.302   5.839   0.066
 1931TIP3    H127352   1.224   5.791   0.040
 1931TIP3    H227353   1.374   5.795   0.020
 1932TIP3   OH227354   5.403   5.575   1.311
 1932TIP3    H127355   5.423   5.517   1.384
 1932TIP3    H227356   5.469   5.555   1.245
 1933TIP3   OH227357   4.454   5.659   6.140
 1933TIP3    H127358   4.371   5.639   6.183
 1933TIP3    H227359   4.492   5.573   6.122
 1934TIP3   OH227360   2.956   1.745   0.322
 1934TIP3    H127361   2.919   1.767   0.407
 1934TIP3    H227362   2.883   1.706   0.273
 1935TIP3   OH227363   6.581   5.731   0.241
 1935TIP3    H127364   6.571   5.779   0.324
 1935TIP3    H227365   6.520   5.775   0.181
 1936TIP3   OH227366   0.168   0.596   0.253
 1936TIP3    H127367   0.214   0.677   0.230
 1936TIP3    H227368   0.209   0.529   0.198
 1937TIP3   OH227369   5.178   6.570   1.853
 1937TIP3    H127370   5.153   6.497   1.909
 1937TIP3    H227371   5.224   6.631   1.911
 1938TIP3   OH227372   2.476   6.076   1.245
 1938TIP3    H127373   2.498   6.147   1.186
 1938TIP3    H227374   2.410   6.113   1.304
 1939TIP3   OH227375   1.211   6.782   6.570
 1939TIP3    H127376   1.206   6.866   6.525
 1939TIP3    H227377   1.283   6.736   6.527
 1940TIP3   OH227378   4.437   3.118   8.134
 1940TIP3    H127379   4.439   3.088   8.225
 1940TIP3    H227380   4.528   3.138   8.113
 1941TIP3   OH227381   3.892   4.462   0.230
 1941TIP3    H127382   3.823   4.431   0.288
 1941TIP3    H227383   3.943   4.383   0.209
 1942TIP3   OH227384   4.815   4.691   7.717
 1942TIP3    H127385   4.774   4.644   7.644
 1942TIP3    H227386   4.761   4.667   7.793
 1943TIP3   OH227387   1.215   5.893   6.611
 1943TIP3    H127388   1.123   5.871   6.605
 1943TIP3    H227389   1.235   5.938   6.529
 1944TIP3   OH227390   0.200   1.703   7.763
 1944TIP3    H127391   0.183   1.642   7.692
 1944TIP3    H227392   0.113   1.734   7.790
 1945TIP3   OH227393   6.712   3.159   8.153
 1945TIP3    H127394   6.623   3.144   8.124
 1945TIP3    H227395   6.718   3.116   8.238
 1946TIP3   OH227396   6.145   3.600   2.394
 1946TIP3    H127397   6.191   3.670   2.440
 1946TIP3    H227398   6.111   3.642   2.315
 1947TIP3   OH227399   1.074   1.809   6.823
 1947TIP3    H127400   1.080   1.714   6.828
 1947TIP3    H227401   0.982   1.829   6.841
 1948TIP3   OH227402   6.582   2.788   2.569
 1948TIP3    H127403   6.580   2.842   2.490
 1948TIP3    H227404   6.634   2.838   2.632
 1949TIP3   OH227405   4.587   3.754   0.699
 1949TIP3    H127406   4.604   3.713   0.614
 1949TIP3    H227407   4.546   3.684   0.751
 1950TIP3   OH227408   3.086   4.489   1.517
 1950TIP3    H127409   3.164   4.526   1.558
 1950TIP3    H227410   3.016   4.549   1.540
 1951TIP3   OH227411   4.998   1.879   7.464
 1951TIP3    H127412   5.003   1.845   7.374
 1951TIP3    H227413   5.074   1.840   7.508
 1952TIP3   OH227414   0.780   5.323   0.846
 1952TIP3    H127415   0.746   5.413   0.842
 1952TIP3    H227416   0.717   5.276   0.901
 1953TIP3   OH227417   5.932   1.646   0.123
 1953TIP3    H127418   5.883   1.715   0.078
 1953TIP3    H227419   6.024   1.671   0.112
 1954TIP3   OH227420   2.299   3.322   7.415
 1954TIP3    H127421   2.218   3.275   7.394
 1954TIP3    H227422   2.321   3.368   7.334
 1955TIP3   OH227423   3.354   3.687   1.119
 1955TIP3    H127424   3.362   3.627   1.045
 1955TIP3    H227425   3.425   3.750   1.107
 1956TIP3   OH227426   2.532   4.203   8.333
 1956TIP3    H127427   2.528   4.130   8.271
 1956TIP3    H227428   2.481   4.272   8.292
 1957TIP3   OH227429   5.805   0.831   1.260
 1957TIP3    H127430   5.734   0.782   1.302
 1957TIP3    H227431   5.876   0.768   1.252
 1958TIP3   OH227432   0.443   5.741   7.346
 1958TIP3    H127433   0.486   5.826   7.333
 1958TIP3    H227434   0.448   5.725   7.440
 1959TIP3   OH227435   0.654   0.976   1.087
 1959TIP3    H127436   0.707   0.968   1.008
 1959TIP3    H227437   0.689   1.054   1.131
 1960TIP3   OH227438   5.556   0.443   7.632
 1960TIP3    H127439   5.490   0.476   7.572
 1960TIP3    H227440   5.514   0.445   7.718
 1961TIP3   OH227441   6.558   2.487   7.807
 1961TIP3    H127442   6.635   2.541   7.825
 1961TIP3    H227443   6.564   2.467   7.713
 1962TIP3   OH227444   2.036   4.890   8.534
 1962TIP3    H127445   2.079   4.971   8.504
 1962TIP3    H227446   1.944   4.914   8.546
 1963TIP3   OH227447   4.248   5.379   0.338
 1963TIP3    H127448   4.274   5.288   0.348
 1963TIP3    H227449   4.315   5.428   0.386
 1964TIP3   OH227450   5.335   0.726   8.498
 1964TIP3    H127451   5.382   0.808   8.514
 1964TIP3    H227452   5.248   0.754   8.469
 1965TIP3   OH227453   4.505   4.107   7.548
 1965TIP3    H127454   4.597   4.093   7.568
 1965TIP3    H227455   4.502   4.121   7.453
 1966TIP3   OH227456   2.006   6.568   6.380
 1966TIP3    H127457   2.070   6.537   6.316
 1966TIP3    H227458   1.973   6.650   6.343
 1967TIP3   OH227459   2.399   4.205   0.763
 1967TIP3    H127460   2.461   4.169   0.827
 1967TIP3    H227461   2.442   4.190   0.678
 1968TIP3   OH227462   3.517   2.320   2.017
 1968TIP3    H127463   3.596   2.285   2.058
 1968TIP3    H227464   3.537   2.318   1.923
 1969TIP3   OH227465   3.253   5.530   0.497
 1969TIP3    H127466   3.271   5.565   0.410
 1969TIP3    H227467   3.168   5.486   0.489
 1970TIP3   OH227468   2.399   6.500   7.666
 1970TIP3    H127469   2.325   6.444   7.690
 1970TIP3    H227470   2.360   6.584   7.643
 1971TIP3   OH227471   2.783   5.780   6.629
 1971TIP3    H127472   2.818   5.692   6.611
 1971TIP3    H227473   2.695   5.763   6.664
 1972TIP3   OH227474   4.432   1.493   0.911
 1972TIP3    H127475   4.460   1.474   1.000
 1972TIP3    H227476   4.467   1.581   0.893
 1973TIP3   OH227477   2.174   1.298   7.857
 1973TIP3    H127478   2.219   1.239   7.917
 1973TIP3    H227479   2.084   1.266   7.854
 1974TIP3   OH227480   6.758   5.819   7.372
 1974TIP3    H127481   6.748   5.914   7.379
 1974TIP3    H227482   6.771   5.803   7.278
 1975TIP3   OH227483   2.745   4.353   8.440
 1975TIP3    H127484   2.681   4.288   8.410
 1975TIP3    H227485   2.822   4.302   8.464
 1976TIP3   OH227486   5.945   5.924   7.561
 1976TIP3    H127487   5.866   5.873   7.576
 1976TIP3    H227488   5.991   5.879   7.491
 1977TIP3   OH227489   2.761   1.201   6.320
 1977TIP3    H127490   2.785   1.139   6.388
 1977TIP3    H227491   2.724   1.147   6.250
 1978TIP3   OH227492   1.655   5.385   1.815
 1978TIP3    H127493   1.635   5.337   1.896
 1978TIP3    H227494   1.703   5.322   1.761
 1979TIP3   OH227495   5.689   0.028   7.570
 1979TIP3    H127496   5.644   0.006   7.651
 1979TIP3    H227497   5.754   6.868   7.559
 1980TIP3   OH227498   1.814   2.897   7.681
 1980TIP3    H127499   1.822   2.923   7.589
 1980TIP3    H227500   1.725   2.922   7.705
 1981TIP3   OH227501   3.498   1.071   6.912
 1981TIP3    H127502   3.447   1.024   6.846
 1981TIP3    H227503   3.443   1.068   6.991
 1982TIP3   OH227504   4.441   3.733   7.487
 1982TIP3    H127505   4.364   3.784   7.462
 1982TIP3    H227506   4.444   3.660   7.425
 1983TIP3   OH227507   3.387   6.304   7.948
 1983TIP3    H127508   3.330   6.240   7.906
 1983TIP3    H227509   3.441   6.252   8.008
 1984TIP3   OH227510   1.737   1.936   0.023
 1984TIP3    H127511   1.736   1.934   0.118
 1984TIP3    H227512   1.703   1.850   8.563
 1985TIP3   OH227513   0.974   6.310   0.296
 1985TIP3    H127514   0.892   6.322   0.344
 1985TIP3    H227515   0.956   6.239   0.235
 1986TIP3   OH227516   0.041   2.073   6.645
 1986TIP3    H127517   6.864   2.093   6.682
 1986TIP3    H227518   0.072   2.158   6.612
 1987TIP3   OH227519   1.718   2.885   1.847
 1987TIP3    H127520   1.742   2.806   1.897
 1987TIP3    H227521   1.739   2.957   1.906
 1988TIP3   OH227522   6.836   0.060   2.034
 1988TIP3    H127523   0.021   0.058   2.048
 1988TIP3    H227524   6.823   0.131   1.971
 1989TIP3   OH227525   4.361   1.086   2.091
 1989TIP3    H127526   4.317   1.163   2.127
 1989TIP3    H227527   4.453   1.096   2.118
 1990TIP3   OH227528   1.786   2.851   2.209
 1990TIP3    H127529   1.793   2.896   2.293
 1990TIP3    H227530   1.794   2.921   2.144
 1991TIP3   OH227531   4.711   6.294   0.940
 1991TIP3    H127532   4.663   6.212   0.950
 1991TIP3    H227533   4.666   6.355   0.999
 1992TIP3   OH227534   6.629   1.172   0.483
 1992TIP3    H127535   6.689   1.210   0.548
 1992TIP3    H227536   6.664   1.084   0.469
 1993TIP3   OH227537   5.777   6.596   2.176
 1993TIP3    H127538   5.786   6.582   2.270
 1993TIP3    H227539   5.684   6.618   2.164
 1994TIP3   OH227540   6.453   5.467   1.179
 1994TIP3    H127541   6.423   5.527   1.247
 1994TIP3    H227542   6.549   5.474   1.181
 1995TIP3   OH227543   3.047   0.503   1.763
 1995TIP3    H127544   3.044   0.550   1.846
 1995TIP3    H227545   3.087   0.565   1.702
 1996TIP3   OH227546   3.045   4.501   7.882
 1996TIP3    H127547   3.039   4.515   7.976
 1996TIP3    H227548   2.979   4.560   7.844
 1997TIP3   OH227549   6.433   2.896   1.930
 1997TIP3    H127550   6.363   2.852   1.882
 1997TIP3    H227551   6.502   2.830   1.938
 1998TIP3   OH227552   1.664   0.668   0.882
 1998TIP3    H127553   1.569   0.685   0.878
 1998TIP3    H227554   1.675   0.585   0.835
 1999TIP3   OH227555   4.227   6.650   8.019
 1999TIP3    H127556   4.297   6.622   7.961
 1999TIP3    H227557   4.271   6.682   8.097
 2000TIP3   OH227558   4.320   5.958   1.554
 2000TIP3    H127559   4.406   5.979   1.591
 2000TIP3    H227560   4.338   5.932   1.464
 2001TIP3   OH227561   2.579   5.547   1.275
 2001TIP3    H127562   2.577   5.642   1.284
 2001TIP3    H227563   2.671   5.525   1.261
 2002TIP3   OH227564   2.730   3.872   1.054
 2002TIP3    H127565   2.737   3.903   1.145
 2002TIP3    H227566   2.812   3.898   1.013
 2003TIP3   OH227567   0.838   1.324   0.405
 2003TIP3    H127568   0.744   1.338   0.415
 2003TIP3    H227569   0.874   1.335   0.494
 2004TIP3   OH227570   4.528   5.568   1.210
 2004TIP3    H127571   4.447   5.587   1.162
 2004TIP3    H227572   4.593   5.627   1.172
 2005TIP3   OH227573   6.614   2.190   1.870
 2005TIP3    H127574   6.554   2.137   1.923
 2005TIP3    H227575   6.656   2.126   1.813
 2006TIP3   OH227576   1.149   2.236   6.461
 2006TIP3    H127577   1.234   2.277   6.449
 2006TIP3    H227578   1.161   2.176   6.534
 2007TIP3   OH227579   0.429   2.844   1.421
 2007TIP3    H127580   0.372   2.819   1.494
 2007TIP3    H227581   0.510   2.872   1.463
 2008TIP3   OH227582   0.220   0.092   7.018
 2008TIP3    H127583   0.299   0.141   6.995
 2008TIP3    H227584   0.236   0.062   7.107
 2009TIP3   OH227585   2.249   4.674   1.694
 2009TIP3    H127586   2.229   4.641   1.781
 2009TIP3    H227587   2.341   4.700   1.699
 2010TIP3   OH227588   4.572   5.028   7.948
 2010TIP3    H127589   4.667   5.037   7.950
 2010TIP3    H227590   4.540   5.103   7.999
 2011TIP3   OH227591   1.878   1.393   1.134
 2011TIP3    H127592   1.819   1.435   1.072
 2011TIP3    H227593   1.918   1.321   1.085
 2012TIP3   OH227594   2.990   2.845   8.321
 2012TIP3    H127595   2.934   2.768   8.315
 2012TIP3    H227596   2.962   2.889   8.401
 2013TIP3   OH227597   0.519   2.645   0.039
 2013TIP3    H127598   0.536   2.596   0.120
 2013TIP3    H227599   0.586   2.615   8.545
 2014TIP3   OH227600   4.319   4.916   8.272
 2014TIP3    H127601   4.411   4.891   8.268
 2014TIP3    H227602   4.313   4.969   8.352
 2015TIP3   OH227603   2.267   1.283   0.259
 2015TIP3    H127604   2.306   1.290   0.172
 2015TIP3    H227605   2.251   1.374   0.286
 2016TIP3   OH227606   1.970   3.476   1.480
 2016TIP3    H127607   2.007   3.434   1.403
 2016TIP3    H227608   1.971   3.570   1.460
 2017TIP3   OH227609   4.799   5.803   0.085
 2017TIP3    H127610   4.749   5.721   0.081
 2017TIP3    H227611   4.876   5.787   0.031
 2018TIP3   OH227612   6.480   4.952   1.164
 2018TIP3    H127613   6.435   4.980   1.085
 2018TIP3    H227614   6.446   5.009   1.233
 2019TIP3   OH227615   3.580   1.338   6.829
 2019TIP3    H127616   3.668   1.339   6.866
 2019TIP3    H227617   3.550   1.248   6.844
 2020TIP3   OH227618   0.850   4.285   8.566
 2020TIP3    H127619   0.836   4.250   0.087
 2020TIP3    H227620   0.930   4.337   0.007
 2021TIP3   OH227621   4.132   2.686   8.225
 2021TIP3    H127622   4.066   2.707   8.291
 2021TIP3    H227623   4.186   2.765   8.219
 2022TIP3   OH227624   6.143   2.844   8.497
 2022TIP3    H127625   6.075   2.884   8.551
 2022TIP3    H227626   6.204   2.804   8.560
 2023TIP3   OH227627   6.205   1.557   1.580
 2023TIP3    H127628   6.133   1.531   1.522
 2023TIP3    H227629   6.205   1.653   1.577
 2024TIP3   OH227630   5.457   1.346   6.890
 2024TIP3    H127631   5.466   1.367   6.797
 2024TIP3    H227632   5.391   1.407   6.923
 2025TIP3   OH227633   3.613   5.571   6.228
 2025TIP3    H127634   3.539   5.524   6.189
 2025TIP3    H227635   3.648   5.623   6.156
 2026TIP3   OH227636   6.469   2.385   7.370
 2026TIP3    H127637   6.536   2.318   7.382
 2026TIP3    H227638   6.390   2.337   7.347
 2027TIP3   OH227639   2.564   3.359   1.611
 2027TIP3    H127640   2.585   3.415   1.686
 2027TIP3    H227641   2.502   3.410   1.559
 2028TIP3   OH227642   3.340   1.798   7.838
 2028TIP3    H127643   3.247   1.785   7.854
 2028TIP3    H227644   3.351   1.893   7.833
 2029TIP3   OH227645   3.527   4.887   7.141
 2029TIP3    H127646   3.554   4.977   7.160
 2029TIP3    H227647   3.435   4.883   7.167
 2030TIP3   OH227648   6.685   2.176   7.305
 2030TIP3    H127649   6.689   2.089   7.345
 2030TIP3    H227650   6.656   2.161   7.216
 2031TIP3   OH227651   2.263   2.860   0.457
 2031TIP3    H127652   2.238   2.834   0.368
 2031TIP3    H227653   2.344   2.812   0.474
 2032TIP3   OH227654   4.746   0.532   0.357
 2032TIP3    H127655   4.769   0.466   0.423
 2032TIP3    H227656   4.716   0.480   0.282
 2033TIP3   OH227657   0.680   4.855   7.499
 2033TIP3    H127658   0.665   4.774   7.547
 2033TIP3    H227659   0.639   4.841   7.414
 2034TIP3   OH227660   5.153   5.767   0.184
 2034TIP3    H127661   5.116   5.718   0.111
 2034TIP3    H227662   5.217   5.708   0.223
 2035TIP3   OH227663   0.568   1.185   6.816
 2035TIP3    H127664   0.535   1.227   6.895
 2035TIP3    H227665   0.490   1.172   6.761
 2036TIP3   OH227666   6.380   1.446   7.689
 2036TIP3    H127667   6.447   1.500   7.648
 2036TIP3    H227668   6.299   1.497   7.681
 2037TIP3   OH227669   6.771   0.220   2.242
 2037TIP3    H127670   6.777   0.198   2.335
 2037TIP3    H227671   6.769   0.135   2.198
 2038TIP3   OH227672   3.387   4.648   6.660
 2038TIP3    H127673   3.309   4.664   6.713
 2038TIP3    H227674   3.355   4.594   6.587
 2039TIP3   OH227675   5.954   0.326   6.391
 2039TIP3    H127676   5.978   0.236   6.369
 2039TIP3    H227677   5.875   0.343   6.339
 2040TIP3   OH227678   5.700   3.592   6.277
 2040TIP3    H127679   5.720   3.662   6.215
 2040TIP3    H227680   5.605   3.598   6.290
 2041TIP3   OH227681   1.160   2.233   7.664
 2041TIP3    H127682   1.155   2.232   7.760
 2041TIP3    H227683   1.155   2.325   7.640
 2042TIP3   OH227684   2.975   0.143   1.088
 2042TIP3    H127685   3.045   0.166   1.150
 2042TIP3    H227686   2.965   0.221   1.034
 2043TIP3   OH227687   0.274   0.030   7.894
 2043TIP3    H127688   0.281   0.034   7.989
 2043TIP3    H227689   0.251   6.848   7.876
 2044TIP3   OH227690   0.387   0.381   8.023
 2044TIP3    H127691   0.365   0.321   7.951
 2044TIP3    H227692   0.316   0.368   8.086
 2045TIP3   OH227693   3.055   6.597   7.242
 2045TIP3    H127694   3.002   6.523   7.214
 2045TIP3    H227695   3.094   6.570   7.325
 2046TIP3   OH227696   3.975   6.572   0.072
 2046TIP3    H127697   3.981   6.491   0.020
 2046TIP3    H227698   4.000   6.641   0.011
 2047TIP3   OH227699   1.529   5.272   0.646
 2047TIP3    H127700   1.478   5.352   0.632
 2047TIP3    H227701   1.467   5.213   0.689
 2048TIP3   OH227702   5.816   6.372   1.296
 2048TIP3    H127703   5.788   6.451   1.251
 2048TIP3    H227704   5.808   6.393   1.389
 2049TIP3   OH227705   0.087   3.429   1.219
 2049TIP3    H127706   0.061   3.478   1.297
 2049TIP3    H227707   0.009   3.429   1.164
 2050TIP3   OH227708   0.275   6.042   0.125
 2050TIP3    H127709   0.194   6.085   0.098
 2050TIP3    H227710   0.250   5.990   0.202
 2051TIP3   OH227711   5.084   6.647   6.388
 2051TIP3    H127712   5.001   6.691   6.406
 2051TIP3    H227713   5.070   6.556   6.415
 2052TIP3   OH227714   6.849   6.361   0.342
 2052TIP3    H127715   6.831   6.414   0.265
 2052TIP3    H227716   0.020   6.313   0.320
 2053TIP3   OH227717   6.818   2.192   6.948
 2053TIP3    H127718   6.757   2.118   6.948
 2053TIP3    H227719   6.773   2.261   6.900
 2054TIP3   OH227720   3.506   3.746   6.210
 2054TIP3    H127721   3.479   3.770   6.299
 2054TIP3    H227722   3.483   3.822   6.157
 2055TIP3   OH227723   6.193   6.539   7.576
 2055TIP3    H127724   6.142   6.460   7.557
 2055TIP3    H227725   6.282   6.517   7.550
 2056TIP3   OH227726   0.859   5.883   7.225
 2056TIP3    H127727   0.822   5.806   7.268
 2056TIP3    H227728   0.938   5.902   7.274
 2057TIP3   OH227729   3.614   3.472   6.205
 2057TIP3    H127730   3.581   3.561   6.214
 2057TIP3    H227731   3.699   3.482   6.163
 2058TIP3   OH227732   6.377   6.104   8.552
 2058TIP3    H127733   6.364   6.028   0.042
 2058TIP3    H227734   6.462   6.087   8.511
 2059TIP3   OH227735   5.049   6.800   2.068
 2059TIP3    H127736   5.058   6.783   1.974
 2059TIP3    H227737   5.133   6.775   2.106
 2060TIP3   OH227738   3.837   2.957   2.431
 2060TIP3    H127739   3.819   2.932   2.521
 2060TIP3    H227740   3.921   3.004   2.435
 2061TIP3   OH227741   1.610   5.151   0.180
 2061TIP3    H127742   1.613   5.161   0.084
 2061TIP3    H227743   1.659   5.227   0.213
 2062TIP3   OH227744   6.578   5.233   0.940
 2062TIP3    H127745   6.523   5.307   0.914
 2062TIP3    H227746   6.523   5.156   0.925
 2063TIP3   OH227747   0.570   4.860   0.101
 2063TIP3    H127748   0.504   4.927   0.118
 2063TIP3    H227749   0.540   4.817   0.021
 2064TIP3   OH227750   2.513   3.935   7.435
 2064TIP3    H127751   2.582   3.984   7.390
 2064TIP3    H227752   2.554   3.852   7.459
 2065TIP3   OH227753   4.542   5.336   2.085
 2065TIP3    H127754   4.493   5.391   2.146
 2065TIP3    H227755   4.569   5.261   2.138
 2066TIP3   OH227756   2.691   6.817   6.672
 2066TIP3    H127757   2.646   6.756   6.731
 2066TIP3    H227758   2.658   6.795   6.585
 2067TIP3   OH227759   2.602   1.431   8.338
 2067TIP3    H127760   2.624   1.497   8.404
 2067TIP3    H227761   2.681   1.377   8.330
 2068TIP3   OH227762   4.521   2.627   1.552
 2068TIP3    H127763   4.603   2.594   1.589
 2068TIP3    H227764   4.457   2.558   1.568
 2069TIP3   OH227765   5.056   2.744   2.333
 2069TIP3    H127766   5.055   2.749   2.237
 2069TIP3    H227767   4.978   2.791   2.360
 2070TIP3   OH227768   1.764   6.080   1.710
 2070TIP3    H127769   1.751   6.023   1.785
 2070TIP3    H227770   1.676   6.095   1.675
 2071TIP3   OH227771   6.782   4.075   6.850
 2071TIP3    H127772   6.825   4.014   6.910
 2071TIP3    H227773   6.754   4.020   6.776
 2072TIP3   OH227774   1.029   1.539   1.188
 2072TIP3    H127775   1.009   1.462   1.242
 2072TIP3    H227776   1.061   1.604   1.251
 2073TIP3   OH227777   5.441   4.841   7.269
 2073TIP3    H127778   5.374   4.839   7.337
 2073TIP3    H227779   5.420   4.919   7.217
 2074TIP3   OH227780   6.789   2.585   1.502
 2074TIP3    H127781   6.825   2.586   1.414
 2074TIP3    H227782   6.799   2.494   1.531
 2075TIP3   OH227783   0.235   3.144   1.459
 2075TIP3    H127784   0.268   3.061   1.423
 2075TIP3    H227785   0.145   3.125   1.485
 2076TIP3   OH227786   6.063   0.078   0.604
 2076TIP3    H127787   6.027   6.902   0.626
 2076TIP3    H227788   5.987   0.136   0.601
 2077TIP3   OH227789   3.288   2.190   0.580
 2077TIP3    H127790   3.275   2.141   0.498
 2077TIP3    H227791   3.260   2.279   0.558
 2078TIP3   OH227792   4.055   3.053   7.422
 2078TIP3    H127793   4.006   3.003   7.488
 2078TIP3    H227794   4.146   3.029   7.437
 2079TIP3   OH227795   0.322   6.577   0.139
 2079TIP3    H127796   0.409   6.538   0.146
 2079TIP3    H227797   0.274   6.518   0.081
 2080TIP3   OH227798   2.188   3.981   1.457
 2080TIP3    H127799   2.114   3.960   1.513
 2080TIP3    H227800   2.265   3.958   1.509
 2081TIP3   OH227801   3.358   0.503   8.225
 2081TIP3    H127802   3.335   0.511   8.132
 2081TIP3    H227803   3.453   0.514   8.226
 2082TIP3   OH227804   1.131   5.472   8.273
 2082TIP3    H127805   1.105   5.510   8.357
 2082TIP3    H227806   1.197   5.532   8.239
 2083TIP3   OH227807   0.932   4.446   6.334
 2083TIP3    H127808   0.906   4.489   6.414
 2083TIP3    H227809   0.927   4.514   6.267
 2084TIP3   OH227810   0.654   0.531   6.198
 2084TIP3    H127811   0.708   0.457   6.169
 2084TIP3    H227812   0.718   0.600   6.218
 2085TIP3   OH227813   4.377   6.330   0.695
 2085TIP3    H127814   4.424   6.397   0.645
 2085TIP3    H227815   4.428   6.250   0.682
 2086TIP3   OH227816   4.427   0.932   0.915
 2086TIP3    H127817   4.470   0.927   0.830
 2086TIP3    H227818   4.349   0.877   0.905
 2087TIP3   OH227819   3.013   6.874   1.847
 2087TIP3    H127820   3.105   6.849   1.834
 2087TIP3    H227821   3.006   0.051   1.808
 2088TIP3   OH227822   4.929   3.121   1.641
 2088TIP3    H127823   4.974   3.111   1.724
 2088TIP3    H227824   4.945   3.039   1.595
 2089TIP3   OH227825   5.421   2.172   2.187
 2089TIP3    H127826   5.342   2.209   2.226
 2089TIP3    H227827   5.438   2.093   2.238
 2090TIP3   OH227828   5.186   5.340   1.638
 2090TIP3    H127829   5.165   5.322   1.546
 2090TIP3    H227830   5.236   5.264   1.667
 2091TIP3   OH227831   3.513   0.452   7.768
 2091TIP3    H127832   3.535   0.500   7.688
 2091TIP3    H227833   3.561   0.498   7.837
 2092TIP3   OH227834   1.834   0.171   1.545
 2092TIP3    H127835   1.872   0.205   1.626
 2092TIP3    H227836   1.740   0.190   1.552
 2093TIP3   OH227837   5.065   2.524   1.724
 2093TIP3    H127838   5.097   2.465   1.792
 2093TIP3    H227839   4.975   2.496   1.708
 2094TIP3   OH227840   1.624   0.325   0.787
 2094TIP3    H127841   1.558   0.289   0.846
 2094TIP3    H227842   1.657   0.249   0.739
 2095TIP3   OH227843   0.812   1.739   6.693
 2095TIP3    H127844   0.810   1.796   6.616
 2095TIP3    H227845   0.821   1.651   6.658
 2096TIP3   OH227846   4.599   1.071   1.509
 2096TIP3    H127847   4.571   1.007   1.575
 2096TIP3    H227848   4.517   1.110   1.479
 2097TIP3   OH227849   4.812   0.071   8.130
 2097TIP3    H127850   4.897   0.080   8.173
 2097TIP3    H227851   4.752   0.047   8.200
 2098TIP3   OH227852   5.214   3.156   7.656
 2098TIP3    H127853   5.145   3.107   7.701
 2098TIP3    H227854   5.198   3.141   7.563
 2099TIP3   OH227855   2.276   2.275   0.814
 2099TIP3    H127856   2.228   2.357   0.806
 2099TIP3    H227857   2.348   2.295   0.874
 2100TIP3   OH227858   5.331   2.434   0.226
 2100TIP3    H127859   5.385   2.368   0.270
 2100TIP3    H227860   5.308   2.496   0.296
 2101TIP3   OH227861   3.175   2.549   1.879
 2101TIP3    H127862   3.205   2.487   1.814
 2101TIP3    H227863   3.148   2.495   1.954
 2102TIP3   OH227864   6.202   5.866   8.034
 2102TIP3    H127865   6.138   5.858   7.963
 2102TIP3    H227866   6.279   5.905   7.992
 2103TIP3   OH227867   6.371   0.198   7.752
 2103TIP3    H127868   6.304   0.156   7.805
 2103TIP3    H227869   6.418   0.126   7.711
 2104TIP3   OH227870   5.443   2.378   1.150
 2104TIP3    H127871   5.349   2.374   1.168
 2104TIP3    H227872   5.451   2.369   1.055
 2105TIP3   OH227873   3.396   3.864   7.348
 2105TIP3    H127874   3.323   3.924   7.365
 2105TIP3    H227875   3.365   3.779   7.377
 2106TIP3   OH227876   4.688   0.201   2.278
 2106TIP3    H127877   4.772   0.192   2.234
 2106TIP3    H227878   4.629   0.143   2.229
 2107TIP3   OH227879   4.406   0.449   7.265
 2107TIP3    H127880   4.372   0.534   7.236
 2107TIP3    H227881   4.487   0.438   7.215
 2108TIP3   OH227882   1.747   2.516   6.327
 2108TIP3    H127883   1.790   2.526   6.242
 2108TIP3    H227884   1.713   2.426   6.327
 2109TIP3   OH227885   5.623   2.765   8.051
 2109TIP3    H127886   5.713   2.738   8.066
 2109TIP3    H227887   5.626   2.860   8.049
 2110TIP3   OH227888   3.933   4.127   1.934
 2110TIP3    H127889   3.917   4.215   1.901
 2110TIP3    H227890   3.847   4.085   1.932
 2111TIP3   OH227891   1.078   2.381   0.227
 2111TIP3    H127892   0.983   2.388   0.229
 2111TIP3    H227893   1.096   2.308   0.168
 2112TIP3   OH227894   4.058   1.206   1.805
 2112TIP3    H127895   3.992   1.165   1.748
 2112TIP3    H227896   4.017   1.207   1.892
 2113TIP3   OH227897   0.143   5.711   1.895
 2113TIP3    H127898   0.223   5.763   1.900
 2113TIP3    H227899   0.156   5.641   1.958
 2114TIP3   OH227900   5.001   6.378   0.064
 2114TIP3    H127901   4.926   6.435   0.051
 2114TIP3    H227902   5.065   6.406   8.564
 2115TIP3   OH227903   3.518   6.164   8.183
 2115TIP3    H127904   3.518   6.078   8.226
 2115TIP3    H227905   3.596   6.163   8.128
 2116TIP3   OH227906   3.027   5.175   0.484
 2116TIP3    H127907   2.940   5.137   0.501
 2116TIP3    H227908   3.084   5.099   0.471
 2117TIP3   OH227909   4.042   1.520   8.375
 2117TIP3    H127910   3.969   1.507   8.435
 2117TIP3    H227911   4.022   1.462   8.301
 2118TIP3   OH227912   4.148   1.228   7.283
 2118TIP3    H127913   4.125   1.208   7.192
 2118TIP3    H227914   4.165   1.323   7.284
 2119TIP3   OH227915   4.936   6.657   0.681
 2119TIP3    H127916   4.892   6.680   0.763
 2119TIP3    H227917   5.015   6.710   0.680
 2120TIP3   OH227918   0.163   2.466   0.146
 2120TIP3    H127919   0.099   2.455   0.076
 2120TIP3    H227920   0.230   2.401   0.128
 2121TIP3   OH227921   4.840   6.178   1.337
 2121TIP3    H127922   4.751   6.173   1.369
 2121TIP3    H227923   4.834   6.148   1.246
 2122TIP3   OH227924   5.678   4.072   0.016
 2122TIP3    H127925   5.683   4.126   8.504
 2122TIP3    H227926   5.638   4.129   0.081
 2123TIP3   OH227927   3.460   6.471   7.751
 2123TIP3    H127928   3.400   6.424   7.809
 2123TIP3    H227929   3.403   6.522   7.694
 2124TIP3   OH227930   0.610   2.527   0.283
 2124TIP3    H127931   0.551   2.537   0.358
 2124TIP3    H227932   0.681   2.588   0.300
 2125TIP3   OH227933   5.852   1.655   1.258
 2125TIP3    H127934   5.901   1.701   1.189
 2125TIP3    H227935   5.871   1.704   1.338
 2126TIP3   OH227936   4.702   3.553   2.153
 2126TIP3    H127937   4.706   3.480   2.216
 2126TIP3    H227938   4.761   3.527   2.083
 2127TIP3   OH227939   4.858   5.043   6.892
 2127TIP3    H127940   4.904   4.971   6.850
 2127TIP3    H227941   4.856   5.113   6.826
 2128TIP3   OH227942   6.872   2.824   6.972
 2128TIP3    H127943   6.878   2.739   6.928
 2128TIP3    H227944   6.906   2.807   7.060
 2129TIP3   OH227945   0.593   2.371   7.278
 2129TIP3    H127946   0.579   2.329   7.363
 2129TIP3    H227947   0.539   2.450   7.282
 2130TIP3   OH227948   3.878   3.432   1.534
 2130TIP3    H127949   3.969   3.404   1.528
 2130TIP3    H227950   3.853   3.410   1.624
 2131TIP3   OH227951   4.358   0.866   8.184
 2131TIP3    H127952   4.418   0.892   8.254
 2131TIP3    H227953   4.316   0.948   8.156
 2132TIP3   OH227954   0.008   6.355   6.200
 2132TIP3    H127955   6.830   6.394   6.193
 2132TIP3    H227956   6.905   6.264   6.172
 2133TIP3   OH227957   1.100   5.716   0.873
 2133TIP3    H127958   1.036   5.777   0.909
 2133TIP3    H227959   1.117   5.654   0.944
 2134TIP3   OH227960   6.426   2.440   2.189
 2134TIP3    H127961   6.448   2.351   2.215
 2134TIP3    H227962   6.384   2.478   2.266
 2135TIP3   OH227963   1.334   5.451   0.682
 2135TIP3    H127964   1.346   5.524   0.742
 2135TIP3    H227965   1.294   5.490   0.604
 2136TIP3   OH227966   4.332   5.636   1.754
 2136TIP3    H127967   4.275   5.560   1.740
 2136TIP3    H227968   4.344   5.673   1.666
 2137TIP3   OH227969   3.170   0.652   1.582
 2137TIP3    H127970   3.199   0.604   1.504
 2137TIP3    H227971   3.170   0.744   1.554
 2138TIP3   OH227972   0.875   5.992   7.500
 2138TIP3    H127973   0.825   6.072   7.513
 2138TIP3    H227974   0.967   6.017   7.513
 2139TIP3   OH227975   6.130   1.508   7.323
 2139TIP3    H127976   6.100   1.580   7.378
 2139TIP3    H227977   6.077   1.433   7.351
 2140TIP3   OH227978   0.002   4.281   7.214
 2140TIP3    H127979   0.055   4.296   7.135
 2140TIP3    H227980   0.020   4.189   7.236
 2141TIP3   OH227981   1.119   4.116   8.064
 2141TIP3    H127982   1.044   4.079   8.018
 2141TIP3    H227983   1.142   4.049   8.129
 2142TIP3   OH227984   6.414   4.399   1.062
 2142TIP3    H127985   6.366   4.481   1.077
 2142TIP3    H227986   6.460   4.383   1.144
 2143TIP3   OH227987   5.028   0.028   8.346
 2143TIP3    H127988   5.114   0.001   8.379
 2143TIP3    H227989   5.033   0.123   8.340
 2144TIP3   OH227990   1.348   3.955   0.408
 2144TIP3    H127991   1.278   3.931   0.468
 2144TIP3    H227992   1.418   3.893   0.427
 2145TIP3   OH227993   4.855   4.166   7.930
 2145TIP3    H127994   4.761   4.146   7.936
 2145TIP3    H227995   4.886   4.159   8.021
 2146TIP3   OH227996   5.291   6.381   8.396
 2146TIP3    H127997   5.364   6.333   8.358
 2146TIP3    H227998   5.215   6.356   8.343
 2147TIP3   OH227999   5.619   6.029   8.536
 2147TIP3    H128000   5.565   6.065   8.466
 2147TIP3    H228001   5.643   5.941   8.505
 2148TIP3   OH228002   6.281   6.087   6.930
 2148TIP3    H128003   6.280   5.991   6.931
 2148TIP3    H228004   6.323   6.111   7.013
 2149TIP3   OH228005   6.653   5.274   6.804
 2149TIP3    H128006   6.663   5.211   6.734
 2149TIP3    H228007   6.567   5.255   6.841
 2150TIP3   OH228008   6.091   2.958   0.378
 2150TIP3    H128009   6.150   2.956   0.303
 2150TIP3    H228010   6.014   3.006   0.348
 2151TIP3   OH228011   2.703   4.509   0.998
 2151TIP3    H128012   2.614   4.481   1.020
 2151TIP3    H228013   2.755   4.481   1.073
 2152TIP3   OH228014   0.557   5.077   8.390
 2152TIP3    H128015   0.488   5.120   8.439
 2152TIP3    H228016   0.512   5.016   8.331
 2153TIP3   OH228017   6.055   6.326   1.994
 2153TIP3    H128018   5.995   6.399   2.007
 2153TIP3    H228019   5.999   6.249   1.989
 2154TIP3   OH228020   5.849   3.310   1.027
 2154TIP3    H128021   5.794   3.237   1.057
 2154TIP3    H228022   5.794   3.357   0.964
 2155TIP3   OH228023   1.039   3.256   7.564
 2155TIP3    H128024   0.989   3.203   7.626
 2155TIP3    H228025   0.974   3.313   7.523
 2156TIP3   OH228026   2.853   0.409   1.156
 2156TIP3    H128027   2.942   0.412   1.192
 2156TIP3    H228028   2.801   0.461   1.217
 2157TIP3   OH228029   6.715   1.812   8.112
 2157TIP3    H128030   6.697   1.898   8.073
 2157TIP3    H228031   6.806   1.818   8.141
 2158TIP3   OH228032   6.360   6.153   1.541
 2158TIP3    H128033   6.343   6.243   1.513
 2158TIP3    H228034   6.310   6.099   1.480
 2159TIP3   OH228035   0.028   1.027   0.514
 2159TIP3    H128036   6.871   0.978   0.465
 2159TIP3    H228037   0.110   0.981   0.496
 2160TIP3   OH228038   3.542   3.925   1.493
 2160TIP3    H128039   3.521   3.925   1.400
 2160TIP3    H228040   3.523   4.014   1.522
 2161TIP3   OH228041   1.735   4.910   8.287
 2161TIP3    H128042   1.736   4.945   8.376
 2161TIP3    H228043   1.669   4.963   8.242
 2162TIP3   OH228044   5.722   5.480   8.044
 2162TIP3    H128045   5.702   5.415   7.977
 2162TIP3    H228046   5.679   5.560   8.013
 2163TIP3   OH228047   1.880   4.812   6.950
 2163TIP3    H128048   1.821   4.869   7.000
 2163TIP3    H228049   1.928   4.871   6.892
 2164TIP3   OH228050   4.913   5.048   0.058
 2164TIP3    H128051   4.972   5.119   0.031
 2164TIP3    H228052   4.869   5.082   0.136
 2165TIP3   OH228053   3.264   1.875   8.341
 2165TIP3    H128054   3.277   1.806   8.276
 2165TIP3    H228055   3.201   1.934   8.300
 2166TIP3   OH228056   5.236   0.335   2.511
 2166TIP3    H128057   5.259   0.423   2.539
 2166TIP3    H228058   5.168   0.307   2.572
 2167TIP3   OH228059   2.216   2.700   0.863
 2167TIP3    H128060   2.217   2.661   0.776
 2167TIP3    H228061   2.307   2.694   0.893
 2168TIP3   OH228062   5.858   1.374   0.063
 2168TIP3    H128063   5.886   1.465   0.056
 2168TIP3    H228064   5.891   1.332   8.550
 2169TIP3   OH228065   0.050   4.034   7.303
 2169TIP3    H128066   0.112   3.973   7.343
 2169TIP3    H228067   6.879   4.023   7.353
 2170TIP3   OH228068   2.861   5.170   1.932
 2170TIP3    H128069   2.808   5.182   2.011
 2170TIP3    H228070   2.855   5.076   1.913
 2171TIP3   OH228071   0.830   6.628   0.433
 2171TIP3    H128072   0.767   6.697   0.456
 2171TIP3    H228073   0.795   6.549   0.474
 2172TIP3   OH228074   3.700   0.227   0.177
 2172TIP3    H128075   3.752   0.162   0.130
 2172TIP3    H228076   3.664   0.283   0.108
 2173TIP3   OH228077   5.620   3.359   8.419
 2173TIP3    H128078   5.690   3.400   8.369
 2173TIP3    H228079   5.564   3.432   8.447
 2174TIP3   OH228080   4.939   0.256   6.449
 2174TIP3    H128081   4.864   0.303   6.411
 2174TIP3    H228082   5.015   0.297   6.409
 2175TIP3   OH228083   0.419   2.583   7.224
 2175TIP3    H128084   0.326   2.594   7.247
 2175TIP3    H228085   0.424   2.607   7.132
 2176TIP3   OH228086   6.459   3.753   0.649
 2176TIP3    H128087   6.404   3.708   0.585
 2176TIP3    H228088   6.516   3.810   0.597
 2177TIP3   OH228089   3.213   2.399   0.275
 2177TIP3    H128090   3.181   2.484   0.243
 2177TIP3    H228091   3.143   2.366   0.331
 2178TIP3   OH228092   4.237   4.255   1.660
 2178TIP3    H128093   4.279   4.312   1.724
 2178TIP3    H228094   4.164   4.308   1.625
 2179TIP3   OH228095   3.188   6.077   0.231
 2179TIP3    H128096   3.191   6.128   0.312
 2179TIP3    H228097   3.241   6.127   0.169
 2180TIP3   OH228098   4.791   3.535   0.275
 2180TIP3    H128099   4.858   3.549   0.342
 2180TIP3    H228100   4.710   3.568   0.315
 2181TIP3   OH228101   1.648   0.380   7.625
 2181TIP3    H128102   1.732   0.404   7.665
 2181TIP3    H228103   1.604   0.328   7.692
 2182TIP3   OH228104   0.328   1.289   7.295
 2182TIP3    H128105   0.252   1.327   7.340
 2182TIP3    H228106   0.401   1.345   7.322
 2183TIP3   OH228107   3.740   4.424   0.531
 2183TIP3    H128108   3.732   4.337   0.569
 2183TIP3    H228109   3.820   4.420   0.478
 2184TIP3   OH228110   3.568   0.567   7.537
 2184TIP3    H128111   3.491   0.587   7.484
 2184TIP3    H228112   3.641   0.569   7.474
 2185TIP3   OH228113   3.365   2.621   7.100
 2185TIP3    H128114   3.312   2.691   7.138
 2185TIP3    H228115   3.301   2.559   7.064
 2186TIP3   OH228116   2.175   5.883   7.489
 2186TIP3    H128117   2.108   5.919   7.548
 2186TIP3    H228118   2.125   5.839   7.420
 2187TIP3   OH228119   3.566   1.743   7.670
 2187TIP3    H128120   3.506   1.769   7.739
 2187TIP3    H228121   3.630   1.814   7.665
 2188TIP3   OH228122   4.027   5.757   6.886
 2188TIP3    H128123   4.041   5.683   6.826
 2188TIP3    H228124   4.115   5.786   6.909
 2189TIP3   OH228125   6.181   0.856   0.634
 2189TIP3    H128126   6.210   0.899   0.714
 2189TIP3    H228127   6.230   0.900   0.564
 2190TIP3   OH228128   5.209   4.597   8.200
 2190TIP3    H128129   5.256   4.635   8.126
 2190TIP3    H228130   5.127   4.564   8.163
 2191TIP3   OH228131   1.153   6.008   7.588
 2191TIP3    H128132   1.245   5.983   7.594
 2191TIP3    H228133   1.148   6.090   7.637
 2192TIP3   OH228134   1.192   5.826   1.904
 2192TIP3    H128135   1.158   5.742   1.872
 2192TIP3    H228136   1.233   5.804   1.988
 2193TIP3   OH228137   3.021   4.094   7.055
 2193TIP3    H128138   2.930   4.122   7.042
 2193TIP3    H228139   3.071   4.175   7.061
 2194TIP3   OH228140   3.643   3.367   7.743
 2194TIP3    H128141   3.704   3.424   7.696
 2194TIP3    H228142   3.573   3.350   7.680
 2195TIP3   OH228143   5.974   1.728   7.452
 2195TIP3    H128144   6.028   1.777   7.515
 2195TIP3    H228145   5.892   1.712   7.499
 2196TIP3   OH228146   3.703   5.352   7.621
 2196TIP3    H128147   3.677   5.415   7.554
 2196TIP3    H228148   3.639   5.364   7.691
 2197TIP3   OH228149   3.036   3.153   2.188
 2197TIP3    H128150   2.994   3.131   2.105
 2197TIP3    H228151   3.116   3.199   2.163
 2198TIP3   OH228152   3.684   3.124   7.062
 2198TIP3    H128153   3.740   3.087   7.131
 2198TIP3    H228154   3.746   3.164   7.000
 2199TIP3   OH228155   3.338   1.629   6.470
 2199TIP3    H128156   3.307   1.692   6.405
 2199TIP3    H228157   3.432   1.646   6.477
 2200TIP3   OH228158   1.946   3.331   0.713
 2200TIP3    H128159   2.017   3.390   0.685
 2200TIP3    H228160   1.952   3.257   0.653
 2201TIP3   OH228161   5.135   4.945   8.258
 2201TIP3    H128162   5.204   4.896   8.214
 2201TIP3    H228163   5.171   4.965   8.344
 2202TIP3   OH228164   6.876   2.631   8.236
 2202TIP3    H128165   6.823   2.701   8.198
 2202TIP3    H228166   0.014   2.594   8.161
 2203TIP3   OH228167   0.159   6.533   0.864
 2203TIP3    H128168   0.241   6.485   0.871
 2203TIP3    H228169   0.091   6.465   0.864
 2204TIP3   OH228170   2.334   3.914   1.996
 2204TIP3    H128171   2.324   4.002   2.034
 2204TIP3    H228172   2.426   3.893   2.011
 2205TIP3   OH228173   2.983   2.658   7.236
 2205TIP3    H128174   2.907   2.608   7.207
 2205TIP3    H228175   3.009   2.617   7.318
 2206TIP3   OH228176   5.064   2.932   8.159
 2206TIP3    H128177   4.980   2.890   8.176
 2206TIP3    H228178   5.129   2.866   8.180
 2207TIP3   OH228179   4.035   6.379   6.410
 2207TIP3    H128180   3.965   6.365   6.347
 2207TIP3    H228181   4.116   6.361   6.362
 2208TIP3   OH228182   1.077   2.642   1.184
 2208TIP3    H128183   1.126   2.664   1.263
 2208TIP3    H228184   1.145   2.630   1.117
 2209TIP3   OH228185   2.266   3.975   0.533
 2209TIP3    H128186   2.245   4.062   0.567
 2209TIP3    H228187   2.320   3.934   0.601
 2210TIP3   OH228188   2.694   1.975   1.416
 2210TIP3    H128189   2.715   1.933   1.499
 2210TIP3    H228190   2.691   1.903   1.353
 2211TIP3   OH228191   3.801   6.491   6.758
 2211TIP3    H128192   3.779   6.526   6.844
 2211TIP3    H228193   3.768   6.556   6.696
 2212TIP3   OH228194   1.894   0.257   2.181
 2212TIP3    H128195   1.949   0.182   2.160
 2212TIP3    H228196   1.810   0.238   2.140
 2213TIP3   OH228197   6.800   0.393   0.190
 2213TIP3    H128198   6.774   0.399   0.282
 2213TIP3    H228199   6.804   0.483   0.160
 2214TIP3   OH228200   6.163   3.471   8.241
 2214TIP3    H128201   6.247   3.514   8.229
 2214TIP3    H228202   6.186   3.382   8.268
 2215TIP3   OH228203   0.313   1.386   6.417
 2215TIP3    H128204   0.389   1.419   6.463
 2215TIP3    H228205   0.291   1.454   6.353
 2216TIP3   OH228206   6.463   1.271   7.934
 2216TIP3    H128207   6.481   1.338   8.000
 2216TIP3    H228208   6.476   1.316   7.851
 2217TIP3   OH228209   6.285   3.989   2.215
 2217TIP3    H128210   6.228   3.912   2.216
 2217TIP3    H228211   6.242   4.051   2.274
 2218TIP3   OH228212   0.287   2.951   6.610
 2218TIP3    H128213   0.203   2.958   6.657
 2218TIP3    H228214   0.279   3.012   6.538
 2219TIP3   OH228215   1.648   3.449   0.506
 2219TIP3    H128216   1.617   3.464   0.595
 2219TIP3    H228217   1.743   3.457   0.512
 2220TIP3   OH228218   6.308   1.957   7.367
 2220TIP3    H128219   6.274   2.046   7.368
 2220TIP3    H228220   6.234   1.903   7.393
 2221TIP3   OH228221   1.535   0.983   8.315
 2221TIP3    H128222   1.571   0.925   8.382
 2221TIP3    H228223   1.446   1.002   8.345
 2222TIP3   OH228224   6.638   0.658   1.696
 2222TIP3    H128225   6.681   0.644   1.781
 2222TIP3    H228226   6.545   0.656   1.717
 2223TIP3   OH228227   4.148   5.953   8.483
 2223TIP3    H128228   4.223   5.958   8.542
 2223TIP3    H228229   4.098   5.878   8.514
 2224TIP3   OH228230   1.184   2.414   7.372
 2224TIP3    H128231   1.277   2.390   7.384
 2224TIP3    H228232   1.175   2.497   7.417
 2225TIP3   OH228233   0.914   2.218   7.322
 2225TIP3    H128234   0.987   2.169   7.284
 2225TIP3    H228235   0.856   2.237   7.249
 2226TIP3   OH228236   2.416   4.709   8.139
 2226TIP3    H128237   2.409   4.714   8.235
 2226TIP3    H228238   2.329   4.682   8.110
 2227TIP3   OH228239   0.724   2.885   8.346
 2227TIP3    H128240   0.678   2.801   8.345
 2227TIP3    H228241   0.807   2.867   8.391
 2228TIP3   OH228242   6.692   3.666   7.293
 2228TIP3    H128243   6.654   3.702   7.373
 2228TIP3    H228244   6.623   3.610   7.257
 2229TIP3   OH228245   2.725   3.540   8.284
 2229TIP3    H128246   2.765   3.457   8.311
 2229TIP3    H228247   2.715   3.532   8.189
 2230TIP3   OH228248   0.912   5.633   2.089
 2230TIP3    H128249   0.845   5.696   2.061
 2230TIP3    H228250   0.904   5.561   2.026
 2231TIP3   OH228251   1.989   5.588   6.456
 2231TIP3    H128252   2.080   5.574   6.430
 2231TIP3    H228253   1.952   5.642   6.386
 2232TIP3   OH228254   5.474   5.772   8.058
 2232TIP3    H128255   5.492   5.682   8.088
 2232TIP3    H228256   5.398   5.764   8.001
 2233TIP3   OH228257   4.344   3.241   1.353
 2233TIP3    H128258   4.342   3.188   1.433
 2233TIP3    H228259   4.295   3.320   1.376
 2234TIP3   OH228260   1.800   0.402   6.636
 2234TIP3    H128261   1.871   0.460   6.609
 2234TIP3    H228262   1.843   0.318   6.652
 2235TIP3   OH228263   1.833   4.717   0.844
 2235TIP3    H128264   1.755   4.773   0.835
 2235TIP3    H228265   1.797   4.630   0.862
 2236TIP3   OH228266   6.052   2.463   6.923
 2236TIP3    H128267   6.061   2.442   6.830
 2236TIP3    H228268   6.143   2.470   6.954
 2237TIP3   OH228269   4.060   3.710   0.443
 2237TIP3    H128270   4.007   3.658   0.502
 2237TIP3    H228271   4.119   3.760   0.500
 2238TIP3   OH228272   6.273   5.246   7.829
 2238TIP3    H128273   6.243   5.327   7.871
 2238TIP3    H228274   6.364   5.236   7.859
 2239TIP3   OH228275   2.827   2.914   7.138
 2239TIP3    H128276   2.865   2.981   7.196
 2239TIP3    H228277   2.855   2.940   7.050
 2240TIP3   OH228278   0.874   6.519   7.621
 2240TIP3    H128279   0.885   6.610   7.650
 2240TIP3    H228280   0.821   6.478   7.689
 2241TIP3   OH228281   3.337   5.921   0.531
 2241TIP3    H128282   3.376   5.868   0.601
 2241TIP3    H228283   3.399   5.914   0.458
 2242TIP3   OH228284   1.865   4.595   7.589
 2242TIP3    H128285   1.845   4.614   7.680
 2242TIP3    H228286   1.791   4.630   7.540
 2243TIP3   OH228287   0.418   4.435   7.003
 2243TIP3    H128288   0.487   4.502   6.996
 2243TIP3    H228289   0.466   4.353   7.018
 2244TIP3   OH228290   1.408   3.181   0.745
 2244TIP3    H128291   1.449   3.267   0.750
 2244TIP3    H228292   1.380   3.163   0.835
 2245TIP3   OH228293   6.279   6.722   2.383
 2245TIP3    H128294   6.368   6.705   2.353
 2245TIP3    H228295   6.223   6.683   2.315
 2246TIP3   OH228296   6.615   4.749   1.521
 2246TIP3    H128297   6.612   4.845   1.527
 2246TIP3    H228298   6.560   4.728   1.446
 2247TIP3   OH228299   0.272   6.843   0.081
 2247TIP3    H128300   0.321   6.761   0.091
 2247TIP3    H228301   0.180   6.817   0.089
 2248TIP3   OH228302   0.579   6.439   0.213
 2248TIP3    H128303   0.589   6.388   0.293
 2248TIP3    H228304   0.668   6.456   0.184
 2249TIP3   OH228305   5.891   6.633   7.102
 2249TIP3    H128306   5.874   6.712   7.153
 2249TIP3    H228307   5.929   6.664   7.020
 2250TIP3   OH228308   1.997   6.346   0.534
 2250TIP3    H128309   1.925   6.288   0.559
 2250TIP3    H228310   1.986   6.423   0.590
 2251TIP3   OH228311   2.212   4.136   1.233
 2251TIP3    H128312   2.266   4.108   1.159
 2251TIP3    H228313   2.218   4.063   1.296
 2252TIP3   OH228314   6.602   6.529   7.036
 2252TIP3    H128315   6.517   6.492   7.061
 2252TIP3    H228316   6.658   6.452   7.023
 2253TIP3   OH228317   6.213   6.171   2.166
 2253TIP3    H128318   6.309   6.167   2.165
 2253TIP3    H228319   6.193   6.259   2.198
 2254TIP3   OH228320   2.376   4.867   6.603
 2254TIP3    H128321   2.425   4.870   6.685
 2254TIP3    H228322   2.384   4.956   6.566
 2255TIP3   OH228323   0.528   1.333   0.916
 2255TIP3    H128324   0.464   1.402   0.896
 2255TIP3    H228325   0.582   1.326   0.838
 2256TIP3   OH228326   3.555   3.127   8.205
 2256TIP3    H128327   3.589   3.125   8.115
 2256TIP3    H228328   3.475   3.074   8.202
 2257TIP3   OH228329   4.925   2.694   8.555
 2257TIP3    H128330   4.929   2.623   8.492
 2257TIP3    H228331   5.009   2.692   0.032
 2258TIP3   OH228332   3.591   4.373   1.446
 2258TIP3    H128333   3.560   4.459   1.475
 2258TIP3    H228334   3.516   4.335   1.401
 2259TIP3   OH228335   4.852   3.277   0.486
 2259TIP3    H128336   4.931   3.230   0.515
 2259TIP3    H228337   4.883   3.366   0.470
 2260TIP3   OH228338   4.074   6.003   7.073
 2260TIP3    H128339   4.099   5.965   7.157
 2260TIP3    H228340   4.133   6.078   7.062
 2261TIP3   OH228341   4.509   0.016   2.239
 2261TIP3    H128342   4.441   0.027   2.306
 2261TIP3    H228343   4.570   6.863   2.277
 2262TIP3   OH228344   3.980   0.225   8.442
 2262TIP3    H128345   3.968   0.131   8.451
 2262TIP3    H228346   3.946   0.245   8.355
 2263TIP3   OH228347   4.726   1.465   8.488
 2263TIP3    H128348   4.745   1.375   8.460
 2263TIP3    H228349   4.737   1.517   8.408
 2264TIP3   OH228350   1.652   0.933   0.548
 2264TIP3    H128351   1.715   0.871   0.585
 2264TIP3    H228352   1.650   0.912   0.454
 2265TIP3   OH228353   4.406   5.416   0.856
 2265TIP3    H128354   4.445   5.380   0.936
 2265TIP3    H228355   4.475   5.472   0.819
 2266TIP3   OH228356   5.218   1.847   7.677
 2266TIP3    H128357   5.295   1.804   7.714
 2266TIP3    H228358   5.146   1.786   7.695
 2267TIP3   OH228359   0.592   4.874   7.987
 2267TIP3    H128360   0.640   4.792   7.971
 2267TIP3    H228361   0.660   4.937   8.010
 2268TIP3   OH228362   5.541   1.605   7.837
 2268TIP3    H128363   5.473   1.660   7.876
 2268TIP3    H228364   5.600   1.585   7.910
 2269TIP3   OH228365   2.819   1.416   1.367
 2269TIP3    H128366   2.818   1.321   1.362
 2269TIP3    H228367   2.912   1.440   1.369
 2270TIP3   OH228368   1.671   0.083   7.755
 2270TIP3    H128369   1.603   0.110   7.817
 2270TIP3    H228370   1.652   6.900   7.737
 2271TIP3   OH228371   4.048   4.055   1.062
 2271TIP3    H128372   4.090   4.069   0.977
 2271TIP3    H228373   4.090   4.119   1.119
 2272TIP3   OH228374   4.606   1.945   6.474
 2272TIP3    H128375   4.550   1.992   6.536
 2272TIP3    H228376   4.646   2.014   6.421
 2273TIP3   OH228377   3.499   1.222   0.152
 2273TIP3    H128378   3.542   1.138   0.170
 2273TIP3    H228379   3.542   1.284   0.211
 2274TIP3   OH228380   3.531   5.082   7.493
 2274TIP3    H128381   3.469   5.012   7.477
 2274TIP3    H228382   3.492   5.159   7.452
 2275TIP3   OH228383   5.882   5.163   7.827
 2275TIP3    H128384   5.939   5.174   7.751
 2275TIP3    H228385   5.857   5.071   7.825
 2276TIP3   OH228386   5.294   6.867   8.116
 2276TIP3    H128387   5.360   6.888   8.182
 2276TIP3    H228388   5.285   0.038   8.064
 2277TIP3   OH228389   5.180   4.589   8.469
 2277TIP3    H128390   5.197   4.593   8.374
 2277TIP3    H228391   5.255   4.634   8.508
 2278TIP3   OH228392   3.196   3.761   6.862
 2278TIP3    H128393   3.139   3.823   6.907
 2278TIP3    H228394   3.266   3.815   6.824
 2279TIP3   OH228395   3.641   0.140   1.953
 2279TIP3    H128396   3.671   0.109   2.039
 2279TIP3    H228397   3.548   0.161   1.967
 2280TIP3   OH228398   5.230   1.210   0.874
 2280TIP3    H128399   5.236   1.115   0.888
 2280TIP3    H228400   5.280   1.248   0.946
 2281TIP3   OH228401   2.792   5.511   0.106
 2281TIP3    H128402   2.824   5.531   0.018
 2281TIP3    H228403   2.855   5.554   0.164
 2282TIP3   OH228404   0.902   4.918   6.999
 2282TIP3    H128405   0.826   4.939   6.945
 2282TIP3    H228406   0.977   4.925   6.939
 2283TIP3   OH228407   1.523   5.671   2.108
 2283TIP3    H128408   1.456   5.723   2.153
 2283TIP3    H228409   1.514   5.694   2.016
 2284TIP3   OH228410   0.251   5.206   8.357
 2284TIP3    H128411   0.307   5.262   8.303
 2284TIP3    H228412   0.204   5.152   8.295
 2285TIP3   OH228413   3.193   1.845   0.410
 2285TIP3    H128414   3.164   1.803   0.491
 2285TIP3    H228415   3.121   1.830   0.348
 2286TIP3   OH228416   6.464   1.031   2.034
 2286TIP3    H128417   6.552   1.053   2.064
 2286TIP3    H228418   6.405   1.072   2.096
 2287TIP3   OH228419   5.845   6.759   0.699
 2287TIP3    H128420   5.774   6.802   0.651
 2287TIP3    H228421   5.907   6.731   0.632
 2288TIP3   OH228422   5.810   6.094   7.057
 2288TIP3    H128423   5.729   6.089   7.006
 2288TIP3    H228424   5.838   6.185   7.047
 2289TIP3   OH228425   6.332   6.363   8.503
 2289TIP3    H128426   6.350   6.383   0.028
 2289TIP3    H228427   6.328   6.268   8.500
 2290TIP3   OH228428   0.148   5.029   8.161
 2290TIP3    H128429   0.068   5.082   8.153
 2290TIP3    H228430   0.146   4.972   8.084
 2291TIP3   OH228431   5.355   6.124   7.663
 2291TIP3    H128432   5.369   6.111   7.569
 2291TIP3    H228433   5.364   6.037   7.701
 2292TIP3   OH228434   2.182   6.689   1.996
 2292TIP3    H128435   2.274   6.684   2.024
 2292TIP3    H228436   2.180   6.764   1.936
 2293TIP3   OH228437   1.987   4.264   7.365
 2293TIP3    H128438   1.918   4.200   7.381
 2293TIP3    H228439   1.974   4.290   7.274
 2294TIP3   OH228440   6.687   0.417   1.522
 2294TIP3    H128441   6.781   0.433   1.511
 2294TIP3    H228442   6.658   0.485   1.582
 2295TIP3   OH228443   2.689   6.324   1.699
 2295TIP3    H128444   2.748   6.395   1.674
 2295TIP3    H228445   2.622   6.367   1.753
 2296TIP3   OH228446   4.023   1.007   0.072
 2296TIP3    H128447   4.097   1.012   0.011
 2296TIP3    H228448   4.020   1.093   0.113
 2297TIP3   OH228449   5.668   5.503   6.983
 2297TIP3    H128450   5.749   5.516   6.933
 2297TIP3    H228451   5.653   5.587   7.025
 2298TIP3   OH228452   3.859   0.203   0.439
 2298TIP3    H128453   3.948   0.180   0.415
 2298TIP3    H228454   3.813   0.213   0.356
 2299TIP3   OH228455   0.159   1.714   6.347
 2299TIP3    H128456   0.219   1.686   6.278
 2299TIP3    H228457   0.209   1.777   6.398
 2300TIP3   OH228458   6.292   3.085   2.526
 2300TIP3    H128459   6.284   3.180   2.525
 2300TIP3    H228460   6.386   3.068   2.519
 2301TIP3   OH228461   0.364   4.843   2.052
 2301TIP3    H128462   0.300   4.848   1.981
 2301TIP3    H228463   0.449   4.841   2.007
 2302TIP3   OH228464   4.997   5.693   7.414
 2302TIP3    H128465   4.970   5.637   7.487
 2302TIP3    H228466   4.980   5.640   7.336
 2303TIP3   OH228467   6.192   6.394   2.351
 2303TIP3    H128468   6.160   6.458   2.287
 2303TIP3    H228469   6.118   6.380   2.410
 2304TIP3   OH228470   1.671   3.214   7.578
 2304TIP3    H128471   1.666   3.254   7.664
 2304TIP3    H228472   1.579   3.201   7.552
 2305TIP3   OH228473   6.457   3.255   0.239
 2305TIP3    H128474   6.456   3.218   0.328
 2305TIP3    H228475   6.550   3.263   0.217
 2306TIP3   OH228476   4.247   1.841   1.390
 2306TIP3    H128477   4.296   1.831   1.309
 2306TIP3    H228478   4.194   1.761   1.396
 2307TIP3   OH228479   2.269   5.144   1.153
 2307TIP3    H128480   2.330   5.178   1.088
 2307TIP3    H228481   2.323   5.123   1.229
 2308TIP3   OH228482   3.966   2.540   6.775
 2308TIP3    H128483   3.993   2.516   6.686
 2308TIP3    H228484   3.921   2.463   6.808
 2309TIP3   OH228485   4.369   6.010   7.520
 2309TIP3    H128486   4.426   6.084   7.500
 2309TIP3    H228487   4.282   6.041   7.497
 2310TIP3   OH228488   3.838   4.613   2.036
 2310TIP3    H128489   3.924   4.571   2.028
 2310TIP3    H228490   3.800   4.608   1.949
 2311TIP3   OH228491   2.764   1.313   7.206
 2311TIP3    H128492   2.805   1.375   7.146
 2311TIP3    H228493   2.708   1.367   7.262
 2312TIP3   OH228494   2.927   4.839   7.910
 2312TIP3    H128495   3.007   4.855   7.861
 2312TIP3    H228496   2.880   4.772   7.860
 2313TIP3   OH228497   2.711   3.307   2.436
 2313TIP3    H128498   2.788   3.271   2.480
 2313TIP3    H228499   2.688   3.241   2.371
 2314TIP3   OH228500   5.752   0.967   0.347
 2314TIP3    H128501   5.667   0.974   0.303
 2314TIP3    H228502   5.803   1.039   0.312
 2315TIP3   OH228503   5.672   1.154   0.851
 2315TIP3    H128504   5.683   1.117   0.764
 2315TIP3    H228505   5.628   1.084   0.901
 2316TIP3   OH228506   5.155   5.293   1.339
 2316TIP3    H128507   5.172   5.229   1.269
 2316TIP3    H228508   5.222   5.360   1.326
 2317TIP3   OH228509   0.887   4.411   7.864
 2317TIP3    H128510   0.859   4.325   7.831
 2317TIP3    H228511   0.907   4.396   7.956
 2318TIP3   OH228512   4.569   1.858   1.971
 2318TIP3    H128513   4.579   1.772   2.011
 2318TIP3    H228514   4.649   1.871   1.920
 2319TIP3   OH228515   3.711   3.314   0.996
 2319TIP3    H128516   3.743   3.332   0.908
 2319TIP3    H228517   3.786   3.277   1.042
 2320TIP3   OH228518   4.141   0.260   6.864
 2320TIP3    H128519   4.084   0.183   6.867
 2320TIP3    H228520   4.208   0.243   6.930
 2321TIP3   OH228521   4.598   6.800   7.593
 2321TIP3    H128522   4.602   6.775   7.500
 2321TIP3    H228523   4.688   6.798   7.623
 2322TIP3   OH228524   0.925   0.940   7.893
 2322TIP3    H128525   0.941   1.023   7.938
 2322TIP3    H228526   0.837   0.949   7.856
 2323TIP3   OH228527   2.882   5.753   8.051
 2323TIP3    H128528   2.975   5.774   8.056
 2323TIP3    H228529   2.856   5.740   8.142
 2324TIP3   OH228530   1.620   0.181   2.124
 2324TIP3    H128531   1.624   0.088   2.103
 2324TIP3    H228532   1.539   0.191   2.173
 2325TIP3   OH228533   1.413   6.367   0.418
 2325TIP3    H128534   1.372   6.289   0.381
 2325TIP3    H228535   1.361   6.440   0.385
 2326TIP3   OH228536   5.999   0.968   0.857
 2326TIP3    H128537   6.016   1.039   0.795
 2326TIP3    H228538   6.084   0.952   0.899
 2327TIP3   OH228539   6.361   2.098   7.011
 2327TIP3    H128540   6.394   2.144   7.089
 2327TIP3    H228541   6.300   2.159   6.971
 2328TIP3   OH228542   1.631   4.605   2.169
 2328TIP3    H128543   1.605   4.599   2.077
 2328TIP3    H228544   1.648   4.698   2.183
 2329TIP3   OH228545   3.964   0.643   1.005
 2329TIP3    H128546   3.889   0.584   1.015
 2329TIP3    H228547   4.008   0.640   1.090
 2330TIP3   OH228548   0.847   0.537   0.911
 2330TIP3    H128549   0.753   0.525   0.901
 2330TIP3    H228550   0.880   0.449   0.932
 2331TIP3   OH228551   0.246   2.827   8.396
 2331TIP3    H128552   0.184   2.754   8.407
 2331TIP3    H228553   0.263   2.857   8.486
 2332TIP3   OH228554   1.696   3.303   0.844
 2332TIP3    H128555   1.769   3.323   0.787
 2332TIP3    H228556   1.686   3.208   0.839
 2333TIP3   OH228557   5.190   4.247   0.969
 2333TIP3    H128558   5.103   4.206   0.971
 2333TIP3    H228559   5.210   4.254   0.876
 2334TIP3   OH228560   6.541   2.587   1.277
 2334TIP3    H128561   6.541   2.495   1.304
 2334TIP3    H228562   6.450   2.615   1.287
 2335TIP3   OH228563   3.258   1.429   7.908
 2335TIP3    H128564   3.286   1.448   7.819
 2335TIP3    H228565   3.305   1.349   7.931
 2336TIP3   OH228566   6.422   5.146   0.583
 2336TIP3    H128567   6.513   5.129   0.608
 2336TIP3    H228568   6.427   5.188   0.498
 2337TIP3   OH228569   6.842   5.604   0.378
 2337TIP3    H128570   6.784   5.679   0.365
 2337TIP3    H228571   6.906   5.634   0.442
 2338TIP3   OH228572   2.480   5.060   7.798
 2338TIP3    H128573   2.576   5.052   7.804
 2338TIP3    H228574   2.465   5.095   7.710
 2339TIP3   OH228575   6.730   3.399   7.007
 2339TIP3    H128576   6.824   3.403   7.024
 2339TIP3    H228577   6.722   3.405   6.912
 2340TIP3   OH228578   4.037   6.130   7.765
 2340TIP3    H128579   4.124   6.163   7.790
 2340TIP3    H228580   3.977   6.175   7.824
 2341TIP3   OH228581   5.225   1.442   2.445
 2341TIP3    H128582   5.206   1.361   2.397
 2341TIP3    H228583   5.258   1.412   2.530
 2342TIP3   OH228584   1.533   3.985   1.781
 2342TIP3    H128585   1.443   3.995   1.751
 2342TIP3    H228586   1.525   3.953   1.871
 2343TIP3   OH228587   3.047   4.236   1.422
 2343TIP3    H128588   3.074   4.322   1.455
 2343TIP3    H228589   2.959   4.223   1.456
 2344TIP3   OH228590   6.303   3.424   1.587
 2344TIP3    H128591   6.288   3.330   1.596
 2344TIP3    H228592   6.280   3.461   1.672
 2345TIP3   OH228593   5.011   0.314   7.860
 2345TIP3    H128594   4.950   0.288   7.790
 2345TIP3    H228595   5.095   0.276   7.834
 2346TIP3   OH228596   2.816   5.142   0.098
 2346TIP3    H128597   2.769   5.166   0.178
 2346TIP3    H228598   2.907   5.168   0.116
 2347TIP3   OH228599   1.019   2.993   6.940
 2347TIP3    H128600   1.097   3.048   6.930
 2347TIP3    H228601   0.950   3.055   6.964
 2348TIP3   OH228602   6.398   5.471   8.557
 2348TIP3    H128603   6.333   5.446   8.492
 2348TIP3    H228604   6.372   5.559   0.017
 2349TIP3   OH228605   4.245   5.316   7.999
 2349TIP3    H128606   4.246   5.298   7.905
 2349TIP3    H228607   4.153   5.317   8.023
 2350TIP3   OH228608   3.055   5.309   1.818
 2350TIP3    H128609   2.987   5.256   1.857
 2350TIP3    H228610   3.134   5.290   1.870
 2351TIP3   OH228611   1.635   5.757   7.291
 2351TIP3    H128612   1.565   5.697   7.317
 2351TIP3    H228613   1.702   5.701   7.253
 2352TIP3   OH228614   4.951   5.355   0.654
 2352TIP3    H128615   4.860   5.347   0.684
 2352TIP3    H228616   5.003   5.362   0.733
 2353TIP3   OH228617   5.641   2.192   8.548
 2353TIP3    H128618   5.603   2.266   0.029
 2353TIP3    H228619   5.651   2.224   8.459
 2354TIP3   OH228620   5.085   6.896   1.356
 2354TIP3    H128621   5.129   6.857   1.280
 2354TIP3    H228622   5.134   6.862   1.432
 2355TIP3   OH228623   0.093   3.065   8.376
 2355TIP3    H128624   0.087   3.104   8.289
 2355TIP3    H228625   0.133   2.979   8.361
 2356TIP3   OH228626   2.809   6.172   7.102
 2356TIP3    H128627   2.744   6.104   7.086
 2356TIP3    H228628   2.838   6.198   7.015
 2357TIP3   OH228629   5.168   5.739   8.028
 2357TIP3    H128630   5.160   5.768   7.937
 2357TIP3    H228631   5.094   5.781   8.072
 2358TIP3   OH228632   2.217   5.563   6.325
 2358TIP3    H128633   2.211   5.559   6.229
 2358TIP3    H228634   2.289   5.504   6.346
 2359TIP3   OH228635   5.232   6.139   7.977
 2359TIP3    H128636   5.188   6.111   7.896
 2359TIP3    H228637   5.307   6.080   7.985
 2360TIP3   OH228638   5.737   4.752   7.495
 2360TIP3    H128639   5.706   4.761   7.405
 2360TIP3    H228640   5.737   4.842   7.529
 2361TIP3   OH228641   3.335   3.079   8.046
 2361TIP3    H128642   3.253   3.034   8.068
 2361TIP3    H228643   3.373   3.025   7.976
 2362TIP3   OH228644   1.049   6.182   7.016
 2362TIP3    H128645   1.078   6.181   7.107
 2362TIP3    H228646   1.025   6.273   6.999
 2363TIP3   OH228647   3.536   5.460   7.838
 2363TIP3    H128648   3.564   5.551   7.849
 2363TIP3    H228649   3.445   5.459   7.870
 2364TIP3   OH228650   5.541   6.477   7.928
 2364TIP3    H128651   5.482   6.551   7.912
 2364TIP3    H228652   5.536   6.425   7.848
 2365TIP3   OH228653   6.252   5.825   6.946
 2365TIP3    H128654   6.243   5.764   6.873
 2365TIP3    H228655   6.203   5.784   7.017
 2366TIP3   OH228656   3.968   2.701   0.607
 2366TIP3    H128657   3.992   2.611   0.629
 2366TIP3    H228658   3.886   2.693   0.559
 2367TIP3   OH228659   0.552   3.153   1.379
 2367TIP3    H128660   0.631   3.116   1.339
 2367TIP3    H228661   0.486   3.085   1.368
 2368TIP3   OH228662   5.964   5.244   1.484
 2368TIP3    H128663   5.906   5.186   1.533
 2368TIP3    H228664   5.943   5.227   1.392
 2369TIP3   OH228665   5.851   1.078   6.528
 2369TIP3    H128666   5.923   1.140   6.544
 2369TIP3    H228667   5.821   1.099   6.439
 2370TIP3   OH228668   3.428   0.664   7.097
 2370TIP3    H128669   3.376   0.745   7.106
 2370TIP3    H228670   3.478   0.676   7.017
 2371TIP3   OH228671   2.252   3.244   8.041
 2371TIP3    H128672   2.294   3.160   8.022
 2371TIP3    H228673   2.293   3.306   7.980
 2372TIP3   OH228674   4.602   6.777   0.136
 2372TIP3    H128675   4.649   6.696   0.120
 2372TIP3    H228676   4.656   6.845   0.094
 2373TIP3   OH228677   2.534   3.103   8.115
 2373TIP3    H128678   2.584   3.093   8.196
 2373TIP3    H228679   2.600   3.127   8.050
 2374TIP3   OH228680   0.958   1.867   1.545
 2374TIP3    H128681   1.000   1.946   1.510
 2374TIP3    H228682   0.866   1.876   1.520
 2375TIP3   OH228683   5.714   2.541   7.529
 2375TIP3    H128684   5.668   2.625   7.527
 2375TIP3    H228685   5.645   2.475   7.538
 2376TIP3   OH228686   5.889   4.853   8.123
 2376TIP3    H128687   5.917   4.936   8.162
 2376TIP3    H228688   5.823   4.819   8.184
 2377TIP3   OH228689   2.760   4.131   1.859
 2377TIP3    H128690   2.854   4.134   1.839
 2377TIP3    H228691   2.735   4.223   1.869
 2378TIP3   OH228692   2.229   4.333   0.503
 2378TIP3    H128693   2.200   4.386   0.577
 2378TIP3    H228694   2.317   4.364   0.484
 2379TIP3   OH228695   2.713   4.013   6.822
 2379TIP3    H128696   2.709   3.945   6.754
 2379TIP3    H228697   2.713   4.095   6.773
 2380TIP3   OH228698   5.815   4.551   7.226
 2380TIP3    H128699   5.773   4.474   7.189
 2380TIP3    H228700   5.886   4.572   7.165
 2381TIP3   OH228701   0.413   0.834   6.042
 2381TIP3    H128702   0.320   0.820   6.059
 2381TIP3    H228703   0.446   0.748   6.018
 2382TIP3   OH228704   1.368   0.266   1.342
 2382TIP3    H128705   1.458   0.235   1.348
 2382TIP3    H228706   1.316   0.199   1.386
 2383TIP3   OH228707   0.449   4.382   0.271
 2383TIP3    H128708   0.419   4.292   0.260
 2383TIP3    H228709   0.454   4.417   0.182
 2384TIP3   OH228710   0.055   6.610   8.304
 2384TIP3    H128711   0.128   6.573   8.355
 2384TIP3    H228712   0.055   6.702   8.328
 2385TIP3   OH228713   2.526   1.506   6.336
 2385TIP3    H128714   2.459   1.574   6.328
 2385TIP3    H228715   2.596   1.535   6.277
 2386TIP3   OH228716   3.765   5.413   7.265
 2386TIP3    H128717   3.838   5.455   7.311
 2386TIP3    H228718   3.765   5.323   7.296
 2387TIP3   OH228719   0.239   5.825   1.407
 2387TIP3    H128720   0.203   5.825   1.495
 2387TIP3    H228721   0.174   5.777   1.355
 2388TIP3   OH228722   0.376   6.873   0.881
 2388TIP3    H128723   0.396   0.057   0.884
 2388TIP3    H228724   0.291   6.864   0.924
 2389TIP3   OH228725   0.821   2.228   6.733
 2389TIP3    H128726   0.789   2.212   6.645
 2389TIP3    H228727   0.869   2.148   6.756
 2390TIP3   OH228728   4.380   6.632   1.923
 2390TIP3    H128729   4.392   6.565   1.991
 2390TIP3    H228730   4.362   6.712   1.972
 2391TIP3   OH228731   4.103   0.117   7.213
 2391TIP3    H128732   4.045   0.194   7.212
 2391TIP3    H228733   4.191   0.153   7.201
 2392TIP3   OH228734   5.261   1.789   6.770
 2392TIP3    H128735   5.321   1.726   6.730
 2392TIP3    H228736   5.267   1.866   6.713
 2393TIP3   OH228737   2.513   0.077   0.869
 2393TIP3    H128738   2.425   0.113   0.872
 2393TIP3    H228739   2.517   0.016   0.943
 2394TIP3   OH228740   5.313   2.425   7.023
 2394TIP3    H128741   5.359   2.402   6.943
 2394TIP3    H228742   5.234   2.370   7.022
 2395TIP3   OH228743   0.180   4.050   0.634
 2395TIP3    H128744   0.136   4.121   0.587
 2395TIP3    H228745   0.141   4.051   0.721
 2396TIP3   OH228746   3.991   3.182   8.249
 2396TIP3    H128747   3.991   3.134   8.166
 2396TIP3    H228748   3.984   3.274   8.224
 2397TIP3   OH228749   0.857   6.797   8.427
 2397TIP3    H128750   0.950   6.775   8.432
 2397TIP3    H228751   0.854   6.892   8.431
 2398TIP3   OH228752   1.736   1.049   1.157
 2398TIP3    H128753   1.783   1.120   1.113
 2398TIP3    H228754   1.646   1.055   1.125
 2399TIP3   OH228755   6.635   0.467   1.227
 2399TIP3    H128756   6.665   0.556   1.211
 2399TIP3    H228757   6.642   0.456   1.321
 2400TIP3   OH228758   2.005   3.611   8.134
 2400TIP3    H128759   2.049   3.640   8.054
 2400TIP3    H228760   1.972   3.692   8.174
 2401TIP3   OH228761   4.483   5.882   1.838
 2401TIP3    H128762   4.516   5.936   1.766
 2401TIP3    H228763   4.437   5.810   1.794
 2402TIP3   OH228764   4.296   3.035   1.514
 2402TIP3    H128765   4.203   3.053   1.526
 2402TIP3    H228766   4.306   2.944   1.544
 2403TIP3   OH228767   1.038   0.265   7.209
 2403TIP3    H128768   1.092   0.198   7.251
 2403TIP3    H228769   1.012   0.323   7.280
 2404TIP3   OH228770   2.746   6.385   7.746
 2404TIP3    H128771   2.715   6.302   7.783
 2404TIP3    H228772   2.694   6.452   7.791
 2405TIP3   OH228773   6.466   6.226   2.658
 2405TIP3    H128774   6.461   6.136   2.689
 2405TIP3    H228775   6.491   6.218   2.566
 2406TIP3   OH228776   4.004   3.719   8.044
 2406TIP3    H128777   4.035   3.795   8.093
 2406TIP3    H228778   4.073   3.654   8.055
 2407TIP3   OH228779   0.699   0.343   8.164
 2407TIP3    H128780   0.623   0.377   8.116
 2407TIP3    H228781   0.685   0.249   8.168
 2408TIP3   OH228782   0.234   6.312   0.301
 2408TIP3    H128783   0.315   6.339   0.344
 2408TIP3    H228784   0.183   6.270   0.371
 2409TIP3   OH228785   1.142   1.867   7.817
 2409TIP3    H128786   1.185   1.934   7.764
 2409TIP3    H228787   1.051   1.869   7.789
 2410TIP3   OH228788   5.023   0.837   7.807
 2410TIP3    H128789   5.043   0.751   7.842
 2410TIP3    H228790   5.018   0.824   7.712
 2411TIP3   OH228791   0.588   0.472   6.827
 2411TIP3    H128792   0.548   0.407   6.769
 2411TIP3    H228793   0.664   0.428   6.864
 2412TIP3   OH228794   2.186   1.640   7.847
 2412TIP3    H128795   2.249   1.691   7.897
 2412TIP3    H228796   2.103   1.654   7.892
 2413TIP3   OH228797   5.847   1.437   6.824
 2413TIP3    H128798   5.819   1.516   6.776
 2413TIP3    H228799   5.788   1.368   6.793
 2414TIP3   OH228800   1.901   0.419   7.078
 2414TIP3    H128801   1.919   0.508   7.108
 2414TIP3    H228802   1.839   0.431   7.006
 2415TIP3   OH228803   0.397   3.941   0.361
 2415TIP3    H128804   0.321   3.959   0.305
 2415TIP3    H228805   0.445   3.873   0.316
 2416TIP3   OH228806   1.724   4.028   7.084
 2416TIP3    H128807   1.735   4.123   7.077
 2416TIP3    H228808   1.707   3.999   6.994
 2417TIP3   OH228809   6.895   6.456   7.894
 2417TIP3    H128810   6.813   6.492   7.927
 2417TIP3    H228811   6.901   6.369   7.934
 2418TIP3   OH228812   4.627   3.454   7.856
 2418TIP3    H128813   4.548   3.493   7.894
 2418TIP3    H228814   4.681   3.431   7.932
 2419TIP3   OH228815   6.141   6.325   1.229
 2419TIP3    H128816   6.105   6.253   1.177
 2419TIP3    H228817   6.096   6.318   1.314
 2420TIP3   OH228818   4.803   6.741   7.927
 2420TIP3    H128819   4.856   6.744   7.848
 2420TIP3    H228820   4.862   6.766   7.998
 2421TIP3   OH228821   5.503   6.110   1.384
 2421TIP3    H128822   5.597   6.095   1.381
 2421TIP3    H228823   5.494   6.198   1.421
 2422TIP3   OH228824   0.525   1.473   7.314
 2422TIP3    H128825   0.465   1.547   7.324
 2422TIP3    H228826   0.577   1.494   7.236
 2423TIP3   OH228827   2.376   6.302   0.655
 2423TIP3    H128828   2.332   6.216   0.657
 2423TIP3    H228829   2.468   6.282   0.672
 2424TIP3   OH228830   6.902   4.195   7.736
 2424TIP3    H128831   0.019   4.256   7.666
 2424TIP3    H228832   6.810   4.175   7.717
 2425TIP3   OH228833   2.678   3.025   0.067
 2425TIP3    H128834   2.673   3.110   0.112
 2425TIP3    H228835   2.658   2.961   0.136
 2426TIP3   OH228836   2.388   3.960   6.722
 2426TIP3    H128837   2.382   4.053   6.697
 2426TIP3    H228838   2.433   3.918   6.649
 2427TIP3   OH228839   0.805   2.422   7.458
 2427TIP3    H128840   0.739   2.443   7.391
 2427TIP3    H228841   0.857   2.352   7.419
 2428TIP3   OH228842   4.890   3.444   1.934
 2428TIP3    H128843   4.832   3.380   1.893
 2428TIP3    H228844   4.975   3.401   1.938
 2429TIP3   OH228845   6.407   0.508   0.086
 2429TIP3    H128846   6.479   0.514   0.023
 2429TIP3    H228847   6.441   0.549   0.166
 2430TIP3   OH228848   2.920   4.976   0.763
 2430TIP3    H128849   2.883   4.903   0.813
 2430TIP3    H228850   2.868   5.052   0.789
 2431TIP3   OH228851   0.170   3.150   0.578
 2431TIP3    H128852   0.221   3.191   0.648
 2431TIP3    H228853   0.123   3.079   0.622
 2432TIP3   OH228854   6.499   3.379   0.601
 2432TIP3    H128855   6.474   3.447   0.539
 2432TIP3    H228856   6.431   3.380   0.668
 2433TIP3   OH228857   5.784   6.646   6.604
 2433TIP3    H128858   5.731   6.570   6.580
 2433TIP3    H228859   5.839   6.663   6.528
 2434TIP3   OH228860   5.147   0.118   6.792
 2434TIP3    H128861   5.147   0.067   6.711
 2434TIP3    H228862   5.207   0.191   6.775
 2435TIP3   OH228863   2.988   6.841   0.499
 2435TIP3    H128864   2.997   6.793   0.417
 2435TIP3    H228865   2.959   0.019   0.471
 2436TIP3   OH228866   3.979   3.251   6.484
 2436TIP3    H128867   3.920   3.180   6.508
 2436TIP3    H228868   4.019   3.279   6.566
 2437TIP3   OH228869   5.449   0.808   7.715
 2437TIP3    H128870   5.429   0.729   7.764
 2437TIP3    H228871   5.534   0.837   7.749
 2438TIP3   OH228872   4.944   3.144   6.291
 2438TIP3    H128873   4.879   3.074   6.282
 2438TIP3    H228874   5.013   3.122   6.228
 2439TIP3   OH228875   1.088   2.046   6.676
 2439TIP3    H128876   1.092   1.957   6.711
 2439TIP3    H228877   1.171   2.085   6.700
 2440TIP3   OH228878   0.682   4.088   6.887
 2440TIP3    H128879   0.774   4.111   6.896
 2440TIP3    H228880   0.676   4.043   6.802
 2441TIP3   OH228881   2.579   3.673   1.524
 2441TIP3    H128882   2.634   3.647   1.598
 2441TIP3    H228883   2.638   3.666   1.448
 2442TIP3   OH228884   5.360   4.249   6.755
 2442TIP3    H128885   5.374   4.284   6.843
 2442TIP3    H228886   5.446   4.249   6.714
 2443TIP3   OH228887   6.060   0.952   2.149
 2443TIP3    H128888   5.983   0.934   2.204
 2443TIP3    H228889   6.100   0.866   2.136
 2444TIP3   OH228890   0.767   2.584   0.577
 2444TIP3    H128891   0.695   2.521   0.571
 2444TIP3    H228892   0.845   2.532   0.558
 2445TIP3   OH228893   5.310   0.639   1.045
 2445TIP3    H128894   5.261   0.714   1.011
 2445TIP3    H228895   5.349   0.598   0.968
 2446TIP3   OH228896   1.209   2.296   0.842
 2446TIP3    H128897   1.284   2.278   0.899
 2446TIP3    H228898   1.213   2.228   0.775
 2447TIP3   OH228899   1.079   4.697   0.260
 2447TIP3    H128900   1.041   4.638   0.325
 2447TIP3    H228901   1.009   4.710   0.196
 2448TIP3   OH228902   3.324   0.233   0.105
 2448TIP3    H128903   3.340   0.226   0.199
 2448TIP3    H228904   3.411   0.246   0.066
 2449TIP3   OH228905   5.010   3.947   7.765
 2449TIP3    H128906   4.984   4.006   7.835
 2449TIP3    H228907   5.049   3.871   7.810
 2450TIP3   OH228908   0.347   3.632   0.024
 2450TIP3    H128909   0.284   3.634   8.520
 2450TIP3    H228910   0.411   3.566   8.564
 2451TIP3   OH228911   2.133   1.480   7.293
 2451TIP3    H128912   2.094   1.398   7.264
 2451TIP3    H228913   2.081   1.548   7.250
 2452TIP3   OH228914   4.343   3.953   5.979
 2452TIP3    H128915   4.316   4.034   5.937
 2452TIP3    H228916   4.295   3.952   6.062
 2453TIP3   OH228917   5.562   3.620   8.478
 2453TIP3    H128918   5.635   3.634   8.417
 2453TIP3    H228919   5.554   3.704   8.524
 2454TIP3   OH228920   4.631   0.692   0.076
 2454TIP3    H128921   4.701   0.656   0.021
 2454TIP3    H228922   4.671   0.764   0.123
 2455TIP3   OH228923   6.128   6.220   7.242
 2455TIP3    H128924   6.209   6.180   7.212
 2455TIP3    H228925   6.120   6.301   7.192
 2456TIP3   OH228926   5.291   0.031   0.324
 2456TIP3    H128927   5.226   0.015   0.255
 2456TIP3    H228928   5.351   6.866   0.318
 2457TIP3   OH228929   4.661   0.569   7.195
 2457TIP3    H128930   4.674   0.658   7.228
 2457TIP3    H228931   4.639   0.581   7.102
 2458TIP3   OH228932   0.375   2.427   7.631
 2458TIP3    H128933   0.307   2.378   7.676
 2458TIP3    H228934   0.440   2.361   7.607
 2459TIP3   OH228935   3.217   3.718   7.785
 2459TIP3    H128936   3.216   3.689   7.876
 2459TIP3    H228937   3.305   3.693   7.754
 2460TIP3   OH228938   1.438   4.468   6.470
 2460TIP3    H128939   1.492   4.520   6.410
 2460TIP3    H228940   1.349   4.483   6.441
 2461TIP3   OH228941   2.019   2.981   7.829
 2461TIP3    H128942   2.100   2.944   7.794
 2461TIP3    H228943   1.950   2.939   7.778
 2462TIP3   OH228944   2.972   3.890   2.000
 2462TIP3    H128945   2.925   3.828   1.944
 2462TIP3    H228946   3.014   3.835   2.066
 2463TIP3   OH228947   3.739   5.985   1.645
 2463TIP3    H128948   3.765   6.062   1.595
 2463TIP3    H228949   3.733   6.015   1.735
 2464TIP3   OH228950   4.335   0.979   7.402
 2464TIP3    H128951   4.407   0.960   7.341
 2464TIP3    H228952   4.312   1.070   7.384
 2465TIP3   OH228953   1.335   4.701   0.362
 2465TIP3    H128954   1.340   4.766   0.433
 2465TIP3    H228955   1.243   4.702   0.335
 2466TIP3   OH228956   0.690   4.071   0.828
 2466TIP3    H128957   0.744   4.059   0.749
 2466TIP3    H228958   0.600   4.070   0.796
 2467TIP3   OH228959   1.827   2.738   6.480
 2467TIP3    H128960   1.916   2.708   6.498
 2467TIP3    H228961   1.793   2.674   6.418
 2468TIP3   OH228962   1.692   1.604   0.668
 2468TIP3    H128963   1.758   1.672   0.652
 2468TIP3    H228964   1.711   1.572   0.756
 2469TIP3   OH228965   5.733   0.564   6.418
 2469TIP3    H128966   5.681   0.555   6.498
 2469TIP3    H228967   5.734   0.659   6.401
 2470TIP3   OH228968   3.596   5.391   2.303
 2470TIP3    H128969   3.631   5.471   2.344
 2470TIP3    H228970   3.629   5.395   2.213
 2471TIP3   OH228971   1.072   2.897   0.447
 2471TIP3    H128972   1.002   2.888   0.511
 2471TIP3    H228973   1.143   2.940   0.495
 2472TIP3   OH228974   2.493   4.047   1.253
 2472TIP3    H128975   2.573   4.035   1.303
 2472TIP3    H228976   2.473   3.961   1.218
 2473TIP3   OH228977   6.081   3.195   7.485
 2473TIP3    H128978   6.112   3.107   7.508
 2473TIP3    H228979   6.068   3.192   7.390
 2474TIP3   OH228980   0.390   0.162   1.229
 2474TIP3    H128981   0.341   0.083   1.253
 2474TIP3    H228982   0.351   0.190   1.146
 2475TIP3   OH228983   2.629   4.563   7.463
 2475TIP3    H128984   2.614   4.477   7.503
 2475TIP3    H228985   2.564   4.620   7.504
 2476TIP3   OH228986   6.731   0.926   0.703
 2476TIP3    H128987   6.746   0.899   0.794
 2476TIP3    H228988   6.805   0.889   0.655
 2477TIP3   OH228989   6.392   3.783   6.302
 2477TIP3    H128990   6.373   3.699   6.345
 2477TIP3    H228991   6.392   3.847   6.373
 2478TIP3   OH228992   2.407   4.028   8.147
 2478TIP3    H128993   2.343   4.029   8.217
 2478TIP3    H228994   2.399   3.940   8.108
 2479TIP3   OH228995   3.903   5.723   0.615
 2479TIP3    H128996   3.978   5.732   0.557
 2479TIP3    H228997   3.851   5.801   0.600
 2480TIP3   OH228998   6.478   0.923   6.505
 2480TIP3    H128999   6.558   0.965   6.474
 2480TIP3    H229000   6.452   0.975   6.582
 2481TIP3   OH229001   2.844   4.285   6.785
 2481TIP3    H129002   2.835   4.369   6.741
 2481TIP3    H229003   2.793   4.294   6.865
 2482TIP3   OH229004   1.786   5.191   0.677
 2482TIP3    H129005   1.704   5.240   0.673
 2482TIP3    H229006   1.798   5.156   0.589
 2483TIP3   OH229007   3.318   3.659   8.318
 2483TIP3    H129008   3.399   3.697   8.351
 2483TIP3    H229009   3.267   3.733   8.285
 2484TIP3   OH229010   1.377   6.010   1.736
 2484TIP3    H129011   1.323   5.956   1.794
 2484TIP3    H229012   1.337   6.000   1.650
 2485TIP3   OH229013   6.070   3.571   7.718
 2485TIP3    H129014   5.987   3.620   7.723
 2485TIP3    H229015   6.119   3.600   7.794
 2486TIP3   OH229016   2.452   1.188   7.228
 2486TIP3    H129017   2.379   1.239   7.262
 2486TIP3    H229018   2.523   1.201   7.292
 2487TIP3   OH229019   3.962   5.757   8.543
 2487TIP3    H129020   3.903   5.738   8.470
 2487TIP3    H229021   4.006   5.674   8.560
 2488TIP3   OH229022   1.949   4.060   1.219
 2488TIP3    H129023   2.039   4.051   1.188
 2488TIP3    H229024   1.959   4.090   1.310
 2489TIP3   OH229025   5.649   0.059   0.212
 2489TIP3    H129026   5.649   6.883   0.168
 2489TIP3    H229027   5.715   0.050   0.281
 2490TIP3   OH229028   2.090   1.254   0.003
 2490TIP3    H129029   2.157   1.322   0.009
 2490TIP3    H229030   2.021   1.283   0.061
 2491TIP3   OH229031   2.705   1.611   0.483
 2491TIP3    H129032   2.618   1.652   0.484
 2491TIP3    H229033   2.721   1.590   0.390
 2492TIP3   OH229034   2.503   5.460   0.165
 2492TIP3    H129035   2.590   5.465   0.125
 2492TIP3    H229036   2.518   5.412   0.246
 2493TIP3   OH229037   5.033   5.937   1.764
 2493TIP3    H129038   5.050   6.027   1.793
 2493TIP3    H229039   5.119   5.896   1.762
 2494TIP3   OH229040   1.986   4.126   6.875
 2494TIP3    H129041   2.048   4.071   6.923
 2494TIP3    H229042   1.954   4.071   6.804
 2495TIP3   OH229043   2.573   5.717   1.656
 2495TIP3    H129044   2.482   5.716   1.688
 2495TIP3    H229045   2.626   5.717   1.736
 2496TIP3   OH229046   4.660   6.358   7.753
 2496TIP3    H129047   4.568   6.377   7.733
 2496TIP3    H229048   4.667   6.366   7.848
 2497TIP3   OH229049   6.172   1.271   7.855
 2497TIP3    H129050   6.161   1.364   7.833
 2497TIP3    H229051   6.257   1.247   7.819
 2498TIP3   OH229052   3.635   6.799   7.445
 2498TIP3    H129053   3.615   6.866   7.379
 2498TIP3    H229054   3.619   6.842   7.529
 2499TIP3   OH229055   0.633   5.311   1.656
 2499TIP3    H129056   0.718   5.356   1.657
 2499TIP3    H229057   0.575   5.371   1.608
 2500TIP3   OH229058   4.164   0.142   0.394
 2500TIP3    H129059   4.150   0.232   0.366
 2500TIP3    H229060   4.226   0.106   0.330
 2501TIP3   OH229061   4.064   4.272   0.142
 2501TIP3    H129062   4.135   4.214   0.114
 2501TIP3    H229063   4.108   4.352   0.170
 2502TIP3   OH229064   1.073   5.284   7.648
 2502TIP3    H129065   1.139   5.337   7.605
 2502TIP3    H229066   1.087   5.195   7.614
 2503TIP3   OH229067   4.894   2.012   6.137
 2503TIP3    H129068   4.896   1.925   6.176
 2503TIP3    H229069   4.981   2.048   6.155
 2504TIP3   OH229070   0.403   4.289   0.788
 2504TIP3    H129071   0.407   4.196   0.765
 2504TIP3    H229072   0.349   4.293   0.866
 2505TIP3   OH229073   1.561   6.370   7.081
 2505TIP3    H129074   1.581   6.439   7.018
 2505TIP3    H229075   1.599   6.401   7.163
 2506TIP3   OH229076   1.869   3.434   7.966
 2506TIP3    H129077   1.931   3.473   8.028
 2506TIP3    H229078   1.906   3.453   7.880
 2507TIP3   OH229079   4.926   4.672   1.147
 2507TIP3    H129080   4.973   4.755   1.154
 2507TIP3    H229081   4.847   4.693   1.098
 2508TIP3   OH229082   6.102   6.158   8.511
 2508TIP3    H129083   6.111   6.228   8.446
 2508TIP3    H229084   6.187   6.114   8.510
 2509TIP3   OH229085   5.889   6.243   8.136
 2509TIP3    H129086   5.981   6.218   8.123
 2509TIP3    H229087   5.859   6.186   8.207
 2510TIP3   OH229088   6.100   4.350   1.267
 2510TIP3    H129089   6.103   4.430   1.215
 2510TIP3    H229090   6.134   4.282   1.209
 2511TIP3   OH229091   4.321   1.143   6.824
 2511TIP3    H129092   4.414   1.162   6.818
 2511TIP3    H229093   4.294   1.183   6.907
 2512TIP3   OH229094   3.139   4.922   0.438
 2512TIP3    H129095   3.175   4.905   0.525
 2512TIP3    H229096   3.101   4.839   0.410
 2513TIP3   OH229097   6.311   0.614   6.857
 2513TIP3    H129098   6.238   0.651   6.807
 2513TIP3    H229099   6.355   0.557   6.794
 2514TIP3   OH229100   2.538   6.174   6.244
 2514TIP3    H129101   2.618   6.126   6.224
 2514TIP3    H229102   2.500   6.128   6.318
 2515TIP3   OH229103   0.917   0.179   8.439
 2515TIP3    H129104   0.962   0.184   8.355
 2515TIP3    H229105   0.920   0.268   8.473
 2516TIP3   OH229106   5.290   0.953   0.964
 2516TIP3    H129107   5.371   0.936   0.916
 2516TIP3    H229108   5.320   0.987   1.048
 2517TIP3   OH229109   0.612   6.732   0.882
 2517TIP3    H129110   0.679   6.760   0.819
 2517TIP3    H229111   0.530   6.766   0.848
 2518TIP3   OH229112   2.010   5.429   1.293
 2518TIP3    H129113   1.965   5.469   1.368
 2518TIP3    H229114   2.045   5.347   1.327
 2519TIP3   OH229115   5.306   6.251   7.154
 2519TIP3    H129116   5.233   6.312   7.156
 2519TIP3    H229117   5.287   6.193   7.080
 2520TIP3   OH229118   3.902   0.296   7.628
 2520TIP3    H129119   3.911   0.383   7.669
 2520TIP3    H229120   3.916   0.312   7.535
 2521TIP3   OH229121   4.538   1.218   7.554
 2521TIP3    H129122   4.632   1.211   7.535
 2521TIP3    H229123   4.517   1.138   7.601
 2522TIP3   OH229124   3.685   4.273   8.412
 2522TIP3    H129125   3.653   4.282   8.502
 2522TIP3    H229126   3.746   4.346   8.400
 2523TIP3   OH229127   0.107   5.036   2.080
 2523TIP3    H129128   0.133   5.010   1.991
 2523TIP3    H229129   0.167   5.107   2.102
 2524TIP3   OH229130   3.864   0.072   1.404
 2524TIP3    H129131   3.844   0.068   1.497
 2524TIP3    H229132   3.795   0.022   1.361
 2525TIP3   OH229133   6.477   3.907   1.671
 2525TIP3    H129134   6.436   3.990   1.696
 2525TIP3    H229135   6.427   3.840   1.716
 2526TIP3   OH229136   5.832   3.429   7.552
 2526TIP3    H129137   5.799   3.491   7.617
 2526TIP3    H229138   5.758   3.372   7.533
 2527TIP3   OH229139   5.137   6.219   8.225
 2527TIP3    H129140   5.183   6.182   8.150
 2527TIP3    H229141   5.048   6.184   8.219
 2528TIP3   OH229142   6.400   1.539   8.302
 2528TIP3    H129143   6.448   1.484   8.364
 2528TIP3    H229144   6.455   1.617   8.292
 2529TIP3   OH229145   3.275   0.937   1.157
 2529TIP3    H129146   3.267   1.008   1.094
 2529TIP3    H229147   3.219   0.868   1.122
 2530TIP3   OH229148   2.713   0.437   0.348
 2530TIP3    H129149   2.747   0.525   0.363
 2530TIP3    H229150   2.786   0.388   0.309
 2531TIP3   OH229151   4.367   1.564   1.337
 2531TIP3    H129152   4.408   1.515   1.266
 2531TIP3    H229153   4.275   1.571   1.311
 2532TIP3   OH229154   4.757   6.706   7.400
 2532TIP3    H129155   4.775   6.676   7.311
 2532TIP3    H229156   4.835   6.680   7.450
 2533TIP3   OH229157   0.885   0.556   6.394
 2533TIP3    H129158   0.945   0.494   6.354
 2533TIP3    H229159   0.942   0.624   6.431
 2534TIP3   OH229160   1.100   6.403   0.863
 2534TIP3    H129161   1.119   6.452   0.943
 2534TIP3    H229162   1.172   6.425   0.803
 2535TIP3   OH229163   5.700   1.315   7.950
 2535TIP3    H129164   5.755   1.253   7.998
 2535TIP3    H229165   5.614   1.308   7.993
 2536TIP3   OH229166   3.335   6.620   2.111
 2536TIP3    H129167   3.259   6.595   2.164
 2536TIP3    H229168   3.409   6.579   2.156
 2537TIP3   OH229169   3.172   1.503   2.061
 2537TIP3    H129170   3.177   1.426   2.005
 2537TIP3    H229171   3.258   1.545   2.052
 2538TIP3   OH229172   6.876   0.361   7.041
 2538TIP3    H129173   0.032   0.358   6.972
 2538TIP3    H229174   6.907   0.430   7.100
 2539TIP3   OH229175   0.909   2.978   8.510
 2539TIP3    H129176   0.909   3.073   8.515
 2539TIP3    H229177   0.987   2.951   8.559
 2540TIP3   OH229178   2.455   2.755   0.084
 2540TIP3    H129179   2.497   2.826   0.035
 2540TIP3    H229180   2.527   2.697   0.108
 2541TIP3   OH229181   4.593   1.862   0.296
 2541TIP3    H129182   4.609   1.802   0.223
 2541TIP3    H229183   4.661   1.929   0.287
 2542TIP3   OH229184   1.067   1.359   1.383
 2542TIP3    H129185   1.032   1.285   1.432
 2542TIP3    H229186   1.162   1.353   1.395
 2543TIP3   OH229187   5.338   3.275   1.720
 2543TIP3    H129188   5.294   3.328   1.787
 2543TIP3    H229189   5.267   3.239   1.667
 2544TIP3   OH229190   0.217   6.833   6.430
 2544TIP3    H129191   0.245   6.812   6.519
 2544TIP3    H229192   0.199   6.748   6.389
 2545TIP3   OH229193   3.483   5.742   0.020
 2545TIP3    H129194   3.527   5.665   8.550
 2545TIP3    H229195   3.530   5.817   8.550
 2546TIP3   OH229196   1.047   3.383   6.172
 2546TIP3    H129197   1.082   3.294   6.173
 2546TIP3    H229198   1.113   3.434   6.125
 2547TIP3   OH229199   1.914   3.486   7.335
 2547TIP3    H129200   1.916   3.525   7.248
 2547TIP3    H229201   1.866   3.404   7.323
 2548TIP3   OH229202   2.675   2.755   0.325
 2548TIP3    H129203   2.725   2.824   0.368
 2548TIP3    H229204   2.603   2.736   0.385
 2549TIP3   OH229205   1.238   3.163   6.942
 2549TIP3    H129206   1.232   3.232   6.876
 2549TIP3    H229207   1.207   3.203   7.023
 2550TIP3   OH229208   0.453   4.889   1.453
 2550TIP3    H129209   0.443   4.965   1.395
 2550TIP3    H229210   0.399   4.821   1.413
 2551TIP3   OH229211   4.738   5.596   7.263
 2551TIP3    H129212   4.813   5.591   7.204
 2551TIP3    H229213   4.737   5.687   7.293
 2552TIP3   OH229214   1.195   4.353   7.187
 2552TIP3    H129215   1.187   4.272   7.236
 2552TIP3    H229216   1.210   4.420   7.254
 2553TIP3   OH229217   4.105   3.952   8.215
 2553TIP3    H129218   4.102   3.904   8.297
 2553TIP3    H229219   4.185   4.005   8.220
 2554TIP3   OH229220   3.149   0.163   8.496
 2554TIP3    H129221   3.062   0.174   8.534
 2554TIP3    H229222   3.209   0.200   8.561
 2555TIP3   OH229223   3.506   6.481   1.891
 2555TIP3    H129224   3.423   6.526   1.908
 2555TIP3    H229225   3.555   6.488   1.973
 2556TIP3   OH229226   0.241   6.037   0.964
 2556TIP3    H129227   0.181   6.041   0.890
 2556TIP3    H229228   0.207   6.102   1.026
 2557TIP3   OH229229   3.512   2.506   2.400
 2557TIP3    H129230   3.525   2.419   2.438
 2557TIP3    H229231   3.535   2.495   2.308
 2558TIP3   OH229232   6.409   2.009   8.061
 2558TIP3    H129233   6.475   2.068   8.025
 2558TIP3    H229234   6.329   2.062   8.064
 2559TIP3   OH229235   1.613   6.482   0.838
 2559TIP3    H129236   1.680   6.491   0.905
 2559TIP3    H229237   1.598   6.571   0.806
 2560TIP3   OH229238   5.093   3.912   0.992
 2560TIP3    H129239   5.028   3.948   1.053
 2560TIP3    H229240   5.042   3.891   0.914
 2561TIP3   OH229241   0.544   1.924   0.025
 2561TIP3    H129242   0.467   1.878   0.059
 2561TIP3    H229243   0.529   1.929   8.498
 2562TIP3   OH229244   4.843   1.314   8.190
 2562TIP3    H129245   4.910   1.305   8.122
 2562TIP3    H229246   4.784   1.381   8.155
 2563TIP3   OH229247   3.725   5.278   6.982
 2563TIP3    H129248   3.662   5.216   6.945
 2563TIP3    H229249   3.709   5.360   6.937
 2564TIP3   OH229250   4.542   3.859   7.727
 2564TIP3    H129251   4.522   3.784   7.672
 2564TIP3    H229252   4.546   3.933   7.666
 2565TIP3   OH229253   5.730   5.533   8.424
 2565TIP3    H129254   5.775   5.613   8.452
 2565TIP3    H229255   5.638   5.557   8.423
 2566TIP3   OH229256   1.536   3.715   7.889
 2566TIP3    H129257   1.457   3.713   7.835
 2566TIP3    H229258   1.504   3.701   7.979
 2567TIP3   OH229259   5.316   5.457   0.736
 2567TIP3    H129260   5.282   5.487   0.820
 2567TIP3    H229261   5.411   5.468   0.743
 2568TIP3   OH229262   4.996   4.446   8.111
 2568TIP3    H129263   4.976   4.460   8.204
 2568TIP3    H229264   4.957   4.361   8.090
 2569TIP3   OH229265   5.925   5.070   1.091
 2569TIP3    H129266   5.885   5.021   1.019
 2569TIP3    H229267   5.944   5.004   1.157
 2570TIP3   OH229268   3.237   4.792   8.247
 2570TIP3    H129269   3.148   4.815   8.220
 2570TIP3    H229270   3.293   4.854   8.201
 2571TIP3   OH229271   4.344   4.501   7.652
 2571TIP3    H129272   4.314   4.517   7.563
 2571TIP3    H229273   4.302   4.569   7.705
 2572TIP3   OH229274   1.101   3.526   7.245
 2572TIP3    H129275   1.140   3.613   7.254
 2572TIP3    H229276   1.041   3.520   7.319
 2573TIP3   OH229277   6.012   0.570   7.386
 2573TIP3    H129278   5.940   0.526   7.432
 2573TIP3    H229279   5.972   0.648   7.349
 2574TIP3   OH229280   3.804   3.461   6.697
 2574TIP3    H129281   3.877   3.521   6.682
 2574TIP3    H229282   3.767   3.446   6.610
 2575TIP3   OH229283   0.878   0.308   1.986
 2575TIP3    H129284   0.794   0.334   1.948
 2575TIP3    H229285   0.919   0.391   2.012
 2576TIP3   OH229286   1.080   2.266   1.581
 2576TIP3    H129287   1.149   2.252   1.645
 2576TIP3    H229288   1.001   2.232   1.623
 2577TIP3   OH229289   2.073   2.223   8.155
 2577TIP3    H129290   2.022   2.271   8.089
 2577TIP3    H229291   2.013   2.156   8.187
 2578TIP3   OH229292   0.921   5.123   0.097
 2578TIP3    H129293   0.865   5.123   0.020
 2578TIP3    H229294   1.008   5.100   0.065
 2579TIP3   OH229295   6.267   5.347   8.311
 2579TIP3    H129296   6.176   5.374   8.325
 2579TIP3    H229297   6.266   5.252   8.325
 2580TIP3   OH229298   5.133   0.875   0.482
 2580TIP3    H129299   5.070   0.823   0.431
 2580TIP3    H229300   5.212   0.821   0.485
 2581TIP3   OH229301   5.484   5.464   2.304
 2581TIP3    H129302   5.561   5.412   2.324
 2581TIP3    H229303   5.424   5.403   2.260
 2582TIP3   OH229304   2.200   4.381   7.926
 2582TIP3    H129305   2.163   4.394   7.839
 2582TIP3    H229306   2.234   4.467   7.951
 2583TIP3   OH229307   6.848   4.187   6.402
 2583TIP3    H129308   6.784   4.143   6.346
 2583TIP3    H229309   6.794   4.231   6.468
 2584TIP3   OH229310   1.721   6.859   8.224
 2584TIP3    H129311   1.721   6.766   8.206
 2584TIP3    H229312   1.755   6.899   8.144
 2585TIP3   OH229313   3.242   1.294   1.879
 2585TIP3    H129314   3.169   1.234   1.892
 2585TIP3    H229315   3.245   1.309   1.784
 2586TIP3   OH229316   6.706   2.456   7.124
 2586TIP3    H129317   6.657   2.507   7.189
 2586TIP3    H229318   6.773   2.411   7.175
 2587TIP3   OH229319   0.049   0.428   2.171
 2587TIP3    H129320   6.893   0.364   2.199
 2587TIP3    H229321   0.132   0.380   2.175
 2588TIP3   OH229322   6.227   0.969   0.971
 2588TIP3    H129323   6.234   0.933   1.059
 2588TIP3    H229324   6.306   0.938   0.926
 2589TIP3   OH229325   4.479   5.962   2.083
 2589TIP3    H129326   4.543   5.907   2.128
 2589TIP3    H229327   4.486   5.935   1.991
 2590TIP3   OH229328   4.443   4.146   1.156
 2590TIP3    H129329   4.461   4.222   1.100
 2590TIP3    H229330   4.463   4.071   1.100
 2591TIP3   OH229331   1.823   5.909   1.343
 2591TIP3    H129332   1.883   5.953   1.403
 2591TIP3    H229333   1.741   5.903   1.391
 2592TIP3   OH229334   5.248   6.369   7.701
 2592TIP3    H129335   5.273   6.276   7.702
 2592TIP3    H229336   5.257   6.396   7.610
 2593TIP3   OH229337   1.838   6.809   0.698
 2593TIP3    H129338   1.919   6.805   0.750
 2593TIP3    H229339   1.784   6.873   0.745
 2594TIP3   OH229340   2.003   1.253   1.700
 2594TIP3    H129341   1.912   1.256   1.671
 2594TIP3    H229342   2.003   1.194   1.775
 2595TIP3   OH229343   1.230   1.671   0.047
 2595TIP3    H129344   1.268   1.620   8.542
 2595TIP3    H229345   1.138   1.681   0.022
 2596TIP3   OH229346   6.032   5.091   8.191
 2596TIP3    H129347   5.985   5.162   8.146
 2596TIP3    H229348   6.111   5.079   8.139
 2597TIP3   OH229349   1.434   3.855   6.611
 2597TIP3    H129350   1.448   3.911   6.535
 2597TIP3    H229351   1.515   3.805   6.620
 2598TIP3   OH229352   6.710   3.209   0.968
 2598TIP3    H129353   6.730   3.126   1.012
 2598TIP3    H229354   6.724   3.276   1.035
 2599TIP3   OH229355   2.226   3.035   1.434
 2599TIP3    H129356   2.316   3.049   1.462
 2599TIP3    H229357   2.225   2.947   1.397
 2600TIP3   OH229358   4.767   2.179   1.552
 2600TIP3    H129359   4.775   2.257   1.606
 2600TIP3    H229360   4.857   2.159   1.525
 2601TIP3   OH229361   0.042   6.884   0.401
 2601TIP3    H129362   6.861   6.908   0.381
 2601TIP3    H229363   0.035   6.821   0.473
 2602TIP3   OH229364   2.898   0.309   7.757
 2602TIP3    H129365   2.914   0.285   7.848
 2602TIP3    H229366   2.803   0.301   7.746
 2603TIP3   OH229367   1.303   0.037   0.287
 2603TIP3    H129368   1.277   0.129   0.292
 2603TIP3    H229369   1.275   6.908   0.370
 2604TIP3   OH229370   3.917   0.562   0.295
 2604TIP3    H129371   3.967   0.643   0.298
 2604TIP3    H229372   3.828   0.588   0.320
 2605TIP3   OH229373   6.855   0.718   1.264
 2605TIP3    H129374   6.879   0.774   1.338
 2605TIP3    H229375   6.894   0.633   1.285
 2606TIP3   OH229376   5.195   2.298   1.188
 2606TIP3    H129377   5.164   2.207   1.190
 2606TIP3    H229378   5.170   2.333   1.274
 2607TIP3   OH229379   4.181   6.614   0.843
 2607TIP3    H129380   4.184   6.708   0.859
 2607TIP3    H229381   4.091   6.589   0.864
 2608TIP3   OH229382   5.360   0.202   6.259
 2608TIP3    H129383   5.275   0.243   6.276
 2608TIP3    H229384   5.420   0.247   6.318
 2609TIP3   OH229385   0.093   4.614   2.180
 2609TIP3    H129386   0.042   4.552   2.128
 2609TIP3    H229387   0.151   4.558   2.232
 2610TIP3   OH229388   2.033   0.600   0.922
 2610TIP3    H129389   2.004   0.520   0.879
 2610TIP3    H229390   1.972   0.667   0.890
 2611TIP3   OH229391   5.058   5.808   1.469
 2611TIP3    H129392   5.046   5.836   1.378
 2611TIP3    H229393   4.976   5.831   1.512
 2612TIP3   OH229394   3.650   4.630   7.047
 2612TIP3    H129395   3.741   4.659   7.045
 2612TIP3    H229396   3.599   4.711   7.044
 2613TIP3   OH229397   0.492   4.832   6.989
 2613TIP3    H129398   0.523   4.744   6.967
 2613TIP3    H229399   0.514   4.885   6.913
 2614TIP3   OH229400   0.049   4.878   2.296
 2614TIP3    H129401   0.073   4.788   2.272
 2614TIP3    H229402   0.065   4.929   2.217
 2615TIP3   OH229403   6.545   4.418   0.253
 2615TIP3    H129404   6.466   4.443   0.205
 2615TIP3    H229405   6.581   4.345   0.201
 2616TIP3   OH229406   4.226   3.328   6.931
 2616TIP3    H129407   4.218   3.416   6.968
 2616TIP3    H229408   4.154   3.279   6.970
 2617TIP3   OH229409   0.325   5.448   7.413
 2617TIP3    H129410   0.415   5.465   7.385
 2617TIP3    H229411   0.277   5.526   7.385
 2618TIP3   OH229412   1.065   2.020   7.051
 2618TIP3    H129413   1.123   1.987   6.983
 2618TIP3    H229414   1.121   2.071   7.109
 2619TIP3   OH229415   3.344   1.155   7.907
 2619TIP3    H129416   3.302   1.111   7.980
 2619TIP3    H229417   3.316   1.107   7.830
 2620TIP3   OH229418   0.771   5.556   7.760
 2620TIP3    H129419   0.696   5.615   7.754
 2620TIP3    H229420   0.847   5.611   7.738
 2621TIP3   OH229421   0.835   1.341   7.755
 2621TIP3    H129422   0.875   1.264   7.714
 2621TIP3    H229423   0.866   1.415   7.702
 2622TIP3   OH229424   0.535   6.604   1.189
 2622TIP3    H129425   0.543   6.658   1.110
 2622TIP3    H229426   0.442   6.606   1.210
 2623TIP3   OH229427   5.661   0.057   6.283
 2623TIP3    H129428   5.747   0.014   6.284
 2623TIP3    H229429   5.681   0.151   6.285
 2624TIP3   OH229430   6.270   0.176   0.439
 2624TIP3    H129431   6.199   0.139   0.492
 2624TIP3    H229432   6.234   0.257   0.403
 2625TIP3   OH229433   3.325   4.227   7.820
 2625TIP3    H129434   3.238   4.262   7.836
 2625TIP3    H229435   3.315   4.172   7.742
 2626TIP3   OH229436   0.402   4.617   7.759
 2626TIP3    H129437   0.346   4.608   7.836
 2626TIP3    H229438   0.343   4.645   7.689
 2627TIP3   OH229439   1.454   4.223   7.265
 2627TIP3    H129440   1.548   4.239   7.274
 2627TIP3    H229441   1.426   4.286   7.198
 2628TIP3   OH229442   4.936   2.394   7.389
 2628TIP3    H129443   4.932   2.311   7.437
 2628TIP3    H229444   4.917   2.461   7.454
 2629TIP3   OH229445   0.954   2.464   1.435
 2629TIP3    H129446   1.039   2.507   1.424
 2629TIP3    H229447   0.976   2.379   1.473
 2630TIP3   OH229448   3.255   6.144   0.653
 2630TIP3    H129449   3.287   6.058   0.628
 2630TIP3    H229450   3.190   6.166   0.586
 2631TIP3   OH229451   0.809   0.419   7.115
 2631TIP3    H129452   0.828   0.479   7.043
 2631TIP3    H229453   0.750   0.468   7.172
 2632TIP3   OH229454   4.025   6.060   6.769
 2632TIP3    H129455   4.035   6.013   6.687
 2632TIP3    H229456   4.041   6.152   6.747
 2633TIP3   OH229457   6.693   6.904   0.273
 2633TIP3    H129458   6.635   0.062   0.308
 2633TIP3    H229459   6.635   6.844   0.226
 2634TIP3   OH229460   0.299   0.006   0.600
 2634TIP3    H129461   0.250   6.862   0.538
 2634TIP3    H229462   0.344   6.852   0.656
 2635TIP3   OH229463   2.940   6.256   1.103
 2635TIP3    H129464   2.967   6.176   1.058
 2635TIP3    H229465   2.860   6.284   1.057
 2636TIP3   OH229466   0.225   4.194   0.260
 2636TIP3    H129467   0.170   4.123   0.293
 2636TIP3    H229468   0.174   4.273   0.277
 2637TIP3   OH229469   6.669   5.953   7.779
 2637TIP3    H129470   6.715   6.035   7.764
 2637TIP3    H229471   6.738   5.887   7.782
 2638TIP3   OH229472   6.712   3.473   0.016
 2638TIP3    H129473   6.712   3.557   0.062
 2638TIP3    H229474   6.775   3.484   8.512
 2639TIP3   OH229475   2.171   0.743   6.221
 2639TIP3    H129476   2.150   0.652   6.240
 2639TIP3    H229477   2.088   0.789   6.228
 2640TIP3   OH229478   5.963   2.820   6.661
 2640TIP3    H129479   5.986   2.852   6.573
 2640TIP3    H229480   5.890   2.760   6.646
 2641TIP3   OH229481   6.096   0.189   6.780
 2641TIP3    H129482   6.083   0.281   6.755
 2641TIP3    H229483   6.021   0.143   6.741
 2642TIP3   OH229484   3.743   6.421   1.366
 2642TIP3    H129485   3.790   6.410   1.283
 2642TIP3    H229486   3.651   6.409   1.343
 2643TIP3   OH229487   6.515   5.757   8.514
 2643TIP3    H129488   6.525   5.847   8.483
 2643TIP3    H229489   6.515   5.704   8.434
 2644TIP3   OH229490   6.625   2.854   6.850
 2644TIP3    H129491   6.696   2.866   6.913
 2644TIP3    H229492   6.651   2.904   6.773
 2645TIP3   OH229493   5.510   2.659   7.142
 2645TIP3    H129494   5.417   2.652   7.122
 2645TIP3    H229495   5.554   2.648   7.057
 2646TIP3   OH229496   4.658   6.120   6.933
 2646TIP3    H129497   4.735   6.085   6.888
 2646TIP3    H229498   4.684   6.208   6.961
 2647TIP3   OH229499   5.723   1.647   1.638
 2647TIP3    H129500   5.755   1.557   1.638
 2647TIP3    H229501   5.633   1.640   1.605
 2648TIP3   OH229502   4.241   5.573   0.591
 2648TIP3    H129503   4.329   5.546   0.564
 2648TIP3    H229504   4.183   5.511   0.547
 2649TIP3   OH229505   1.512   5.011   1.269
 2649TIP3    H129506   1.510   5.062   1.350
 2649TIP3    H229507   1.600   4.973   1.266
 2650TIP3   OH229508   5.347   0.751   0.647
 2650TIP3    H129509   5.348   0.655   0.649
 2650TIP3    H229510   5.406   0.777   0.718
 2651TIP3   OH229511   3.223   6.112   7.801
 2651TIP3    H129512   3.145   6.101   7.748
 2651TIP3    H229513   3.289   6.146   7.740
 2652TIP3   OH229514   2.046   5.558   6.090
 2652TIP3    H129515   2.014   5.646   6.068
 2652TIP3    H229516   1.966   5.505   6.096
 2653TIP3   OH229517   0.468   0.524   0.138
 2653TIP3    H129518   0.514   0.587   0.082
 2653TIP3    H229519   0.525   0.448   0.140
 2654TIP3   OH229520   1.749   5.490   7.223
 2654TIP3    H129521   1.766   5.404   7.263
 2654TIP3    H229522   1.755   5.474   7.129
 2655TIP3   OH229523   3.385   4.168   0.819
 2655TIP3    H129524   3.315   4.110   0.849
 2655TIP3    H229525   3.388   4.155   0.724
 2656TIP3   OH229526   5.741   1.654   7.607
 2656TIP3    H129527   5.665   1.658   7.665
 2656TIP3    H229528   5.762   1.561   7.601
 2657TIP3   OH229529   3.883   1.405   0.917
 2657TIP3    H129530   3.973   1.435   0.899
 2657TIP3    H229531   3.830   1.450   0.852
 2658TIP3   OH229532   4.485   3.770   0.187
 2658TIP3    H129533   4.488   3.728   0.101
 2658TIP3    H229534   4.532   3.853   0.175
 2659TIP3   OH229535   4.076   2.796   0.173
 2659TIP3    H129536   4.050   2.704   0.175
 2659TIP3    H229537   4.103   2.811   0.082
 2660TIP3   OH229538   2.407   3.832   0.711
 2660TIP3    H129539   2.396   3.745   0.749
 2660TIP3    H229540   2.502   3.848   0.714
 2661TIP3   OH229541   1.782   2.632   7.635
 2661TIP3    H129542   1.795   2.726   7.621
 2661TIP3    H229543   1.696   2.626   7.676
 2662TIP3   OH229544   5.868   4.144   2.323
 2662TIP3    H129545   5.785   4.185   2.348
 2662TIP3    H229546   5.842   4.070   2.268
 2663TIP3   OH229547   4.447   3.319   6.126
 2663TIP3    H129548   4.410   3.407   6.134
 2663TIP3    H229549   4.534   3.327   6.165
 2664TIP3   OH229550   1.938   0.069   0.132
 2664TIP3    H129551   1.866   0.032   0.081
 2664TIP3    H229552   1.993   0.113   0.067
 2665TIP3   OH229553   2.714   6.192   0.492
 2665TIP3    H129554   2.687   6.121   0.551
 2665TIP3    H229555   2.720   6.269   0.549
 2666TIP3   OH229556   2.584   0.875   7.478
 2666TIP3    H129557   2.663   0.906   7.433
 2666TIP3    H229558   2.519   0.865   7.408
 2667TIP3   OH229559   2.099   2.638   0.274
 2667TIP3    H129560   2.051   2.559   0.300
 2667TIP3    H229561   2.135   2.616   0.188
 2668TIP3   OH229562   0.924   2.751   0.763
 2668TIP3    H129563   0.849   2.711   0.719
 2668TIP3    H229564   0.968   2.677   0.806
 2669TIP3   OH229565   4.779   1.758   6.588
 2669TIP3    H129566   4.800   1.697   6.517
 2669TIP3    H229567   4.705   1.809   6.554
 2670TIP3   OH229568   1.509   5.405   1.150
 2670TIP3    H129569   1.458   5.437   1.225
 2670TIP3    H229570   1.586   5.462   1.148
 2671TIP3   OH229571   1.847   1.582   1.483
 2671TIP3    H129572   1.911   1.542   1.423
 2671TIP3    H229573   1.888   1.577   1.569
 2672TIP3   OH229574   4.048   4.281   7.532
 2672TIP3    H129575   4.056   4.271   7.627
 2672TIP3    H229576   4.096   4.207   7.496
 2673TIP3   OH229577   3.724   4.172   7.111
 2673TIP3    H129578   3.700   4.240   7.174
 2673TIP3    H229579   3.803   4.132   7.148
 2674TIP3   OH229580   1.207   2.655   0.195
 2674TIP3    H129581   1.273   2.697   0.141
 2674TIP3    H229582   1.200   2.566   0.160
 2675TIP3   OH229583   0.506   4.709   7.292
 2675TIP3    H129584   0.424   4.737   7.332
 2675TIP3    H229585   0.490   4.715   7.197
 2676TIP3   OH229586   5.024   2.745   1.143
 2676TIP3    H129587   4.999   2.663   1.101
 2676TIP3    H229588   5.032   2.722   1.236
 2677TIP3   OH229589   0.915   2.622   0.318
 2677TIP3    H129590   0.964   2.702   0.338
 2677TIP3    H229591   0.981   2.553   0.322
 2678TIP3   OH229592   5.290   4.280   0.676
 2678TIP3    H129593   5.363   4.335   0.705
 2678TIP3    H229594   5.331   4.200   0.643
 2679TIP3   OH229595   2.551   2.731   8.000
 2679TIP3    H129596   2.543   2.642   7.967
 2679TIP3    H229597   2.555   2.721   8.095
 2680TIP3   OH229598   2.831   4.186   0.372
 2680TIP3    H129599   2.835   4.281   0.373
 2680TIP3    H229600   2.922   4.159   0.358
 2681TIP3   OH229601   5.877   3.180   1.634
 2681TIP3    H129602   5.807   3.122   1.663
 2681TIP3    H229603   5.956   3.126   1.636
 2682TIP3   OH229604   6.380   3.586   0.427
 2682TIP3    H129605   6.353   3.606   0.338
 2682TIP3    H229606   6.457   3.641   0.442
 2683TIP3   OH229607   0.213   0.868   1.818
 2683TIP3    H129608   0.271   0.870   1.894
 2683TIP3    H229609   0.125   0.877   1.856
 2684TIP3   OH229610   4.378   6.393   7.732
 2684TIP3    H129611   4.320   6.425   7.663
 2684TIP3    H229612   4.418   6.472   7.768
 2685TIP3   OH229613   4.926   6.765   6.797
 2685TIP3    H129614   4.947   6.759   6.890
 2685TIP3    H229615   4.888   6.853   6.787
 2686TIP3   OH229616   6.258   6.740   7.248
 2686TIP3    H129617   6.244   6.646   7.261
 2686TIP3    H229618   6.291   6.748   7.159
 2687TIP3   OH229619   6.374   5.643   7.909
 2687TIP3    H129620   6.350   5.735   7.920
 2687TIP3    H229621   6.297   5.595   7.939
 2688TIP3   OH229622   4.100   1.687   0.561
 2688TIP3    H129623   4.112   1.655   0.650
 2688TIP3    H229624   4.187   1.684   0.522
 2689TIP3   OH229625   6.513   3.442   7.420
 2689TIP3    H129626   6.498   3.454   7.326
 2689TIP3    H229627   6.498   3.529   7.457
 2690TIP3   OH229628   1.249   2.505   7.928
 2690TIP3    H129629   1.259   2.587   7.977
 2690TIP3    H229630   1.328   2.499   7.875
 2691TIP3   OH229631   2.921   2.920   8.547
 2691TIP3    H129632   2.971   2.971   0.044
 2691TIP3    H229633   2.831   2.925   0.011
 2692TIP3   OH229634   4.933   3.232   7.771
 2692TIP3    H129635   4.871   3.237   7.843
 2692TIP3    H229636   5.009   3.185   7.807
 2693TIP3   OH229637   5.211   4.153   7.694
 2693TIP3    H129638   5.137   4.193   7.649
 2693TIP3    H229639   5.177   4.069   7.726
 2694TIP3   OH229640   3.177   0.178   6.271
 2694TIP3    H129641   3.257   0.187   6.219
 2694TIP3    H229642   3.120   0.121   6.218
 2695TIP3   OH229643   0.895   6.073   0.152
 2695TIP3    H129644   0.908   5.978   0.149
 2695TIP3    H229645   0.865   6.095   0.064
 2696TIP3   OH229646   0.207   4.559   7.940
 2696TIP3    H129647   0.186   4.566   8.033
 2696TIP3    H229648   0.130   4.518   7.901
 2697TIP3   OH229649   0.126   0.557   7.557
 2697TIP3    H129650   0.115   0.634   7.614
 2697TIP3    H229651   0.146   0.593   7.471
 2698TIP3   OH229652   3.838   6.405   7.259
 2698TIP3    H129653   3.887   6.402   7.176
 2698TIP3    H229654   3.893   6.356   7.320
 2699TIP3   OH229655   5.578   1.745   1.256
 2699TIP3    H129656   5.671   1.768   1.257
 2699TIP3    H229657   5.547   1.775   1.171
 2700TIP3   OH229658   3.946   6.551   6.033
 2700TIP3    H129659   3.941   6.474   6.089
 2700TIP3    H229660   4.039   6.558   6.012
 2701TIP3   OH229661   4.322   2.727   0.872
 2701TIP3    H129662   4.240   2.699   0.912
 2701TIP3    H229663   4.354   2.797   0.928
 2702TIP3   OH229664   2.989   1.377   0.272
 2702TIP3    H129665   3.084   1.390   0.278
 2702TIP3    H229666   2.970   1.310   0.338
 2703TIP3   OH229667   6.062   0.499   1.837
 2703TIP3    H129668   6.152   0.486   1.866
 2703TIP3    H229669   6.026   0.564   1.897
 2704TIP3   OH229670   6.225   3.300   0.486
 2704TIP3    H129671   6.266   3.386   0.494
 2704TIP3    H229672   6.207   3.289   0.393
 2705TIP3   OH229673   1.397   2.878   0.372
 2705TIP3    H129674   1.474   2.821   0.361
 2705TIP3    H229675   1.388   2.886   0.467
 2706TIP3   OH229676   2.082   0.476   6.289
 2706TIP3    H129677   2.177   0.479   6.300
 2706TIP3    H229678   2.047   0.515   6.369
 2707TIP3   OH229679   0.030   0.743   0.655
 2707TIP3    H129680   6.900   0.657   0.671
 2707TIP3    H229681   0.036   0.783   0.741
 2708TIP3   OH229682   5.897   0.634   6.712
 2708TIP3    H129683   5.945   0.563   6.670
 2708TIP3    H229684   5.806   0.605   6.713
 2709TIP3   OH229685   6.861   1.244   0.685
 2709TIP3    H129686   6.875   1.167   0.629
 2709TIP3    H229687   0.030   1.297   0.672
 2710TIP3   OH229688   0.643   5.160   6.623
 2710TIP3    H129689   0.691   5.193   6.548
 2710TIP3    H229690   0.566   5.217   6.629
 2711TIP3   OH229691   3.504   2.337   0.409
 2711TIP3    H129692   3.427   2.303   0.453
 2711TIP3    H229693   3.499   2.301   0.320
 2712TIP3   OH229694   5.265   6.169   0.350
 2712TIP3    H129695   5.332   6.125   0.402
 2712TIP3    H229696   5.183   6.130   0.379
 2713TIP3   OH229697   6.453   3.597   1.747
 2713TIP3    H129698   6.372   3.615   1.795
 2713TIP3    H229699   6.523   3.610   1.811
 2714TIP3   OH229700   5.143   1.661   1.427
 2714TIP3    H129701   5.082   1.704   1.487
 2714TIP3    H229702   5.172   1.731   1.368
 2715TIP3   OH229703   6.301   5.913   0.653
 2715TIP3    H129704   6.250   5.925   0.573
 2715TIP3    H229705   6.237   5.887   0.718
 2716TIP3   OH229706   0.011   6.756   2.340
 2716TIP3    H129707   6.872   6.683   2.301
 2716TIP3    H229708   0.086   6.715   2.382
 2717TIP3   OH229709   2.825   4.086   0.645
 2717TIP3    H129710   2.837   4.159   0.706
 2717TIP3    H229711   2.801   4.128   0.562
 2718TIP3   OH229712   2.499   2.467   1.541
 2718TIP3    H129713   2.541   2.435   1.461
 2718TIP3    H229714   2.514   2.397   1.605
 2719TIP3   OH229715   5.508   5.872   1.534
 2719TIP3    H129716   5.505   5.952   1.482
 2719TIP3    H229717   5.563   5.893   1.609
 2720TIP3   OH229718   5.966   3.841   0.140
 2720TIP3    H129719   5.904   3.876   0.204
 2720TIP3    H229720   5.974   3.748   0.162
 2721TIP3   OH229721   6.584   2.037   7.721
 2721TIP3    H129722   6.607   1.990   7.640
 2721TIP3    H229723   6.498   2.002   7.745
 2722TIP3   OH229724   1.574   6.692   0.051
 2722TIP3    H129725   1.609   6.627   0.112
 2722TIP3    H229726   1.486   6.660   0.029
 2723TIP3   OH229727   5.853   3.735   7.439
 2723TIP3    H129728   5.905   3.787   7.500
 2723TIP3    H229729   5.764   3.740   7.473
 2724TIP3   OH229730   5.714   2.136   7.486
 2724TIP3    H129731   5.710   2.081   7.565
 2724TIP3    H229732   5.792   2.190   7.499
 2725TIP3   OH229733   2.325   0.214   0.566
 2725TIP3    H129734   2.318   0.141   0.627
 2725TIP3    H229735   2.406   0.258   0.591
 2726TIP3   OH229736   2.995   2.795   1.838
 2726TIP3    H129737   3.031   2.716   1.878
 2726TIP3    H229738   2.940   2.763   1.767
 2727TIP3   OH229739   0.473   6.193   1.403
 2727TIP3    H129740   0.454   6.204   1.310
 2727TIP3    H229741   0.396   6.149   1.439
 2728TIP3   OH229742   6.608   5.022   8.196
 2728TIP3    H129743   6.513   5.018   8.208
 2728TIP3    H229744   6.640   5.071   8.271
 2729TIP3   OH229745   0.925   6.182   2.112
 2729TIP3    H129746   0.911   6.219   2.199
 2729TIP3    H229747   0.846   6.132   2.093
 2730TIP3   OH229748   4.024   2.628   0.915
 2730TIP3    H129749   3.939   2.618   0.958
 2730TIP3    H229750   4.007   2.609   0.823
 2731TIP3   OH229751   3.065   2.408   0.678
 2731TIP3    H129752   2.976   2.373   0.684
 2731TIP3    H229753   3.058   2.482   0.618
 2732TIP3   OH229754   4.730   3.979   7.043
 2732TIP3    H129755   4.694   4.067   7.033
 2732TIP3    H229756   4.770   3.959   6.959
 2733TIP3   OH229757   1.023   4.669   7.299
 2733TIP3    H129758   1.102   4.718   7.324
 2733TIP3    H229759   1.022   4.594   7.358
 2734TIP3   OH229760   4.610   2.941   0.473
 2734TIP3    H129761   4.533   2.983   0.436
 2734TIP3    H229762   4.663   2.914   0.398
 2735TIP3   OH229763   2.749   0.089   7.067
 2735TIP3    H129764   2.819   0.056   7.123
 2735TIP3    H229765   2.679   0.114   7.127
 2736TIP3   OH229766   3.060   1.773   7.805
 2736TIP3    H129767   2.986   1.729   7.847
 2736TIP3    H229768   3.023   1.852   7.766
 2737TIP3   OH229769   2.806   0.657   0.444
 2737TIP3    H129770   2.829   0.634   0.534
 2737TIP3    H229771   2.744   0.729   0.453
 2738TIP3   OH229772   6.126   3.957   1.519
 2738TIP3    H129773   6.044   3.950   1.471
 2738TIP3    H229774   6.169   3.872   1.508
 2739TIP3   OH229775   5.826   5.789   1.574
 2739TIP3    H129776   5.810   5.735   1.651
 2739TIP3    H229777   5.899   5.746   1.529
 2740TIP3   OH229778   0.245   0.911   0.193
 2740TIP3    H129779   0.193   0.906   0.113
 2740TIP3    H229780   0.313   0.976   0.174
 2741TIP3   OH229781   6.275   1.139   2.205
 2741TIP3    H129782   6.202   1.078   2.190
 2741TIP3    H229783   6.245   1.222   2.166
 2742TIP3   OH229784   4.978   3.737   6.917
 2742TIP3    H129785   5.019   3.674   6.857
 2742TIP3    H229786   4.923   3.791   6.861
 2743TIP3   OH229787   1.696   4.873   2.148
 2743TIP3    H129788   1.749   4.937   2.100
 2743TIP3    H229789   1.607   4.909   2.146
 2744TIP3   OH229790   5.531   5.390   1.111
 2744TIP3    H129791   5.620   5.408   1.078
 2744TIP3    H229792   5.516   5.298   1.090
 2745TIP3   OH229793   4.483   1.166   2.806
 2745TIP3    H129794   4.568   1.128   2.827
 2745TIP3    H229795   4.500   1.226   2.733
 2746TIP3   OH229796   3.501   3.546   0.890
 2746TIP3    H129797   3.593   3.566   0.905
 2746TIP3    H229798   3.492   3.454   0.915
 2747TIP3   OH229799   2.946   0.931   0.671
 2747TIP3    H129800   3.028   0.881   0.672
 2747TIP3    H229801   2.878   0.865   0.682
 2748TIP3   OH229802   5.881   2.763   0.101
 2748TIP3    H129803   5.925   2.847   0.088
 2748TIP3    H229804   5.825   2.778   0.178
 2749TIP3   OH229805   6.884   5.451   6.489
 2749TIP3    H129806   0.065   5.419   6.487
 2749TIP3    H229807   6.846   5.418   6.407
 2750TIP3   OH229808   3.562   5.081   0.191
 2750TIP3    H129809   3.647   5.121   0.171
 2750TIP3    H229810   3.512   5.151   0.233
 2751TIP3   OH229811   3.099   5.013   7.659
 2751TIP3    H129812   3.099   4.956   7.582
 2751TIP3    H229813   3.176   4.986   7.709
 2752TIP3   OH229814   0.248   3.716   1.379
 2752TIP3    H129815   0.256   3.636   1.431
 2752TIP3    H229816   0.175   3.763   1.418
 2753TIP3   OH229817   5.653   0.013   6.005
 2753TIP3    H129818   5.663   0.082   6.071
 2753TIP3    H229819   5.736   0.012   5.958
 2754TIP3   OH229820   2.486   4.192   6.250
 2754TIP3    H129821   2.558   4.235   6.202
 2754TIP3    H229822   2.432   4.265   6.281
 2755TIP3   OH229823   6.880   1.864   6.833
 2755TIP3    H129824   6.828   1.821   6.765
 2755TIP3    H229825   0.016   1.935   6.787
 2756TIP3   OH229826   3.303   0.641   7.448
 2756TIP3    H129827   3.265   0.670   7.531
 2756TIP3    H229828   3.232   0.652   7.385
 2757TIP3   OH229829   3.780   2.082   1.088
 2757TIP3    H129830   3.849   2.135   1.047
 2757TIP3    H229831   3.730   2.047   1.014
 2758TIP3   OH229832   6.622   2.012   6.982
 2758TIP3    H129833   6.529   2.027   6.995
 2758TIP3    H229834   6.633   1.917   6.990
 2759TIP3   OH229835   4.181   5.269   0.792
 2759TIP3    H129836   4.137   5.277   0.876
 2759TIP3    H229837   4.259   5.325   0.800
 2760TIP3   OH229838   6.188   0.047   7.880
 2760TIP3    H129839   6.235   0.040   7.963
 2760TIP3    H229840   6.180   6.867   7.849
 2761TIP3   OH229841   5.360   6.439   7.420
 2761TIP3    H129842   5.373   6.469   7.330
 2761TIP3    H229843   5.427   6.485   7.470
 2762TIP3   OH229844   2.621   2.016   7.451
 2762TIP3    H129845   2.602   2.102   7.414
 2762TIP3    H229846   2.646   2.034   7.542
 2763TIP3   OH229847   0.204   0.229   0.275
 2763TIP3    H129848   0.133   0.169   0.251
 2763TIP3    H229849   0.197   0.301   0.212
 2764TIP3   OH229850   6.703   1.896   0.160
 2764TIP3    H129851   6.650   1.925   0.086
 2764TIP3    H229852   6.792   1.892   0.126
 2765TIP3   OH229853   3.253   3.835   1.456
 2765TIP3    H129854   3.324   3.848   1.519
 2765TIP3    H229855   3.260   3.743   1.430
 2766TIP3   OH229856   1.686   1.295   1.337
 2766TIP3    H129857   1.745   1.324   1.268
 2766TIP3    H229858   1.634   1.225   1.295
 2767TIP3   OH229859   0.540   6.177   0.697
 2767TIP3    H129860   0.615   6.198   0.641
 2767TIP3    H229861   0.580   6.145   0.778
 2768TIP3   OH229862   4.469   3.555   1.567
 2768TIP3    H129863   4.522   3.614   1.620
 2768TIP3    H229864   4.445   3.484   1.626
 2769TIP3   OH229865   6.453   3.110   0.907
 2769TIP3    H129866   6.535   3.151   0.934
 2769TIP3    H229867   6.447   3.127   0.813
 2770TIP3   OH229868   0.841   4.802   2.083
 2770TIP3    H129869   0.908   4.838   2.025
 2770TIP3    H229870   0.804   4.728   2.035
 2771TIP3   OH229871   1.348   3.332   1.285
 2771TIP3    H129872   1.418   3.381   1.329
 2771TIP3    H229873   1.268   3.363   1.328
 2772TIP3   OH229874   5.675   5.877   2.397
 2772TIP3    H129875   5.598   5.855   2.345
 2772TIP3    H229876   5.743   5.896   2.332
 2773TIP3   OH229877   1.243   3.787   7.172
 2773TIP3    H129878   1.191   3.861   7.141
 2773TIP3    H229879   1.325   3.825   7.201
 2774TIP3   OH229880   2.466   1.960   7.969
 2774TIP3    H129881   2.418   1.892   8.016
 2774TIP3    H229882   2.548   1.969   8.017
 2775TIP3   OH229883   1.637   3.594   7.351
 2775TIP3    H129884   1.676   3.641   7.277
 2775TIP3    H229885   1.703   3.595   7.419
 2776TIP3   OH229886   3.191   1.800   7.216
 2776TIP3    H129887   3.163   1.864   7.151
 2776TIP3    H229888   3.180   1.845   7.300
 2777TIP3   OH229889   4.303   5.123   0.401
 2777TIP3    H129890   4.243   5.064   0.447
 2777TIP3    H229891   4.349   5.170   0.470
 2778TIP3   OH229892   6.078   4.040   7.302
 2778TIP3    H129893   6.143   4.094   7.346
 2778TIP3    H229894   6.105   4.040   7.210
 2779TIP3   OH229895   5.784   6.482   2.433
 2779TIP3    H129896   5.814   6.519   2.516
 2779TIP3    H229897   5.702   6.438   2.454
 2780TIP3   OH229898   2.234   0.290   7.405
 2780TIP3    H129899   2.195   0.353   7.466
 2780TIP3    H229900   2.184   0.301   7.324
 2781TIP3   OH229901   6.202   4.147   8.354
 2781TIP3    H129902   6.152   4.225   8.331
 2781TIP3    H229903   6.139   4.088   8.394
 2782TIP3   OH229904   3.374   6.341   1.580
 2782TIP3    H129905   3.296   6.393   1.602
 2782TIP3    H229906   3.339   6.266   1.530
 2783TIP3   OH229907   3.697   1.021   0.210
 2783TIP3    H129908   3.667   0.939   0.172
 2783TIP3    H229909   3.727   0.997   0.298
 2784TIP3   OH229910   1.812   2.647   1.621
 2784TIP3    H129911   1.820   2.565   1.572
 2784TIP3    H229912   1.823   2.621   1.712
 2785TIP3   OH229913   2.141   3.106   8.547
 2785TIP3    H129914   2.102   3.032   8.502
 2785TIP3    H229915   2.143   3.176   8.481
 2786TIP3   OH229916   2.273   3.644   6.943
 2786TIP3    H129917   2.226   3.626   6.862
 2786TIP3    H229918   2.358   3.678   6.915
 2787TIP3   OH229919   3.011   1.050   0.956
 2787TIP3    H129920   2.969   1.040   0.871
 2787TIP3    H229921   3.102   1.072   0.935
 2788TIP3   OH229922   0.105   6.587   6.461
 2788TIP3    H129923   0.121   6.499   6.496
 2788TIP3    H229924   0.012   6.587   6.438
 2789TIP3   OH229925   4.223   2.230   8.415
 2789TIP3    H129926   4.144   2.177   8.403
 2789TIP3    H229927   4.196   2.319   8.393
 2790TIP3   OH229928   6.747   0.371   7.930
 2790TIP3    H129929   6.779   0.307   7.992
 2790TIP3    H229930   6.801   0.358   7.852
 2791TIP3   OH229931   1.655   3.329   6.823
 2791TIP3    H129932   1.686   3.246   6.858
 2791TIP3    H229933   1.560   3.321   6.823
 2792TIP3   OH229934   1.293   2.928   0.646
 2792TIP3    H129935   1.342   2.846   0.656
 2792TIP3    H229936   1.353   2.996   0.677
 2793TIP3   OH229937   2.679   5.301   6.936
 2793TIP3    H129938   2.723   5.272   6.856
 2793TIP3    H229939   2.591   5.266   6.929
 2794TIP3   OH229940   6.753   4.501   1.426
 2794TIP3    H129941   6.699   4.567   1.470
 2794TIP3    H229942   6.717   4.417   1.453
 2795TIP3   OH229943   0.197   3.133   8.008
 2795TIP3    H129944   0.217   3.111   7.917
 2795TIP3    H229945   0.258   3.079   8.060
 2796TIP3   OH229946   0.012   2.959   6.368
 2796TIP3    H129947   6.882   2.973   6.454
 2796TIP3    H229948   0.099   2.998   6.374
 2797TIP3   OH229949   6.369   0.676   1.728
 2797TIP3    H129950   6.333   0.731   1.797
 2797TIP3    H229951   6.387   0.736   1.656
 2798TIP3   OH229952   6.624   2.668   6.425
 2798TIP3    H129953   6.573   2.623   6.358
 2798TIP3    H229954   6.714   2.666   6.393
 2799TIP3   OH229955   2.209   1.442   1.704
 2799TIP3    H129956   2.144   1.373   1.693
 2799TIP3    H229957   2.192   1.477   1.791
 2800TIP3   OH229958   3.187   5.053   0.791
 2800TIP3    H129959   3.131   5.064   0.714
 2800TIP3    H229960   3.127   5.057   0.865
 2801TIP3   OH229961   6.068   0.804   5.900
 2801TIP3    H129962   6.080   0.709   5.903
 2801TIP3    H229963   6.009   0.819   5.826
 2802TIP3   OH229964   0.258   0.681   1.402
 2802TIP3    H129965   0.325   0.744   1.428
 2802TIP3    H229966   0.299   0.595   1.416
 2803TIP3   OH229967   1.581   2.843   8.032
 2803TIP3    H129968   1.576   2.748   8.031
 2803TIP3    H229969   1.549   2.869   7.945
 2804TIP3   OH229970   4.617   3.245   0.579
 2804TIP3    H129971   4.568   3.163   0.571
 2804TIP3    H229972   4.692   3.235   0.521
 2805TIP3   OH229973   5.707   4.841   0.075
 2805TIP3    H129974   5.623   4.883   0.093
 2805TIP3    H229975   5.752   4.842   0.160
 2806TIP3   OH229976   6.488   4.319   1.317
 2806TIP3    H129977   6.422   4.350   1.379
 2806TIP3    H229978   6.531   4.246   1.362
 2807TIP3   OH229979   1.402   1.893   8.567
 2807TIP3    H129980   1.336   1.831   0.029
 2807TIP3    H229981   1.450   1.847   8.498
 2808TIP3   OH229982   4.549   6.677   0.813
 2808TIP3    H129983   4.634   6.685   0.857
 2808TIP3    H229984   4.499   6.618   0.870
 2809TIP3   OH229985   2.063   5.569   7.548
 2809TIP3    H129986   2.079   5.605   7.460
 2809TIP3    H229987   2.147   5.531   7.574
 2810TIP3   OH229988   0.078   5.280   2.355
 2810TIP3    H129989   0.148   5.261   2.292
 2810TIP3    H229990   0.032   5.355   2.318
 2811TIP3   OH229991   2.824   0.171   0.512
 2811TIP3    H129992   2.880   0.248   0.506
 2811TIP3    H229993   2.807   0.146   0.421
 2812TIP3   OH229994   1.769   6.719   7.259
 2812TIP3    H129995   1.675   6.733   7.265
 2812TIP3    H229996   1.779   6.623   7.257
 2813TIP3   OH229997   0.511   0.486   0.760
 2813TIP3    H129998   0.440   0.506   0.699
 2813TIP3    H229999   0.476   0.510   0.846
 2814TIP3   OH230000   2.376   1.868   7.331
 2814TIP3    H130001   2.318   1.923   7.279
 2814TIP3    H230002   2.449   1.926   7.354
 2815TIP3   OH230003   2.013   5.178   0.382
 2815TIP3    H130004   1.919   5.176   0.369
 2815TIP3    H230005   2.025   5.214   0.470
 2816TIP3   OH230006   0.666   0.421   7.517
 2816TIP3    H130007   0.687   0.501   7.566
 2816TIP3    H230008   0.683   0.351   7.579
 2817TIP3   OH230009   5.739   1.380   7.656
 2817TIP3    H130010   5.787   1.299   7.670
 2817TIP3    H230011   5.691   1.395   7.737
 2818TIP3   OH230012   1.602   2.311   6.018
 2818TIP3    H130013   1.601   2.372   5.944
 2818TIP3    H230014   1.544   2.351   6.083
 2819TIP3   OH230015   4.253   2.078   8.140
 2819TIP3    H130016   4.179   2.100   8.083
 2819TIP3    H230017   4.326   2.064   8.080
 2820TIP3   OH230018   5.228   4.475   7.536
 2820TIP3    H130019   5.182   4.393   7.553
 2820TIP3    H230020   5.289   4.455   7.465
 2821TIP3   OH230021   5.141   2.295   8.425
 2821TIP3    H130022   5.075   2.301   8.494
 2821TIP3    H230023   5.176   2.206   8.433
 2822TIP3   OH230024   4.294   4.426   8.042
 2822TIP3    H130025   4.256   4.487   7.978
 2822TIP3    H230026   4.359   4.478   8.089
 2823TIP3   OH230027   1.076   3.395   1.461
 2823TIP3    H130028   1.050   3.427   1.374
 2823TIP3    H230029   1.017   3.323   1.479
 2824TIP3   OH230030   4.963   3.722   1.943
 2824TIP3    H130031   4.933   3.631   1.942
 2824TIP3    H230032   4.911   3.764   2.010
 2825TIP3   OH230033   2.454   2.921   6.950
 2825TIP3    H130034   2.425   2.853   6.889
 2825TIP3    H230035   2.472   2.997   6.895
 2826TIP3   OH230036   5.757   6.102   1.333
 2826TIP3    H130037   5.780   6.184   1.291
 2826TIP3    H230038   5.767   6.036   1.265
 2827TIP3   OH230039   1.339   4.834   1.514
 2827TIP3    H130040   1.368   4.782   1.439
 2827TIP3    H230041   1.410   4.824   1.578
 2828TIP3   OH230042   3.534   3.037   7.543
 2828TIP3    H130043   3.578   3.015   7.625
 2828TIP3    H230044   3.441   3.030   7.563
 2829TIP3   OH230045   1.390   3.099   6.598
 2829TIP3    H130046   1.360   3.148   6.675
 2829TIP3    H230047   1.310   3.058   6.564
 2830TIP3   OH230048   4.049   1.039   2.724
 2830TIP3    H130049   4.035   1.117   2.777
 2830TIP3    H230050   4.101   0.981   2.780
 2831TIP3   OH230051   3.889   0.970   1.682
 2831TIP3    H130052   3.950   0.953   1.755
 2831TIP3    H230053   3.940   0.951   1.604
 2832TIP3   OH230054   6.679   0.779   7.480
 2832TIP3    H130055   6.747   0.749   7.541
 2832TIP3    H230056   6.614   0.820   7.537
 2833TIP3   OH230057   1.109   5.649   0.611
 2833TIP3    H130058   1.122   5.657   0.705
 2833TIP3    H230059   1.038   5.585   0.601
 2834TIP3   OH230060   5.571   0.887   2.247
 2834TIP3    H130061   5.556   0.800   2.285
 2834TIP3    H230062   5.495   0.938   2.274
 2835TIP3   OH230063   1.742   3.744   2.045
 2835TIP3    H130064   1.802   3.809   2.080
 2835TIP3    H230065   1.751   3.669   2.104
 2836TIP3   OH230066   0.390   3.222   6.831
 2836TIP3    H130067   0.324   3.167   6.873
 2836TIP3    H230068   0.386   3.304   6.879
 2837TIP3   OH230069   5.972   5.085   6.168
 2837TIP3    H130070   5.885   5.046   6.172
 2837TIP3    H230071   5.957   5.179   6.171
 2838TIP3   OH230072   5.319   4.227   1.467
 2838TIP3    H130073   5.240   4.281   1.460
 2838TIP3    H230074   5.342   4.229   1.560
 2839TIP3   OH230075   0.582   1.800   0.911
 2839TIP3    H130076   0.526   1.875   0.929
 2839TIP3    H230077   0.659   1.814   0.966
 2840TIP3   OH230078   3.767   5.055   1.556
 2840TIP3    H130079   3.717   5.003   1.493
 2840TIP3    H230080   3.701   5.111   1.597
 2841TIP3   OH230081   5.852   0.524   1.662
 2841TIP3    H130082   5.912   0.498   1.732
 2841TIP3    H230083   5.809   0.442   1.636
 2842TIP3   OH230084   0.811   0.315   6.746
 2842TIP3    H130085   0.904   0.296   6.734
 2842TIP3    H230086   0.783   0.253   6.814
 2843TIP3   OH230087   6.664   5.319   1.719
 2843TIP3    H130088   6.586   5.347   1.671
 2843TIP3    H230089   6.695   5.398   1.763
 2844TIP3   OH230090   2.494   3.802   8.412
 2844TIP3    H130091   2.464   3.878   8.462
 2844TIP3    H230092   2.589   3.813   8.407
 2845TIP3   OH230093   2.608   3.687   7.474
 2845TIP3    H130094   2.601   3.592   7.465
 2845TIP3    H230095   2.695   3.701   7.510
 2846TIP3   OH230096   3.191   6.361   8.293
 2846TIP3    H130097   3.108   6.408   8.295
 2846TIP3    H230098   3.229   6.382   8.208
 2847TIP3   OH230099   0.316   5.578   6.338
 2847TIP3    H130100   0.385   5.625   6.385
 2847TIP3    H230101   0.294   5.505   6.395
 2848TIP3   OH230102   0.428   5.889   0.494
 2848TIP3    H130103   0.398   5.820   0.436
 2848TIP3    H230104   0.490   5.940   0.442
 2849TIP3   OH230105   4.785   5.437   6.834
 2849TIP3    H130106   4.851   5.487   6.786
 2849TIP3    H230107   4.805   5.454   6.926
 2850TIP3   OH230108   4.248   6.254   7.097
 2850TIP3    H130109   4.263   6.277   7.006
 2850TIP3    H230110   4.322   6.198   7.120
 2851TIP3   OH230111   1.430   4.537   7.329
 2851TIP3    H130112   1.383   4.618   7.351
 2851TIP3    H230113   1.450   4.497   7.413
 2852TIP3   OH230114   3.305   5.986   0.993
 2852TIP3    H130115   3.332   5.987   1.085
 2852TIP3    H230116   3.317   6.076   0.963
 2853TIP3   OH230117   4.993   2.472   0.231
 2853TIP3    H130118   5.037   2.526   0.166
 2853TIP3    H230119   4.966   2.533   0.299
 2854TIP3   OH230120   4.101   5.922   7.340
 2854TIP3    H130121   4.093   5.830   7.313
 2854TIP3    H230122   4.093   5.920   7.435
 2855TIP3   OH230123   5.273   0.591   0.384
 2855TIP3    H130124   5.355   0.624   0.419
 2855TIP3    H230125   5.284   0.496   0.383
 2856TIP3   OH230126   5.584   5.971   7.198
 2856TIP3    H130127   5.562   6.007   7.284
 2856TIP3    H230128   5.632   6.041   7.154
 2857TIP3   OH230129   0.842   3.399   6.771
 2857TIP3    H130130   0.755   3.368   6.746
 2857TIP3    H230131   0.903   3.337   6.731
 2858TIP3   OH230132   4.629   5.506   0.733
 2858TIP3    H130133   4.696   5.575   0.728
 2858TIP3    H230134   4.671   5.437   0.783
 2859TIP3   OH230135   4.184   3.614   1.382
 2859TIP3    H130136   4.167   3.683   1.447
 2859TIP3    H230137   4.187   3.533   1.434
 2860TIP3   OH230138   4.865   5.733   6.840
 2860TIP3    H130139   4.945   5.729   6.892
 2860TIP3    H230140   4.806   5.790   6.890
 2861TIP3   OH230141   5.814   0.287   0.978
 2861TIP3    H130142   5.772   0.371   0.995
 2861TIP3    H230143   5.790   0.233   1.054
 2862TIP3   OH230144   0.604   0.284   0.212
 2862TIP3    H130145   0.698   0.274   0.231
 2862TIP3    H230146   0.564   0.205   0.248
 2863TIP3   OH230147   2.046   4.875   0.871
 2863TIP3    H130148   1.972   4.814   0.873
 2863TIP3    H230149   2.115   4.826   0.828
 2864TIP3   OH230150   2.497   5.974   0.504
 2864TIP3    H130151   2.417   5.943   0.547
 2864TIP3    H230152   2.567   5.920   0.540
 2865TIP3   OH230153   5.770   1.951   0.016
 2865TIP3    H130154   5.755   1.917   0.105
 2865TIP3    H230155   5.714   2.029   0.011
 2866TIP3   OH230156   2.412   2.468   8.341
 2866TIP3    H130157   2.321   2.487   8.363
 2866TIP3    H230158   2.406   2.419   8.258
 2867TIP3   OH230159   4.155   3.207   8.498
 2867TIP3    H130160   4.082   3.194   8.559
 2867TIP3    H230161   4.113   3.226   8.414
 2868TIP3   OH230162   3.527   2.206   1.763
 2868TIP3    H130163   3.490   2.192   1.676
 2868TIP3    H230164   3.514   2.123   1.808
 2869TIP3   OH230165   4.112   1.446   1.163
 2869TIP3    H130166   4.045   1.409   1.106
 2869TIP3    H230167   4.086   1.537   1.175
 2870TIP3   OH230168   1.066   3.470   1.208
 2870TIP3    H130169   0.979   3.507   1.190
 2870TIP3    H230170   1.125   3.545   1.208
 2871TIP3   OH230171   6.716   5.110   8.436
 2871TIP3    H130172   6.749   5.081   8.520
 2871TIP3    H230173   6.667   5.190   8.456
 2872TIP3   OH230174   4.821   0.469   6.115
 2872TIP3    H130175   4.916   0.465   6.115
 2872TIP3    H230176   4.792   0.386   6.078
 2873TIP3   OH230177   6.684   5.510   1.953
 2873TIP3    H130178   6.592   5.527   1.933
 2873TIP3    H230179   6.699   5.554   2.037
 2874TIP3   OH230180   0.117   3.284   2.386
 2874TIP3    H130181   0.144   3.365   2.342
 2874TIP3    H230182   0.162   3.214   2.338
 2875TIP3   OH230183   1.573   6.525   6.840
 2875TIP3    H130184   1.587   6.480   6.756
 2875TIP3    H230185   1.658   6.562   6.862
 2876TIP3   OH230186   3.048   0.540   0.704
 2876TIP3    H130187   3.005   0.625   0.692
 2876TIP3    H230188   3.118   0.539   0.638
 2877TIP3   OH230189   5.636   6.210   2.440
 2877TIP3    H130190   5.646   6.233   2.532
 2877TIP3    H230191   5.546   6.180   2.432
 2878TIP3   OH230192   5.410   0.976   0.514
 2878TIP3    H130193   5.430   0.899   0.567
 2878TIP3    H230194   5.314   0.980   0.513
 2879TIP3   OH230195   5.962   2.194   7.114
 2879TIP3    H130196   5.958   2.098   7.118
 2879TIP3    H230197   6.025   2.218   7.182
 2880TIP3   OH230198   3.033   3.947   7.653
 2880TIP3    H130199   3.124   3.977   7.661
 2880TIP3    H230200   3.038   3.852   7.666
 2881TIP3   OH230201   0.887   4.410   7.103
 2881TIP3    H130202   0.847   4.490   7.070
 2881TIP3    H230203   0.906   4.429   7.195
 2882TIP3   OH230204   1.222   6.272   7.237
 2882TIP3    H130205   1.219   6.183   7.272
 2882TIP3    H230206   1.217   6.329   7.314
 2883TIP3   OH230207   5.855   5.466   7.537
 2883TIP3    H130208   5.812   5.534   7.485
 2883TIP3    H230209   5.826   5.384   7.499
 2884TIP3   OH230210   0.666   1.908   1.748
 2884TIP3    H130211   0.574   1.898   1.722
 2884TIP3    H230212   0.684   2.001   1.737
 2885TIP3   OH230213   6.781   6.909   7.862
 2885TIP3    H130214   6.785   6.903   7.766
 2885TIP3    H230215   6.868   0.030   7.888
 2886TIP3   OH230216   6.215   4.876   1.885
 2886TIP3    H130217   6.184   4.967   1.882
 2886TIP3    H230218   6.274   4.872   1.960
 2887TIP3   OH230219   2.785   2.289   0.128
 2887TIP3    H130220   2.741   2.219   0.175
 2887TIP3    H230221   2.873   2.292   0.166
 2888TIP3   OH230222   4.636   3.934   1.535
 2888TIP3    H130223   4.543   3.938   1.512
 2888TIP3    H230224   4.640   3.878   1.612
 2889TIP3   OH230225   5.493   6.721   1.670
 2889TIP3    H130226   5.453   6.764   1.595
 2889TIP3    H230227   5.477   6.627   1.655
 2890TIP3   OH230228   2.714   3.103   6.202
 2890TIP3    H130229   2.797   3.147   6.219
 2890TIP3    H230230   2.647   3.171   6.213
 2891TIP3   OH230231   2.096   3.725   1.321
 2891TIP3    H130232   2.149   3.730   1.401
 2891TIP3    H230233   2.096   3.815   1.287
 2892TIP3   OH230234   1.261   1.251   8.094
 2892TIP3    H130235   1.203   1.255   8.018
 2892TIP3    H230236   1.349   1.247   8.057
 2893TIP3   OH230237   5.206   6.280   1.626
 2893TIP3    H130238   5.300   6.299   1.620
 2893TIP3    H230239   5.196   6.237   1.711
 2894TIP3   OH230240   5.816   1.757   8.359
 2894TIP3    H130241   5.768   1.828   8.402
 2894TIP3    H230242   5.889   1.801   8.315
 2895TIP3   OH230243   4.307   5.840   6.848
 2895TIP3    H130244   4.344   5.830   6.936
 2895TIP3    H230245   4.339   5.924   6.817
 2896TIP3   OH230246   6.133   3.890   7.965
 2896TIP3    H130247   6.227   3.872   7.961
 2896TIP3    H230248   6.112   3.889   8.058
 2897TIP3   OH230249   4.872   0.712   8.098
 2897TIP3    H130250   4.865   0.759   8.015
 2897TIP3    H230251   4.848   0.622   8.077
 2898TIP3   OH230252   6.620   0.614   8.514
 2898TIP3    H130253   6.671   0.550   8.463
 2898TIP3    H230254   6.684   0.653   0.006
 2899TIP3   OH230255   3.211   4.372   7.431
 2899TIP3    H130256   3.214   4.448   7.490
 2899TIP3    H230257   3.297   4.332   7.441
 2900TIP3   OH230258   4.845   4.323   1.679
 2900TIP3    H130259   4.801   4.400   1.714
 2900TIP3    H230260   4.935   4.350   1.663
 2901TIP3   OH230261   2.593   0.047   0.597
 2901TIP3    H130262   2.656   0.108   0.559
 2901TIP3    H230263   2.587   0.074   0.689
 2902TIP3   OH230264   0.528   5.042   0.426
 2902TIP3    H130265   0.499   5.033   0.517
 2902TIP3    H230266   0.550   4.952   0.399
 2903TIP3   OH230267   4.115   5.301   8.398
 2903TIP3    H130268   4.206   5.274   8.385
 2903TIP3    H230269   4.065   5.220   8.395
 2904TIP3   OH230270   1.467   3.652   0.231
 2904TIP3    H130271   1.479   3.706   0.309
 2904TIP3    H230272   1.376   3.624   0.235
 2905TIP3   OH230273   2.505   6.492   8.272
 2905TIP3    H130274   2.520   6.587   8.272
 2905TIP3    H230275   2.460   6.475   8.356
 2906TIP3   OH230276   2.377   1.021   8.557
 2906TIP3    H130277   2.305   1.085   8.558
 2906TIP3    H230278   2.375   0.985   8.468
 2907TIP3   OH230279   5.083   2.307   8.147
 2907TIP3    H130280   5.127   2.229   8.114
 2907TIP3    H230281   5.112   2.315   8.238
 2908TIP3   OH230282   5.985   6.815   8.356
 2908TIP3    H130283   6.006   6.786   8.267
 2908TIP3    H230284   5.915   6.757   8.384
 2909TIP3   OH230285   0.161   1.298   6.926
 2909TIP3    H130286   0.134   1.377   6.973
 2909TIP3    H230287   0.081   1.266   6.885
 2910TIP3   OH230288   1.087   0.248   6.794
 2910TIP3    H130289   1.101   0.228   6.701
 2910TIP3    H230290   1.045   0.170   6.829
 2911TIP3   OH230291   3.807   5.379   1.542
 2911TIP3    H130292   3.768   5.292   1.549
 2911TIP3    H230293   3.861   5.387   1.622
 2912TIP3   OH230294   6.187   1.170   0.454
 2912TIP3    H130295   6.276   1.162   0.489
 2912TIP3    H230296   6.180   1.262   0.428
 2913TIP3   OH230297   1.923   6.645   2.029
 2913TIP3    H130298   1.922   6.577   2.096
 2913TIP3    H230299   2.015   6.662   2.012
 2914TIP3   OH230300   4.921   0.538   8.517
 2914TIP3    H130301   4.934   0.515   0.042
 2914TIP3    H230302   5.000   0.587   8.493
 2915TIP3   OH230303   0.972   0.502   2.156
 2915TIP3    H130304   1.062   0.471   2.165
 2915TIP3    H230305   0.980   0.596   2.137
 2916TIP3   OH230306   3.539   0.088   7.952
 2916TIP3    H130307   3.570   0.158   7.895
 2916TIP3    H230308   3.617   0.034   7.969
 2917TIP3   OH230309   3.328   0.192   0.404
 2917TIP3    H130310   3.259   0.247   0.440
 2917TIP3    H230311   3.296   0.103   0.415
 2918TIP3   OH230312   2.573   0.970   0.899
 2918TIP3    H130313   2.660   0.975   0.858
 2918TIP3    H230314   2.513   1.000   0.831
 2919TIP3   OH230315   6.844   1.909   1.460
 2919TIP3    H130316   0.004   1.945   1.406
 2919TIP3    H230317   6.823   1.824   1.421
 2920TIP3   OH230318   4.082   0.955   0.626
 2920TIP3    H130319   4.053   1.046   0.633
 2920TIP3    H230320   4.004   0.903   0.642
 2921TIP3   OH230321   1.289   5.737   7.164
 2921TIP3    H130322   1.290   5.664   7.225
 2921TIP3    H230323   1.371   5.728   7.115
 2922TIP3   OH230324   4.176   4.677   0.905
 2922TIP3    H130325   4.220   4.761   0.890
 2922TIP3    H230326   4.088   4.701   0.933
 2923TIP3   OH230327   6.350   5.918   0.185
 2923TIP3    H130328   6.314   5.836   0.152
 2923TIP3    H230329   6.298   5.938   0.263
 2924TIP3   OH230330   0.251   0.593   1.999
 2924TIP3    H130331   0.298   0.675   2.013
 2924TIP3    H230332   0.167   0.605   2.044
 2925TIP3   OH230333   3.014   2.666   2.232
 2925TIP3    H130334   3.074   2.596   2.205
 2925TIP3    H230335   2.949   2.622   2.287
 2926TIP3   OH230336   3.664   5.903   6.401
 2926TIP3    H130337   3.571   5.880   6.399
 2926TIP3    H230338   3.710   5.820   6.417
 2927TIP3   OH230339   4.715   1.072   8.156
 2927TIP3    H130340   4.723   1.161   8.190
 2927TIP3    H230341   4.627   1.068   8.119
 2928TIP3   OH230342   6.187   5.738   2.053
 2928TIP3    H130343   6.224   5.819   2.018
 2928TIP3    H230344   6.256   5.703   2.110
 2929TIP3   OH230345   2.771   1.655   6.694
 2929TIP3    H130346   2.774   1.568   6.653
 2929TIP3    H230347   2.769   1.716   6.620
 2930TIP3   OH230348   6.051   6.073   1.110
 2930TIP3    H130349   5.969   6.102   1.069
 2930TIP3    H230350   6.024   6.009   1.176
 2931TIP3   OH230351   5.163   0.012   6.521
 2931TIP3    H130352   5.190   6.876   6.440
 2931TIP3    H230353   5.071   6.897   6.532
 2932TIP3   OH230354   1.545   5.968   2.091
 2932TIP3    H130355   1.493   5.920   2.156
 2932TIP3    H230356   1.635   5.963   2.124
 2933TIP3   OH230357   3.731   6.092   7.889
 2933TIP3    H130358   3.706   6.074   7.798
 2933TIP3    H230359   3.767   6.181   7.887
 2934TIP3   OH230360   4.891   1.673   0.490
 2934TIP3    H130361   4.882   1.631   0.404
 2934TIP3    H230362   4.893   1.601   0.552
 2935TIP3   OH230363   6.095   0.459   0.844
 2935TIP3    H130364   6.032   0.483   0.776
 2935TIP3    H230365   6.104   0.364   0.835
 2936TIP3   OH230366   1.784   4.221   1.084
 2936TIP3    H130367   1.810   4.305   1.121
 2936TIP3    H230368   1.849   4.159   1.117
 2937TIP3   OH230369   4.052   0.225   7.858
 2937TIP3    H130370   3.964   0.262   7.865
 2937TIP3    H230371   4.071   0.223   7.765
 2938TIP3   OH230372   3.802   6.090   0.094
 2938TIP3    H130373   3.894   6.080   0.119
 2938TIP3    H230374   3.792   6.184   0.077
 2939TIP3   OH230375   5.440   1.090   7.855
 2939TIP3    H130376   5.386   1.037   7.797
 2939TIP3    H230377   5.519   1.038   7.869
 2940TIP3   OH230378   4.765   2.637   0.675
 2940TIP3    H130379   4.708   2.617   0.750
 2940TIP3    H230380   4.809   2.719   0.699
 2941TIP3   OH230381   6.712   5.886   0.437
 2941TIP3    H130382   6.685   5.837   0.515
 2941TIP3    H230383   6.680   5.975   0.453
 2942TIP3   OH230384   0.820   0.122   0.819
 2942TIP3    H130385   0.745   0.068   0.844
 2942TIP3    H230386   0.815   0.126   0.723
 2943TIP3   OH230387   1.628   6.772   7.910
 2943TIP3    H130388   1.552   6.830   7.904
 2943TIP3    H230389   1.594   6.693   7.952
 2944TIP3   OH230390   1.200   3.097   7.942
 2944TIP3    H130391   1.192   3.012   7.898
 2944TIP3    H230392   1.235   3.077   8.028
 2945TIP3   OH230393   0.066   3.064   7.491
 2945TIP3    H130394   0.143   3.009   7.481
 2945TIP3    H230395   0.099   3.154   7.479
 2946TIP3   OH230396   1.737   5.452   6.947
 2946TIP3    H130397   1.734   5.357   6.960
 2946TIP3    H230398   1.813   5.466   6.891
 2947TIP3   OH230399   1.070   2.687   8.392
 2947TIP3    H130400   1.137   2.633   8.435
 2947TIP3    H230401   1.011   2.712   8.463
 2948TIP3   OH230402   3.699   5.427   6.657
 2948TIP3    H130403   3.727   5.474   6.736
 2948TIP3    H230404   3.649   5.492   6.607
 2949TIP3   OH230405   1.537   5.680   2.512
 2949TIP3    H130406   1.489   5.761   2.527
 2949TIP3    H230407   1.625   5.697   2.544
 2950TIP3   OH230408   5.480   1.241   8.092
 2950TIP3    H130409   5.405   1.262   8.148
 2950TIP3    H230410   5.447   1.173   8.033
 2951TIP3   OH230411   4.497   3.323   2.216
 2951TIP3    H130412   4.417   3.367   2.245
 2951TIP3    H230413   4.479   3.300   2.125
 2952TIP3   OH230414   2.764   0.557   1.804
 2952TIP3    H130415   2.694   0.559   1.739
 2952TIP3    H230416   2.842   0.532   1.755
 2953TIP3   OH230417   2.783   3.610   1.323
 2953TIP3    H130418   2.851   3.675   1.340
 2953TIP3    H230419   2.808   3.569   1.241
 2954TIP3   OH230420   2.111   5.153   0.661
 2954TIP3    H130421   2.154   5.228   0.702
 2954TIP3    H230422   2.108   5.087   0.729
 2955TIP3   OH230423   3.577   4.407   1.032
 2955TIP3    H130424   3.569   4.495   1.070
 2955TIP3    H230425   3.670   4.389   1.033
 2956TIP3   OH230426   0.043   3.976   0.316
 2956TIP3    H130427   0.010   3.890   0.342
 2956TIP3    H230428   6.905   4.037   0.373
 2957TIP3   OH230429   5.811   4.437   0.774
 2957TIP3    H130430   5.859   4.355   0.765
 2957TIP3    H230431   5.863   4.489   0.835
 2958TIP3   OH230432   5.700   0.597   0.716
 2958TIP3    H130433   5.680   0.617   0.625
 2958TIP3    H230434   5.763   0.664   0.743
 2959TIP3   OH230435   4.629   4.886   8.513
 2959TIP3    H130436   4.566   4.815   8.513
 2959TIP3    H230437   4.599   4.944   8.442
 2960TIP3   OH230438   2.468   1.217   6.344
 2960TIP3    H130439   2.519   1.185   6.269
 2960TIP3    H230440   2.377   1.213   6.315
 2961TIP3   OH230441   6.235   4.916   7.409
 2961TIP3    H130442   6.255   5.002   7.446
 2961TIP3    H230443   6.302   4.858   7.447
 2962TIP3   OH230444   6.658   4.191   7.243
 2962TIP3    H130445   6.611   4.185   7.160
 2962TIP3    H230446   6.745   4.223   7.219
 2963TIP3   OH230447   0.293   0.658   0.614
 2963TIP3    H130448   0.231   0.726   0.587
 2963TIP3    H230449   0.249   0.614   0.687
 2964TIP3   OH230450   2.381   0.785   1.257
 2964TIP3    H130451   2.294   0.815   1.232
 2964TIP3    H230452   2.396   0.707   1.203
 2965TIP3   OH230453   1.871   0.233   0.349
 2965TIP3    H130454   1.902   0.174   0.281
 2965TIP3    H230455   1.950   0.273   0.385
 2966TIP3   OH230456   5.420   5.067   8.362
 2966TIP3    H130457   5.503   5.023   8.377
 2966TIP3    H230458   5.401   5.051   8.269
 2967TIP3   OH230459   0.700   3.137   1.110
 2967TIP3    H130460   0.775   3.164   1.163
 2967TIP3    H230461   0.697   3.200   1.038
 2968TIP3   OH230462   4.698   4.705   0.439
 2968TIP3    H130463   4.723   4.768   0.372
 2968TIP3    H230464   4.638   4.754   0.497
 2969TIP3   OH230465   0.249   5.604   2.117
 2969TIP3    H130466   0.315   5.540   2.144
 2969TIP3    H230467   0.176   5.591   2.177
 2970TIP3   OH230468   0.523   5.803   8.086
 2970TIP3    H130469   0.496   5.893   8.104
 2970TIP3    H230470   0.577   5.778   8.161
 2971TIP3   OH230471   3.164   2.873   6.548
 2971TIP3    H130472   3.134   2.802   6.493
 2971TIP3    H230473   3.231   2.834   6.604
 2972TIP3   OH230474   1.033   0.851   1.393
 2972TIP3    H130475   0.984   0.784   1.344
 2972TIP3    H230476   1.070   0.803   1.467
 2973TIP3   OH230477   2.984   4.801   8.171
 2973TIP3    H130478   2.910   4.841   8.217
 2973TIP3    H230479   2.979   4.837   8.083
 2974TIP3   OH230480   0.589   1.246   1.431
 2974TIP3    H130481   0.680   1.216   1.432
 2974TIP3    H230482   0.550   1.203   1.355
 2975TIP3   OH230483   0.280   2.260   7.218
 2975TIP3    H130484   0.237   2.232   7.137
 2975TIP3    H230485   0.359   2.206   7.223
 2976TIP3   OH230486   4.168   0.969   6.985
 2976TIP3    H130487   4.243   0.953   7.041
 2976TIP3    H230488   4.205   0.982   6.898
 2977TIP3   OH230489   1.396   0.267   7.530
 2977TIP3    H130490   1.470   0.218   7.492
 2977TIP3    H230491   1.422   0.282   7.621
 2978TIP3   OH230492   2.182   6.343   1.215
 2978TIP3    H130493   2.227   6.322   1.133
 2978TIP3    H230494   2.218   6.281   1.279
 2979TIP3   OH230495   4.514   6.133   7.222
 2979TIP3    H130496   4.564   6.203   7.179
 2979TIP3    H230497   4.524   6.152   7.315
 2980TIP3   OH230498   6.333   4.647   1.773
 2980TIP3    H130499   6.266   4.690   1.827
 2980TIP3    H230500   6.409   4.705   1.778
 2981TIP3   OH230501   1.650   4.864   0.460
 2981TIP3    H130502   1.591   4.796   0.427
 2981TIP3    H230503   1.602   4.903   0.534
 2982TIP3   OH230504   4.911   0.050   7.564
 2982TIP3    H130505   4.851   0.124   7.573
 2982TIP3    H230506   4.974   0.078   7.497
 2983TIP3   OH230507   2.308   3.477   7.642
 2983TIP3    H130508   2.307   3.421   7.565
 2983TIP3    H230509   2.350   3.424   7.710
 2984TIP3   OH230510   1.803   6.585   6.971
 2984TIP3    H130511   1.879   6.533   6.997
 2984TIP3    H230512   1.826   6.675   6.996
 2985TIP3   OH230513   6.573   3.404   7.875
 2985TIP3    H130514   6.632   3.461   7.925
 2985TIP3    H230515   6.624   3.324   7.860
 2986TIP3   OH230516   3.985   5.387   1.313
 2986TIP3    H130517   3.962   5.315   1.254
 2986TIP3    H230518   3.960   5.356   1.399
 2987TIP3   OH230519   1.349   0.732   8.352
 2987TIP3    H130520   1.431   0.712   8.306
 2987TIP3    H230521   1.284   0.674   8.311
 2988TIP3   OH230522   0.698   6.057   1.518
 2988TIP3    H130523   0.620   6.100   1.482
 2988TIP3    H230524   0.679   5.964   1.510
 2989TIP3   OH230525   3.207   5.087   8.274
 2989TIP3    H130526   3.273   5.137   8.323
 2989TIP3    H230527   3.258   5.027   8.219
 2990TIP3   OH230528   2.980   2.301   0.371
 2990TIP3    H130529   2.965   2.230   0.433
 2990TIP3    H230530   2.903   2.357   0.378
 2991TIP3   OH230531   4.635   5.982   0.962
 2991TIP3    H130532   4.604   6.027   1.041
 2991TIP3    H230533   4.555   5.959   0.915
 2992TIP3   OH230534   1.749   6.815   1.496
 2992TIP3    H130535   1.776   6.901   1.529
 2992TIP3    H230536   1.702   6.775   1.569
 2993TIP3   OH230537   0.229   4.706   6.497
 2993TIP3    H130538   0.313   4.690   6.453
 2993TIP3    H230539   0.242   4.789   6.542
 2994TIP3   OH230540   1.504   2.155   8.012
 2994TIP3    H130541   1.568   2.103   8.061
 2994TIP3    H230542   1.533   2.148   7.921
 2995TIP3   OH230543   2.636   4.792   6.879
 2995TIP3    H130544   2.557   4.742   6.901
 2995TIP3    H230545   2.645   4.855   6.950
 2996TIP3   OH230546   5.652   3.733   1.534
 2996TIP3    H130547   5.624   3.752   1.624
 2996TIP3    H230548   5.677   3.641   1.535
 2997TIP3   OH230549   1.663   5.459   2.180
 2997TIP3    H130550   1.633   5.387   2.124
 2997TIP3    H230551   1.603   5.531   2.161
 2998TIP3   OH230552   5.518   5.412   0.170
 2998TIP3    H130553   5.432   5.373   0.155
 2998TIP3    H230554   5.570   5.386   0.094
 2999TIP3   OH230555   1.164   1.540   7.106
 2999TIP3    H130556   1.108   1.462   7.097
 2999TIP3    H230557   1.185   1.565   7.016
 3000TIP3   OH230558   3.334   1.139   7.466
 3000TIP3    H130559   3.354   1.059   7.417
 3000TIP3    H230560   3.318   1.109   7.556
 3001TIP3   OH230561   3.503   1.619   8.427
 3001TIP3    H130562   3.491   1.692   8.366
 3001TIP3    H230563   3.584   1.639   8.473
 3002TIP3   OH230564   4.646   6.474   7.516
 3002TIP3    H130565   4.678   6.449   7.602
 3002TIP3    H230566   4.698   6.551   7.492
 3003TIP3   OH230567   0.566   2.501   7.986
 3003TIP3    H130568   0.647   2.551   8.000
 3003TIP3    H230569   0.539   2.475   8.074
 3004TIP3   OH230570   3.338   0.811   6.437
 3004TIP3    H130571   3.275   0.880   6.457
 3004TIP3    H230572   3.415   0.858   6.404
 3005TIP3   OH230573   4.092   6.325   1.953
 3005TIP3    H130574   4.106   6.418   1.935
 3005TIP3    H230575   4.032   6.324   2.028
 3006TIP3   OH230576   5.686   0.248   8.143
 3006TIP3    H130577   5.754   0.188   8.173
 3006TIP3    H230578   5.717   0.278   8.058
 3007TIP3   OH230579   1.882   6.771   0.364
 3007TIP3    H130580   1.831   6.846   0.332
 3007TIP3    H230581   1.973   6.796   0.348
 3008TIP3   OH230582   6.197   4.887   8.554
 3008TIP3    H130583   6.237   4.866   0.071
 3008TIP3    H230584   6.139   4.813   8.535
 3009TIP3   OH230585   6.723   6.708   0.725
 3009TIP3    H130586   6.736   6.800   0.701
 3009TIP3    H230587   6.761   6.659   0.652
 3010TIP3   OH230588   5.019   6.433   0.999
 3010TIP3    H130589   5.043   6.418   0.907
 3010TIP3    H230590   4.933   6.474   0.994
 3011TIP3   OH230591   5.559   6.776   0.656
 3011TIP3    H130592   5.602   6.700   0.695
 3011TIP3    H230593   5.530   6.746   0.570
 3012TIP3   OH230594   6.415   4.391   6.846
 3012TIP3    H130595   6.420   4.297   6.831
 3012TIP3    H230596   6.361   4.424   6.773
 3013TIP3   OH230597   0.685   6.534   1.981
 3013TIP3    H130598   0.715   6.532   2.072
 3013TIP3    H230599   0.763   6.511   1.929
 3014TIP3   OH230600   0.222   6.878   1.368
 3014TIP3    H130601   0.140   6.829   1.363
 3014TIP3    H230602   0.197   0.054   1.403
 3015TIP3   OH230603   6.701   2.602   7.560
 3015TIP3    H130604   6.631   2.661   7.587
 3015TIP3    H230605   6.734   2.639   7.479
 3016TIP3   OH230606   3.754   1.798   8.498
 3016TIP3    H130607   3.729   1.874   8.446
 3016TIP3    H230608   3.780   1.835   0.016
 3017TIP3   OH230609   4.399   1.492   8.222
 3017TIP3    H130610   4.327   1.524   8.168
 3017TIP3    H230611   4.373   1.514   8.312
 3018TIP3   OH230612   4.098   5.756   1.208
 3018TIP3    H130613   4.157   5.695   1.162
 3018TIP3    H230614   4.011   5.718   1.195
 3019TIP3   OH230615   5.884   0.049   6.654
 3019TIP3    H130616   5.929   0.063   6.571
 3019TIP3    H230617   5.791   0.061   6.633
 3020TIP3   OH230618   3.148   2.709   0.269
 3020TIP3    H130619   3.071   2.662   0.301
 3020TIP3    H230620   3.118   2.799   0.257
 3021TIP3   OH230621   3.255   0.596   0.324
 3021TIP3    H130622   3.339   0.551   0.329
 3021TIP3    H230623   3.213   0.561   0.246
 3022TIP3   OH230624   6.041   5.647   1.466
 3022TIP3    H130625   6.071   5.578   1.407
 3022TIP3    H230626   6.111   5.655   1.531
 3023TIP3   OH230627   0.091   5.194   7.861
 3023TIP3    H130628   0.182   5.174   7.887
 3023TIP3    H230629   0.040   5.177   7.940
 3024TIP3   OH230630   5.376   0.508   0.101
 3024TIP3    H130631   5.312   0.520   0.171
 3024TIP3    H230632   5.372   0.589   0.051
 3025TIP3   OH230633   2.443   1.059   7.615
 3025TIP3    H130634   2.517   1.119   7.606
 3025TIP3    H230635   2.467   0.985   7.559
 3026TIP3   OH230636   2.745   2.153   0.534
 3026TIP3    H130637   2.730   2.158   0.628
 3026TIP3    H230638   2.755   2.244   0.506
 3027TIP3   OH230639   0.988   1.596   0.507
 3027TIP3    H130640   0.983   1.508   0.545
 3027TIP3    H230641   1.022   1.583   0.419
 3028TIP3   OH230642   5.548   4.356   0.841
 3028TIP3    H130643   5.559   4.262   0.827
 3028TIP3    H230644   5.625   4.395   0.800
 3029TIP3   OH230645   0.445   1.411   1.179
 3029TIP3    H130646   0.371   1.471   1.179
 3029TIP3    H230647   0.411   1.330   1.217
 3030TIP3   OH230648   4.629   4.939   7.343
 3030TIP3    H130649   4.702   4.918   7.401
 3030TIP3    H230650   4.665   4.934   7.255
 3031TIP3   OH230651   0.960   5.520   0.225
 3031TIP3    H130652   1.021   5.455   0.191
 3031TIP3    H230653   0.945   5.493   0.315
 3032TIP3   OH230654   0.830   3.559   0.995
 3032TIP3    H130655   0.811   3.602   0.912
 3032TIP3    H230656   0.838   3.466   0.974
 3033TIP3   OH230657   6.073   0.844   1.700
 3033TIP3    H130658   6.150   0.899   1.718
 3033TIP3    H230659   6.054   0.802   1.784
 3034TIP3   OH230660   2.021   2.523   1.024
 3034TIP3    H130661   2.058   2.480   1.101
 3034TIP3    H230662   2.046   2.615   1.033
 3035TIP3   OH230663   4.684   5.530   8.565
 3035TIP3    H130664   4.670   5.506   8.473
 3035TIP3    H230665   4.754   5.472   0.028
 3036TIP3   OH230666   5.464   6.796   6.675
 3036TIP3    H130667   5.440   6.727   6.613
 3036TIP3    H230668   5.496   6.749   6.752
 3037TIP3   OH230669   1.202   4.142   0.268
 3037TIP3    H130670   1.269   4.084   0.305
 3037TIP3    H230671   1.227   4.152   0.176
 3038TIP3   OH230672   0.066   5.971   8.301
 3038TIP3    H130673   6.891   6.003   8.270
 3038TIP3    H230674   0.052   5.878   8.318
 3039TIP3   OH230675   3.338   5.735   1.518
 3039TIP3    H130676   3.284   5.666   1.480
 3039TIP3    H230677   3.337   5.716   1.612
 3040TIP3   OH230678   0.925   1.640   0.052
 3040TIP3    H130679   0.829   1.640   0.055
 3040TIP3    H230680   0.947   1.565   8.564
 3041TIP3   OH230681   1.781   4.848   1.166
 3041TIP3    H130682   1.790   4.825   1.074
 3041TIP3    H230683   1.840   4.921   1.179
 3042TIP3   OH230684   6.352   6.472   1.534
 3042TIP3    H130685   6.278   6.470   1.595
 3042TIP3    H230686   6.427   6.498   1.588
 3043TIP3   OH230687   2.261   3.043   0.824
 3043TIP3    H130688   2.243   3.085   0.740
 3043TIP3    H230689   2.185   2.986   0.839
 3044TIP3   OH230690   0.641   0.797   6.368
 3044TIP3    H130691   0.692   0.835   6.439
 3044TIP3    H230692   0.602   0.871   6.323
 3045TIP3   OH230693   4.532   6.483   8.301
 3045TIP3    H130694   4.604   6.471   8.362
 3045TIP3    H230695   4.570   6.533   8.228
 3046TIP3   OH230696   6.184   3.987   0.559
 3046TIP3    H130697   6.117   3.929   0.523
 3046TIP3    H230698   6.196   3.957   0.649
 3047TIP3   OH230699   1.185   6.833   0.499
 3047TIP3    H130700   1.089   6.830   0.505
 3047TIP3    H230701   1.213   6.870   0.583
 3048TIP3   OH230702   2.717   0.699   6.164
 3048TIP3    H130703   2.701   0.775   6.107
 3048TIP3    H230704   2.647   0.638   6.142
 3049TIP3   OH230705   4.157   3.455   7.377
 3049TIP3    H130706   4.066   3.424   7.369
 3049TIP3    H230707   4.176   3.448   7.471
 3050TIP3   OH230708   4.693   3.804   1.046
 3050TIP3    H130709   4.753   3.834   0.977
 3050TIP3    H230710   4.610   3.847   1.027
 3051TIP3   OH230711   1.266   5.311   1.878
 3051TIP3    H130712   1.198   5.357   1.829
 3051TIP3    H230713   1.259   5.220   1.850
 3052TIP3   OH230714   6.437   2.009   1.645
 3052TIP3    H130715   6.381   2.068   1.695
 3052TIP3    H230716   6.436   1.927   1.695
 3053TIP3   OH230717   2.802   5.716   8.305
 3053TIP3    H130718   2.767   5.750   8.387
 3053TIP3    H230719   2.870   5.654   8.332
 3054TIP3   OH230720   0.796   2.314   7.091
 3054TIP3    H130721   0.715   2.357   7.119
 3054TIP3    H230722   0.852   2.385   7.061
 3055TIP3   OH230723   5.254   3.713   7.024
 3055TIP3    H130724   5.327   3.758   7.066
 3055TIP3    H230725   5.291   3.631   6.991
 3056TIP3   OH230726   1.297   0.568   0.893
 3056TIP3    H130727   1.363   0.593   0.957
 3056TIP3    H230728   1.222   0.625   0.913
 3057TIP3   OH230729   6.742   1.972   1.732
 3057TIP3    H130730   6.759   2.013   1.647
 3057TIP3    H230731   6.721   1.881   1.712
 3058TIP3   OH230732   1.517   5.394   2.530
 3058TIP3    H130733   1.450   5.380   2.597
 3058TIP3    H230734   1.509   5.486   2.506
 3059TIP3   OH230735   4.581   0.162   1.559
 3059TIP3    H130736   4.570   0.231   1.624
 3059TIP3    H230737   4.672   0.172   1.529
 3060TIP3   OH230738   2.599   2.291   7.984
 3060TIP3    H130739   2.634   2.282   8.073
 3060TIP3    H230740   2.631   2.213   7.938
 3061TIP3   OH230741   2.626   1.467   7.396
 3061TIP3    H130742   2.546   1.495   7.353
 3061TIP3    H230743   2.634   1.524   7.472
 3062TIP3   OH230744   3.313   0.951   0.204
 3062TIP3    H130745   3.274   0.883   0.259
 3062TIP3    H230746   3.349   1.014   0.266
 3063TIP3   OH230747   0.026   1.890   7.471
 3063TIP3    H130748   6.877   1.833   7.420
 3063TIP3    H230749   0.102   1.903   7.414
 3064TIP3   OH230750   2.687   5.382   7.535
 3064TIP3    H130751   2.640   5.386   7.618
 3064TIP3    H230752   2.768   5.336   7.555
 3065TIP3   OH230753   1.603   4.592   0.380
 3065TIP3    H130754   1.610   4.497   0.395
 3065TIP3    H230755   1.530   4.601   0.319
 3066TIP3   OH230756   0.132   3.982   6.994
 3066TIP3    H130757   0.227   3.988   6.995
 3066TIP3    H230758   0.103   4.049   7.055
 3067TIP3   OH230759   5.262   1.558   6.959
 3067TIP3    H130760   5.191   1.494   6.954
 3067TIP3    H230761   5.248   1.615   6.884
 3068TIP3   OH230762   1.356   5.292   8.247
 3068TIP3    H130763   1.329   5.359   8.309
 3068TIP3    H230764   1.339   5.330   8.161
 3069TIP3   OH230765   3.039   2.523   7.921
 3069TIP3    H130766   2.970   2.552   7.862
 3069TIP3    H230767   3.092   2.464   7.868
 3070TIP3   OH230768   4.247   1.271   2.275
 3070TIP3    H130769   4.301   1.334   2.322
 3070TIP3    H230770   4.161   1.276   2.318
 3071TIP3   OH230771   6.220   6.248   7.752
 3071TIP3    H130772   6.262   6.229   7.668
 3071TIP3    H230773   6.173   6.167   7.774
 3072TIP3   OH230774   6.049   0.832   7.846
 3072TIP3    H130775   6.092   0.758   7.804
 3072TIP3    H230776   5.999   0.794   7.918
 3073TIP3   OH230777   4.774   5.961   0.720
 3073TIP3    H130778   4.731   5.969   0.806
 3073TIP3    H230779   4.710   5.913   0.667
 3074TIP3   OH230780   5.894   5.152   0.374
 3074TIP3    H130781   5.928   5.177   0.288
 3074TIP3    H230782   5.811   5.200   0.381
 3075TIP3   OH230783   3.008   1.474   1.079
 3075TIP3    H130784   2.969   1.543   1.134
 3075TIP3    H230785   2.945   1.402   1.084
 3076TIP3   OH230786   1.943   3.188   7.642
 3076TIP3    H130787   1.958   3.111   7.697
 3076TIP3    H230788   1.849   3.185   7.622
 3077TIP3   OH230789   4.370   2.169   1.008
 3077TIP3    H130790   4.457   2.134   0.991
 3077TIP3    H230791   4.366   2.250   0.958
 3078TIP3   OH230792   6.521   6.372   8.288
 3078TIP3    H130793   6.569   6.451   8.315
 3078TIP3    H230794   6.442   6.373   8.342
 3079TIP3   OH230795   3.499   5.549   7.484
 3079TIP3    H130796   3.421   5.593   7.517
 3079TIP3    H230797   3.568   5.615   7.490
 3080TIP3   OH230798   2.267   0.425   8.307
 3080TIP3    H130799   2.185   0.465   8.336
 3080TIP3    H230800   2.327   0.498   8.294
 3081TIP3   OH230801   4.872   6.367   6.755
 3081TIP3    H130802   4.905   6.277   6.763
 3081TIP3    H230803   4.878   6.402   6.844
 3082TIP3   OH230804   3.046   6.230   0.486
 3082TIP3    H130805   2.987   6.163   0.452
 3082TIP3    H230806   2.990   6.285   0.542
 3083TIP3   OH230807   3.911   6.665   1.646
 3083TIP3    H130808   3.983   6.610   1.677
 3083TIP3    H230809   3.838   6.605   1.635
 3084TIP3   OH230810   1.180   1.542   7.833
 3084TIP3    H130811   1.112   1.547   7.900
 3084TIP3    H230812   1.189   1.632   7.802
 3085TIP3   OH230813   1.443   5.789   6.740
 3085TIP3    H130814   1.527   5.810   6.699
 3085TIP3    H230815   1.378   5.812   6.674
 3086TIP3   OH230816   3.838   2.881   0.325
 3086TIP3    H130817   3.837   2.967   0.367
 3086TIP3    H230818   3.924   2.874   0.285
 3087TIP3   OH230819   6.831   2.452   0.473
 3087TIP3    H130820   6.854   2.541   0.446
 3087TIP3    H230821   6.834   2.454   0.569
 3088TIP3   OH230822   6.005   4.120   6.831
 3088TIP3    H130823   5.928   4.095   6.780
 3088TIP3    H230824   6.035   4.201   6.790
 3089TIP3   OH230825   0.281   1.841   0.564
 3089TIP3    H130826   0.357   1.899   0.577
 3089TIP3    H230827   0.278   1.788   0.643
 3090TIP3   OH230828   3.574   2.586   8.473
 3090TIP3    H130829   3.587   2.675   8.443
 3090TIP3    H230830   3.511   2.594   8.545
 3091TIP3   OH230831   2.465   0.837   7.822
 3091TIP3    H130832   2.491   0.886   7.745
 3091TIP3    H230833   2.380   0.874   7.847
 3092TIP3   OH230834   0.730   2.393   6.301
 3092TIP3    H130835   0.824   2.391   6.281
 3092TIP3    H230836   0.702   2.481   6.274
 3093TIP3   OH230837   5.725   0.045   2.110
 3093TIP3    H130838   5.686   0.111   2.052
 3093TIP3    H230839   5.695   6.871   2.073
 3094TIP3   OH230840   2.579   2.402   7.022
 3094TIP3    H130841   2.603   2.414   6.930
 3094TIP3    H230842   2.484   2.399   7.022
 3095TIP3   OH230843   6.380   4.884   1.582
 3095TIP3    H130844   6.444   4.936   1.631
 3095TIP3    H230845   6.325   4.844   1.649
 3096TIP3   OH230846   2.966   6.701   8.468
 3096TIP3    H130847   2.966   6.629   8.404
 3096TIP3    H230848   3.047   6.689   8.517
 3097TIP3   OH230849   5.502   4.270   8.079
 3097TIP3    H130850   5.427   4.268   8.020
 3097TIP3    H230851   5.544   4.185   8.067
 3098TIP3   OH230852   1.506   2.576   6.093
 3098TIP3    H130853   1.492   2.658   6.046
 3098TIP3    H230854   1.548   2.602   6.175
 3099TIP3   OH230855   4.171   0.811   0.906
 3099TIP3    H130856   4.155   0.717   0.906
 3099TIP3    H230857   4.084   0.850   0.899
 3100TIP3   OH230858   6.394   1.100   0.189
 3100TIP3    H130859   6.450   1.162   0.235
 3100TIP3    H230860   6.449   1.023   0.176
 3101TIP3   OH230861   4.655   5.006   6.678
 3101TIP3    H130862   4.612   5.006   6.592
 3101TIP3    H230863   4.722   4.938   6.671
 3102TIP3   OH230864   1.237   0.711   8.039
 3102TIP3    H130865   1.225   0.642   8.105
 3102TIP3    H230866   1.331   0.729   8.040
 3103TIP3   OH230867   5.312   2.518   8.266
 3103TIP3    H130868   5.261   2.468   8.330
 3103TIP3    H230869   5.339   2.453   8.201
 3104TIP3   OH230870   0.647   5.551   0.776
 3104TIP3    H130871   0.693   5.547   0.692
 3104TIP3    H230872   0.602   5.635   0.774
 3105TIP3   OH230873   6.037   3.794   2.237
 3105TIP3    H130874   5.948   3.765   2.258
 3105TIP3    H230875   6.026   3.848   2.159
 3106TIP3   OH230876   1.471   3.576   6.403
 3106TIP3    H130877   1.466   3.480   6.396
 3106TIP3    H230878   1.563   3.596   6.388
 3107TIP3   OH230879   0.886   0.256   7.834
 3107TIP3    H130880   0.856   0.204   7.909
 3107TIP3    H230881   0.820   0.241   7.767
 3108TIP3   OH230882   2.880   5.404   7.090
 3108TIP3    H130883   2.795   5.376   7.055
 3108TIP3    H230884   2.900   5.485   7.044
 3109TIP3   OH230885   6.675   5.947   8.210
 3109TIP3    H130886   6.627   6.010   8.157
 3109TIP3    H230887   6.630   5.949   8.295
 3110TIP3   OH230888   0.926   4.413   7.418
 3110TIP3    H130889   0.924   4.341   7.482
 3110TIP3    H230890   0.847   4.464   7.438
 3111TIP3   OH230891   6.145   0.674   0.257
 3111TIP3    H130892   6.085   0.675   0.332
 3111TIP3    H230893   6.166   0.766   0.242
 3112TIP3   OH230894   3.821   3.806   8.397
 3112TIP3    H130895   3.883   3.748   8.440
 3112TIP3    H230896   3.794   3.759   8.319
 3113TIP3   OH230897   1.569   0.403   7.354
 3113TIP3    H130898   1.587   0.419   7.447
 3113TIP3    H230899   1.477   0.425   7.343
 3114TIP3   OH230900   1.175   5.524   2.037
 3114TIP3    H130901   1.196   5.501   1.946
 3114TIP3    H230902   1.096   5.474   2.057
 3115TIP3   OH230903   0.115   1.067   1.130
 3115TIP3    H130904   0.141   1.027   1.213
 3115TIP3    H230905   0.197   1.095   1.090
 3116TIP3   OH230906   5.335   5.980   8.373
 3116TIP3    H130907   5.255   5.932   8.352
 3116TIP3    H230908   5.306   6.053   8.428
 3117TIP3   OH230909   2.151   4.537   6.814
 3117TIP3    H130910   2.090   4.554   6.742
 3117TIP3    H230911   2.109   4.575   6.891
 3118TIP3   OH230912   0.939   0.569   1.169
 3118TIP3    H130913   1.028   0.603   1.170
 3118TIP3    H230914   0.910   0.578   1.079
 3119TIP3   OH230915   2.700   3.793   0.392
 3119TIP3    H130916   2.685   3.851   0.467
 3119TIP3    H230917   2.683   3.848   0.315
 3120TIP3   OH230918   4.674   5.193   0.521
 3120TIP3    H130919   4.730   5.201   0.444
 3120TIP3    H230920   4.732   5.162   0.590
 3121TIP3   OH230921   3.136   1.899   0.916
 3121TIP3    H130922   3.175   1.814   0.936
 3121TIP3    H230923   3.207   1.950   0.878
 3122TIP3   OH230924   4.571   0.351   1.760
 3122TIP3    H130925   4.533   0.283   1.815
 3122TIP3    H230926   4.512   0.425   1.770
 3123TIP3   OH230927   6.880   6.898   6.586
 3123TIP3    H130928   6.882   0.048   6.661
 3123TIP3    H230929   0.057   6.857   6.585
 3124TIP3   OH230930   2.754   5.471   0.522
 3124TIP3    H130931   2.798   5.427   0.595
 3124TIP3    H230932   2.818   5.534   0.489
 3125TIP3   OH230933   3.093   5.383   7.668
 3125TIP3    H130934   3.178   5.341   7.661
 3125TIP3    H230935   3.030   5.317   7.638
 3126TIP3   OH230936   0.253   4.092   8.557
 3126TIP3    H130937   0.185   4.080   0.057
 3126TIP3    H230938   0.239   4.020   8.496
 3127TIP3   OH230939   3.320   4.902   0.997
 3127TIP3    H130940   3.407   4.879   0.966
 3127TIP3    H230941   3.283   4.958   0.929
 3128TIP3   OH230942   6.772   3.546   1.013
 3128TIP3    H130943   6.694   3.547   1.068
 3128TIP3    H230944   6.739   3.561   0.924
 3129TIP3   OH230945   5.717   1.090   1.193
 3129TIP3    H130946   5.765   1.009   1.212
 3129TIP3    H230947   5.784   1.149   1.158
 3130TIP3   OH230948   5.787   5.486   1.010
 3130TIP3    H130949   5.785   5.576   0.977
 3130TIP3    H230950   5.845   5.440   0.950
 3131TIP3   OH230951   5.496   0.124   7.219
 3131TIP3    H130952   5.502   0.216   7.194
 3131TIP3    H230953   5.542   0.077   7.150
 3132TIP3   OH230954   3.033   0.202   7.542
 3132TIP3    H130955   3.118   0.245   7.548
 3132TIP3    H230956   2.982   0.238   7.614
 3133TIP3   OH230957   1.529   2.536   0.884
 3133TIP3    H130958   1.558   2.458   0.837
 3133TIP3    H230959   1.586   2.540   0.960
 3134TIP3   OH230960   2.046   3.154   6.556
 3134TIP3    H130961   1.964   3.106   6.554
 3134TIP3    H230962   2.025   3.238   6.596
 3135TIP3   OH230963   0.717   3.077   7.416
 3135TIP3    H130964   0.666   3.070   7.497
 3135TIP3    H230965   0.729   3.172   7.404
 3136TIP3   OH230966   4.811   2.229   8.089
 3136TIP3    H130967   4.905   2.215   8.089
 3136TIP3    H230968   4.793   2.273   8.006
 3137TIP3   OH230969   5.272   4.712   0.615
 3137TIP3    H130970   5.238   4.702   0.703
 3137TIP3    H230971   5.342   4.647   0.608
 3138TIP3   OH230972   5.055   1.786   0.701
 3138TIP3    H130973   5.004   1.792   0.782
 3138TIP3    H230974   5.065   1.692   0.686
 3139TIP3   OH230975   1.172   1.115   1.193
 3139TIP3    H130976   1.140   1.103   1.283
 3139TIP3    H230977   1.109   1.173   1.152
 3140TIP3   OH230978   0.803   6.651   1.080
 3140TIP3    H130979   0.890   6.690   1.078
 3140TIP3    H230980   0.767   6.668   0.993
 3141TIP3   OH230981   3.669   0.537   8.242
 3141TIP3    H130982   3.679   0.625   8.207
 3141TIP3    H230983   3.755   0.514   8.277
 3142TIP3   OH230984   3.431   4.125   0.370
 3142TIP3    H130985   3.387   4.067   0.432
 3142TIP3    H230986   3.499   4.071   0.330
 3143TIP3   OH230987   3.344   6.302   7.421
 3143TIP3    H130988   3.412   6.354   7.378
 3143TIP3    H230989   3.262   6.340   7.390
 3144TIP3   OH230990   2.358   3.164   6.683
 3144TIP3    H130991   2.357   3.228   6.754
 3144TIP3    H230992   2.451   3.155   6.660
 3145TIP3   OH230993   3.394   1.932   0.003
 3145TIP3    H130994   3.442   2.007   8.536
 3145TIP3    H230995   3.366   1.883   8.493
 3146TIP3   OH230996   3.711   6.837   0.358
 3146TIP3    H130997   3.764   0.006   0.343
 3146TIP3    H230998   3.774   6.771   0.387
 3147TIP3   OH230999   4.060   0.731   1.502
 3147TIP3    H131000   4.137   0.743   1.558
 3147TIP3    H231001   4.002   0.674   1.552
 3148TIP3   OH231002   0.146   5.769   6.643
 3148TIP3    H131003   0.131   5.752   6.550
 3148TIP3    H231004   0.219   5.831   6.645
 3149TIP3   OH231005   2.134   3.169   1.678
 3149TIP3    H131006   2.163   3.118   1.603
 3149TIP3    H231007   2.199   3.239   1.685
 3150TIP3   OH231008   2.380   1.579   7.239
 3150TIP3    H131009   2.403   1.670   7.262
 3150TIP3    H231010   2.285   1.574   7.254
 3151TIP3   OH231011   5.152   3.717   1.191
 3151TIP3    H131012   5.176   3.724   1.283
 3151TIP3    H231013   5.154   3.807   1.159
 3152TIP3   OH231014   0.267   0.915   0.454
 3152TIP3    H131015   0.359   0.940   0.464
 3152TIP3    H231016   0.252   0.915   0.359
 3153TIP3   OH231017   6.825   2.915   0.077
 3153TIP3    H131018   6.803   3.005   0.103
 3153TIP3    H231019   6.802   2.862   0.153
 3154TIP3   OH231020   2.955   3.122   7.251
 3154TIP3    H131021   2.923   3.202   7.293
 3154TIP3    H231022   3.048   3.138   7.237
 3155TIP3   OH231023   3.997   6.240   0.345
 3155TIP3    H131024   4.075   6.254   0.399
 3155TIP3    H231025   3.938   6.311   0.369
 3156TIP3   OH231026   4.343   3.926   0.413
 3156TIP3    H131027   4.299   3.979   0.479
 3156TIP3    H231028   4.342   3.980   0.334
 3157TIP3   OH231029   1.994   6.000   1.157
 3157TIP3    H131030   1.952   6.078   1.122
 3157TIP3    H231031   1.927   5.958   1.210
 3158TIP3   OH231032   3.842   0.485   1.260
 3158TIP3    H131033   3.748   0.497   1.242
 3158TIP3    H231034   3.845   0.449   1.348
 3159TIP3   OH231035   1.599   4.301   8.456
 3159TIP3    H131036   1.620   4.304   8.549
 3159TIP3    H231037   1.632   4.384   8.422
 3160TIP3   OH231038   0.112   3.512   2.222
 3160TIP3    H131039   0.204   3.536   2.234
 3160TIP3    H231040   0.065   3.595   2.225
 3161TIP3   OH231041   4.628   2.942   7.521
 3161TIP3    H131042   4.608   3.025   7.477
 3161TIP3    H231043   4.686   2.966   7.592
 3162TIP3   OH231044   4.108   4.951   6.700
 3162TIP3    H131045   4.159   4.906   6.767
 3162TIP3    H231046   4.035   4.991   6.748
 3163TIP3   OH231047   5.862   5.435   6.752
 3163TIP3    H131048   5.810   5.357   6.734
 3163TIP3    H231049   5.834   5.499   6.687
 3164TIP3   OH231050   4.657   2.147   1.211
 3164TIP3    H131051   4.649   2.172   1.303
 3164TIP3    H231052   4.610   2.064   1.204
 3165TIP3   OH231053   0.996   3.317   7.874
 3165TIP3    H131054   1.059   3.245   7.867
 3165TIP3    H231055   0.911   3.278   7.855
 3166TIP3   OH231056   6.282   4.417   7.796
 3166TIP3    H131057   6.260   4.332   7.757
 3166TIP3    H231058   6.334   4.461   7.728
 3167TIP3   OH231059   2.347   0.624   6.850
 3167TIP3    H131060   2.421   0.679   6.826
 3167TIP3    H231061   2.311   0.593   6.767
 3168TIP3   OH231062   3.424   5.299   0.277
 3168TIP3    H131063   3.470   5.380   0.257
 3168TIP3    H231064   3.348   5.326   0.328
 3169TIP3   OH231065   6.565   5.279   0.055
 3169TIP3    H131066   6.537   5.340   8.555
 3169TIP3    H231067   6.608   5.333   0.121
 3170TIP3   OH231068   2.502   2.291   0.974
 3170TIP3    H131069   2.583   2.253   1.008
 3170TIP3    H231070   2.446   2.300   1.051
 3171TIP3   OH231071   0.871   6.880   7.966
 3171TIP3    H131072   0.910   6.902   8.051
 3171TIP3    H231073   0.903   6.792   7.947
 3172TIP3   OH231074   2.452   5.709   1.975
 3172TIP3    H131075   2.437   5.750   2.060
 3172TIP3    H231076   2.546   5.714   1.962
 3173TIP3   OH231077   0.228   6.090   6.741
 3173TIP3    H131078   0.280   6.026   6.694
 3173TIP3    H231079   0.253   6.174   6.703
 3174TIP3   OH231080   3.931   0.030   6.850
 3174TIP3    H131081   3.863   0.006   6.786
 3174TIP3    H231082   3.990   6.864   6.851
 3175TIP3   OH231083   4.718   5.469   0.313
 3175TIP3    H131084   4.755   5.555   0.332
 3175TIP3    H231085   4.778   5.431   0.248
 3176TIP3   OH231086   2.774   0.748   7.032
 3176TIP3    H131087   2.708   0.809   6.998
 3176TIP3    H231088   2.856   0.777   6.992
 3177TIP3   OH231089   3.841   2.965   8.339
 3177TIP3    H131090   3.893   2.986   8.262
 3177TIP3    H231091   3.818   3.049   8.377
 3178TIP3   OH231092   4.998   1.626   7.728
 3178TIP3    H131093   5.066   1.560   7.745
 3178TIP3    H231094   4.918   1.575   7.716
 3179TIP3   OH231095   3.825   0.823   6.510
 3179TIP3    H131096   3.891   0.891   6.514
 3179TIP3    H231097   3.873   0.744   6.486
 3180TIP3   OH231098   3.052   6.878   7.881
 3180TIP3    H131099   2.965   6.904   7.851
 3180TIP3    H231100   3.095   6.845   7.802
 3181TIP3   OH231101   6.262   5.285   6.776
 3181TIP3    H131102   6.312   5.246   6.848
 3181TIP3    H231103   6.328   5.331   6.723
 3182TIP3   OH231104   4.757   2.554   7.173
 3182TIP3    H131105   4.764   2.643   7.208
 3182TIP3    H231106   4.803   2.499   7.237
 3183TIP3   OH231107   5.262   6.498   1.121
 3183TIP3    H131108   5.296   6.496   1.032
 3183TIP3    H231109   5.176   6.456   1.116
 3184TIP3   OH231110   5.576   1.485   0.419
 3184TIP3    H131111   5.607   1.425   0.487
 3184TIP3    H231112   5.491   1.449   0.393
 3185TIP3   OH231113   3.329   2.276   7.914
 3185TIP3    H131114   3.419   2.310   7.919
 3185TIP3    H231115   3.304   2.262   8.005
 3186TIP3   OH231116   0.995   4.207   2.183
 3186TIP3    H131117   0.984   4.259   2.263
 3186TIP3    H231118   0.964   4.265   2.113
 3187TIP3   OH231119   2.831   1.443   6.549
 3187TIP3    H131120   2.908   1.462   6.496
 3187TIP3    H231121   2.862   1.383   6.617
 3188TIP3   OH231122   1.458   2.230   0.999
 3188TIP3    H131123   1.445   2.293   1.069
 3188TIP3    H231124   1.539   2.257   0.956
 3189TIP3   OH231125   3.657   2.468   1.715
 3189TIP3    H131126   3.710   2.389   1.701
 3189TIP3    H231127   3.568   2.442   1.693
 3190TIP3   OH231128   6.182   5.139   1.633
 3190TIP3    H131129   6.109   5.181   1.588
 3190TIP3    H231130   6.181   5.178   1.721
 3191TIP3   OH231131   4.245   6.254   7.363
 3191TIP3    H131132   4.229   6.263   7.268
 3191TIP3    H231133   4.308   6.324   7.382
 3192TIP3   OH231134   6.836   0.486   0.671
 3192TIP3    H131135   6.829   0.460   0.763
 3192TIP3    H231136   6.855   0.405   0.624
 3193TIP3   OH231137   5.001   5.669   8.506
 3193TIP3    H131138   5.026   5.754   8.471
 3193TIP3    H231139   5.004   5.610   8.431
 3194TIP3   OH231140   5.419   0.092   7.479
 3194TIP3    H131141   5.510   0.066   7.464
 3194TIP3    H231142   5.381   0.098   7.392
 3195TIP3   OH231143   2.248   5.533   7.333
 3195TIP3    H131144   2.257   5.481   7.413
 3195TIP3    H231145   2.323   5.592   7.334
 3196TIP3   OH231146   0.462   3.263   0.981
 3196TIP3    H131147   0.433   3.310   1.059
 3196TIP3    H231148   0.523   3.323   0.938
 3197TIP3   OH231149   1.643   5.227   8.494
 3197TIP3    H131150   1.569   5.209   8.436
 3197TIP3    H231151   1.662   5.319   8.480
 3198TIP3   OH231152   6.017   2.445   2.201
 3198TIP3    H131153   5.950   2.395   2.249
 3198TIP3    H231154   6.095   2.437   2.256
 3199TIP3   OH231155   6.216   0.620   7.759
 3199TIP3    H131156   6.254   0.598   7.674
 3199TIP3    H231157   6.134   0.570   7.762
 3200TIP3   OH231158   5.266   2.714   1.692
 3200TIP3    H131159   5.317   2.685   1.616
 3200TIP3    H231160   5.209   2.639   1.712
 3201TIP3   OH231161   0.196   4.431   2.369
 3201TIP3    H131162   0.134   4.368   2.333
 3201TIP3    H231163   0.174   4.437   2.462
 3202TIP3   OH231164   3.424   2.690   8.044
 3202TIP3    H131165   3.356   2.719   7.983
 3202TIP3    H231166   3.413   2.746   8.121
 3203TIP3   OH231167   2.438   1.179   6.960
 3203TIP3    H131168   2.454   1.232   7.039
 3203TIP3    H231169   2.343   1.169   6.958
 3204TIP3   OH231170   3.578   4.634   1.181
 3204TIP3    H131171   3.658   4.619   1.231
 3204TIP3    H231172   3.507   4.620   1.244
 3205TIP3   OH231173   0.892   5.297   6.944
 3205TIP3    H131174   0.952   5.343   6.885
 3205TIP3    H231175   0.864   5.363   7.007
 3206TIP3   OH231176   4.906   3.227   7.316
 3206TIP3    H131177   4.940   3.162   7.255
 3206TIP3    H231178   4.824   3.190   7.348
 3207TIP3   OH231179   0.657   4.619   7.650
 3207TIP3    H131180   0.716   4.649   7.720
 3207TIP3    H231181   0.570   4.623   7.688
 3208TIP3   OH231182   5.955   0.512   0.063
 3208TIP3    H131183   5.927   0.603   0.058
 3208TIP3    H231184   5.985   0.501   0.153
 3209TIP3   OH231185   1.521   3.917   7.524
 3209TIP3    H131186   1.489   3.828   7.538
 3209TIP3    H231187   1.600   3.923   7.578
 3210TIP3   OH231188   5.865   6.532   1.922
 3210TIP3    H131189   5.839   6.584   1.997
 3210TIP3    H231190   5.793   6.543   1.859
 3211TIP3   OH231191   4.756   3.278   0.153
 3211TIP3    H131192   4.787   3.363   0.186
 3211TIP3    H231193   4.681   3.300   0.098
 3212TIP3   OH231194   0.369   5.384   0.093
 3212TIP3    H131195   0.353   5.444   0.020
 3212TIP3    H231196   0.463   5.390   0.109
 3213TIP3   OH231197   1.527   0.040   0.532
 3213TIP3    H131198   1.547   0.009   0.443
 3213TIP3    H231199   1.603   0.091   0.557
 3214TIP3   OH231200   4.651   6.762   1.174
 3214TIP3    H131201   4.564   6.745   1.210
 3214TIP3    H231202   4.711   6.737   1.244
 3215TIP3   OH231203   6.523   1.285   2.310
 3215TIP3    H131204   6.562   1.218   2.365
 3215TIP3    H231205   6.445   1.244   2.272
 3216TIP3   OH231206   1.075   5.774   2.277
 3216TIP3    H131207   1.031   5.753   2.195
 3216TIP3    H231208   1.004   5.793   2.338
 3217TIP3   OH231209   3.704   2.443   8.257
 3217TIP3    H131210   3.782   2.498   8.256
 3217TIP3    H231211   3.651   2.477   8.329
 3218TIP3   OH231212   0.629   5.490   7.461
 3218TIP3    H131213   0.693   5.450   7.520
 3218TIP3    H231214   0.580   5.551   7.517
 3219TIP3   OH231215   6.599   5.010   1.674
 3219TIP3    H131216   6.632   5.092   1.636
 3219TIP3    H231217   6.678   4.963   1.702
 3220TIP3   OH231218   3.038   0.460   8.380
 3220TIP3    H131219   2.982   0.483   8.306
 3220TIP3    H231220   3.021   0.367   8.396
 3221TIP3   OH231221   4.559   1.256   6.783
 3221TIP3    H131222   4.579   1.211   6.701
 3221TIP3    H231223   4.530   1.343   6.756
 3222TIP3   OH231224   5.943   3.347   6.770
 3222TIP3    H131225   5.849   3.352   6.758
 3222TIP3    H231226   5.972   3.280   6.708
 3223TIP3   OH231227   2.085   4.989   7.859
 3223TIP3    H131228   2.178   4.969   7.869
 3223TIP3    H231229   2.064   5.046   7.933
 3224TIP3   OH231230   6.140   6.625   1.851
 3224TIP3    H131231   6.069   6.568   1.880
 3224TIP3    H231232   6.219   6.584   1.885
 3225TIP3   OH231233   5.394   1.812   1.876
 3225TIP3    H131234   5.414   1.901   1.904
 3225TIP3    H231235   5.431   1.756   1.944
 3226TIP3   OH231236   2.852   6.109   7.893
 3226TIP3    H131237   2.831   6.028   7.847
 3226TIP3    H231238   2.816   6.097   7.981
 3227TIP3   OH231239   5.145   1.978   1.696
 3227TIP3    H131240   5.064   2.019   1.665
 3227TIP3    H231241   5.209   1.995   1.628
 3228TIP3   OH231242   3.844   6.795   7.258
 3228TIP3    H131243   3.777   6.785   7.325
 3228TIP3    H231244   3.848   6.889   7.240
 3229TIP3   OH231245   0.007   6.799   0.115
 3229TIP3    H131246   6.901   6.768   0.204
 3229TIP3    H231247   6.884   6.889   0.115
 3230TIP3   OH231248   0.573   3.500   8.527
 3230TIP3    H131249   0.575   3.449   8.446
 3230TIP3    H231250   0.661   3.536   8.535
 3231TIP3   OH231251   5.524   2.348   7.526
 3231TIP3    H131252   5.585   2.274   7.527
 3231TIP3    H231253   5.493   2.353   7.436
 3232TIP3   OH231254   2.055   1.958   7.146
 3232TIP3    H131255   2.093   2.044   7.166
 3232TIP3    H231256   1.966   1.962   7.183
 3233TIP3   OH231257   3.824   4.541   7.933
 3233TIP3    H131258   3.795   4.631   7.949
 3233TIP3    H231259   3.867   4.515   8.014
 3234TIP3   OH231260   1.567   3.288   8.140
 3234TIP3    H131261   1.587   3.210   8.193
 3234TIP3    H231262   1.553   3.357   8.204
 3235TIP3   OH231263   1.810   1.331   8.335
 3235TIP3    H131264   1.849   1.245   8.325
 3235TIP3    H231265   1.768   1.330   8.421
 3236TIP3   OH231266   1.540   6.195   2.388
 3236TIP3    H131267   1.612   6.172   2.330
 3236TIP3    H231268   1.575   6.263   2.445
 3237TIP3   OH231269   6.088   2.056   0.284
 3237TIP3    H131270   6.122   2.045   0.195
 3237TIP3    H231271   6.054   2.146   0.286
 3238TIP3   OH231272   4.749   4.921   1.790
 3238TIP3    H131273   4.800   4.843   1.767
 3238TIP3    H231274   4.812   4.993   1.783
 3239TIP3   OH231275   3.000   3.749   0.373
 3239TIP3    H131276   3.002   3.793   0.458
 3239TIP3    H231277   2.929   3.791   0.325
 3240TIP3   OH231278   2.943   1.278   6.740
 3240TIP3    H131279   2.887   1.293   6.816
 3240TIP3    H231280   3.028   1.255   6.776
 3241TIP3   OH231281   3.095   3.357   7.141
 3241TIP3    H131282   3.072   3.427   7.079
 3241TIP3    H231283   3.079   3.395   7.227
 3242TIP3   OH231284   6.028   6.337   7.470
 3242TIP3    H131285   6.075   6.308   7.392
 3242TIP3    H231286   5.981   6.259   7.501
 3243TIP3   OH231287   2.261   5.715   7.029
 3243TIP3    H131288   2.174   5.678   7.047
 3243TIP3    H231289   2.314   5.690   7.105
 3244TIP3   OH231290   3.623   3.579   1.501
 3244TIP3    H131291   3.655   3.649   1.558
 3244TIP3    H231292   3.702   3.539   1.465
 3245TIP3   OH231293   3.511   1.317   1.505
 3245TIP3    H131294   3.605   1.302   1.521
 3245TIP3    H231295   3.477   1.231   1.480
 3246TIP3   OH231296   1.126   4.139   6.550
 3246TIP3    H131297   1.076   4.087   6.612
 3246TIP3    H231298   1.082   4.224   6.548
 3247TIP3   OH231299   2.659   6.319   2.031
 3247TIP3    H131300   2.649   6.408   1.998
 3247TIP3    H231301   2.604   6.316   2.110
 3248TIP3   OH231302   1.458   0.448   0.238
 3248TIP3    H131303   1.464   0.445   0.333
 3248TIP3    H231304   1.539   0.408   0.206
 3249TIP3   OH231305   0.267   0.031   8.159
 3249TIP3    H131306   0.282   6.877   8.230
 3249TIP3    H231307   0.332   0.100   8.176
 3250TIP3   OH231308   5.833   4.230   7.596
 3250TIP3    H131309   5.804   4.315   7.564
 3250TIP3    H231310   5.752   4.180   7.609
 3251TIP3   OH231311   1.307   0.911   1.065
 3251TIP3    H131312   1.259   0.973   1.121
 3251TIP3    H231313   1.312   0.955   0.980
 3252TIP3   OH231314   1.764   2.213   0.193
 3252TIP3    H131315   1.714   2.135   0.218
 3252TIP3    H231316   1.710   2.286   0.222
 3253TIP3   OH231317   3.736   1.370   7.346
 3253TIP3    H131318   3.643   1.356   7.328
 3253TIP3    H231319   3.737   1.432   7.419
 3254TIP3   OH231320   2.338   6.037   2.094
 3254TIP3    H131321   2.419   6.033   2.043
 3254TIP3    H231322   2.352   5.975   2.166
 3255TIP3   OH231323   1.680   1.336   0.328
 3255TIP3    H131324   1.698   1.426   0.299
 3255TIP3    H231325   1.737   1.282   0.273
 3256TIP3   OH231326   0.399   6.267   7.924
 3256TIP3    H131327   0.478   6.215   7.913
 3256TIP3    H231328   0.418   6.325   7.998
 3257TIP3   OH231329   5.901   5.378   6.158
 3257TIP3    H131330   5.910   5.443   6.088
 3257TIP3    H231331   5.894   5.431   6.238
 3258TIP3   OH231332   1.408   4.968   0.089
 3258TIP3    H131333   1.482   5.018   0.124
 3258TIP3    H231334   1.379   5.018   0.013
 3259TIP3   OH231335   1.717   0.791   1.165
 3259TIP3    H131336   1.730   0.765   1.074
 3259TIP3    H231337   1.731   0.886   1.166
 3260TIP3   OH231338   2.669   3.357   0.701
 3260TIP3    H131339   2.707   3.434   0.659
 3260TIP3    H231340   2.576   3.362   0.680
 3261TIP3   OH231341   3.117   4.310   6.720
 3261TIP3    H131342   3.049   4.262   6.766
 3261TIP3    H231343   3.119   4.396   6.761
 3262TIP3   OH231344   3.622   2.269   0.784
 3262TIP3    H131345   3.622   2.230   0.697
 3262TIP3    H231346   3.706   2.313   0.790
 3263TIP3   OH231347   3.102   4.500   1.206
 3263TIP3    H131348   3.030   4.478   1.265
 3263TIP3    H231349   3.156   4.561   1.256
 3264TIP3   OH231350   4.031   6.663   6.774
 3264TIP3    H131351   3.986   6.671   6.690
 3264TIP3    H231352   3.969   6.618   6.831
 3265TIP3   OH231353   2.165   4.504   0.722
 3265TIP3    H131354   2.104   4.566   0.683
 3265TIP3    H231355   2.116   4.465   0.795
 3266TIP3   OH231356   6.104   3.016   7.740
 3266TIP3    H131357   6.113   3.002   7.645
 3266TIP3    H231358   6.124   3.109   7.752
 3267TIP3   OH231359   6.183   5.717   0.082
 3267TIP3    H131360   6.164   5.624   0.071
 3267TIP3    H231361   6.135   5.760   0.011
 3268TIP3   OH231362   3.396   5.194   8.491
 3268TIP3    H131363   3.405   5.164   0.014
 3268TIP3    H231364   3.482   5.184   8.452
 3269TIP3   OH231365   0.190   4.776   7.344
 3269TIP3    H131366   0.235   4.847   7.389
 3269TIP3    H231367   0.205   4.794   7.251
 3270TIP3   OH231368   1.955   4.568   8.036
 3270TIP3    H131369   1.943   4.569   7.941
 3270TIP3    H231370   1.912   4.648   8.066
 3271TIP3   OH231371   2.353   3.263   0.080
 3271TIP3    H131372   2.395   3.297   0.001
 3271TIP3    H231373   2.279   3.212   0.047
 3272TIP3   OH231374   2.424   5.875   0.038
 3272TIP3    H131375   2.390   5.809   0.099
 3272TIP3    H231376   2.421   5.957   0.087
 3273TIP3   OH231377   6.634   5.839   1.292
 3273TIP3    H131378   6.708   5.896   1.312
 3273TIP3    H231379   6.573   5.852   1.365
 3274TIP3   OH231380   3.459   0.238   8.315
 3274TIP3    H131381   3.443   0.145   8.332
 3274TIP3    H231382   3.379   0.268   8.271
 3275TIP3   OH231383   3.213   0.584   1.309
 3275TIP3    H131384   3.198   0.675   1.280
 3275TIP3    H231385   3.204   0.532   1.229
 3276TIP3   OH231386   3.444   6.119   7.633
 3276TIP3    H131387   3.445   6.205   7.592
 3276TIP3    H231388   3.533   6.086   7.623
 3277TIP3   OH231389   0.572   4.117   1.466
 3277TIP3    H131390   0.653   4.124   1.415
 3277TIP3    H231391   0.557   4.023   1.473
 3278TIP3   OH231392   2.243   6.671   0.391
 3278TIP3    H131393   2.287   6.639   0.312
 3278TIP3    H231394   2.178   6.604   0.411
 3279TIP3   OH231395   4.321   6.492   6.550
 3279TIP3    H131396   4.388   6.427   6.529
 3279TIP3    H231397   4.247   6.468   6.493
 3280TIP3   OH231398   4.706   6.839   2.397
 3280TIP3    H131399   4.789   6.796   2.419
 3280TIP3    H231400   4.720   0.021   2.422
 3281TIP3   OH231401   5.320   1.273   1.114
 3281TIP3    H131402   5.349   1.187   1.144
 3281TIP3    H231403   5.389   1.333   1.143
 3282TIP3   OH231404   6.350   1.706   7.554
 3282TIP3    H131405   6.312   1.771   7.613
 3282TIP3    H231406   6.436   1.741   7.531
 3283TIP3   OH231407   5.221   5.014   0.217
 3283TIP3    H131408   5.156   4.964   0.266
 3283TIP3    H231409   5.232   4.965   0.136
 3284TIP3   OH231410   0.711   3.139   0.119
 3284TIP3    H131411   0.733   3.092   0.039
 3284TIP3    H231412   0.698   3.230   0.091
 3285TIP3   OH231413   2.801   2.410   1.595
 3285TIP3    H131414   2.774   2.391   1.505
 3285TIP3    H231415   2.839   2.328   1.626
 3286TIP3   OH231416   6.463   5.821   1.045
 3286TIP3    H131417   6.387   5.874   1.069
 3286TIP3    H231418   6.525   5.833   1.117
 3287TIP3   OH231419   0.781   6.145   0.831
 3287TIP3    H131420   0.794   6.215   0.767
 3287TIP3    H231421   0.865   6.138   0.876
 3288TIP3   OH231422   2.437   4.180   1.833
 3288TIP3    H131423   2.484   4.114   1.782
 3288TIP3    H231424   2.473   4.264   1.803
 3289TIP3   OH231425   2.689   5.091   6.617
 3289TIP3    H131426   2.749   5.159   6.650
 3289TIP3    H231427   2.612   5.099   6.672
 3290TIP3   OH231428   4.714   1.880   7.274
 3290TIP3    H131429   4.746   1.901   7.186
 3290TIP3    H231430   4.762   1.801   7.299
 3291TIP3   OH231431   5.149   5.142   6.935
 3291TIP3    H131432   5.092   5.170   6.864
 3291TIP3    H231433   5.147   5.047   6.933
 3292TIP3   OH231434   6.702   6.557   8.383
 3292TIP3    H131435   6.785   6.570   8.337
 3292TIP3    H231436   6.654   6.639   8.370
 3293TIP3   OH231437   5.076   5.777   7.765
 3293TIP3    H131438   5.024   5.840   7.715
 3293TIP3    H231439   5.032   5.693   7.752
 3294TIP3   OH231440   4.491   0.449   0.887
 3294TIP3    H131441   4.586   0.461   0.878
 3294TIP3    H231442   4.467   0.507   0.959
 3295TIP3   OH231443   1.555   1.195   0.945
 3295TIP3    H131444   1.484   1.160   0.999
 3295TIP3    H231445   1.563   1.132   0.873
 3296TIP3   OH231446   1.735   3.262   7.315
 3296TIP3    H131447   1.743   3.255   7.410
 3296TIP3    H231448   1.649   3.303   7.302
 3297TIP3   OH231449   0.161   3.510   0.817
 3297TIP3    H131450   0.196   3.595   0.842
 3297TIP3    H231451   0.100   3.487   0.887
 3298TIP3   OH231452   3.399   4.956   8.103
 3298TIP3    H131453   3.493   4.961   8.121
 3298TIP3    H231454   3.383   5.023   8.037
 3299TIP3   OH231455   6.278   5.226   0.106
 3299TIP3    H131456   6.349   5.238   0.043
 3299TIP3    H231457   6.231   5.310   0.104
 3300TIP3   OH231458   0.809   5.321   7.564
 3300TIP3    H131459   0.795   5.241   7.513
 3300TIP3    H231460   0.903   5.336   7.560
 3301TIP3   OH231461   6.667   0.563   8.139
 3301TIP3    H131462   6.675   0.499   8.069
 3301TIP3    H231463   6.649   0.511   8.217
 3302TIP3   OH231464   6.710   6.365   1.267
 3302TIP3    H131465   6.751   6.419   1.200
 3302TIP3    H231466   6.768   6.374   1.343
 3303TIP3   OH231467   4.754   3.649   7.733
 3303TIP3    H131468   4.740   3.728   7.784
 3303TIP3    H231469   4.711   3.580   7.784
 3304TIP3   OH231470   2.943   3.886   6.927
 3304TIP3    H131471   2.871   3.933   6.885
 3304TIP3    H231472   2.980   3.949   6.988
 3305TIP3   OH231473   6.708   5.765   6.982
 3305TIP3    H131474   6.685   5.687   6.932
 3305TIP3    H231475   6.788   5.741   7.029
 3306TIP3   OH231476   1.076   3.832   1.839
 3306TIP3    H131477   1.109   3.742   1.841
 3306TIP3    H231478   0.981   3.823   1.850
 3307TIP3   OH231479   1.878   0.825   8.251
 3307TIP3    H131480   1.786   0.809   8.233
 3307TIP3    H231481   1.880   0.911   8.292
 3308TIP3   OH231482   5.719   1.079   1.590
 3308TIP3    H131483   5.813   1.092   1.579
 3308TIP3    H231484   5.703   1.097   1.683
 3309TIP3   OH231485   1.473   5.887   6.308
 3309TIP3    H131486   1.389   5.884   6.263
 3309TIP3    H231487   1.535   5.914   6.241
 3310TIP3   OH231488   1.968   0.857   7.984
 3310TIP3    H131489   1.879   0.880   7.957
 3310TIP3    H231490   1.960   0.838   8.078
 3311TIP3   OH231491   5.872   1.864   7.916
 3311TIP3    H131492   5.851   1.771   7.919
 3311TIP3    H231493   5.959   1.871   7.954
 3312TIP3   OH231494   1.494   6.214   0.068
 3312TIP3    H131495   1.412   6.181   0.106
 3312TIP3    H231496   1.554   6.140   0.072
 3313TIP3   OH231497   0.186   0.159   2.182
 3313TIP3    H131498   0.273   0.118   2.185
 3313TIP3    H231499   0.166   0.178   2.274
 3314TIP3   OH231500   4.943   3.515   0.875
 3314TIP3    H131501   4.862   3.535   0.827
 3314TIP3    H231502   4.961   3.423   0.856
 3315TIP3   OH231503   5.498   5.368   7.641
 3315TIP3    H131504   5.585   5.335   7.620
 3315TIP3    H231505   5.465   5.402   7.558
 3316TIP3   OH231506   1.733   4.235   0.183
 3316TIP3    H131507   1.672   4.197   0.247
 3316TIP3    H231508   1.811   4.255   0.234
 3317TIP3   OH231509   6.765   2.012   7.935
 3317TIP3    H131510   6.725   2.028   7.850
 3317TIP3    H231511   6.796   2.098   7.964
 3318TIP3   OH231512   5.865   6.326   6.643
 3318TIP3    H131513   5.779   6.285   6.648
 3318TIP3    H231514   5.871   6.360   6.554
 3319TIP3   OH231515   6.596   5.103   7.632
 3319TIP3    H131516   6.548   5.074   7.554
 3319TIP3    H231517   6.685   5.118   7.601
 3320TIP3   OH231518   3.763   1.025   6.858
 3320TIP3    H131519   3.782   1.106   6.811
 3320TIP3    H231520   3.672   1.034   6.885
 3321TIP3   OH231521   0.064   5.776   0.603
 3321TIP3    H131522   0.035   5.709   0.665
 3321TIP3    H231523   0.064   5.857   0.654
 3322TIP3   OH231524   6.000   2.510   7.829
 3322TIP3    H131525   5.981   2.514   7.735
 3322TIP3    H231526   6.061   2.436   7.838
 3323TIP3   OH231527   5.510   0.164   1.112
 3323TIP3    H131528   5.573   0.150   1.182
 3323TIP3    H231529   5.563   0.162   1.032
 3324TIP3   OH231530   4.907   0.410   7.060
 3324TIP3    H131531   4.842   0.480   7.062
 3324TIP3    H231532   4.867   0.342   7.005
 3325TIP3   OH231533   5.477   6.385   0.369
 3325TIP3    H131534   5.416   6.316   0.343
 3325TIP3    H231535   5.544   6.384   0.301
 3326TIP3   OH231536   2.297   3.357   1.556
 3326TIP3    H131537   2.257   3.440   1.531
 3326TIP3    H231538   2.291   3.303   1.477
 3327TIP3   OH231539   2.194   1.136   6.323
 3327TIP3    H131540   2.130   1.082   6.277
 3327TIP3    H231541   2.146   1.174   6.396
 3328TIP3   OH231542   1.011   1.115   1.744
 3328TIP3    H131543   1.000   1.181   1.811
 3328TIP3    H231544   1.019   1.032   1.792
 3329TIP3   OH231545   2.311   5.311   2.004
 3329TIP3    H131546   2.325   5.269   2.089
 3329TIP3    H231547   2.399   5.333   1.974
 3330TIP3   OH231548   1.828   5.392   6.303
 3330TIP3    H131549   1.838   5.299   6.323
 3330TIP3    H231550   1.899   5.435   6.350
 3331TIP3   OH231551   1.956   5.883   7.690
 3331TIP3    H131552   1.897   5.833   7.633
 3331TIP3    H231553   1.956   5.835   7.772
 3332TIP3   OH231554   1.437   1.121   6.742
 3332TIP3    H131555   1.368   1.182   6.769
 3332TIP3    H231556   1.509   1.178   6.716
 3333TIP3   OH231557   1.734   4.145   1.724
 3333TIP3    H131558   1.691   4.228   1.704
 3333TIP3    H231559   1.662   4.087   1.749
 3334TIP3   OH231560   3.868   5.616   1.165
 3334TIP3    H131561   3.776   5.622   1.189
 3334TIP3    H231562   3.905   5.552   1.226
 3335TIP3   OH231563   2.427   5.143   7.508
 3335TIP3    H131564   2.522   5.158   7.508
 3335TIP3    H231565   2.410   5.099   7.424
 3336TIP3   OH231566   0.308   3.877   6.665
 3336TIP3    H131567   0.370   3.888   6.593
 3336TIP3    H231568   0.241   3.943   6.649
 3337TIP3   OH231569   5.403   0.422   1.204
 3337TIP3    H131570   5.446   0.369   1.138
 3337TIP3    H231571   5.390   0.507   1.163
 3338TIP3   OH231572   6.463   0.641   0.339
 3338TIP3    H131573   6.450   0.679   0.427
 3338TIP3    H231574   6.466   0.717   0.281
 3339TIP3   OH231575   3.165   5.307   7.244
 3339TIP3    H131576   3.157   5.293   7.149
 3339TIP3    H231577   3.076   5.331   7.272
 3340TIP3   OH231578   4.279   3.343   8.167
 3340TIP3    H131579   4.322   3.421   8.132
 3340TIP3    H231580   4.332   3.270   8.134
 3341TIP3   OH231581   4.966   1.058   0.847
 3341TIP3    H131582   4.995   1.096   0.764
 3341TIP3    H231583   4.870   1.063   0.843
 3342TIP3   OH231584   1.586   3.025   1.206
 3342TIP3    H131585   1.676   2.996   1.223
 3342TIP3    H231586   1.548   2.955   1.153
 3343TIP3   OH231587   0.097   0.147   0.996
 3343TIP3    H131588   0.023   0.151   1.057
 3343TIP3    H231589   0.128   0.056   1.002
 3344TIP3   OH231590   3.565   3.552   6.896
 3344TIP3    H131591   3.590   3.598   6.816
 3344TIP3    H231592   3.473   3.530   6.884
 3345TIP3   OH231593   4.889   5.190   0.328
 3345TIP3    H131594   4.971   5.190   0.379
 3345TIP3    H231595   4.894   5.268   0.273
 3346TIP3   OH231596   6.197   0.154   8.301
 3346TIP3    H131597   6.103   0.150   8.282
 3346TIP3    H231598   6.238   0.111   8.226
 3347TIP3   OH231599   5.503   1.595   1.452
 3347TIP3    H131600   5.536   1.646   1.378
 3347TIP3    H231601   5.458   1.659   1.507
 3348TIP3   OH231602   1.197   0.753   1.598
 3348TIP3    H131603   1.292   0.761   1.585
 3348TIP3    H231604   1.189   0.716   1.686
 3349TIP3   OH231605   3.397   3.524   0.541
 3349TIP3    H131606   3.397   3.436   0.579
 3349TIP3    H231607   3.397   3.510   0.447
 3350TIP3   OH231608   4.560   5.409   6.122
 3350TIP3    H131609   4.627   5.424   6.055
 3350TIP3    H231610   4.576   5.319   6.152
 3351TIP3   OH231611   0.630   2.375   1.174
 3351TIP3    H131612   0.645   2.285   1.144
 3351TIP3    H231613   0.665   2.376   1.263
 3352TIP3   OH231614   6.009   3.050   0.802
 3352TIP3    H131615   6.016   3.145   0.795
 3352TIP3    H231616   6.090   3.024   0.846
 3353TIP3   OH231617   3.777   3.719   7.729
 3353TIP3    H131618   3.856   3.737   7.779
 3353TIP3    H231619   3.757   3.802   7.685
 3354TIP3   OH231620   5.345   0.420   7.395
 3354TIP3    H131621   5.303   0.340   7.365
 3354TIP3    H231622   5.439   0.405   7.379
 3355TIP3   OH231623   4.171   0.335   7.391
 3355TIP3    H131624   4.240   0.380   7.342
 3355TIP3    H231625   4.193   0.352   7.483
 3356TIP3   OH231626   2.427   2.435   0.290
 3356TIP3    H131627   2.430   2.373   0.363
 3356TIP3    H231628   2.422   2.380   0.212
 3357TIP3   OH231629   1.391   6.250   6.564
 3357TIP3    H131630   1.346   6.197   6.499
 3357TIP3    H231631   1.421   6.188   6.630
 3358TIP3   OH231632   2.983   4.639   0.378
 3358TIP3    H131633   2.907   4.593   0.413
 3358TIP3    H231634   3.029   4.574   0.326
 3359TIP3   OH231635   5.602   3.503   6.917
 3359TIP3    H131636   5.635   3.427   6.869
 3359TIP3    H231637   5.681   3.553   6.940
 3360TIP3   OH231638   0.181   5.435   7.929
 3360TIP3    H131639   0.114   5.371   7.903
 3360TIP3    H231640   0.248   5.426   7.861
 3361TIP3   OH231641   1.320   2.330   0.351
 3361TIP3    H131642   1.232   2.332   0.315
 3361TIP3    H231643   1.322   2.404   0.413
 3362TIP3   OH231644   1.976   2.379   0.305
 3362TIP3    H131645   1.952   2.332   0.225
 3362TIP3    H231646   1.915   2.348   0.371
 3363TIP3   OH231647   1.585   1.736   8.397
 3363TIP3    H131648   1.560   1.649   8.430
 3363TIP3    H231649   1.631   1.718   8.315
 3364TIP3   OH231650   4.023   0.989   8.022
 3364TIP3    H131651   3.929   1.002   8.014
 3364TIP3    H231652   4.033   0.914   8.080
 3365TIP3   OH231653   6.410   4.490   7.561
 3365TIP3    H131654   6.488   4.471   7.509
 3365TIP3    H231655   6.339   4.495   7.497
 3366TIP3   OH231656   2.218   2.431   1.183
 3366TIP3    H131657   2.215   2.429   1.278
 3366TIP3    H231658   2.268   2.511   1.162
 3367TIP3   OH231659   1.104   1.142   0.074
 3367TIP3    H131660   1.071   1.079   0.137
 3367TIP3    H231661   1.197   1.122   0.066
 3368TIP3   OH231662   5.914   6.048   0.124
 3368TIP3    H131663   5.988   6.056   0.064
 3368TIP3    H231664   5.936   5.975   0.181
 3369TIP3   OH231665   0.549   5.843   0.768
 3369TIP3    H131666   0.504   5.856   0.685
 3369TIP3    H231667   0.478   5.838   0.833
 3370TIP3   OH231668   2.814   0.596   1.362
 3370TIP3    H131669   2.795   0.686   1.335
 3370TIP3    H231670   2.798   0.595   1.456
 3371TIP3   OH231671   4.289   1.998   7.474
 3371TIP3    H131672   4.310   1.926   7.534
 3371TIP3    H231673   4.194   1.992   7.462
 3372TIP3   OH231674   5.855   5.993   0.504
 3372TIP3    H131675   5.799   6.025   0.434
 3372TIP3    H231676   5.815   5.910   0.532
 3373TIP3   OH231677   1.661   3.290   1.122
 3373TIP3    H131678   1.694   3.274   1.034
 3373TIP3    H231679   1.647   3.203   1.159
 3374TIP3   OH231680   0.103   0.962   6.898
 3374TIP3    H131681   0.172   1.013   6.939
 3374TIP3    H231682   0.091   0.886   6.956
 3375TIP3   OH231683   2.880   4.155   8.068
 3375TIP3    H131684   2.897   4.128   8.159
 3375TIP3    H231685   2.795   4.115   8.048
 3376TIP3   OH231686   3.510   4.633   7.658
 3376TIP3    H131687   3.546   4.711   7.702
 3376TIP3    H231688   3.459   4.668   7.585
 3377TIP3   OH231689   1.591   4.085   0.366
 3377TIP3    H131690   1.666   4.038   0.401
 3377TIP3    H231691   1.537   4.018   0.324
 3378TIP3   OH231692   1.573   5.920   1.437
 3378TIP3    H131693   1.524   5.861   1.379
 3378TIP3    H231694   1.509   5.984   1.465
 3379TIP3   OH231695   4.491   0.621   1.812
 3379TIP3    H131696   4.461   0.640   1.901
 3379TIP3    H231697   4.587   0.623   1.818
 3380TIP3   OH231698   5.016   2.484   1.077
 3380TIP3    H131699   5.085   2.441   1.129
 3380TIP3    H231700   4.989   2.418   1.014
 3381TIP3   OH231701   6.640   6.033   7.029
 3381TIP3    H131702   6.732   6.047   7.009
 3381TIP3    H231703   6.618   5.951   6.985
 3382TIP3   OH231704   2.426   1.891   1.141
 3382TIP3    H131705   2.500   1.855   1.190
 3382TIP3    H231706   2.463   1.916   1.056
 3383TIP3   OH231707   4.871   3.953   1.693
 3383TIP3    H131708   4.818   3.918   1.765
 3383TIP3    H231709   4.925   3.879   1.665
 3384TIP3   OH231710   0.587   4.573   0.393
 3384TIP3    H131711   0.657   4.555   0.331
 3384TIP3    H231712   0.520   4.507   0.373
 3385TIP3   OH231713   5.102   0.683   0.157
 3385TIP3    H131714   5.116   0.770   0.119
 3385TIP3    H231715   5.075   0.702   0.247
 3386TIP3   OH231716   4.187   4.663   7.843
 3386TIP3    H131717   4.105   4.653   7.794
 3386TIP3    H231718   4.187   4.754   7.871
 3387TIP3   OH231719   1.544   5.505   0.848
 3387TIP3    H131720   1.552   5.441   0.777
 3387TIP3    H231721   1.551   5.452   0.928
 3388TIP3   OH231722   2.555   5.924   7.482
 3388TIP3    H131723   2.472   5.946   7.440
 3388TIP3    H231724   2.552   5.829   7.495
 3389TIP3   OH231725   2.063   2.923   8.100
 3389TIP3    H131726   2.113   2.955   8.025
 3389TIP3    H231727   1.976   2.961   8.089
 3390TIP3   OH231728   5.728   3.510   0.564
 3390TIP3    H131729   5.746   3.570   0.492
 3390TIP3    H231730   5.778   3.431   0.543
 3391TIP3   OH231731   0.083   3.515   8.421
 3391TIP3    H131732   0.129   3.433   8.404
 3391TIP3    H231733   0.071   3.554   8.335
 3392TIP3   OH231734   1.310   6.664   1.455
 3392TIP3    H131735   1.337   6.651   1.546
 3392TIP3    H231736   1.391   6.689   1.410
 3393TIP3   OH231737   5.789   0.267   6.122
 3393TIP3    H131738   5.704   0.313   6.121
 3393TIP3    H231739   5.845   0.320   6.065
 3394TIP3   OH231740   6.280   5.535   7.264
 3394TIP3    H131741   6.302   5.625   7.291
 3394TIP3    H231742   6.340   5.516   7.192
 3395TIP3   OH231743   0.714   3.175   8.372
 3395TIP3    H131744   0.804   3.203   8.391
 3395TIP3    H231745   0.719   3.079   8.368
 3396TIP3   OH231746   3.141   2.673   0.600
 3396TIP3    H131747   3.231   2.704   0.594
 3396TIP3    H231748   3.095   2.716   0.528
 3397TIP3   OH231749   4.625   1.634   2.113
 3397TIP3    H131750   4.715   1.619   2.083
 3397TIP3    H231751   4.628   1.621   2.207
 3398TIP3   OH231752   4.326   5.030   8.515
 3398TIP3    H131753   4.322   4.934   8.520
 3398TIP3    H231754   4.264   5.060   0.014
 3399TIP3   OH231755   0.953   3.755   6.119
 3399TIP3    H131756   0.991   3.838   6.147
 3399TIP3    H231757   1.025   3.708   6.078
 3400TIP3   OH231758   6.145   0.207   1.513
 3400TIP3    H131759   6.094   0.274   1.559
 3400TIP3    H231760   6.231   0.247   1.501
 3401TIP3   OH231761   1.001   6.728   0.671
 3401TIP3    H131762   1.021   6.647   0.623
 3401TIP3    H231763   0.909   6.744   0.652
 3402TIP3   OH231764   3.399   0.298   1.974
 3402TIP3    H131765   3.441   0.379   2.001
 3402TIP3    H231766   3.328   0.285   2.037
 3403TIP3   OH231767   5.485   3.505   7.875
 3403TIP3    H131768   5.540   3.452   7.933
 3403TIP3    H231769   5.401   3.458   7.873
 3404TIP3   OH231770   6.745   0.976   8.264
 3404TIP3    H131771   6.826   1.021   8.240
 3404TIP3    H231772   6.689   0.983   8.187
 3405TIP3   OH231773   4.631   4.209   6.106
 3405TIP3    H131774   4.685   4.267   6.160
 3405TIP3    H231775   4.542   4.224   6.138
 3406TIP3   OH231776   3.367   3.398   7.653
 3406TIP3    H131777   3.322   3.391   7.569
 3406TIP3    H231778   3.350   3.314   7.697
 3407TIP3   OH231779   5.890   5.258   2.049
 3407TIP3    H131780   5.949   5.270   2.123
 3407TIP3    H231781   5.874   5.164   2.045
 3408TIP3   OH231782   0.703   2.079   0.186
 3408TIP3    H131783   0.649   2.037   0.253
 3408TIP3    H231784   0.658   2.060   0.104
 3409TIP3   OH231785   4.642   6.882   8.323
 3409TIP3    H131786   4.681   0.029   8.390
 3409TIP3    H231787   4.691   6.800   8.329
 3410TIP3   OH231788   2.276   1.337   0.628
 3410TIP3    H131789   2.365   1.307   0.611
 3410TIP3    H231790   2.281   1.378   0.715
 3411TIP3   OH231791   2.120   5.598   0.415
 3411TIP3    H131792   2.127   5.533   0.345
 3411TIP3    H231793   2.080   5.551   0.487
 3412TIP3   OH231794   0.028   1.253   1.460
 3412TIP3    H131795   6.851   1.279   1.493
 3412TIP3    H231796   0.044   1.167   1.499
 3413TIP3   OH231797   0.245   0.391   0.054
 3413TIP3    H131798   0.220   0.418   8.533
 3413TIP3    H231799   0.336   0.419   0.064
 3414TIP3   OH231800   3.961   1.161   8.351
 3414TIP3    H131801   3.911   1.177   8.431
 3414TIP3    H231802   4.048   1.135   8.382
 3415TIP3   OH231803   1.637   1.486   7.718
 3415TIP3    H131804   1.578   1.439   7.660
 3415TIP3    H231805   1.584   1.505   7.796
 3416TIP3   OH231806   5.643   1.394   1.805
 3416TIP3    H131807   5.569   1.398   1.746
 3416TIP3    H231808   5.609   1.426   1.889
 3417TIP3   OH231809   6.661   1.588   0.369
 3417TIP3    H131810   6.670   1.582   0.274
 3417TIP3    H231811   6.622   1.673   0.385
 3418TIP3   OH231812   5.691   5.766   7.045
 3418TIP3    H131813   5.776   5.753   7.086
 3418TIP3    H231814   5.643   5.823   7.105
 3419TIP3   OH231815   2.860   4.175   7.625
 3419TIP3    H131816   2.874   4.225   7.706
 3419TIP3    H231817   2.913   4.096   7.636
 3420TIP3   OH231818   2.050   1.199   8.304
 3420TIP3    H131819   2.117   1.133   8.321
 3420TIP3    H231820   2.050   1.253   8.384
 3421TIP3   OH231821   5.393   3.264   8.543
 3421TIP3    H131822   5.359   3.256   8.454
 3421TIP3    H231823   5.488   3.259   8.532
 3422TIP3   OH231824   2.292   4.308   6.838
 3422TIP3    H131825   2.278   4.258   6.919
 3422TIP3    H231826   2.226   4.376   6.840
 3423TIP3   OH231827   3.454   4.900   6.550
 3423TIP3    H131828   3.377   4.949   6.580
 3423TIP3    H231829   3.455   4.822   6.607
 3424TIP3   OH231830   3.613   2.665   7.253
 3424TIP3    H131831   3.604   2.652   7.158
 3424TIP3    H231832   3.533   2.628   7.290
 3425TIP3   OH231833   6.094   0.151   0.901
 3425TIP3    H131834   6.113   0.114   0.815
 3425TIP3    H231835   5.999   0.141   0.911
 3426TIP3   OH231836   5.429   5.688   1.870
 3426TIP3    H131837   5.386   5.689   1.784
 3426TIP3    H231838   5.382   5.754   1.921
 3427TIP3   OH231839   0.567   3.494   1.590
 3427TIP3    H131840   0.549   3.513   1.682
 3427TIP3    H231841   0.482   3.502   1.547
 3428TIP3   OH231842   4.616   6.841   1.968
 3428TIP3    H131843   4.703   6.872   1.991
 3428TIP3    H231844   4.558   6.879   2.034
 3429TIP3   OH231845   4.057   0.015   7.561
 3429TIP3    H131846   4.040   0.053   7.474
 3429TIP3    H231847   4.127   0.069   7.597
 3430TIP3   OH231848   4.678   3.904   7.960
 3430TIP3    H131849   4.651   3.994   7.976
 3430TIP3    H231850   4.635   3.881   7.878
 3431TIP3   OH231851   5.439   5.885   0.601
 3431TIP3    H131852   5.461   5.978   0.600
 3431TIP3    H231853   5.344   5.882   0.613
 3432TIP3   OH231854   3.250   3.982   1.912
 3432TIP3    H131855   3.333   4.030   1.915
 3432TIP3    H231856   3.251   3.927   1.990
 3433TIP3   OH231857   1.866   4.130   1.478
 3433TIP3    H131858   1.925   4.196   1.515
 3433TIP3    H231859   1.842   4.076   1.553
 3434TIP3   OH231860   0.834   3.763   1.555
 3434TIP3    H131861   0.866   3.715   1.631
 3434TIP3    H231862   0.828   3.854   1.586
 3435TIP3   OH231863   0.349   5.932   7.847
 3435TIP3    H131864   0.380   5.965   7.931
 3435TIP3    H231865   0.380   5.841   7.843
 3436TIP3   OH231866   3.570   2.527   0.619
 3436TIP3    H131867   3.638   2.569   0.566
 3436TIP3    H231868   3.531   2.462   0.560
 3437TIP3   OH231869   6.164   5.362   1.798
 3437TIP3    H131870   6.082   5.367   1.749
 3437TIP3    H231871   6.144   5.403   1.882
 3438TIP3   OH231872   1.192   5.003   0.276
 3438TIP3    H131873   1.269   4.983   0.223
 3438TIP3    H231874   1.166   4.918   0.313
 3439TIP3   OH231875   4.429   4.625   1.083
 3439TIP3    H131876   4.356   4.649   1.025
 3439TIP3    H231877   4.388   4.613   1.169
 3440TIP3   OH231878   5.383   6.671   8.443
 3440TIP3    H131879   5.369   6.580   8.418
 3440TIP3    H231880   5.461   6.697   8.394
 3441TIP3   OH231881   1.058   4.349   0.706
 3441TIP3    H131882   0.968   4.369   0.730
 3441TIP3    H231883   1.106   4.430   0.722
 3442TIP3   OH231884   2.520   0.321   6.960
 3442TIP3    H131885   2.545   0.242   6.912
 3442TIP3    H231886   2.574   0.390   6.921
 3443TIP3   OH231887   2.083   5.393   0.184
 3443TIP3    H131888   2.068   5.371   0.092
 3443TIP3    H231889   2.055   5.315   0.232
 3444TIP3   OH231890   6.738   0.896   0.366
 3444TIP3    H131891   6.663   0.871   0.311
 3444TIP3    H231892   6.800   0.825   0.356
 3445TIP3   OH231893   5.657   3.861   0.521
 3445TIP3    H131894   5.581   3.812   0.554
 3445TIP3    H231895   5.709   3.795   0.475
 3446TIP3   OH231896   5.341   2.052   0.894
 3446TIP3    H131897   5.284   2.076   0.821
 3446TIP3    H231898   5.388   2.132   0.916
 3447TIP3   OH231899   5.926   0.783   0.661
 3447TIP3    H131900   6.009   0.785   0.613
 3447TIP3    H231901   5.948   0.814   0.748
 3448TIP3   OH231902   1.318   6.426   8.556
 3448TIP3    H131903   1.360   6.488   8.496
 3448TIP3    H231904   1.385   6.360   0.007
 3449TIP3   OH231905   4.648   1.488   8.078
 3449TIP3    H131906   4.668   1.578   8.103
 3449TIP3    H231907   4.566   1.468   8.123
 3450TIP3   OH231908   6.393   3.741   8.527
 3450TIP3    H131909   6.441   3.722   8.446
 3450TIP3    H231910   6.397   3.660   0.010
 3451TIP3   OH231911   0.868   5.060   7.452
 3451TIP3    H131912   0.957   5.039   7.482
 3451TIP3    H231913   0.820   4.978   7.464
 3452TIP3   OH231914   2.309   4.844   0.435
 3452TIP3    H131915   2.402   4.852   0.453
 3452TIP3    H231916   2.298   4.757   0.398
 3453TIP3   OH231917   4.866   2.973   1.332
 3453TIP3    H131918   4.961   2.968   1.321
 3453TIP3    H231919   4.842   2.887   1.367
 3454TIP3   OH231920   4.597   5.837   0.552
 3454TIP3    H131921   4.521   5.796   0.595
 3454TIP3    H231922   4.564   5.866   0.467
 3455TIP3   OH231923   2.584   3.425   7.128
 3455TIP3    H131924   2.489   3.420   7.138
 3455TIP3    H231925   2.608   3.340   7.091
 3456TIP3   OH231926   2.920   4.028   0.956
 3456TIP3    H131927   3.014   4.010   0.944
 3456TIP3    H231928   2.905   4.108   0.906
 3457TIP3   OH231929   5.282   6.006   0.115
 3457TIP3    H131930   5.241   5.920   0.116
 3457TIP3    H231931   5.218   6.064   0.156
 3458TIP3   OH231932   2.995   4.224   6.480
 3458TIP3    H131933   2.978   4.143   6.433
 3458TIP3    H231934   3.073   4.206   6.532
 3459TIP3   OH231935   1.070   4.056   1.539
 3459TIP3    H131936   0.988   4.024   1.576
 3459TIP3    H231937   1.043   4.102   1.459
 3460TIP3   OH231938   3.932   4.869   8.039
 3460TIP3    H131939   3.970   4.923   7.970
 3460TIP3    H231940   4.006   4.824   8.078
 3461TIP3   OH231941   4.380   6.045   0.876
 3461TIP3    H131942   4.345   6.121   0.923
 3461TIP3    H231943   4.307   5.984   0.871
 3462TIP3   OH231944   1.243   6.068   6.400
 3462TIP3    H131945   1.224   5.995   6.341
 3462TIP3    H231946   1.280   6.136   6.343
 3463TIP3   OH231947   5.985   5.434   8.366
 3463TIP3    H131948   5.928   5.357   8.370
 3463TIP3    H231949   5.956   5.481   8.288
 3464TIP3   OH231950   1.427   2.368   8.166
 3464TIP3    H131951   1.439   2.453   8.123
 3464TIP3    H231952   1.469   2.305   8.107
 3465TIP3   OH231953   1.486   3.873   2.071
 3465TIP3    H131954   1.568   3.830   2.047
 3465TIP3    H231955   1.432   3.803   2.107
 3466TIP3   OH231956   0.436   3.796   7.856
 3466TIP3    H131957   0.510   3.847   7.890
 3466TIP3    H231958   0.419   3.731   7.925
 3467TIP3   OH231959   2.066   2.816   1.964
 3467TIP3    H131960   2.001   2.882   1.991
 3467TIP3    H231961   2.149   2.864   1.962
 3468TIP3   OH231962   5.265   6.775   1.183
 3468TIP3    H131963   5.324   6.780   1.107
 3468TIP3    H231964   5.273   6.684   1.213
 3469TIP3   OH231965   2.664   3.389   7.413
 3469TIP3    H131966   2.614   3.308   7.402
 3469TIP3    H231967   2.676   3.422   7.324
 3470TIP3   OH231968   3.340   3.371   7.379
 3470TIP3    H131969   3.314   3.278   7.376
 3470TIP3    H231970   3.367   3.391   7.289
 3471TIP3   OH231971   1.770   3.738   7.169
 3471TIP3    H131972   1.779   3.832   7.155
 3471TIP3    H231973   1.730   3.705   7.088
 3472TIP3   OH231974   2.333   3.967   6.355
 3472TIP3    H131975   2.401   3.926   6.409
 3472TIP3    H231976   2.370   4.050   6.328
 3473TIP3   OH231977   4.633   1.968   1.450
 3473TIP3    H131978   4.687   2.031   1.498
 3473TIP3    H231979   4.546   1.976   1.489
 3474TIP3   OH231980   6.699   6.107   1.021
 3474TIP3    H131981   6.701   6.147   0.934
 3474TIP3    H231982   6.609   6.075   1.030
 3475TIP3   OH231983   3.033   0.502   8.041
 3475TIP3    H131984   3.118   0.508   7.998
 3475TIP3    H231985   2.999   0.416   8.015
 3476TIP3   OH231986   3.837   2.433   1.320
 3476TIP3    H131987   3.914   2.447   1.376
 3476TIP3    H231988   3.778   2.380   1.373
 3477TIP3   OH231989   0.775   5.778   8.555
 3477TIP3    H131990   0.689   5.810   0.013
 3477TIP3    H231991   0.826   5.779   0.068
 3478TIP3   OH231992   1.834   6.267   1.928
 3478TIP3    H131993   1.876   6.190   1.967
 3478TIP3    H231994   1.812   6.240   1.839
 3479TIP3   OH231995   1.742   0.994   1.537
 3479TIP3    H131996   1.762   1.054   1.609
 3479TIP3    H231997   1.825   0.984   1.490
 3480TIP3   OH231998   5.439   6.473   1.355
 3480TIP3    H131999   5.362   6.500   1.305
 3480TIP3    H232000   5.512   6.513   1.309
 3481TIP3   OH232001   5.095   3.166   6.934
 3481TIP3    H132002   5.149   3.102   6.888
 3481TIP3    H232003   5.030   3.193   6.869
 3482TIP3   OH232004   3.413   6.886   8.476
 3482TIP3    H132005   3.458   6.880   8.561
 3482TIP3    H232006   3.330   0.020   8.496
 3483TIP3   OH232007   1.150   4.142   0.875
 3483TIP3    H132008   1.113   4.189   0.800
 3483TIP3    H232009   1.127   4.196   0.951
 3484TIP3   OH232010   6.818   0.142   0.087
 3484TIP3    H132011   6.754   0.084   0.128
 3484TIP3    H232012   6.790   0.230   0.110
 3485TIP3   OH232013   6.381   4.200   0.027
 3485TIP3    H132014   6.305   4.185   8.537
 3485TIP3    H232015   6.401   4.114   0.064
 3486TIP3   OH232016   2.871   5.121   7.129
 3486TIP3    H132017   2.958   5.081   7.131
 3486TIP3    H232018   2.885   5.208   7.092
 3487TIP3   OH232019   1.570   4.615   1.130
 3487TIP3    H132020   1.607   4.587   1.046
 3487TIP3    H232021   1.629   4.683   1.161
 3488TIP3   OH232022   6.688   4.550   7.116
 3488TIP3    H132023   6.769   4.563   7.165
 3488TIP3    H232024   6.697   4.464   7.076
 3489TIP3   OH232025   5.300   2.747   1.049
 3489TIP3    H132026   5.367   2.680   1.040
 3489TIP3    H232027   5.235   2.707   1.107
 3490TIP3   OH232028   0.937   5.460   1.434
 3490TIP3    H132029   0.888   5.512   1.497
 3490TIP3    H232030   0.921   5.369   1.459
 3491TIP3   OH232031   0.316   4.129   1.431
 3491TIP3    H132032   0.396   4.159   1.474
 3491TIP3    H232033   0.272   4.075   1.496
 3492TIP3   OH232034   2.222   2.131   8.473
 3492TIP3    H132035   2.131   2.101   8.473
 3492TIP3    H232036   2.252   2.116   8.383
 3493TIP3   OH232037   4.550   4.552   7.321
 3493TIP3    H132038   4.478   4.531   7.262
 3493TIP3    H232039   4.623   4.575   7.263
 3494TIP3   OH232040   3.081   4.276   6.082
 3494TIP3    H132041   3.088   4.192   6.035
 3494TIP3    H232042   3.172   4.301   6.099
 3495TIP3   OH232043   5.494   5.403   7.365
 3495TIP3    H132044   5.406   5.419   7.329
 3495TIP3    H232045   5.536   5.346   7.301
 3496TIP3   OH232046   2.802   2.254   8.184
 3496TIP3    H132047   2.804   2.254   8.280
 3496TIP3    H232048   2.870   2.316   8.158
 3497TIP3   OH232049   0.837   4.029   0.189
 3497TIP3    H132050   0.769   4.013   0.123
 3497TIP3    H232051   0.816   4.116   0.225
 3498TIP3   OH232052   1.424   4.354   1.082
 3498TIP3    H132053   1.451   4.385   0.996
 3498TIP3    H232054   1.469   4.270   1.092
 3499TIP3   OH232055   4.192   3.302   1.140
 3499TIP3    H132056   4.255   3.261   1.198
 3499TIP3    H232057   4.235   3.384   1.113
 3500TIP3   OH232058   2.194   0.374   0.122
 3500TIP3    H132059   2.259   0.350   0.187
 3500TIP3    H232060   2.224   0.458   0.088
 3501TIP3   OH232061   4.909   0.911   6.973
 3501TIP3    H132062   4.865   0.924   6.890
 3501TIP3    H232063   4.951   0.825   6.964
 3502TIP3   OH232064   5.312   4.783   7.527
 3502TIP3    H132065   5.286   4.826   7.608
 3502TIP3    H232066   5.252   4.710   7.518
 3503TIP3   OH232067   3.103   5.865   8.194
 3503TIP3    H132068   3.090   5.956   8.169
 3503TIP3    H232069   3.074   5.860   8.285
 3504TIP3   OH232070   4.080   2.229   7.671
 3504TIP3    H132071   4.092   2.278   7.753
 3504TIP3    H232072   4.036   2.290   7.612
 3505TIP3   OH232073   5.094   2.117   7.240
 3505TIP3    H132074   5.001   2.100   7.231
 3505TIP3    H232075   5.109   2.199   7.193
 3506TIP3   OH232076   6.764   1.255   6.876
 3506TIP3    H132077   6.831   1.293   6.818
 3506TIP3    H232078   6.687   1.311   6.864
 3507TIP3   OH232079   3.423   6.042   7.351
 3507TIP3    H132080   3.432   6.134   7.329
 3507TIP3    H232081   3.413   6.041   7.446
 3508TIP3   OH232082   0.812   3.692   7.245
 3508TIP3    H132083   0.780   3.672   7.157
 3508TIP3    H232084   0.827   3.787   7.243
 3509TIP3   OH232085   5.490   6.219   0.121
 3509TIP3    H132086   5.566   6.168   0.092
 3509TIP3    H232087   5.419   6.156   0.124
 3510TIP3   OH232088   1.498   1.247   7.356
 3510TIP3    H132089   1.452   1.195   7.422
 3510TIP3    H232090   1.509   1.187   7.282
 3511TIP3   OH232091   3.769   0.388   0.616
 3511TIP3    H132092   3.754   0.452   0.546
 3511TIP3    H232093   3.793   0.307   0.570
 3512TIP3   OH232094   1.189   0.640   7.711
 3512TIP3    H132095   1.224   0.719   7.670
 3512TIP3    H232096   1.165   0.666   7.799
 3513TIP3   OH232097   3.414   2.757   6.616
 3513TIP3    H132098   3.491   2.800   6.579
 3513TIP3    H232099   3.427   2.664   6.596
 3514TIP3   OH232100   2.395   4.169   2.088
 3514TIP3    H132101   2.322   4.232   2.091
 3514TIP3    H232102   2.410   4.155   1.994
 3515TIP3   OH232103   6.308   5.699   6.694
 3515TIP3    H132104   6.316   5.758   6.618
 3515TIP3    H232105   6.308   5.611   6.656
 3516TIP3   OH232106   6.165   2.554   7.203
 3516TIP3    H132107   6.091   2.569   7.144
 3516TIP3    H232108   6.161   2.460   7.223
 3517TIP3   OH232109   0.535   3.777   0.149
 3517TIP3    H132110   0.587   3.809   0.076
 3517TIP3    H232111   0.462   3.731   0.108
 3518TIP3   OH232112   5.998   5.898   7.116
 3518TIP3    H132113   5.962   5.813   7.141
 3518TIP3    H232114   5.924   5.958   7.118
 3519TIP3   OH232115   4.956   1.677   8.141
 3519TIP3    H132116   4.982   1.649   8.053
 3519TIP3    H232117   5.038   1.677   8.191
 3520TIP3   OH232118   2.041   3.864   0.021
 3520TIP3    H132119   2.040   3.807   0.098
 3520TIP3    H232120   2.003   3.946   0.051
 3521TIP3   OH232121   4.852   2.783   2.077
 3521TIP3    H132122   4.938   2.749   2.053
 3521TIP3    H232123   4.865   2.877   2.086
 3522TIP3   OH232124   2.587   3.909   1.817
 3522TIP3    H132125   2.635   3.990   1.832
 3522TIP3    H232126   2.652   3.840   1.830
 3523TIP3   OH232127   2.875   1.711   1.192
 3523TIP3    H132128   2.928   1.673   1.262
 3523TIP3    H232129   2.921   1.791   1.168
 3524TIP3   OH232130   1.226   1.187   6.977
 3524TIP3    H132131   1.247   1.244   6.903
 3524TIP3    H232132   1.133   1.203   6.994
 3525TIP3   OH232133   0.146   6.677   7.858
 3525TIP3    H132134   0.199   6.660   7.936
 3525TIP3    H232135   0.066   6.626   7.873
 3526TIP3   OH232136   5.465   4.462   8.248
 3526TIP3    H132137   5.470   4.390   8.185
 3526TIP3    H232138   5.383   4.506   8.228
 3527TIP3   OH232139   1.995   6.679   7.715
 3527TIP3    H132140   2.047   6.757   7.695
 3527TIP3    H232141   2.049   6.607   7.683
 3528TIP3   OH232142   0.458   0.835   0.782
 3528TIP3    H132143   0.397   0.766   0.753
 3528TIP3    H232144   0.438   0.847   0.875
 3529TIP3   OH232145   6.793   4.668   0.970
 3529TIP3    H132146   6.822   4.600   1.030
 3529TIP3    H232147   6.715   4.705   1.011
 3530TIP3   OH232148   4.919   5.433   0.133
 3530TIP3    H132149   4.954   5.517   0.104
 3530TIP3    H232150   4.988   5.370   0.113
 3531TIP3   OH232151   0.490   2.556   6.208
 3531TIP3    H132152   0.472   2.639   6.163
 3531TIP3    H232153   0.471   2.574   6.300
 3532TIP3   OH232154   2.266   2.143   7.216
 3532TIP3    H132155   2.213   2.222   7.213
 3532TIP3    H232156   2.277   2.126   7.310
 3533TIP3   OH232157   5.751   2.030   7.731
 3533TIP3    H132158   5.657   2.042   7.745
 3533TIP3    H232159   5.775   1.958   7.789
 3534TIP3   OH232160   0.192   2.321   7.454
 3534TIP3    H132161   0.217   2.312   7.362
 3534TIP3    H232162   0.265   2.367   7.495
 3535TIP3   OH232163   1.296   3.386   6.818
 3535TIP3    H132164   1.357   3.418   6.885
 3535TIP3    H232165   1.281   3.461   6.761
 3536TIP3   OH232166   5.842   6.247   0.649
 3536TIP3    H132167   5.845   6.159   0.611
 3536TIP3    H232168   5.811   6.233   0.739
 3537TIP3   OH232169   0.648   5.231   0.278
 3537TIP3    H132170   0.732   5.196   0.251
 3537TIP3    H232171   0.604   5.157   0.321
 3538TIP3   OH232172   1.467   1.828   8.010
 3538TIP3    H132173   1.533   1.879   8.056
 3538TIP3    H232174   1.387   1.879   8.018
 3539TIP3   OH232175   5.995   1.646   6.602
 3539TIP3    H132176   5.985   1.740   6.589
 3539TIP3    H232177   6.029   1.614   6.518
 3540TIP3   OH232178   6.063   4.873   7.063
 3540TIP3    H132179   6.046   4.778   7.065
 3540TIP3    H232180   6.034   4.900   6.976
 3541TIP3   OH232181   1.441   6.752   6.951
 3541TIP3    H132182   1.517   6.810   6.960
 3541TIP3    H232183   1.479   6.665   6.937
 3542TIP3   OH232184   1.526   1.903   1.968
 3542TIP3    H132185   1.537   1.829   2.029
 3542TIP3    H232186   1.440   1.939   1.989
 3543TIP3   OH232187   5.408   6.847   1.428
 3543TIP3    H132188   5.375   6.803   1.350
 3543TIP3    H232189   5.367   0.024   1.426
 3544TIP3   OH232190   3.556   1.033   1.346
 3544TIP3    H132191   3.598   0.989   1.420
 3544TIP3    H232192   3.576   0.976   1.271
 3545TIP3   OH232193   1.220   4.289   7.641
 3545TIP3    H132194   1.234   4.279   7.735
 3545TIP3    H232195   1.303   4.324   7.607
 3546TIP3   OH232196   4.728   4.942   0.291
 3546TIP3    H132197   4.634   4.957   0.276
 3546TIP3    H232198   4.760   5.025   0.326
 3547TIP3   OH232199   2.984   5.547   8.429
 3547TIP3    H132200   3.017   5.637   8.436
 3547TIP3    H232201   3.060   5.492   8.447
 3548TIP3   OH232202   1.105   6.661   6.801
 3548TIP3    H132203   1.175   6.599   6.823
 3548TIP3    H232204   1.147   6.724   6.743
 3549TIP3   OH232205   6.320   0.766   8.211
 3549TIP3    H132206   6.296   0.674   8.213
 3549TIP3    H232207   6.346   0.782   8.120
 3550TIP3   OH232208   6.262   2.831   7.993
 3550TIP3    H132209   6.195   2.831   8.061
 3550TIP3    H232210   6.234   2.900   7.932
 3551TIP3   OH232211   0.134   6.570   1.586
 3551TIP3    H132212   0.218   6.595   1.546
 3551TIP3    H232213   0.139   6.603   1.675
 3552TIP3   OH232214   0.611   4.613   1.578
 3552TIP3    H132215   0.625   4.519   1.577
 3552TIP3    H232216   0.699   4.650   1.587
 3553TIP3   OH232217   3.142   4.886   1.563
 3553TIP3    H132218   3.191   4.815   1.605
 3553TIP3    H232219   3.125   4.854   1.474
 3554TIP3   OH232220   0.602   4.117   0.405
 3554TIP3    H132221   0.528   4.097   0.347
 3554TIP3    H232222   0.663   4.166   0.350
 3555TIP3   OH232223   0.958   3.759   0.292
 3555TIP3    H132224   0.869   3.726   0.303
 3555TIP3    H232225   0.949   3.854   0.298
 3556TIP3   OH232226   3.962   1.046   6.422
 3556TIP3    H132227   4.022   1.079   6.489
 3556TIP3    H232228   4.002   1.073   6.339
 3557TIP3   OH232229   5.534   5.799   8.413
 3557TIP3    H132230   5.511   5.725   8.357
 3557TIP3    H232231   5.462   5.861   8.402
 3558TIP3   OH232232   6.266   1.371   1.781
 3558TIP3    H132233   6.244   1.437   1.715
 3558TIP3    H232234   6.181   1.337   1.809
 3559TIP3   OH232235   1.225   0.680   6.336
 3559TIP3    H132236   1.143   0.697   6.383
 3559TIP3    H232237   1.281   0.756   6.357
 3560TIP3   OH232238   3.202   0.137   1.556
 3560TIP3    H132239   3.286   0.160   1.596
 3560TIP3    H232240   3.137   0.181   1.610
 3561TIP3   OH232241   5.763   6.629   6.147
 3561TIP3    H132242   5.776   6.698   6.083
 3561TIP3    H232243   5.833   6.642   6.211
 3562TIP3   OH232244   5.508   0.093   8.280
 3562TIP3    H132245   5.507   0.139   8.364
 3562TIP3    H232246   5.556   0.151   8.222
 3563TIP3   OH232247   4.569   3.248   6.703
 3563TIP3    H132248   4.525   3.217   6.783
 3563TIP3    H232249   4.580   3.169   6.650
 3564TIP3   OH232250   0.348   2.140   0.227
 3564TIP3    H132251   0.307   2.164   0.310
 3564TIP3    H232252   0.403   2.065   0.248
 3565TIP3   OH232253   1.411   5.152   1.042
 3565TIP3    H132254   1.458   5.104   1.110
 3565TIP3    H232255   1.437   5.244   1.055
 3566TIP3   OH232256   2.771   3.280   0.142
 3566TIP3    H132257   2.865   3.275   0.159
 3566TIP3    H232258   2.734   3.316   0.222
 3567TIP3   OH232259   1.994   5.019   1.148
 3567TIP3    H132260   2.088   5.015   1.128
 3567TIP3    H232261   1.953   5.045   1.065
 3568TIP3   OH232262   5.600   0.334   6.340
 3568TIP3    H132263   5.574   0.415   6.296
 3568TIP3    H232264   5.648   0.364   6.417
 3569TIP3   OH232265   2.719   6.659   7.156
 3569TIP3    H132266   2.722   6.672   7.061
 3569TIP3    H232267   2.808   6.635   7.180
 3570TIP3   OH232268   1.848   2.534   0.527
 3570TIP3    H132269   1.921   2.473   0.521
 3570TIP3    H232270   1.770   2.477   0.530
 3571TIP3   OH232271   5.681   1.137   1.862
 3571TIP3    H132272   5.751   1.140   1.927
 3571TIP3    H232273   5.668   1.229   1.837
 3572TIP3   OH232274   0.065   5.571   6.829
 3572TIP3    H132275   0.126   5.515   6.780
 3572TIP3    H232276   0.068   5.655   6.784
 3573TIP3   OH232277   1.724   2.011   0.886
 3573TIP3    H132278   1.739   2.103   0.906
 3573TIP3    H232279   1.811   1.978   0.861
 3574TIP3   OH232280   1.974   3.839   1.549
 3574TIP3    H132281   1.967   3.788   1.630
 3574TIP3    H232282   1.885   3.840   1.514
 3575TIP3   OH232283   4.267   3.072   7.798
 3575TIP3    H132284   4.220   3.139   7.847
 3575TIP3    H232285   4.360   3.095   7.807
 3576TIP3   OH232286   2.718   3.830   7.161
 3576TIP3    H132287   2.729   3.735   7.154
 3576TIP3    H232288   2.771   3.855   7.236
 3577TIP3   OH232289   1.477   5.600   0.165
 3577TIP3    H132290   1.426   5.532   0.208
 3577TIP3    H232291   1.501   5.661   0.235
 3578TIP3   OH232292   4.269   5.269   7.723
 3578TIP3    H132293   4.320   5.216   7.661
 3578TIP3    H232294   4.215   5.325   7.668
 3579TIP3   OH232295   3.436   4.797   0.717
 3579TIP3    H132296   3.465   4.719   0.765
 3579TIP3    H232297   3.342   4.783   0.702
 3580TIP3   OH232298   5.031   2.229   1.670
 3580TIP3    H132299   4.943   2.260   1.694
 3580TIP3    H232300   5.080   2.231   1.752
 3581TIP3   OH232301   5.903   2.247   0.775
 3581TIP3    H132302   5.842   2.175   0.790
 3581TIP3    H232303   5.988   2.213   0.805
 3582TIP3   OH232304   3.873   5.411   8.317
 3582TIP3    H132305   3.898   5.483   8.258
 3582TIP3    H232306   3.953   5.390   8.364
 3583TIP3   OH232307   4.852   0.997   1.444
 3583TIP3    H132308   4.764   1.029   1.464
 3583TIP3    H232309   4.845   0.961   1.356
 3584TIP3   OH232310   3.551   5.170   7.163
 3584TIP3    H132311   3.503   5.231   7.219
 3584TIP3    H232312   3.621   5.222   7.124
 3585TIP3   OH232313   4.249   6.220   7.881
 3585TIP3    H132314   4.294   6.289   7.831
 3585TIP3    H232315   4.284   6.228   7.969
 3586TIP3   OH232316   3.892   0.532   7.781
 3586TIP3    H132317   3.927   0.621   7.775
 3586TIP3    H232318   3.801   0.544   7.808
 3587TIP3   OH232319   5.501   6.394   6.810
 3587TIP3    H132320   5.410   6.423   6.818
 3587TIP3    H232321   5.552   6.463   6.852
 3588TIP3   OH232322   0.531   2.377   1.951
 3588TIP3    H132323   0.513   2.452   1.894
 3588TIP3    H232324   0.608   2.402   2.001
 3589TIP3   OH232325   4.631   2.152   0.081
 3589TIP3    H132326   4.623   2.212   0.155
 3589TIP3    H232327   4.541   2.128   0.060
 3590TIP3   OH232328   6.716   6.105   0.706
 3590TIP3    H132329   6.708   6.155   0.625
 3590TIP3    H232330   6.627   6.074   0.724
 3591TIP3   OH232331   5.240   1.525   1.876
 3591TIP3    H132332   5.282   1.471   1.808
 3591TIP3    H232333   5.299   1.519   1.951
 3592TIP3   OH232334   1.259   0.610   1.817
 3592TIP3    H132335   1.308   0.583   1.895
 3592TIP3    H232336   1.187   0.548   1.811
 3593TIP3   OH232337   5.803   0.144   2.350
 3593TIP3    H132338   5.837   0.218   2.300
 3593TIP3    H232339   5.787   0.076   2.284
 3594TIP3   OH232340   0.873   5.482   0.537
 3594TIP3    H132341   0.781   5.472   0.515
 3594TIP3    H232342   0.902   5.394   0.561
 3595TIP3   OH232343   6.802   0.461   2.617
 3595TIP3    H132344   6.753   0.379   2.616
 3595TIP3    H232345   6.735   0.529   2.606
 3596TIP3   OH232346   4.464   2.795   8.358
 3596TIP3    H132347   4.446   2.702   8.349
 3596TIP3    H232348   4.471   2.809   8.452
 3597TIP3   OH232349   4.486   4.695   6.844
 3597TIP3    H132350   4.487   4.635   6.769
 3597TIP3    H232351   4.432   4.652   6.910
 3598TIP3   OH232352   5.381   5.044   7.107
 3598TIP3    H132353   5.415   5.115   7.053
 3598TIP3    H232354   5.305   5.011   7.059
 3599TIP3   OH232355   0.201   1.531   2.029
 3599TIP3    H132356   0.160   1.613   2.001
 3599TIP3    H232357   0.291   1.556   2.051
 3600TIP3   OH232358   5.587   4.082   0.895
 3600TIP3    H132359   5.648   4.018   0.931
 3600TIP3    H232360   5.508   4.033   0.876
 3601TIP3   OH232361   0.971   3.366   2.052
 3601TIP3    H132362   0.995   3.274   2.058
 3601TIP3    H232363   1.045   3.413   2.089
 3602TIP3   OH232364   5.522   1.579   7.342
 3602TIP3    H132365   5.432   1.609   7.325
 3602TIP3    H232366   5.568   1.657   7.372
 3603TIP3   OH232367   2.281   0.451   1.223
 3603TIP3    H132368   2.241   0.365   1.222
 3603TIP3    H232369   2.235   0.499   1.291
 3604TIP3   OH232370   4.210   1.076   0.348
 3604TIP3    H132371   4.155   1.067   0.426
 3604TIP3    H232372   4.198   1.167   0.321
 3605TIP3   OH232373   2.934   5.872   7.356
 3605TIP3    H132374   3.026   5.876   7.382
 3605TIP3    H232375   2.903   5.788   7.390
 3606TIP3   OH232376   1.471   1.632   7.479
 3606TIP3    H132377   1.496   1.702   7.539
 3606TIP3    H232378   1.459   1.556   7.535
 3607TIP3   OH232379   4.447   3.096   0.331
 3607TIP3    H132380   4.457   3.094   0.236
 3607TIP3    H232381   4.372   3.154   0.346
 3608TIP3   OH232382   6.443   4.148   8.067
 3608TIP3    H132383   6.436   4.243   8.075
 3608TIP3    H232384   6.532   4.127   8.093
 3609TIP3   OH232385   2.932   1.201   1.560
 3609TIP3    H132386   2.935   1.293   1.589
 3609TIP3    H232387   3.015   1.164   1.593
 3610TIP3   OH232388   0.805   5.032   0.855
 3610TIP3    H132389   0.843   4.994   0.775
 3610TIP3    H232390   0.724   5.074   0.825
 3611TIP3   OH232391   6.673   4.001   6.597
 3611TIP3    H132392   6.724   3.959   6.528
 3611TIP3    H232393   6.583   3.970   6.584
 3612TIP3   OH232394   0.310   0.844   8.511
 3612TIP3    H132395   0.323   0.749   8.513
 3612TIP3    H232396   0.393   0.879   8.477
 3613TIP3   OH232397   4.131   3.795   0.967
 3613TIP3    H132398   4.091   3.717   1.005
 3613TIP3    H232399   4.071   3.866   0.989
 3614TIP3   OH232400   5.446   3.409   0.609
 3614TIP3    H132401   5.533   3.447   0.596
 3614TIP3    H232402   5.462   3.315   0.613
 3615TIP3   OH232403   1.264   0.894   7.625
 3615TIP3    H132404   1.254   0.901   7.530
 3615TIP3    H232405   1.214   0.968   7.660
 3616TIP3   OH232406   3.778   6.695   6.986
 3616TIP3    H132407   3.844   6.758   7.016
 3616TIP3    H232408   3.782   6.625   7.050
 3617TIP3   OH232409   4.280   0.606   1.645
 3617TIP3    H132410   4.344   0.633   1.711
 3617TIP3    H232411   4.325   0.622   1.561
 3618TIP3   OH232412   3.070   2.142   7.902
 3618TIP3    H132413   3.022   2.151   7.820
 3618TIP3    H232414   3.131   2.216   7.902
 3619TIP3   OH232415   4.102   6.804   7.048
 3619TIP3    H132416   4.087   6.881   7.103
 3619TIP3    H232417   4.162   6.749   7.098
 3620TIP3   OH232418   5.261   4.760   0.936
 3620TIP3    H132419   5.232   4.670   0.953
 3620TIP3    H232420   5.194   4.815   0.978
 3621TIP3   OH232421   6.530   1.760   8.296
 3621TIP3    H132422   6.574   1.766   8.211
 3621TIP3    H232423   6.598   1.776   8.360
 3622TIP3   OH232424   2.854   5.164   7.616
 3622TIP3    H132425   2.799   5.112   7.675
 3622TIP3    H232426   2.924   5.104   7.590
 3623TIP3   OH232427   2.879   6.025   6.754
 3623TIP3    H132428   2.968   6.034   6.720
 3623TIP3    H232429   2.842   5.952   6.704
 3624TIP3   OH232430   6.312   2.782   7.694
 3624TIP3    H132431   6.308   2.787   7.599
 3624TIP3    H232432   6.234   2.827   7.724
 3625TIP3   OH232433   0.351   4.484   1.523
 3625TIP3    H132434   0.416   4.535   1.571
 3625TIP3    H232435   0.345   4.526   1.437
 3626TIP3   OH232436   6.690   2.021   6.702
 3626TIP3    H132437   6.681   1.940   6.651
 3626TIP3    H232438   6.693   1.991   6.793
 3627TIP3   OH232439   0.690   4.731   0.878
 3627TIP3    H132440   0.638   4.673   0.822
 3627TIP3    H232441   0.636   4.809   0.889
 3628TIP3   OH232442   6.349   0.973   7.047
 3628TIP3    H132443   6.336   0.970   7.142
 3628TIP3    H232444   6.393   1.056   7.032
 3629TIP3   OH232445   4.095   2.186   0.656
 3629TIP3    H132446   4.057   2.158   0.740
 3629TIP3    H232447   4.090   2.109   0.600
 3630TIP3   OH232448   3.773   3.301   1.770
 3630TIP3    H132449   3.823   3.221   1.789
 3630TIP3    H232450   3.736   3.327   1.854
 3631TIP3   OH232451   2.112   0.794   0.553
 3631TIP3    H132452   2.144   0.869   0.505
 3631TIP3    H232453   2.168   0.721   0.526
 3632TIP3   OH232454   2.490   0.122   1.239
 3632TIP3    H132455   2.490   0.065   1.163
 3632TIP3    H232456   2.581   0.152   1.247
 3633TIP3   OH232457   2.463   0.567   0.275
 3633TIP3    H132458   2.435   0.653   0.243
 3633TIP3    H232459   2.557   0.564   0.254
 3634TIP3   OH232460   3.299   1.359   0.019
 3634TIP3    H132461   3.270   1.442   0.057
 3634TIP3    H232462   3.361   1.324   0.083
 3635TIP3   OH232463   6.345   4.106   1.498
 3635TIP3    H132464   6.260   4.062   1.504
 3635TIP3    H232465   6.368   4.126   1.589
 3636TIP3   OH232466   4.299   3.340   7.675
 3636TIP3    H132467   4.236   3.383   7.733
 3636TIP3    H232468   4.358   3.293   7.733
 3637TIP3   OH232469   5.073   0.361   1.842
 3637TIP3    H132470   5.083   0.301   1.768
 3637TIP3    H232471   4.980   0.380   1.846
 3638TIP3   OH232472   3.052   1.691   6.256
 3638TIP3    H132473   3.018   1.746   6.327
 3638TIP3    H232474   3.081   1.611   6.299
 3639TIP3   OH232475   0.991   0.449   7.425
 3639TIP3    H132476   1.049   0.526   7.420
 3639TIP3    H232477   0.920   0.477   7.482
 3640TIP3   OH232478   5.639   0.848   1.973
 3640TIP3    H132479   5.657   0.929   1.924
 3640TIP3    H232480   5.615   0.877   2.061
 3641TIP3   OH232481   1.829   2.254   2.296
 3641TIP3    H132482   1.778   2.321   2.251
 3641TIP3    H232483   1.817   2.175   2.244
 3642TIP3   OH232484   6.346   6.489   1.271
 3642TIP3    H132485   6.363   6.491   1.365
 3642TIP3    H232486   6.285   6.416   1.259
 3643TIP3   OH232487   6.603   1.121   1.014
 3643TIP3    H132488   6.685   1.157   0.980
 3643TIP3    H232489   6.630   1.061   1.083
 3644TIP3   OH232490   4.488   4.902   0.569
 3644TIP3    H132491   4.505   4.932   0.480
 3644TIP3    H232492   4.485   4.982   0.621
 3645TIP3   OH232493   3.142   6.470   1.999
 3645TIP3    H132494   3.070   6.498   1.943
 3645TIP3    H232495   3.191   6.550   2.017
 3646TIP3   OH232496   6.284   6.609   8.160
 3646TIP3    H132497   6.334   6.542   8.115
 3646TIP3    H232498   6.233   6.562   8.226
 3647TIP3   OH232499   1.410   4.342   8.248
 3647TIP3    H132500   1.437   4.258   8.287
 3647TIP3    H232501   1.487   4.398   8.257
 3648TIP3   OH232502   0.630   5.474   6.497
 3648TIP3    H132503   0.568   5.407   6.527
 3648TIP3    H232504   0.578   5.555   6.493
 3649TIP3   OH232505   4.242   3.766   7.225
 3649TIP3    H132506   4.269   3.842   7.173
 3649TIP3    H232507   4.322   3.716   7.237
 3650TIP3   OH232508   4.678   4.437   7.042
 3650TIP3    H132509   4.589   4.463   7.067
 3650TIP3    H232510   4.725   4.520   7.035
 3651TIP3   OH232511   5.125   2.284   0.420
 3651TIP3    H132512   5.032   2.262   0.410
 3651TIP3    H232513   5.143   2.346   0.349
 3652TIP3   OH232514   1.790   4.250   0.645
 3652TIP3    H132515   1.700   4.233   0.618
 3652TIP3    H232516   1.822   4.165   0.678
 3653TIP3   OH232517   4.904   5.306   1.464
 3653TIP3    H132518   4.830   5.330   1.408
 3653TIP3    H232519   4.977   5.293   1.404
 3654TIP3   OH232520   4.383   5.574   6.782
 3654TIP3    H132521   4.376   5.663   6.816
 3654TIP3    H232522   4.336   5.577   6.699
 3655TIP3   OH232523   6.060   1.847   7.701
 3655TIP3    H132524   6.072   1.934   7.663
 3655TIP3    H232525   5.985   1.857   7.760
 3656TIP3   OH232526   2.116   2.085   2.223
 3656TIP3    H132527   2.029   2.082   2.183
 3656TIP3    H232528   2.172   2.125   2.157
 3657TIP3   OH232529   2.002   4.799   1.583
 3657TIP3    H132530   2.076   4.756   1.625
 3657TIP3    H232531   1.925   4.751   1.614
 3658TIP3   OH232532   4.178   5.586   2.188
 3658TIP3    H132533   4.194   5.492   2.177
 3658TIP3    H232534   4.157   5.596   2.281
 3659TIP3   OH232535   6.132   6.307   6.844
 3659TIP3    H132536   6.195   6.237   6.862
 3659TIP3    H232537   6.110   6.296   6.752
 3660TIP3   OH232538   1.486   5.940   7.676
 3660TIP3    H132539   1.500   5.982   7.591
 3660TIP3    H232540   1.549   5.868   7.678
 3661TIP3   OH232541   3.067   6.181   8.448
 3661TIP3    H132542   3.106   6.241   8.384
 3661TIP3    H232543   3.136   6.168   8.513
 3662TIP3   OH232544   4.530   2.958   0.044
 3662TIP3    H132545   4.619   2.935   0.071
 3662TIP3    H232546   4.473   2.903   0.096
 3663TIP3   OH232547   2.669   3.199   6.961
 3663TIP3    H132548   2.714   3.224   6.879
 3663TIP3    H232549   2.712   3.118   6.988
 3664TIP3   OH232550   0.908   6.342   1.903
 3664TIP3    H132551   0.999   6.367   1.914
 3664TIP3    H232552   0.888   6.290   1.981
 3665TIP3   OH232553   4.827   0.017   0.383
 3665TIP3    H132554   4.779   0.084   0.333
 3665TIP3    H232555   4.846   0.059   0.466
 3666TIP3   OH232556   4.187   2.445   1.007
 3666TIP3    H132557   4.248   2.436   0.934
 3666TIP3    H232558   4.130   2.517   0.981
 3667TIP3   OH232559   1.864   3.132   1.628
 3667TIP3    H132560   1.956   3.154   1.614
 3667TIP3    H232561   1.853   3.134   1.723
 3668TIP3   OH232562   6.736   5.450   7.530
 3668TIP3    H132563   6.662   5.397   7.558
 3668TIP3    H232564   6.812   5.408   7.570
 3669TIP3   OH232565   3.837   0.417   7.370
 3669TIP3    H132566   3.916   0.471   7.380
 3669TIP3    H232567   3.805   0.439   7.282
 3670TIP3   OH232568   2.805   6.343   0.272
 3670TIP3    H132569   2.785   6.262   0.319
 3670TIP3    H232570   2.750   6.410   0.315
 3671TIP3   OH232571   4.047   2.386   2.282
 3671TIP3    H132572   4.060   2.299   2.319
 3671TIP3    H232573   4.131   2.406   2.239
 3672TIP3   OH232574   0.866   5.142   1.797
 3672TIP3    H132575   0.906   5.055   1.809
 3672TIP3    H232576   0.794   5.144   1.860
 3673TIP3   OH232577   6.592   0.673   7.110
 3673TIP3    H132578   6.551   0.615   7.174
 3673TIP3    H232579   6.673   0.701   7.153
 3674TIP3   OH232580   1.416   2.386   1.225
 3674TIP3    H132581   1.452   2.406   1.312
 3674TIP3    H232582   1.343   2.446   1.215
 3675TIP3   OH232583   0.171   4.042   1.653
 3675TIP3    H132584   0.158   4.088   1.736
 3675TIP3    H232585   0.166   3.949   1.675
 3676TIP3   OH232586   6.621   0.966   1.418
 3676TIP3    H132587   6.667   1.038   1.376
 3676TIP3    H232588   6.640   0.977   1.512
 3677TIP3   OH232589   4.072   4.472   1.379
 3677TIP3    H132590   4.091   4.518   1.461
 3677TIP3    H232591   3.996   4.417   1.401
 3678TIP3   OH232592   5.562   4.208   7.634
 3678TIP3    H132593   5.520   4.122   7.630
 3678TIP3    H232594   5.495   4.269   7.604
 3679TIP3   OH232595   4.223   0.994   1.646
 3679TIP3    H132596   4.187   1.072   1.689
 3679TIP3    H232597   4.225   0.927   1.715
 3680TIP3   OH232598   5.801   4.614   1.216
 3680TIP3    H132599   5.772   4.523   1.209
 3680TIP3    H232600   5.851   4.629   1.136
 3681TIP3   OH232601   2.799   3.087   7.540
 3681TIP3    H132602   2.717   3.097   7.493
 3681TIP3    H232603   2.835   3.003   7.510
 3682TIP3   OH232604   4.634   1.468   7.083
 3682TIP3    H132605   4.667   1.516   7.159
 3682TIP3    H232606   4.697   1.488   7.014
 3683TIP3   OH232607   5.632   3.728   0.971
 3683TIP3    H132608   5.696   3.765   1.031
 3683TIP3    H232609   5.663   3.751   0.884
 3684TIP3   OH232610   3.287   6.656   0.872
 3684TIP3    H132611   3.260   6.694   0.956
 3684TIP3    H232612   3.224   6.586   0.857
 3685TIP3   OH232613   3.952   4.399   7.243
 3685TIP3    H132614   3.858   4.404   7.263
 3685TIP3    H232615   3.970   4.305   7.236
 3686TIP3   OH232616   4.414   3.984   2.114
 3686TIP3    H132617   4.458   4.069   2.106
 3686TIP3    H232618   4.322   4.003   2.093
 3687TIP3   OH232619   1.619   1.656   1.337
 3687TIP3    H132620   1.704   1.619   1.361
 3687TIP3    H232621   1.640   1.739   1.295
 3688TIP3   OH232622   3.996   0.087   0.823
 3688TIP3    H132623   3.994   0.073   0.918
 3688TIP3    H232624   4.064   0.153   0.810
 3689TIP3   OH232625   6.004   2.192   1.969
 3689TIP3    H132626   6.054   2.143   2.035
 3689TIP3    H232627   6.019   2.283   1.991
 3690TIP3   OH232628   3.340   4.783   8.547
 3690TIP3    H132629   3.259   4.826   0.007
 3690TIP3    H232630   3.320   4.746   8.461
 3691TIP3   OH232631   1.720   2.502   1.087
 3691TIP3    H132632   1.726   2.493   1.182
 3691TIP3    H232633   1.805   2.470   1.055
 3692TIP3   OH232634   0.313   5.243   0.322
 3692TIP3    H132635   0.380   5.176   0.305
 3692TIP3    H232636   0.317   5.300   0.245
 3693TIP3   OH232637   0.462   1.015   1.685
 3693TIP3    H132638   0.378   1.044   1.649
 3693TIP3    H232639   0.483   1.079   1.753
 3694TIP3   OH232640   3.248   5.494   0.781
 3694TIP3    H132641   3.220   5.526   0.696
 3694TIP3    H232642   3.304   5.419   0.761
 3695TIP3   OH232643   4.791   2.561   2.255
 3695TIP3    H132644   4.806   2.633   2.194
 3695TIP3    H232645   4.835   2.587   2.336
 3696TIP3   OH232646   3.973   1.326   0.131
 3696TIP3    H132647   3.953   1.415   0.103
 3696TIP3    H232648   3.940   1.321   0.221
 3697TIP3   OH232649   3.934   1.962   8.218
 3697TIP3    H132650   3.948   2.044   8.265
 3697TIP3    H232651   3.890   1.988   8.137
 3698TIP3   OH232652   2.896   6.554   1.937
 3698TIP3    H132653   2.891   6.598   2.022
 3698TIP3    H232654   2.806   6.533   1.915
 3699TIP3   OH232655   0.629   0.914   7.470
 3699TIP3    H132656   0.644   0.948   7.382
 3699TIP3    H232657   0.543   0.950   7.494
 3700TIP3   OH232658   2.440   4.778   6.332
 3700TIP3    H132659   2.532   4.784   6.356
 3700TIP3    H232660   2.393   4.779   6.415
 3701TIP3   OH232661   5.526   4.648   0.326
 3701TIP3    H132662   5.488   4.736   0.327
 3701TIP3    H232663   5.619   4.662   0.309
 3702TIP3   OH232664   6.156   6.335   1.740
 3702TIP3    H132665   6.192   6.247   1.727
 3702TIP3    H232666   6.100   6.327   1.817
 3703TIP3   OH232667   6.423   6.315   6.568
 3703TIP3    H132668   6.333   6.307   6.598
 3703TIP3    H232669   6.440   6.233   6.521
 3704TIP3   OH232670   3.275   5.583   7.253
 3704TIP3    H132671   3.293   5.494   7.223
 3704TIP3    H232672   3.248   5.573   7.344
 3705TIP3   OH232673   1.727   5.735   1.592
 3705TIP3    H132674   1.668   5.660   1.584
 3705TIP3    H232675   1.677   5.810   1.559
 3706TIP3   OH232676   2.051   4.682   1.288
 3706TIP3    H132677   2.016   4.758   1.240
 3706TIP3    H232678   2.129   4.716   1.333
 3707TIP3   OH232679   2.892   4.918   0.300
 3707TIP3    H132680   2.953   4.973   0.250
 3707TIP3    H232681   2.949   4.867   0.358
 3708TIP3   OH232682   0.251   0.615   6.901
 3708TIP3    H132683   0.219   0.571   6.822
 3708TIP3    H232684   0.253   0.546   6.968
 3709TIP3   OH232685   0.856   0.089   1.396
 3709TIP3    H132686   0.769   0.085   1.356
 3709TIP3    H232687   0.848   0.156   1.464
 3710TIP3   OH232688   1.460   1.946   0.840
 3710TIP3    H132689   1.550   1.978   0.849
 3710TIP3    H232690   1.424   1.997   0.768
 3711TIP3   OH232691   0.684   3.723   8.191
 3711TIP3    H132692   0.626   3.681   8.254
 3711TIP3    H232693   0.761   3.748   8.243
 3712TIP3   OH232694   1.365   3.394   8.528
 3712TIP3    H132695   1.398   3.319   8.479
 3712TIP3    H232696   1.418   3.395   0.040
 3713TIP3   OH232697   5.614   6.370   0.593
 3713TIP3    H132698   5.580   6.385   0.505
 3713TIP3    H232699   5.705   6.344   0.579
 3714TIP3   OH232700   6.450   6.430   7.468
 3714TIP3    H132701   6.497   6.359   7.511
 3714TIP3    H232702   6.515   6.471   7.411
 3715TIP3   OH232703   6.316   6.895   8.102
 3715TIP3    H132704   6.410   6.885   8.095
 3715TIP3    H232705   6.284   6.808   8.128
 3716TIP3   OH232706   0.556   3.884   8.433
 3716TIP3    H132707   0.644   3.852   8.415
 3716TIP3    H232708   0.568   3.974   8.463
 3717TIP3   OH232709   3.603   5.913   1.915
 3717TIP3    H132710   3.666   5.842   1.928
 3717TIP3    H232711   3.607   5.963   1.997
 3718TIP3   OH232712   1.828   6.463   1.006
 3718TIP3    H132713   1.903   6.509   0.967
 3718TIP3    H232714   1.859   6.374   1.020
 3719TIP3   OH232715   3.139   5.785   1.246
 3719TIP3    H132716   3.123   5.714   1.308
 3719TIP3    H232717   3.130   5.745   1.160
 3720TIP3   OH232718   5.850   6.553   7.473
 3720TIP3    H132719   5.812   6.571   7.387
 3720TIP3    H232720   5.904   6.476   7.460
 3721TIP3   OH232721   2.359   0.320   8.074
 3721TIP3    H132722   2.454   0.320   8.089
 3721TIP3    H232723   2.323   0.367   8.149
 3722TIP3   OH232724   6.533   0.027   2.540
 3722TIP3    H132725   6.496   0.094   2.597
 3722TIP3    H232726   6.458   6.886   2.510
 3723TIP3   OH232727   6.155   5.464   7.953
 3723TIP3    H132728   6.081   5.419   7.993
 3723TIP3    H232729   6.120   5.550   7.927
 3724TIP3   OH232730   4.695   2.588   1.194
 3724TIP3    H132731   4.716   2.549   1.279
 3724TIP3    H232732   4.696   2.514   1.133
 3725TIP3   OH232733   4.935   3.029   7.133
 3725TIP3    H132734   5.013   3.062   7.089
 3725TIP3    H232735   4.862   3.059   7.079
 3726TIP3   OH232736   2.310   1.476   0.857
 3726TIP3    H132737   2.308   1.571   0.865
 3726TIP3    H232738   2.303   1.445   0.947
 3727TIP3   OH232739   4.513   2.659   0.302
 3727TIP3    H132740   4.444   2.724   0.311
 3727TIP3    H232741   4.567   2.671   0.381
 3728TIP3   OH232742   5.842   0.812   2.295
 3728TIP3    H132743   5.830   0.728   2.340
 3728TIP3    H232744   5.753   0.847   2.285
 3729TIP3   OH232745   4.479   0.062   7.249
 3729TIP3    H132746   4.533   0.120   7.302
 3729TIP3    H232747   4.446   6.906   7.310
 3730TIP3   OH232748   1.151   1.310   7.546
 3730TIP3    H132749   1.069   1.262   7.556
 3730TIP3    H232750   1.125   1.395   7.509
 3731TIP3   OH232751   4.827   1.845   0.857
 3731TIP3    H132752   4.838   1.828   0.950
 3731TIP3    H232753   4.735   1.822   0.839
 3732TIP3   OH232754   4.212   6.498   6.020
 3732TIP3    H132755   4.206   6.441   6.097
 3732TIP3    H232756   4.296   6.474   5.980
 3733TIP3   OH232757   5.267   4.020   0.357
 3733TIP3    H132758   5.251   4.112   0.379
 3733TIP3    H232759   5.291   4.022   0.264
 3734TIP3   OH232760   5.341   4.171   7.265
 3734TIP3    H132761   5.427   4.143   7.235
 3734TIP3    H232762   5.316   4.107   7.331
 3735TIP3   OH232763   1.231   2.243   7.955
 3735TIP3    H132764   1.235   2.339   7.963
 3735TIP3    H232765   1.322   2.215   7.965
 3736TIP3   OH232766   2.832   4.380   1.243
 3736TIP3    H132767   2.870   4.292   1.248
 3736TIP3    H232768   2.800   4.397   1.332
 3737TIP3   OH232769   4.457   0.405   2.642
 3737TIP3    H132770   4.402   0.436   2.713
 3737TIP3    H232771   4.438   0.465   2.569
 3738TIP3   OH232772   5.859   2.481   0.971
 3738TIP3    H132773   5.922   2.536   0.924
 3738TIP3    H232774   5.883   2.391   0.947
 3739TIP3   OH232775   4.569   4.096   1.796
 3739TIP3    H132776   4.533   4.106   1.885
 3739TIP3    H232777   4.585   4.002   1.788
 3740TIP3   OH232778   4.507   5.248   6.721
 3740TIP3    H132779   4.553   5.166   6.703
 3740TIP3    H232780   4.415   5.222   6.727
 3741TIP3   OH232781   3.206   0.926   8.494
 3741TIP3    H132782   3.149   0.914   0.003
 3741TIP3    H232783   3.185   0.853   8.436
 3742TIP3   OH232784   6.660   6.273   8.536
 3742TIP3    H132785   6.658   6.338   0.039
 3742TIP3    H232786   6.621   6.317   8.461
 3743TIP3   OH232787   1.111   3.775   1.183
 3743TIP3    H132788   1.186   3.806   1.131
 3743TIP3    H232789   1.119   3.822   1.266
 3744TIP3   OH232790   3.880   3.961   7.533
 3744TIP3    H132791   3.957   3.914   7.499
 3744TIP3    H232792   3.814   3.948   7.465
 3745TIP3   OH232793   4.409   6.483   0.112
 3745TIP3    H132794   4.497   6.446   0.105
 3745TIP3    H232795   4.422   6.572   0.144
 3746TIP3   OH232796   3.956   3.256   0.437
 3746TIP3    H132797   3.885   3.195   0.459
 3746TIP3    H232798   3.951   3.324   0.504
 3747TIP3   OH232799   4.772   0.676   6.301
 3747TIP3    H132800   4.756   0.601   6.244
 3747TIP3    H232801   4.854   0.656   6.345
 3748TIP3   OH232802   0.245   4.355   1.015
 3748TIP3    H132803   0.216   4.443   0.993
 3748TIP3    H232804   0.223   4.345   1.108
 3749TIP3   OH232805   6.661   4.267   6.616
 3749TIP3    H132806   6.588   4.292   6.560
 3749TIP3    H232807   6.657   4.172   6.621
 3750TIP3   OH232808   5.620   0.412   8.503
 3750TIP3    H132809   5.550   0.438   8.563
 3750TIP3    H232810   5.653   0.330   8.539
 3751TIP3   OH232811   5.560   6.242   7.366
 3751TIP3    H132812   5.495   6.299   7.406
 3751TIP3    H232813   5.584   6.288   7.285
 3752TIP3   OH232814   4.836   0.709   0.682
 3752TIP3    H132815   4.902   0.741   0.744
 3752TIP3    H232816   4.878   0.716   0.596
 3753TIP3   OH232817   2.835   2.215   1.334
 3753TIP3    H132818   2.927   2.191   1.338
 3753TIP3    H232819   2.791   2.149   1.388
 3754TIP3   OH232820   6.483   3.998   1.167
 3754TIP3    H132821   6.407   4.032   1.214
 3754TIP3    H232822   6.449   3.972   1.082
 3755TIP3   OH232823   0.222   3.497   1.767
 3755TIP3    H132824   0.234   3.522   1.859
 3755TIP3    H232825   0.234   3.402   1.766
 3756TIP3   OH232826   1.901   1.876   1.459
 3756TIP3    H132827   1.828   1.923   1.419
 3756TIP3    H232828   1.893   1.895   1.552
 3757TIP3   OH232829   3.215   2.763   7.884
 3757TIP3    H132830   3.145   2.711   7.925
 3757TIP3    H232831   3.176   2.798   7.805
 3758TIP3   OH232832   4.008   5.673   7.214
 3758TIP3    H132833   4.020   5.584   7.180
 3758TIP3    H232834   3.929   5.704   7.171
 3759TIP3   OH232835   5.905   6.756   7.649
 3759TIP3    H132836   5.927   6.740   7.741
 3759TIP3    H232837   5.895   6.669   7.611
 3760TIP3   OH232838   4.987   6.216   7.773
 3760TIP3    H132839   4.922   6.271   7.729
 3760TIP3    H232840   5.071   6.255   7.749
 3761TIP3   OH232841   4.345   4.384   6.876
 3761TIP3    H132842   4.397   4.413   6.801
 3761TIP3    H232843   4.339   4.289   6.867
 3762TIP3   OH232844   0.090   2.237   0.379
 3762TIP3    H132845   0.030   2.311   0.388
 3762TIP3    H232846   0.167   2.262   0.428
 3763TIP3   OH232847   0.243   4.064   7.742
 3763TIP3    H132848   0.176   4.132   7.743
 3763TIP3    H232849   0.261   4.046   7.834
 3764TIP3   OH232850   5.912   4.380   8.404
 3764TIP3    H132851   5.931   4.390   8.497
 3764TIP3    H232852   5.996   4.396   8.361
 3765TIP3   OH232853   4.828   0.103   6.644
 3765TIP3    H132854   4.735   0.123   6.656
 3765TIP3    H232855   4.864   0.183   6.605
 3766TIP3   OH232856   6.613   1.745   6.992
 3766TIP3    H132857   6.614   1.675   7.058
 3766TIP3    H232858   6.552   1.713   6.925
 3767TIP3   OH232859   0.431   1.272   7.026
 3767TIP3    H132860   0.344   1.297   6.996
 3767TIP3    H232861   0.416   1.223   7.107
 3768TIP3   OH232862   5.292   5.207   6.528
 3768TIP3    H132863   5.330   5.126   6.493
 3768TIP3    H232864   5.201   5.205   6.500
 3769TIP3   OH232865   2.714   3.223   1.233
 3769TIP3    H132866   2.723   3.251   1.142
 3769TIP3    H232867   2.663   3.292   1.274
 3770TIP3   OH232868   6.143   4.447   8.280
 3770TIP3    H132869   6.215   4.506   8.303
 3770TIP3    H232870   6.148   4.440   8.184
 3771TIP3   OH232871   3.942   5.228   8.082
 3771TIP3    H132872   3.890   5.233   8.162
 3771TIP3    H232873   3.889   5.174   8.022
 3772TIP3   OH232874   3.322   0.598   0.039
 3772TIP3    H132875   3.388   0.652   0.083
 3772TIP3    H232876   3.347   0.600   8.514
 3773TIP3   OH232877   1.007   3.353   8.210
 3773TIP3    H132878   1.101   3.351   8.191
 3773TIP3    H232879   0.975   3.270   8.176
 3774TIP3   OH232880   3.191   6.516   1.681
 3774TIP3    H132881   3.219   6.577   1.750
 3774TIP3    H232882   3.234   6.548   1.602
 3775TIP3   OH232883   5.796   0.416   7.477
 3775TIP3    H132884   5.804   0.323   7.456
 3775TIP3    H232885   5.724   0.421   7.540
 3776TIP3   OH232886   5.463   4.811   1.180
 3776TIP3    H132887   5.435   4.720   1.176
 3776TIP3    H232888   5.517   4.824   1.102
 3777TIP3   OH232889   2.505   2.650   0.922
 3777TIP3    H132890   2.487   2.740   0.950
 3777TIP3    H232891   2.546   2.608   0.997
 3778TIP3   OH232892   6.240   1.098   7.303
 3778TIP3    H132893   6.168   1.083   7.363
 3778TIP3    H232894   6.318   1.102   7.359
 3779TIP3   OH232895   6.366   2.469   1.859
 3779TIP3    H132896   6.372   2.489   1.952
 3779TIP3    H232897   6.444   2.415   1.841
 3780TIP3   OH232898   0.020   2.947   6.664
 3780TIP3    H132899   0.006   2.860   6.703
 3780TIP3    H232900   6.856   3.000   6.696
 3781TIP3   OH232901   4.054   1.741   8.143
 3781TIP3    H132902   4.064   1.663   8.198
 3781TIP3    H232903   4.008   1.804   8.199
 3782TIP3   OH232904   3.498   4.597   8.108
 3782TIP3    H132905   3.554   4.532   8.066
 3782TIP3    H232906   3.488   4.565   8.197
 3783TIP3   OH232907   6.137   3.480   7.352
 3783TIP3    H132908   6.049   3.496   7.317
 3783TIP3    H232909   6.191   3.547   7.311
 3784TIP3   OH232910   2.416   0.908   7.260
 3784TIP3    H132911   2.448   0.984   7.211
 3784TIP3    H232912   2.338   0.881   7.212
 3785TIP3   OH232913   6.803   6.317   6.980
 3785TIP3    H132914   6.844   6.330   6.895
 3785TIP3    H232915   6.871   6.274   7.033
 3786TIP3   OH232916   5.485   4.566   0.986
 3786TIP3    H132917   5.458   4.485   0.941
 3786TIP3    H232918   5.535   4.614   0.920
 3787TIP3   OH232919   6.431   2.546   0.858
 3787TIP3    H132920   6.476   2.475   0.813
 3787TIP3    H232921   6.379   2.589   0.789
 3788TIP3   OH232922   4.943   4.752   0.792
 3788TIP3    H132923   5.015   4.711   0.841
 3788TIP3    H232924   4.890   4.678   0.761
 3789TIP3   OH232925   1.074   6.765   1.101
 3789TIP3    H132926   1.104   6.706   1.171
 3789TIP3    H232927   1.141   6.757   1.033
 3790TIP3   OH232928   6.880   1.439   1.154
 3790TIP3    H132929   6.861   1.351   1.122
 3790TIP3    H232930   0.024   1.479   1.085
 3791TIP3   OH232931   6.738   5.096   6.559
 3791TIP3    H132932   6.708   5.139   6.479
 3791TIP3    H232933   6.801   5.031   6.529
 3792TIP3   OH232934   5.734   3.996   2.120
 3792TIP3    H132935   5.652   3.983   2.071
 3792TIP3    H232936   5.803   3.971   2.058
 3793TIP3   OH232937   1.711   3.367   8.525
 3793TIP3    H132938   1.749   3.285   8.495
 3793TIP3    H232939   1.687   3.351   0.050
 3794TIP3   OH232940   2.133   2.078   6.408
 3794TIP3    H132941   2.159   1.996   6.450
 3794TIP3    H232942   2.046   2.060   6.372
 3795TIP3   OH232943   5.873   6.073   1.593
 3795TIP3    H132944   5.888   5.978   1.592
 3795TIP3    H232945   5.823   6.091   1.514
 3796TIP3   OH232946   3.370   1.705   1.512
 3796TIP3    H132947   3.319   1.783   1.533
 3796TIP3    H232948   3.425   1.691   1.590
 3797TIP3   OH232949   0.442   3.817   1.624
 3797TIP3    H132950   0.356   3.782   1.601
 3797TIP3    H232951   0.486   3.830   1.539
 3798TIP3   OH232952   3.531   6.566   2.317
 3798TIP3    H132953   3.560   6.476   2.333
 3798TIP3    H232954   3.544   6.611   2.400
 3799TIP3   OH232955   1.112   5.149   6.545
 3799TIP3    H132956   1.066   5.160   6.628
 3799TIP3    H232957   1.122   5.239   6.512
 3800TIP3   OH232958   4.779   3.441   8.110
 3800TIP3    H132959   4.817   3.529   8.103
 3800TIP3    H232960   4.854   3.384   8.128
 3801TIP3   OH232961   5.296   0.315   8.510
 3801TIP3    H132962   5.361   0.248   8.491
 3801TIP3    H232963   5.335   0.367   0.014
 3802TIP3   OH232964   4.660   2.306   7.326
 3802TIP3    H132965   4.607   2.362   7.382
 3802TIP3    H232966   4.615   2.221   7.326
 3803TIP3   OH232967   5.074   5.550   6.855
 3803TIP3    H132968   5.055   5.527   6.764
 3803TIP3    H232969   5.152   5.500   6.877
 3804TIP3   OH232970   2.009   1.648   7.101
 3804TIP3    H132971   1.999   1.651   7.006
 3804TIP3    H232972   2.019   1.739   7.127
 3805TIP3   OH232973   6.805   0.232   1.323
 3805TIP3    H132974   6.786   0.173   1.249
 3805TIP3    H232975   6.787   0.179   1.401
 3806TIP3   OH232976   5.769   1.596   0.896
 3806TIP3    H132977   5.848   1.544   0.882
 3806TIP3    H232978   5.789   1.682   0.857
 3807TIP3   OH232979   4.541   0.803   0.682
 3807TIP3    H132980   4.635   0.792   0.699
 3807TIP3    H232981   4.526   0.756   0.600
 3808TIP3   OH232982   6.230   6.517   0.624
 3808TIP3    H132983   6.302   6.559   0.576
 3808TIP3    H232984   6.250   6.534   0.716
 3809TIP3   OH232985   4.201   4.076   7.561
 3809TIP3    H132986   4.286   4.091   7.520
 3809TIP3    H232987   4.213   3.997   7.614
 3810TIP3   OH232988   2.747   6.603   1.066
 3810TIP3    H132989   2.770   6.551   1.143
 3810TIP3    H232990   2.827   6.652   1.045
 3811TIP3   OH232991   2.037   3.628   7.105
 3811TIP3    H132992   2.084   3.670   7.033
 3811TIP3    H232993   1.944   3.648   7.088
 3812TIP3   OH232994   3.621   3.458   8.017
 3812TIP3    H132995   3.552   3.405   8.057
 3812TIP3    H232996   3.646   3.410   7.938
 3813TIP3   OH232997   6.316   5.079   8.332
 3813TIP3    H132998   6.304   5.031   8.414
 3813TIP3    H232999   6.273   5.026   8.265
 3814TIP3   OH233000   1.098   0.305   0.123
 3814TIP3    H133001   1.116   0.385   0.073
 3814TIP3    H233002   1.105   0.332   0.214
 3815TIP3   OH233003   3.611   6.754   8.288
 3815TIP3    H133004   3.606   6.839   8.244
 3815TIP3    H233005   3.593   6.774   8.380
 3816TIP3   OH233006   2.940   6.540   6.931
 3816TIP3    H133007   2.922   6.487   7.009
 3816TIP3    H233008   2.946   6.476   6.860
 3817TIP3   OH233009   3.363   2.455   1.555
 3817TIP3    H133010   3.376   2.533   1.608
 3817TIP3    H233011   3.292   2.408   1.598
 3818TIP3   OH233012   5.361   5.806   7.798
 3818TIP3    H133013   5.277   5.803   7.752
 3818TIP3    H233014   5.413   5.736   7.759
 3819TIP3   OH233015   4.670   2.382   1.004
 3819TIP3    H133016   4.742   2.336   0.960
 3819TIP3    H233017   4.640   2.320   1.071
 3820TIP3   OH233018   2.446   1.380   1.592
 3820TIP3    H133019   2.357   1.398   1.624
 3820TIP3    H233020   2.487   1.330   1.663
 3821TIP3   OH233021   1.771   2.084   7.875
 3821TIP3    H133022   1.784   2.177   7.894
 3821TIP3    H233023   1.842   2.062   7.815
 3822TIP3   OH233024   1.092   5.886   6.999
 3822TIP3    H133025   1.061   5.976   7.014
 3822TIP3    H233026   1.160   5.873   7.064
 3823TIP3   OH233027   1.299   4.080   2.271
 3823TIP3    H133028   1.373   4.141   2.278
 3823TIP3    H233029   1.280   4.076   2.177
 3824TIP3   OH233030   4.580   6.368   1.213
 3824TIP3    H133031   4.646   6.429   1.247
 3824TIP3    H233032   4.522   6.352   1.288
 3825TIP3   OH233033   6.854   5.444   0.980
 3825TIP3    H133034   6.826   5.444   1.072
 3825TIP3    H233035   6.775   5.469   0.932
 3826TIP3   OH233036   6.774   0.259   1.823
 3826TIP3    H133037   6.723   0.339   1.814
 3826TIP3    H233038   6.709   0.189   1.828
 3827TIP3   OH233039   3.185   5.541   0.214
 3827TIP3    H133040   3.209   5.475   0.150
 3827TIP3    H233041   3.206   5.624   0.172
 3828TIP3   OH233042   6.735   4.131   8.099
 3828TIP3    H133043   6.762   4.161   8.186
 3828TIP3    H233044   6.763   4.200   8.040
 3829TIP3   OH233045   4.447   5.891   8.353
 3829TIP3    H133046   4.414   5.871   8.265
 3829TIP3    H233047   4.376   5.939   8.395
 3830TIP3   OH233048   0.784   5.758   1.806
 3830TIP3    H133049   0.862   5.807   1.779
 3830TIP3    H233050   0.741   5.815   1.870
 3831TIP3   OH233051   4.328   2.519   8.332
 3831TIP3    H133052   4.326   2.446   8.270
 3831TIP3    H233053   4.262   2.580   8.299
 3832TIP3   OH233054   6.315   1.623   0.296
 3832TIP3    H133055   6.252   1.553   0.312
 3832TIP3    H233056   6.393   1.598   0.345
 3833TIP3   OH233057   4.983   0.003   6.239
 3833TIP3    H133058   4.899   6.896   6.198
 3833TIP3    H233059   4.967   6.900   6.333
 3834TIP3   OH233060   2.250   6.522   0.773
 3834TIP3    H133061   2.285   6.455   0.715
 3834TIP3    H233062   2.304   6.600   0.755
 3835TIP3   OH233063   2.924   2.169   1.729
 3835TIP3    H133064   2.972   2.121   1.795
 3835TIP3    H233065   2.832   2.146   1.744
 3836TIP3   OH233066   6.884   2.661   6.748
 3836TIP3    H133067   6.793   2.635   6.738
 3836TIP3    H233068   0.022   2.606   6.686
 3837TIP3   OH233069   4.372   4.622   0.422
 3837TIP3    H133070   4.430   4.662   0.357
 3837TIP3    H233071   4.345   4.695   0.478
 3838TIP3   OH233072   2.674   1.684   6.951
 3838TIP3    H133073   2.590   1.642   6.938
 3838TIP3    H233074   2.710   1.696   6.863
 3839TIP3   OH233075   2.359   4.592   0.230
 3839TIP3    H133076   2.270   4.628   0.223
 3839TIP3    H233077   2.416   4.663   0.200
 3840TIP3   OH233078   0.032   5.334   1.294
 3840TIP3    H133079   0.001   5.265   1.236
 3840TIP3    H233080   0.024   5.296   1.382
 3841TIP3   OH233081   6.349   0.542   7.147
 3841TIP3    H133082   6.313   0.529   7.234
 3841TIP3    H233083   6.302   0.480   7.091
 3842TIP3   OH233084   2.304   0.387   1.519
 3842TIP3    H133085   2.297   0.297   1.551
 3842TIP3    H233086   2.379   0.385   1.458
 3843TIP3   OH233087   2.921   3.381   0.861
 3843TIP3    H133088   2.980   3.428   0.802
 3843TIP3    H233089   2.849   3.352   0.804
 3844TIP3   OH233090   5.154   6.485   7.110
 3844TIP3    H133091   5.098   6.561   7.098
 3844TIP3    H233092   5.243   6.519   7.101
 3845TIP3   OH233093   2.362   3.561   0.844
 3845TIP3    H133094   2.382   3.526   0.758
 3845TIP3    H233095   2.343   3.484   0.898
 3846TIP3   OH233096   2.166   6.471   6.619
 3846TIP3    H133097   2.252   6.502   6.592
 3846TIP3    H233098   2.106   6.507   6.553
 3847TIP3   OH233099   3.266   4.226   8.418
 3847TIP3    H133100   3.281   4.235   8.512
 3847TIP3    H233101   3.182   4.268   8.403
 3848TIP3   OH233102   3.486   4.267   6.734
 3848TIP3    H133103   3.413   4.328   6.741
 3848TIP3    H233104   3.516   4.275   6.643
 3849TIP3   OH233105   1.966   2.677   7.147
 3849TIP3    H133106   1.887   2.714   7.107
 3849TIP3    H233107   2.035   2.698   7.085
 3850TIP3   OH233108   5.275   4.559   7.783
 3850TIP3    H133109   5.290   4.537   7.691
 3850TIP3    H233110   5.180   4.562   7.792
 3851TIP3   OH233111   4.932   4.879   1.483
 3851TIP3    H133112   4.885   4.863   1.401
 3851TIP3    H233113   4.950   4.791   1.518
 3852TIP3   OH233114   1.097   0.326   0.427
 3852TIP3    H133115   1.048   0.245   0.422
 3852TIP3    H233116   1.175   0.304   0.478
 3853TIP3   OH233117   1.562   0.912   0.281
 3853TIP3    H133118   1.647   0.869   0.267
 3853TIP3    H233119   1.499   0.840   0.280
 3854TIP3   OH233120   1.433   2.867   7.023
 3854TIP3    H133121   1.355   2.913   7.056
 3854TIP3    H233122   1.427   2.876   6.928
 3855TIP3   OH233123   3.252   1.002   6.768
 3855TIP3    H133124   3.162   1.019   6.742
 3855TIP3    H233125   3.257   0.906   6.776
 3856TIP3   OH233126   4.169   6.837   1.632
 3856TIP3    H133127   4.099   6.780   1.598
 3856TIP3    H233128   4.124   6.904   1.682
 3857TIP3   OH233129   5.811   4.475   7.491
 3857TIP3    H133130   5.779   4.563   7.513
 3857TIP3    H233131   5.839   4.482   7.400
 3858TIP3   OH233132   1.486   4.173   6.346
 3858TIP3    H133133   1.469   4.265   6.328
 3858TIP3    H233134   1.554   4.175   6.414
 3859TIP3   OH233135   4.548   0.423   2.143
 3859TIP3    H133136   4.471   0.458   2.188
 3859TIP3    H233137   4.607   0.395   2.214
 3860TIP3   OH233138   1.791   6.216   0.773
 3860TIP3    H133139   1.752   6.199   0.687
 3860TIP3    H233140   1.763   6.305   0.794
 3861TIP3   OH233141   1.251   6.746   7.757
 3861TIP3    H133142   1.175   6.803   7.763
 3861TIP3    H233143   1.288   6.764   7.670
 3862TIP3   OH233144   6.691   4.239   0.113
 3862TIP3    H133145   6.663   4.213   0.025
 3862TIP3    H233146   6.786   4.241   0.109
 3863TIP3   OH233147   3.658   4.230   8.157
 3863TIP3    H133148   3.744   4.190   8.149
 3863TIP3    H233149   3.645   4.242   8.251
 3864TIP3   OH233150   3.618   5.966   8.483
 3864TIP3    H133151   3.681   5.986   8.552
 3864TIP3    H233152   3.670   5.926   8.413
 3865TIP3   OH233153   5.283   3.139   7.380
 3865TIP3    H133154   5.338   3.206   7.339
 3865TIP3    H233155   5.260   3.079   7.309
 3866TIP3   OH233156   4.265   6.662   7.208
 3866TIP3    H133157   4.294   6.575   7.235
 3866TIP3    H233158   4.280   6.717   7.285
 3867TIP3   OH233159   5.594   3.766   7.524
 3867TIP3    H133160   5.567   3.749   7.614
 3867TIP3    H233161   5.516   3.748   7.472
 3868TIP3   OH233162   4.924   0.204   1.265
 3868TIP3    H133163   4.978   0.135   1.303
 3868TIP3    H233164   4.975   0.237   1.190
 3869TIP3   OH233165   4.025   4.013   0.321
 3869TIP3    H133166   3.958   4.080   0.307
 3869TIP3    H233167   4.085   4.024   0.248
 3870TIP3   OH233168   4.287   3.040   6.758
 3870TIP3    H133169   4.198   3.039   6.792
 3870TIP3    H233170   4.295   2.958   6.709
 3871TIP3   OH233171   5.649   6.630   6.837
 3871TIP3    H133172   5.689   6.620   6.751
 3871TIP3    H233173   5.723   6.645   6.897
 3872TIP3   OH233174   5.295   6.038   6.979
 3872TIP3    H133175   5.227   5.971   6.990
 3872TIP3    H233176   5.259   6.099   6.915
 3873TIP3   OH233177   4.347   2.266   7.579
 3873TIP3    H133178   4.375   2.174   7.573
 3873TIP3    H233179   4.258   2.262   7.613
 3874TIP3   OH233180   5.161   3.009   1.225
 3874TIP3    H133181   5.129   2.998   1.135
 3874TIP3    H233182   5.223   2.937   1.237
 3875TIP3   OH233183   1.746   0.727   1.479
 3875TIP3    H133184   1.760   0.730   1.384
 3875TIP3    H233185   1.736   0.819   1.504
 3876TIP3   OH233186   3.235   0.212   0.898
 3876TIP3    H133187   3.298   0.160   0.947
 3876TIP3    H233188   3.161   0.153   0.884
 3877TIP3   OH233189   5.114   0.551   7.901
 3877TIP3    H133190   5.101   0.520   7.990
 3877TIP3    H233191   5.068   0.487   7.846
 3878TIP3   OH233192   4.580   6.505   6.215
 3878TIP3    H133193   4.636   6.499   6.137
 3878TIP3    H233194   4.551   6.415   6.230
 3879TIP3   OH233195   0.642   2.198   1.722
 3879TIP3    H133196   0.589   2.236   1.792
 3879TIP3    H233197   0.722   2.251   1.720
 3880TIP3   OH233198   1.126   4.045   7.115
 3880TIP3    H133199   1.189   4.092   7.059
 3880TIP3    H233200   1.151   4.069   7.204
 3881TIP3   OH233201   0.106   0.249   2.430
 3881TIP3    H133202   0.102   0.319   2.496
 3881TIP3    H233203   0.031   0.193   2.451
 3882TIP3   OH233204   2.298   2.012   0.142
 3882TIP3    H133205   2.260   2.064   0.213
 3882TIP3    H233206   2.265   2.052   0.062
 3883TIP3   OH233207   4.166   0.116   1.998
 3883TIP3    H133208   4.199   0.147   2.082
 3883TIP3    H233209   4.197   0.026   1.991
 3884TIP3   OH233210   6.005   5.120   0.098
 3884TIP3    H133211   5.992   5.069   0.018
 3884TIP3    H233212   6.099   5.136   0.101
 3885TIP3   OH233213   4.006   6.196   1.724
 3885TIP3    H133214   3.948   6.266   1.695
 3885TIP3    H233215   4.044   6.229   1.805
 3886TIP3   OH233216   6.080   5.226   6.525
 3886TIP3    H133217   6.054   5.141   6.562
 3886TIP3    H233218   6.167   5.210   6.488
 3887TIP3   OH233219   1.466   0.650   7.288
 3887TIP3    H133220   1.458   0.631   7.381
 3887TIP3    H233221   1.378   0.636   7.253
 3888TIP3   OH233222   6.546   3.482   1.489
 3888TIP3    H133223   6.575   3.534   1.564
 3888TIP3    H233224   6.455   3.458   1.510
 3889TIP3   OH233225   3.764   0.809   7.723
 3889TIP3    H133226   3.844   0.862   7.721
 3889TIP3    H233227   3.754   0.778   7.633
 3890TIP3   OH233228   0.218   6.383   7.313
 3890TIP3    H133229   0.303   6.341   7.327
 3890TIP3    H233230   0.177   6.331   7.244
 3891TIP3   OH233231   5.483   4.918   0.252
 3891TIP3    H133232   5.522   5.006   0.251
 3891TIP3    H233233   5.388   4.935   0.257
 3892TIP3   OH233234   4.594   4.175   7.978
 3892TIP3    H133235   4.626   4.249   8.028
 3892TIP3    H233236   4.530   4.213   7.917
 3893TIP3   OH233237   4.658   1.001   0.117
 3893TIP3    H133238   4.571   1.036   0.139
 3893TIP3    H233239   4.668   1.017   0.024
 3894TIP3   OH233240   1.613   5.918   7.960
 3894TIP3    H133241   1.656   5.834   7.975
 3894TIP3    H233242   1.685   5.980   7.949
 3895TIP3   OH233243   0.207   2.720   1.136
 3895TIP3    H133244   0.171   2.760   1.215
 3895TIP3    H233245   0.296   2.694   1.161
 3896TIP3   OH233246   0.676   3.373   0.515
 3896TIP3    H133247   0.700   3.300   0.459
 3896TIP3    H233248   0.750   3.384   0.575
 3897TIP3   OH233249   6.137   0.703   2.035
 3897TIP3    H133250   6.231   0.716   2.042
 3897TIP3    H233251   6.121   0.620   2.079
 3898TIP3   OH233252   0.413   0.153   1.540
 3898TIP3    H133253   0.401   0.142   1.446
 3898TIP3    H233254   0.423   0.064   1.573
 3899TIP3   OH233255   5.813   6.270   2.243
 3899TIP3    H133256   5.813   6.360   2.274
 3899TIP3    H233257   5.765   6.221   2.311
 3900TIP3   OH233258   2.447   3.996   1.573
 3900TIP3    H133259   2.463   3.954   1.658
 3900TIP3    H233260   2.513   3.960   1.515
 3901TIP3   OH233261   6.129   5.362   7.532
 3901TIP3    H133262   6.043   5.403   7.530
 3901TIP3    H233263   6.187   5.429   7.568
 3902TIP3   OH233264   4.974   3.381   1.379
 3902TIP3    H133265   5.028   3.447   1.424
 3902TIP3    H233266   4.977   3.407   1.287
 3903TIP3   OH233267   2.470   1.819   2.089
 3903TIP3    H133268   2.548   1.823   2.035
 3903TIP3    H233269   2.456   1.725   2.103
 3904TIP3   OH233270   3.067   4.481   0.012
 3904TIP3    H133271   3.124   4.501   8.504
 3904TIP3    H233272   3.105   4.531   0.084
 3905TIP3   OH233273   2.552   2.226   7.309
 3905TIP3    H133274   2.501   2.272   7.376
 3905TIP3    H233275   2.517   2.260   7.226
 3906TIP3   OH233276   2.335   5.989   7.872
 3906TIP3    H133277   2.322   6.023   7.784
 3906TIP3    H233278   2.337   5.894   7.861
 3907TIP3   OH233279   5.852   1.156   8.117
 3907TIP3    H133280   5.820   1.148   8.206
 3907TIP3    H233281   5.880   1.068   8.093
 3908TIP3   OH233282   4.734   1.552   7.814
 3908TIP3    H133283   4.699   1.638   7.836
 3908TIP3    H233284   4.739   1.506   7.898
 3909TIP3   OH233285   2.957   2.008   1.088
 3909TIP3    H133286   3.034   2.053   1.125
 3909TIP3    H233287   2.993   1.950   1.021
 3910TIP3   OH233288   0.762   6.205   8.487
 3910TIP3    H133289   0.729   6.277   8.541
 3910TIP3    H233290   0.685   6.153   8.466
 3911TIP3   OH233291   6.512   6.447   0.158
 3911TIP3    H133292   6.545   6.410   0.239
 3911TIP3    H233293   6.565   6.526   0.144
 3912TIP3   OH233294   3.767   3.207   1.406
 3912TIP3    H133295   3.829   3.279   1.394
 3912TIP3    H233296   3.683   3.241   1.378
 3913TIP3   OH233297   1.225   5.118   8.056
 3913TIP3    H133298   1.230   5.205   8.017
 3913TIP3    H233299   1.163   5.070   8.002
 3914TIP3   OH233300   5.826   6.588   0.314
 3914TIP3    H133301   5.880   6.520   0.354
 3914TIP3    H233302   5.744   6.544   0.293
 3915TIP3   OH233303   4.201   1.131   0.926
 3915TIP3    H133304   4.188   1.186   0.849
 3915TIP3    H233305   4.262   1.063   0.897
 3916TIP3   OH233306   3.681   3.724   2.131
 3916TIP3    H133307   3.648   3.687   2.049
 3916TIP3    H233308   3.775   3.709   2.127
 3917TIP3   OH233309   5.588   4.301   1.392
 3917TIP3    H133310   5.527   4.368   1.361
 3917TIP3    H233311   5.642   4.346   1.457
 3918TIP3   OH233312   4.709   2.141   6.311
 3918TIP3    H133313   4.693   2.225   6.268
 3918TIP3    H233314   4.765   2.093   6.249
 3919TIP3   OH233315   0.450   0.213   7.778
 3919TIP3    H133316   0.392   0.142   7.805
 3919TIP3    H233317   0.400   0.260   7.711
 3920TIP3   OH233318   2.653   6.285   0.758
 3920TIP3    H133319   2.655   6.380   0.762
 3920TIP3    H233320   2.667   6.256   0.848
 3921TIP3   OH233321   0.521   2.948   0.583
 3921TIP3    H133322   0.509   2.997   0.502
 3921TIP3    H233323   0.448   2.887   0.586
 3922TIP3   OH233324   5.911   0.656   0.385
 3922TIP3    H133325   5.852   0.715   0.432
 3922TIP3    H233326   5.871   0.646   0.299
 3923TIP3   OH233327   1.024   5.212   8.227
 3923TIP3    H133328   1.074   5.286   8.262
 3923TIP3    H233329   1.084   5.169   8.166
 3924TIP3   OH233330   0.702   1.263   7.410
 3924TIP3    H133331   0.681   1.188   7.353
 3924TIP3    H233332   0.640   1.331   7.383
 3925TIP3   OH233333   4.983   3.916   0.089
 3925TIP3    H133334   5.072   3.916   0.053
 3925TIP3    H233335   4.956   3.825   0.085
 3926TIP3   OH233336   0.348   1.920   1.060
 3926TIP3    H133337   0.390   1.961   1.136
 3926TIP3    H233338   0.265   1.965   1.051
 3927TIP3   OH233339   4.375   3.652   6.089
 3927TIP3    H133340   4.364   3.745   6.069
 3927TIP3    H233341   4.469   3.642   6.103
 3928TIP3   OH233342   0.337   0.894   7.236
 3928TIP3    H133343   0.384   0.920   7.157
 3928TIP3    H233344   0.244   0.911   7.216
 3929TIP3   OH233345   2.334   3.604   8.294
 3929TIP3    H133346   2.280   3.561   8.360
 3929TIP3    H233347   2.366   3.683   8.337
 3930TIP3   OH233348   3.968   2.453   7.545
 3930TIP3    H133349   3.889   2.484   7.589
 3930TIP3    H233350   4.024   2.530   7.540
 3931TIP3   OH233351   5.170   5.405   0.499
 3931TIP3    H133352   5.215   5.424   0.581
 3931TIP3    H233353   5.086   5.369   0.526
 3932TIP3   OH233354   0.661   3.727   7.524
 3932TIP3    H133355   0.739   3.676   7.542
 3932TIP3    H233356   0.638   3.706   7.433
 3933TIP3   OH233357   6.620   1.968   0.895
 3933TIP3    H133358   6.525   1.984   0.896
 3933TIP3    H233359   6.637   1.932   0.808
 3934TIP3   OH233360   2.226   3.650   7.369
 3934TIP3    H133361   2.228   3.612   7.457
 3934TIP3    H233362   2.179   3.586   7.316
 3935TIP3   OH233363   5.974   3.155   6.578
 3935TIP3    H133364   6.017   3.102   6.511
 3935TIP3    H233365   5.885   3.120   6.583
 3936TIP3   OH233366   0.839   6.534   0.150
 3936TIP3    H133367   0.934   6.536   0.139
 3936TIP3    H233368   0.824   6.578   0.233
 3937TIP3   OH233369   5.859   0.314   0.362
 3937TIP3    H133370   5.910   0.238   0.334
 3937TIP3    H233371   5.918   0.363   0.419
 3938TIP3   OH233372   6.315   2.392   0.297
 3938TIP3    H133373   6.268   2.471   0.269
 3938TIP3    H233374   6.263   2.358   0.370
 3939TIP3   OH233375   2.059   6.006   8.362
 3939TIP3    H133376   2.024   5.981   8.447
 3939TIP3    H233377   2.154   6.012   8.375
 3940TIP3   OH233378   1.007   0.679   7.918
 3940TIP3    H133379   1.080   0.678   7.981
 3940TIP3    H233380   0.969   0.766   7.927
 3941TIP3   OH233381   6.596   5.673   8.163
 3941TIP3    H133382   6.579   5.691   8.070
 3941TIP3    H233383   6.653   5.744   8.191
 3942TIP3   OH233384   1.664   2.171   6.749
 3942TIP3    H133385   1.719   2.244   6.720
 3942TIP3    H233386   1.648   2.189   6.842
 3943TIP3   OH233387   4.760   4.066   7.636
 3943TIP3    H133388   4.844   4.105   7.614
 3943TIP3    H233389   4.782   3.992   7.694
 3944TIP3   OH233390   6.367   2.559   1.590
 3944TIP3    H133391   6.388   2.512   1.671
 3944TIP3    H233392   6.275   2.541   1.574
 3945TIP3   OH233393   1.362   3.822   8.317
 3945TIP3    H133394   1.375   3.914   8.340
 3945TIP3    H233395   1.450   3.784   8.323
 3946TIP3   OH233396   1.456   6.826   1.972
 3946TIP3    H133397   1.410   6.909   1.958
 3946TIP3    H233398   1.414   6.765   1.912
 3947TIP3   OH233399   0.211   5.926   7.225
 3947TIP3    H133400   0.263   5.862   7.273
 3947TIP3    H233401   0.193   5.885   7.140
 3948TIP3   OH233402   4.980   6.110   0.105
 3948TIP3    H133403   5.015   6.194   0.076
 3948TIP3    H233404   4.893   6.130   0.139
 3949TIP3   OH233405   1.798   1.487   6.902
 3949TIP3    H133406   1.824   1.577   6.881
 3949TIP3    H233407   1.870   1.454   6.956
 3950TIP3   OH233408   3.418   2.883   8.257
 3950TIP3    H133409   3.355   2.884   8.329
 3950TIP3    H233410   3.504   2.886   8.300
 3951TIP3   OH233411   5.994   1.498   1.432
 3951TIP3    H133412   5.943   1.523   1.355
 3951TIP3    H233413   5.928   1.473   1.497
 3952TIP3   OH233414   3.903   4.015   8.544
 3952TIP3    H133415   3.849   3.977   8.474
 3952TIP3    H233416   3.851   4.004   0.056
 3953TIP3   OH233417   1.819   2.612   7.936
 3953TIP3    H133418   1.885   2.666   7.978
 3953TIP3    H233419   1.793   2.661   7.858
 3954TIP3   OH233420   6.024   3.767   0.466
 3954TIP3    H133421   5.946   3.799   0.421
 3954TIP3    H233422   6.059   3.699   0.409
 3955TIP3   OH233423   5.939   1.086   7.786
 3955TIP3    H133424   6.001   1.017   7.811
 3955TIP3    H233425   5.975   1.166   7.825
 3956TIP3   OH233426   5.806   5.001   2.129
 3956TIP3    H133427   5.815   4.918   2.082
 3956TIP3    H233428   5.795   4.975   2.221
 3957TIP3   OH233429   1.880   5.360   7.572
 3957TIP3    H133430   1.951   5.422   7.556
 3957TIP3    H233431   1.890   5.335   7.664
 3958TIP3   OH233432   0.522   5.894   0.094
 3958TIP3    H133433   0.485   5.811   0.124
 3958TIP3    H233434   0.446   5.946   0.069
 3959TIP3   OH233435   0.991   5.788   8.178
 3959TIP3    H133436   1.062   5.723   8.180
 3959TIP3    H233437   1.030   5.867   8.215
 3960TIP3   OH233438   1.492   2.839   1.017
 3960TIP3    H133439   1.414   2.788   0.997
 3960TIP3    H233440   1.563   2.794   0.971
 3961TIP3   OH233441   2.107   1.856   2.030
 3961TIP3    H133442   2.096   1.903   1.948
 3961TIP3    H233443   2.018   1.834   2.057
 3962TIP3   OH233444   6.814   5.656   8.543
 3962TIP3    H133445   6.732   5.704   8.557
 3962TIP3    H233446   6.870   5.682   0.049
 3963TIP3   OH233447   5.801   3.746   6.695
 3963TIP3    H133448   5.757   3.663   6.678
 3963TIP3    H233449   5.748   3.811   6.648
 3964TIP3   OH233450   6.186   0.489   8.493
 3964TIP3    H133451   6.246   0.505   8.565
 3964TIP3    H233452   6.100   0.483   8.534
 3965TIP3   OH233453   0.338   1.784   0.122
 3965TIP3    H133454   0.281   1.708   0.133
 3965TIP3    H233455   0.279   1.857   0.102
 3966TIP3   OH233456   4.461   5.366   0.100
 3966TIP3    H133457   4.389   5.427   0.113
 3966TIP3    H233458   4.540   5.421   0.104
 3967TIP3   OH233459   3.444   3.177   6.965
 3967TIP3    H133460   3.392   3.101   6.990
 3967TIP3    H233461   3.534   3.152   6.985
 3968TIP3   OH233462   5.372   2.032   1.536
 3968TIP3    H133463   5.381   2.060   1.445
 3968TIP3    H233464   5.461   2.036   1.571
 3969TIP3   OH233465   1.418   6.094   7.920
 3969TIP3    H133466   1.441   6.086   7.827
 3969TIP3    H233467   1.477   6.033   7.964
 3970TIP3   OH233468   5.431   4.233   6.094
 3970TIP3    H133469   5.458   4.281   6.173
 3970TIP3    H233470   5.484   4.153   6.096
 3971TIP3   OH233471   3.182   5.347   1.572
 3971TIP3    H133472   3.120   5.277   1.551
 3971TIP3    H233473   3.161   5.371   1.662
 3972TIP3   OH233474   0.783   3.307   0.882
 3972TIP3    H133475   0.706   3.345   0.840
 3972TIP3    H233476   0.815   3.242   0.820
 3973TIP3   OH233477   0.788   5.041   8.087
 3973TIP3    H133478   0.813   4.999   8.170
 3973TIP3    H233479   0.867   5.039   8.034
 3974TIP3   OH233480   2.566   2.515   0.693
 3974TIP3    H133481   2.631   2.580   0.666
 3974TIP3    H233482   2.524   2.554   0.770
 3975TIP3   OH233483   2.699   1.642   7.694
 3975TIP3    H133484   2.632   1.698   7.734
 3975TIP3    H233485   2.704   1.673   7.603
 3976TIP3   OH233486   2.191   3.942   6.929
 3976TIP3    H133487   2.257   3.942   6.860
 3976TIP3    H233488   2.230   3.890   7.000
 3977TIP3   OH233489   0.856   3.986   1.303
 3977TIP3    H133490   0.928   4.048   1.312
 3977TIP3    H233491   0.795   4.028   1.243
 3978TIP3   OH233492   5.368   2.783   2.602
 3978TIP3    H133493   5.462   2.788   2.618
 3978TIP3    H233494   5.337   2.714   2.660
 3979TIP3   OH233495   0.039   0.486   1.535
 3979TIP3    H133496   0.040   0.579   1.512
 3979TIP3    H233497   0.040   0.484   1.630
 3980TIP3   OH233498   4.749   5.301   1.233
 3980TIP3    H133499   4.774   5.210   1.216
 3980TIP3    H233500   4.820   5.352   1.193
 3981TIP3   OH233501   0.157   0.510   8.404
 3981TIP3    H133502   0.074   0.556   8.389
 3981TIP3    H233503   0.163   0.447   8.332
 3982TIP3   OH233504   2.106   0.250   7.127
 3982TIP3    H133505   2.154   0.256   7.045
 3982TIP3    H233506   2.066   0.336   7.138
 3983TIP3   OH233507   5.819   3.060   7.546
 3983TIP3    H133508   5.847   2.975   7.582
 3983TIP3    H233509   5.900   3.105   7.525
 3984TIP3   OH233510   6.458   2.791   2.851
 3984TIP3    H133511   6.441   2.885   2.853
 3984TIP3    H233512   6.472   2.771   2.759
 3985TIP3   OH233513   6.761   4.003   7.465
 3985TIP3    H133514   6.789   3.939   7.530
 3985TIP3    H233515   6.669   4.019   7.485
 3986TIP3   OH233516   5.336   0.826   8.026
 3986TIP3    H133517   5.275   0.785   8.087
 3986TIP3    H233518   5.387   0.754   7.989
 3987TIP3   OH233519   1.965   1.381   2.008
 3987TIP3    H133520   1.979   1.291   1.979
 3987TIP3    H233521   1.875   1.401   1.981
 3988TIP3   OH233522   2.867   2.849   7.420
 3988TIP3    H133523   2.948   2.828   7.465
 3988TIP3    H233524   2.882   2.821   7.330
 3989TIP3   OH233525   3.602   1.958   0.909
 3989TIP3    H133526   3.558   1.889   0.957
 3989TIP3    H233527   3.533   1.997   0.855
 3990TIP3   OH233528   4.649   2.184   7.657
 3990TIP3    H133529   4.698   2.254   7.699
 3990TIP3    H233530   4.655   2.202   7.564
 3991TIP3   OH233531   1.728   3.528   1.269
 3991TIP3    H133532   1.808   3.558   1.227
 3991TIP3    H233533   1.711   3.442   1.230
 3992TIP3   OH233534   2.679   3.114   2.241
 3992TIP3    H133535   2.636   3.080   2.163
 3992TIP3    H233536   2.674   3.043   2.305
 3993TIP3   OH233537   4.530   2.334   1.400
 3993TIP3    H133538   4.480   2.389   1.460
 3993TIP3    H233539   4.466   2.306   1.334
 3994TIP3   OH233540   2.423   1.612   0.490
 3994TIP3    H133541   2.342   1.657   0.516
 3994TIP3    H233542   2.414   1.600   0.396
 3995TIP3   OH233543   2.647   4.054   7.785
 3995TIP3    H133544   2.646   4.124   7.851
 3995TIP3    H233545   2.668   4.098   7.703
 3996TIP3   OH233546   6.612   0.462   7.585
 3996TIP3    H133547   6.698   0.428   7.611
 3996TIP3    H233548   6.553   0.436   7.656
 3997TIP3   OH233549   5.254   3.526   0.366
 3997TIP3    H133550   5.264   3.450   0.310
 3997TIP3    H233551   5.210   3.493   0.444
 3998TIP3   OH233552   6.875   4.811   6.851
 3998TIP3    H133553   6.821   4.855   6.916
 3998TIP3    H233554   6.820   4.807   6.773
 3999TIP3   OH233555   1.301   5.686   8.272
 3999TIP3    H133556   1.356   5.678   8.350
 3999TIP3    H233557   1.317   5.774   8.240
 4000TIP3   OH233558   0.730   5.304   8.072
 4000TIP3    H133559   0.773   5.368   8.129
 4000TIP3    H233560   0.782   5.224   8.083
 4001TIP3   OH233561   2.903   4.676   1.527
 4001TIP3    H133562   2.845   4.600   1.519
 4001TIP3    H233563   2.853   4.740   1.578
 4002TIP3   OH233564   2.623   1.180   7.477
 4002TIP3    H133565   2.679   1.129   7.419
 4002TIP3    H233566   2.671   1.262   7.490
 4003TIP3   OH233567   6.147   3.463   2.064
 4003TIP3    H133568   6.070   3.497   2.110
 4003TIP3    H233569   6.219   3.519   2.093
 4004TIP3   OH233570   1.600   6.403   6.574
 4004TIP3    H133571   1.519   6.352   6.572
 4004TIP3    H233572   1.591   6.465   6.502
 4005TIP3   OH233573   4.055   2.815   1.861
 4005TIP3    H133574   4.031   2.810   1.768
 4005TIP3    H233575   4.148   2.791   1.863
 4006TIP3   OH233576   2.883   2.907   0.483
 4006TIP3    H133577   2.824   2.983   0.474
 4006TIP3    H233578   2.969   2.941   0.456
 4007TIP3   OH233579   5.239   1.535   1.094
 4007TIP3    H133580   5.260   1.507   1.183
 4007TIP3    H233581   5.252   1.457   1.040
 4008TIP3   OH233582   3.756   5.785   7.094
 4008TIP3    H133583   3.674   5.823   7.127
 4008TIP3    H233584   3.729   5.706   7.047
 4009TIP3   OH233585   2.282   6.178   1.423
 4009TIP3    H133586   2.310   6.178   1.515
 4009TIP3    H233587   2.266   6.086   1.403
 4010TIP3   OH233588   0.468   6.255   0.051
 4010TIP3    H133589   0.398   6.190   0.060
 4010TIP3    H233590   0.481   6.289   0.139
 4011TIP3   OH233591   0.632   6.117   7.883
 4011TIP3    H133592   0.596   6.037   7.846
 4011TIP3    H233593   0.656   6.093   7.973
 4012TIP3   OH233594   2.258   4.484   8.565
 4012TIP3    H133595   2.308   4.405   8.547
 4012TIP3    H233596   2.274   4.502   0.091
 4013TIP3   OH233597   3.497   6.457   8.218
 4013TIP3    H133598   3.503   6.363   8.232
 4013TIP3    H233599   3.434   6.487   8.285
 4014TIP3   OH233600   1.863   6.100   0.063
 4014TIP3    H133601   1.806   6.174   0.041
 4014TIP3    H233602   1.813   6.050   0.128
 4015TIP3   OH233603   0.745   1.080   0.202
 4015TIP3    H133604   0.805   1.154   0.205
 4015TIP3    H233605   0.798   1.006   0.232
 4016TIP3   OH233606   1.667   0.657   0.061
 4016TIP3    H133607   1.737   0.609   0.017
 4016TIP3    H233608   1.587   0.630   0.017
 4017TIP3   OH233609   1.143   4.077   8.349
 4017TIP3    H133610   1.186   4.158   8.375
 4017TIP3    H233611   1.115   4.037   8.431
 4018TIP3   OH233612   0.091   0.448   1.800
 4018TIP3    H133613   0.143   0.455   1.880
 4018TIP3    H233614   0.051   0.361   1.805
 4019TIP3   OH233615   3.727   0.243   8.232
 4019TIP3    H133616   3.683   0.317   8.191
 4019TIP3    H233617   3.664   0.210   8.296
 4020TIP3   OH233618   6.152   5.507   0.757
 4020TIP3    H133619   6.209   5.530   0.830
 4020TIP3    H233620   6.107   5.589   0.735
 4021TIP3   OH233621   4.477   5.459   0.492
 4021TIP3    H133622   4.534   5.493   0.561
 4021TIP3    H233623   4.527   5.388   0.452
 4022TIP3   OH233624   5.653   6.797   7.994
 4022TIP3    H133625   5.746   6.810   7.978
 4022TIP3    H233626   5.617   6.771   7.909
 4023TIP3   OH233627   2.677   2.306   8.443
 4023TIP3    H133628   2.624   2.385   8.454
 4023TIP3    H233629   2.724   2.297   8.526
 4024TIP3   OH233630   4.771   1.415   7.583
 4024TIP3    H133631   4.774   1.321   7.601
 4024TIP3    H233632   4.774   1.456   7.670
 4025TIP3   OH233633   3.118   2.589   6.554
 4025TIP3    H133634   3.153   2.546   6.632
 4025TIP3    H233635   3.148   2.534   6.481
 4026TIP3   OH233636   2.308   1.736   0.893
 4026TIP3    H133637   2.239   1.739   0.959
 4026TIP3    H233638   2.304   1.822   0.851
 4027TIP3   OH233639   6.468   4.884   2.422
 4027TIP3    H133640   6.507   4.959   2.468
 4027TIP3    H233641   6.496   4.808   2.474
 4028TIP3   OH233642   5.949   5.032   1.853
 4028TIP3    H133643   5.937   4.948   1.897
 4028TIP3    H233644   6.011   5.079   1.909
 4029TIP3   OH233645   4.928   5.318   8.376
 4029TIP3    H133646   4.925   5.319   8.280
 4029TIP3    H233647   4.843   5.351   8.403
 4030TIP3   OH233648   2.689   6.683   8.555
 4030TIP3    H133649   2.764   6.733   8.524
 4030TIP3    H233650   2.614   6.739   8.537
 4031TIP3   OH233651   6.174   5.941   0.420
 4031TIP3    H133652   6.182   6.035   0.403
 4031TIP3    H233653   6.080   5.924   0.415
 4032TIP3   OH233654   5.623   6.004   1.748
 4032TIP3    H133655   5.703   6.053   1.733
 4032TIP3    H233656   5.636   5.963   1.834
 4033TIP3   OH233657   0.315   4.766   0.532
 4033TIP3    H133658   0.410   4.763   0.524
 4033TIP3    H233659   0.285   4.680   0.504
 4034TIP3   OH233660   3.136   5.131   1.242
 4034TIP3    H133661   3.079   5.170   1.175
 4034TIP3    H233662   3.192   5.203   1.270
 4035TIP3   OH233663   0.481   2.084   7.155
 4035TIP3    H133664   0.570   2.084   7.192
 4035TIP3    H233665   0.486   2.025   7.080
 4036TIP3   OH233666   1.971   4.248   0.436
 4036TIP3    H133667   2.057   4.281   0.461
 4036TIP3    H233668   1.910   4.289   0.497
 4037TIP3   OH233669   6.796   4.622   1.692
 4037TIP3    H133670   6.879   4.669   1.687
 4037TIP3    H233671   6.734   4.678   1.646
 4038TIP3   OH233672   5.678   0.188   2.586
 4038TIP3    H133673   5.591   0.161   2.556
 4038TIP3    H233674   5.729   0.195   2.505
 4039TIP3   OH233675   5.126   4.492   6.955
 4039TIP3    H133676   5.220   4.472   6.957
 4039TIP3    H233677   5.104   4.512   7.045
 4040TIP3   OH233678   2.909   1.506   7.065
 4040TIP3    H133679   2.839   1.463   7.015
 4040TIP3    H233680   2.939   1.577   7.008
 4041TIP3   OH233681   0.986   0.513   1.437
 4041TIP3    H133682   1.080   0.509   1.423
 4041TIP3    H233683   0.949   0.527   1.350
 4042TIP3   OH233684   0.141   1.812   2.009
 4042TIP3    H133685   0.147   1.854   1.923
 4042TIP3    H233686   0.225   1.830   2.051
 4043TIP3   OH233687   3.245   6.203   1.369
 4043TIP3    H133688   3.172   6.258   1.341
 4043TIP3    H233689   3.311   6.212   1.301
 4044TIP3   OH233690   0.186   1.712   1.575
 4044TIP3    H133691   0.220   1.632   1.533
 4044TIP3    H233692   0.091   1.697   1.581
 4045TIP3   OH233693   3.715   2.355   6.766
 4045TIP3    H133694   3.674   2.295   6.828
 4045TIP3    H233695   3.706   2.312   6.681
 4046TIP3   OH233696   0.629   3.154   6.976
 4046TIP3    H133697   0.633   3.077   7.033
 4046TIP3    H233698   0.567   3.129   6.907
 4047TIP3   OH233699   5.415   2.675   7.846
 4047TIP3    H133700   5.423   2.583   7.820
 4047TIP3    H233701   5.499   2.694   7.888
 4048TIP3   OH233702   4.957   4.142   8.192
 4048TIP3    H133703   4.911   4.067   8.231
 4048TIP3    H233704   4.967   4.204   8.265
 4049TIP3   OH233705   4.959   6.162   1.048
 4049TIP3    H133706   4.887   6.205   1.000
 4049TIP3    H233707   5.008   6.234   1.087
 4050TIP3   OH233708   2.363   1.267   2.181
 4050TIP3    H133709   2.317   1.259   2.264
 4050TIP3    H233710   2.350   1.358   2.155
 4051TIP3   OH233711   4.082   5.452   0.073
 4051TIP3    H133712   4.131   5.437   0.154
 4051TIP3    H233713   4.121   5.392   0.010
 4052TIP3   OH233714   0.476   3.789   0.602
 4052TIP3    H133715   0.432   3.857   0.552
 4052TIP3    H233716   0.424   3.710   0.586
 4053TIP3   OH233717   3.444   5.188   2.195
 4053TIP3    H133718   3.502   5.237   2.254
 4053TIP3    H233719   3.490   5.190   2.111
 4054TIP3   OH233720   1.880   4.479   2.073
 4054TIP3    H133721   1.804   4.516   2.118
 4054TIP3    H233722   1.867   4.384   2.080
 4055TIP3   OH233723   0.094   1.531   8.435
 4055TIP3    H133724   0.109   1.517   8.529
 4055TIP3    H233725   0.182   1.548   8.400
 4056TIP3   OH233726   6.582   1.007   6.771
 4056TIP3    H133727   6.487   1.020   6.774
 4056TIP3    H233728   6.617   1.080   6.822
 4057TIP3   OH233729   3.849   2.193   8.021
 4057TIP3    H133730   3.926   2.150   7.983
 4057TIP3    H233731   3.801   2.228   7.945
 4058TIP3   OH233732   1.667   5.005   7.532
 4058TIP3    H133733   1.655   5.014   7.627
 4058TIP3    H233734   1.578   5.008   7.497
 4059TIP3   OH233735   5.693   5.797   7.613
 4059TIP3    H133736   5.619   5.846   7.578
 4059TIP3    H233737   5.655   5.741   7.680
 4060TIP3   OH233738   5.792   1.015   6.785
 4060TIP3    H133739   5.812   1.020   6.691
 4060TIP3    H233740   5.697   1.005   6.788
 4061TIP3   OH233741   0.710   4.224   7.275
 4061TIP3    H133742   0.633   4.195   7.325
 4061TIP3    H233743   0.757   4.281   7.336
 4062TIP3   OH233744   3.930   6.612   7.476
 4062TIP3    H133745   3.863   6.555   7.439
 4062TIP3    H233746   3.942   6.680   7.410
 4063TIP3   OH233747   1.325   0.109   7.150
 4063TIP3    H133748   1.282   0.154   7.223
 4063TIP3    H233749   1.385   0.174   7.114
 4064TIP3   OH233750   3.397   3.810   0.251
 4064TIP3    H133751   3.469   3.873   0.244
 4064TIP3    H233752   3.434   3.737   0.300
 4065TIP3   OH233753   6.359   1.254   0.988
 4065TIP3    H133754   6.272   1.214   0.995
 4065TIP3    H233755   6.420   1.186   1.018
 4066TIP3   OH233756   0.230   3.370   7.724
 4066TIP3    H133757   0.216   3.276   7.722
 4066TIP3    H233758   0.146   3.407   7.695
 4067TIP3   OH233759   6.820   4.387   1.801
 4067TIP3    H133760   6.819   4.403   1.895
 4067TIP3    H233761   6.793   4.470   1.762
 4068TIP3   OH233762   2.763   3.327   7.668
 4068TIP3    H133763   2.835   3.280   7.627
 4068TIP3    H233764   2.714   3.364   7.595
 4069TIP3   OH233765   3.762   2.742   1.236
 4069TIP3    H133766   3.759   2.728   1.331
 4069TIP3    H233767   3.742   2.656   1.198
 4070TIP3   OH233768   3.702   1.049   7.453
 4070TIP3    H133769   3.607   1.040   7.441
 4070TIP3    H233770   3.711   1.093   7.538
 4071TIP3   OH233771   4.823   2.275   2.212
 4071TIP3    H133772   4.813   2.238   2.299
 4071TIP3    H233773   4.831   2.369   2.228
 4072TIP3   OH233774   4.430   6.487   2.149
 4072TIP3    H133775   4.509   6.535   2.171
 4072TIP3    H233776   4.375   6.494   2.228
 4073TIP3   OH233777   3.400   0.829   8.076
 4073TIP3    H133778   3.486   0.843   8.116
 4073TIP3    H233779   3.341   0.887   8.124
 4074TIP3   OH233780   6.302   3.494   7.926
 4074TIP3    H133781   6.284   3.544   8.006
 4074TIP3    H233782   6.390   3.458   7.940
 4075TIP3   OH233783   3.540   0.640   6.513
 4075TIP3    H133784   3.487   0.719   6.504
 4075TIP3    H233785   3.570   0.620   6.424
 4076TIP3   OH233786   4.039   4.160   6.791
 4076TIP3    H133787   4.023   4.220   6.718
 4076TIP3    H233788   4.131   4.175   6.815
 4077TIP3   OH233789   6.038   2.787   1.427
 4077TIP3    H133790   5.960   2.772   1.374
 4077TIP3    H233791   6.099   2.832   1.368
 4078TIP3   OH233792   5.271   5.047   7.390
 4078TIP3    H133793   5.309   5.092   7.315
 4078TIP3    H233794   5.194   5.002   7.355
 4079TIP3   OH233795   1.316   3.344   0.534
 4079TIP3    H133796   1.251   3.280   0.564
 4079TIP3    H233797   1.400   3.299   0.545
 4080TIP3   OH233798   6.437   0.855   7.332
 4080TIP3    H133799   6.485   0.783   7.373
 4080TIP3    H233800   6.378   0.887   7.400
 4081TIP3   OH233801   5.472   6.317   8.170
 4081TIP3    H133802   5.478   6.375   8.094
 4081TIP3    H233803   5.472   6.229   8.133
 4082TIP3   OH233804   0.068   6.290   6.482
 4082TIP3    H133805   0.109   6.204   6.478
 4082TIP3    H233806   0.067   6.320   6.391
 4083TIP3   OH233807   4.739   5.326   7.313
 4083TIP3    H133808   4.730   5.419   7.290
 4083TIP3    H233809   4.821   5.299   7.273
 4084TIP3   OH233810   2.861   1.609   7.938
 4084TIP3    H133811   2.782   1.601   7.884
 4084TIP3    H233812   2.905   1.525   7.930
 4085TIP3   OH233813   1.585   0.772   2.552
 4085TIP3    H133814   1.627   0.700   2.600
 4085TIP3    H233815   1.576   0.738   2.463
 4086TIP3   OH233816   3.588   2.352   7.198
 4086TIP3    H133817   3.679   2.328   7.212
 4086TIP3    H233818   3.568   2.320   7.110
 4087TIP3   OH233819   0.439   0.094   0.374
 4087TIP3    H133820   0.358   0.140   0.355
 4087TIP3    H233821   0.415   0.029   0.440
 4088TIP3   OH233822   5.541   2.613   8.397
 4088TIP3    H133823   5.605   2.641   8.332
 4088TIP3    H233824   5.457   2.616   8.351
 4089TIP3   OH233825   4.979   1.585   1.089
 4089TIP3    H133826   5.071   1.611   1.096
 4089TIP3    H233827   4.982   1.494   1.062
 4090TIP3   OH233828   5.894   0.849   8.084
 4090TIP3    H133829   5.972   0.899   8.106
 4090TIP3    H233830   5.879   0.793   8.160
 4091TIP3   OH233831   5.873   6.431   8.495
 4091TIP3    H133832   5.785   6.445   8.459
 4091TIP3    H233833   5.858   6.383   0.009
 4092TIP3   OH233834   5.528   4.958   7.824
 4092TIP3    H133835   5.598   4.894   7.832
 4092TIP3    H233836   5.525   4.978   7.731
 4093TIP3   OH233837   1.252   2.586   0.970
 4093TIP3    H133838   1.339   2.554   0.947
 4093TIP3    H233839   1.202   2.578   0.889
 4094TIP3   OH233840   6.581   4.842   0.794
 4094TIP3    H133841   6.634   4.777   0.839
 4094TIP3    H233842   6.614   4.840   0.703
 4095TIP3   OH233843   4.924   3.579   1.156
 4095TIP3    H133844   5.003   3.629   1.179
 4095TIP3    H233845   4.930   3.568   1.061
 4096TIP3   OH233846   6.754   1.209   8.098
 4096TIP3    H133847   6.778   1.273   8.164
 4096TIP3    H233848   6.683   1.250   8.049
 4097TIP3   OH233849   0.144   0.932   8.257
 4097TIP3    H133850   0.223   0.898   8.298
 4097TIP3    H233851   0.086   0.857   8.250
 4098TIP3   OH233852   5.545   1.229   0.538
 4098TIP3    H133853   5.507   1.142   0.532
 4098TIP3    H233854   5.492   1.275   0.603
 4099TIP3   OH233855   5.670   4.920   8.382
 4099TIP3    H133856   5.687   4.878   8.466
 4099TIP3    H233857   5.635   4.850   8.327
 4100TIP3   OH233858   2.518   5.965   1.535
 4100TIP3    H133859   2.531   5.870   1.546
 4100TIP3    H233860   2.583   5.990   1.470
 4101TIP3   OH233861   5.744   3.433   8.148
 4101TIP3    H133862   5.714   3.520   8.122
 4101TIP3    H233863   5.791   3.401   8.071
 4102TIP3   OH233864   2.683   0.523   7.950
 4102TIP3    H133865   2.685   0.494   7.859
 4102TIP3    H233866   2.671   0.442   8.000
 4103TIP3   OH233867   2.894   5.874   7.082
 4103TIP3    H133868   2.968   5.900   7.028
 4103TIP3    H233869   2.923   5.888   7.172
 4104TIP3   OH233870   2.530   2.838   1.337
 4104TIP3    H133871   2.601   2.878   1.387
 4104TIP3    H233872   2.572   2.764   1.292
 4105TIP3   OH233873   4.153   5.118   6.274
 4105TIP3    H133874   4.239   5.134   6.235
 4105TIP3    H233875   4.098   5.189   6.239
 4106TIP3   OH233876   6.522   1.345   0.270
 4106TIP3    H133877   6.583   1.291   0.321
 4106TIP3    H233878   6.565   1.430   0.265
 4107TIP3   OH233879   1.112   0.142   8.254
 4107TIP3    H133880   1.140   0.194   8.178
 4107TIP3    H233881   1.124   0.051   8.226
 4108TIP3   OH233882   3.338   6.262   0.893
 4108TIP3    H133883   3.430   6.283   0.878
 4108TIP3    H233884   3.304   6.239   0.807
 4109TIP3   OH233885   4.549   6.206   7.481
 4109TIP3    H133886   4.581   6.296   7.475
 4109TIP3    H233887   4.563   6.182   7.572
 4110TIP3   OH233888   2.236   1.029   0.946
 4110TIP3    H133889   2.273   0.983   0.871
 4110TIP3    H233890   2.167   0.972   0.978
 4111TIP3   OH233891   0.265   5.656   0.459
 4111TIP3    H133892   0.209   5.701   0.522
 4111TIP3    H233893   0.314   5.592   0.510
 4112TIP3   OH233894   6.270   0.431   0.338
 4112TIP3    H133895   6.258   0.510   0.285
 4112TIP3    H233896   6.365   0.424   0.349
 4113TIP3   OH233897   3.317   0.919   1.826
 4113TIP3    H133898   3.379   0.969   1.773
 4113TIP3    H233899   3.371   0.858   1.876
 4114TIP3   OH233900   0.709   2.170   7.737
 4114TIP3    H133901   0.766   2.093   7.734
 4114TIP3    H233902   0.701   2.191   7.830
 4115TIP3   OH233903   5.290   5.905   1.059
 4115TIP3    H133904   5.209   5.902   1.008
 4115TIP3    H233905   5.275   5.972   1.125
 4116TIP3   OH233906   5.073   2.448   7.769
 4116TIP3    H133907   5.122   2.500   7.705
 4116TIP3    H233908   5.107   2.359   7.759
 4117TIP3   OH233909   0.365   1.120   6.678
 4117TIP3    H133910   0.275   1.151   6.668
 4117TIP3    H233911   0.364   1.032   6.639
 4118TIP3   OH233912   0.750   4.981   2.270
 4118TIP3    H133913   0.824   4.996   2.329
 4118TIP3    H233914   0.784   4.920   2.204
 4119TIP3   OH233915   2.268   2.576   0.012
 4119TIP3    H133916   2.316   2.495   0.030
 4119TIP3    H233917   2.332   2.645   0.026
 4120TIP3   OH233918   5.159   6.771   1.594
 4120TIP3    H133919   5.166   6.805   1.683
 4120TIP3    H233920   5.098   6.698   1.601
 4121TIP3   OH233921   1.394   2.495   1.629
 4121TIP3    H133922   1.435   2.571   1.671
 4121TIP3    H233923   1.468   2.443   1.597
 4122TIP3   OH233924   4.268   4.354   0.457
 4122TIP3    H133925   4.313   4.432   0.424
 4122TIP3    H233926   4.215   4.385   0.530
 4123TIP3   OH233927   5.268   6.077   1.257
 4123TIP3    H133928   5.208   6.119   1.318
 4123TIP3    H233929   5.354   6.083   1.299
 4124TIP3   OH233930   6.386   0.237   0.130
 4124TIP3    H133931   6.379   0.331   0.113
 4124TIP3    H233932   6.444   0.231   0.206
 4125TIP3   OH233933   2.791   0.911   8.120
 4125TIP3    H133934   2.703   0.881   8.143
 4125TIP3    H233935   2.845   0.832   8.126
 4126TIP3   OH233936   2.050   4.332   1.519
 4126TIP3    H133937   2.083   4.315   1.607
 4126TIP3    H233938   1.978   4.394   1.531
 4127TIP3   OH233939   0.386   2.339   0.047
 4127TIP3    H133940   0.390   2.275   0.117
 4127TIP3    H233941   0.468   2.328   8.566
 4128TIP3   OH233942   1.413   4.024   6.823
 4128TIP3    H133943   1.413   3.969   6.745
 4128TIP3    H233944   1.469   3.977   6.885
 4129TIP3   OH233945   4.389   0.914   0.261
 4129TIP3    H133946   4.314   0.974   0.261
 4129TIP3    H233947   4.372   0.854   0.333
 4130TIP3   OH233948   4.804   1.827   0.098
 4130TIP3    H133949   4.823   1.792   0.011
 4130TIP3    H233950   4.835   1.759   0.158
 4131TIP3   OH233951   0.640   2.781   7.626
 4131TIP3    H133952   0.596   2.845   7.682
 4131TIP3    H233953   0.657   2.828   7.544
 4132TIP3   OH233954   0.486   5.534   1.081
 4132TIP3    H133955   0.540   5.529   1.160
 4132TIP3    H233956   0.397   5.524   1.113
 4133TIP3   OH233957   6.881   3.969   7.945
 4133TIP3    H133958   0.042   4.017   7.901
 4133TIP3    H233959   6.826   4.037   7.983
 4134TIP3   OH233960   0.568   3.525   7.748
 4134TIP3    H133961   0.553   3.459   7.681
 4134TIP3    H233962   0.534   3.606   7.710
 4135TIP3   OH233963   3.171   0.138   8.221
 4135TIP3    H133964   3.152   0.045   8.208
 4135TIP3    H233965   3.175   0.149   8.316
 4136TIP3   OH233966   2.548   6.797   1.078
 4136TIP3    H133967   2.456   6.771   1.086
 4136TIP3    H233968   2.595   6.716   1.060
 4137TIP3   OH233969   1.680   1.916   1.228
 4137TIP3    H133970   1.628   1.995   1.237
 4137TIP3    H233971   1.765   1.947   1.197
 4138TIP3   OH233972   0.709   6.806   0.662
 4138TIP3    H133973   0.751   6.874   0.610
 4138TIP3    H233974   0.648   6.763   0.601
 4139TIP3   OH233975   6.564   2.610   8.105
 4139TIP3    H133976   6.576   2.570   8.191
 4139TIP3    H233977   6.613   2.692   8.110
 4140TIP3   OH233978   2.779   3.686   6.897
 4140TIP3    H133979   2.744   3.717   6.814
 4140TIP3    H233980   2.839   3.755   6.925
 4141TIP3   OH233981   1.146   2.831   7.423
 4141TIP3    H133982   1.086   2.757   7.420
 4141TIP3    H233983   1.106   2.897   7.367
 4142TIP3   OH233984   4.447   2.417   0.563
 4142TIP3    H133985   4.408   2.371   0.489
 4142TIP3    H233986   4.402   2.502   0.564
 4143TIP3   OH233987   4.537   0.695   0.431
 4143TIP3    H133988   4.606   0.637   0.400
 4143TIP3    H233989   4.460   0.669   0.381
 4144TIP3   OH233990   1.868   6.162   8.258
 4144TIP3    H133991   1.950   6.120   8.284
 4144TIP3    H233992   1.857   6.139   8.165
 4145TIP3   OH233993   3.757   2.816   7.491
 4145TIP3    H133994   3.699   2.750   7.454
 4145TIP3    H233995   3.705   2.859   7.559
 4146TIP3   OH233996   5.427   0.530   0.776
 4146TIP3    H133997   5.405   0.444   0.741
 4146TIP3    H233998   5.522   0.535   0.767
 4147TIP3   OH233999   0.661   5.196   1.355
 4147TIP3    H134000   0.615   5.126   1.308
 4147TIP3    H234001   0.601   5.270   1.352
 4148TIP3   OH234002   5.956   4.811   6.333
 4148TIP3    H134003   5.906   4.889   6.310
 4148TIP3    H234004   6.023   4.805   6.265
 4149TIP3   OH234005   5.513   3.772   7.103
 4149TIP3    H134006   5.595   3.722   7.093
 4149TIP3    H234007   5.536   3.843   7.163
 4150TIP3   OH234008   5.857   2.278   2.360
 4150TIP3    H134009   5.826   2.189   2.342
 4150TIP3    H234010   5.916   2.268   2.434
 4151TIP3   OH234011   4.015   0.920   1.930
 4151TIP3    H134012   3.980   0.974   2.001
 4151TIP3    H234013   4.107   0.944   1.925
 4152TIP3   OH234014   2.147   5.912   0.927
 4152TIP3    H134015   2.085   5.937   0.996
 4152TIP3    H234016   2.106   5.941   0.846
 4153TIP3   OH234017   1.351   6.245   6.990
 4153TIP3    H134018   1.293   6.229   7.065
 4153TIP3    H234019   1.422   6.299   7.024
 4154TIP3   OH234020   5.165   2.192   7.762
 4154TIP3    H134021   5.148   2.131   7.690
 4154TIP3    H234022   5.181   2.136   7.838
 4155TIP3   OH234023   1.392   3.574   7.055
 4155TIP3    H134024   1.311   3.621   7.077
 4155TIP3    H234025   1.396   3.503   7.119
 4156TIP3   OH234026   4.720   0.273   7.683
 4156TIP3    H134027   4.708   0.197   7.740
 4156TIP3    H234028   4.659   0.339   7.718
 4157TIP3   OH234029   3.814   3.760   1.154
 4157TIP3    H134030   3.853   3.674   1.171
 4157TIP3    H234031   3.811   3.766   1.058
 4158TIP3   OH234032   6.435   0.133   0.691
 4158TIP3    H134033   6.374   0.141   0.618
 4158TIP3    H234034   6.397   0.065   0.747
 4159TIP3   OH234035   1.491   2.279   7.701
 4159TIP3    H134036   1.475   2.366   7.738
 4159TIP3    H234037   1.576   2.287   7.658
 4160TIP3   OH234038   3.800   3.855   1.484
 4160TIP3    H134039   3.712   3.891   1.485
 4160TIP3    H234040   3.816   3.830   1.393
 4161TIP3   OH234041   5.831   4.014   0.352
 4161TIP3    H134042   5.863   4.100   0.380
 4161TIP3    H234043   5.765   3.991   0.417
 4162TIP3   OH234044   3.454   2.109   6.388
 4162TIP3    H134045   3.434   2.063   6.469
 4162TIP3    H234046   3.406   2.061   6.320
 4163TIP3   OH234047   5.796   6.488   8.023
 4163TIP3    H134048   5.824   6.399   8.043
 4163TIP3    H234049   5.703   6.479   7.999
 4164TIP3   OH234050   2.993   1.688   6.862
 4164TIP3    H134051   3.054   1.738   6.809
 4164TIP3    H234052   2.914   1.681   6.808
 4165TIP3   OH234053   0.173   3.379   8.172
 4165TIP3    H134054   0.260   3.419   8.163
 4165TIP3    H234055   0.181   3.294   8.127
 4166TIP3   OH234056   1.831   6.087   7.896
 4166TIP3    H134057   1.819   6.155   7.829
 4166TIP3    H234058   1.926   6.075   7.900
 4167TIP3   OH234059   2.090   5.171   1.355
 4167TIP3    H134060   2.146   5.177   1.277
 4167TIP3    H234061   2.019   5.113   1.328
 4168TIP3   OH234062   0.653   1.642   7.142
 4168TIP3    H134063   0.687   1.682   7.062
 4168TIP3    H234064   0.685   1.698   7.213
 4169TIP3   OH234065   3.261   6.889   7.685
 4169TIP3    H134066   3.259   0.074   7.701
 4169TIP3    H234067   3.354   6.865   7.691
 4170TIP3   OH234068   4.473   2.491   7.463
 4170TIP3    H134069   4.439   2.423   7.521
 4170TIP3    H234070   4.398   2.546   7.444
 4171TIP3   OH234071   5.209   6.424   6.836
 4171TIP3    H134072   5.207   6.329   6.833
 4171TIP3    H234073   5.153   6.448   6.910
 4172TIP3   OH234074   1.884   5.526   0.911
 4172TIP3    H134075   1.844   5.613   0.919
 4172TIP3    H234076   1.847   5.489   0.831
 4173TIP3   OH234077   5.761   3.662   0.315
 4173TIP3    H134078   5.781   3.575   0.281
 4173TIP3    H234079   5.720   3.707   0.241
 4174TIP3   OH234080   3.473   3.433   8.544
 4174TIP3    H134081   3.476   3.340   0.000
 4174TIP3    H234082   3.560   3.451   8.507
 4175TIP3   OH234083   4.092   2.127   2.410
 4175TIP3    H134084   4.034   2.128   2.334
 4175TIP3    H234085   4.074   2.044   2.454
 4176TIP3   OH234086   3.498   3.872   7.114
 4176TIP3    H134087   3.440   3.862   7.189
 4176TIP3    H234088   3.490   3.964   7.089
 4177TIP3   OH234089   1.632   4.524   8.283
 4177TIP3    H134090   1.643   4.577   8.362
 4177TIP3    H234091   1.624   4.588   8.213
 4178TIP3   OH234092   4.051   1.787   8.525
 4178TIP3    H134093   3.982   1.773   8.460
 4178TIP3    H234094   4.118   1.838   8.479
 4179TIP3   OH234095   1.058   5.653   7.779
 4179TIP3    H134096   1.097   5.607   7.705
 4179TIP3    H234097   1.130   5.706   7.814
 4180TIP3   OH234098   4.663   6.629   2.205
 4180TIP3    H134099   4.689   6.681   2.281
 4180TIP3    H234100   4.745   6.605   2.163
 4181TIP3   OH234101   6.442   0.837   0.897
 4181TIP3    H134102   6.536   0.850   0.912
 4181TIP3    H234103   6.429   0.743   0.905
 4182TIP3   OH234104   6.788   5.991   0.163
 4182TIP3    H134105   6.799   5.900   0.191
 4182TIP3    H234106   6.770   6.039   0.244
 4183TIP3   OH234107   5.385   4.365   7.007
 4183TIP3    H134108   5.380   4.314   7.088
 4183TIP3    H234109   5.413   4.452   7.035
 4184TIP3   OH234110   3.024   3.056   1.924
 4184TIP3    H134111   3.117   3.078   1.927
 4184TIP3    H234112   3.021   2.969   1.885
 4185TIP3   OH234113   3.053   3.023   8.124
 4185TIP3    H134114   3.031   2.970   8.201
 4185TIP3    H234115   2.990   2.995   8.058
 4186TIP3   OH234116   6.257   0.433   1.548
 4186TIP3    H134117   6.192   0.499   1.524
 4186TIP3    H234118   6.307   0.473   1.619
 4187TIP3   OH234119   4.418   6.710   7.000
 4187TIP3    H134120   4.366   6.725   7.078
 4187TIP3    H234121   4.498   6.761   7.013
 4188TIP3   OH234122   4.655   2.601   7.637
 4188TIP3    H134123   4.581   2.562   7.591
 4188TIP3    H234124   4.623   2.686   7.667
 4189TIP3   OH234125   4.724   0.334   0.569
 4189TIP3    H134126   4.780   0.257   0.573
 4189TIP3    H234127   4.635   0.299   0.556
 4190TIP3   OH234128   0.240   6.181   8.365
 4190TIP3    H134129   0.194   6.210   8.444
 4190TIP3    H234130   0.188   6.106   8.334
 4191TIP3   OH234131   0.276   0.631   7.810
 4191TIP3    H134132   0.297   0.679   7.730
 4191TIP3    H234133   0.313   0.544   7.796
 4192TIP3   OH234134   0.621   6.417   1.451
 4192TIP3    H134135   0.690   6.392   1.512
 4192TIP3    H234136   0.576   6.336   1.430
 4193TIP3   OH234137   5.260   5.379   7.009
 4193TIP3    H134138   5.340   5.386   6.956
 4193TIP3    H234139   5.237   5.287   7.005
 4194TIP3   OH234140   3.199   0.527   2.129
 4194TIP3    H134141   3.258   0.575   2.071
 4194TIP3    H234142   3.169   0.592   2.192
 4195TIP3   OH234143   6.631   4.425   7.389
 4195TIP3    H134144   6.682   4.382   7.457
 4195TIP3    H234145   6.633   4.365   7.315
 4196TIP3   OH234146   5.475   6.041   8.068
 4196TIP3    H134147   5.553   6.022   8.015
 4196TIP3    H234148   5.445   5.955   8.099
 4197TIP3   OH234149   4.616   6.580   8.049
 4197TIP3    H134150   4.686   6.627   8.004
 4197TIP3    H234151   4.536   6.628   8.025
 4198TIP3   OH234152   2.486   1.466   0.225
 4198TIP3    H134153   2.573   1.430   0.242
 4198TIP3    H234154   2.501   1.537   0.162
 4199TIP3   OH234155   6.807   1.212   1.957
 4199TIP3    H134156   6.894   1.175   1.942
 4199TIP3    H234157   6.769   1.157   2.025
 4200TIP3   OH234158   2.026   2.902   8.386
 4200TIP3    H134159   2.023   2.903   8.291
 4200TIP3    H234160   1.955   2.843   8.412
 4201TIP3   OH234161   2.756   2.183   7.105
 4201TIP3    H134162   2.699   2.132   7.164
 4201TIP3    H234163   2.695   2.235   7.053
 4202TIP3   OH234164   3.102   3.839   1.714
 4202TIP3    H134165   3.139   3.909   1.767
 4202TIP3    H234166   3.032   3.881   1.664
 4203TIP3   OH234167   4.460   0.217   7.469
 4203TIP3    H134168   4.449   0.273   7.392
 4203TIP3    H234169   4.551   0.227   7.494
 4204TIP3   OH234170   6.024   5.481   7.294
 4204TIP3    H134171   6.009   5.392   7.262
 4204TIP3    H234172   6.118   5.494   7.285
 4205TIP3   OH234173   4.749   6.440   6.512
 4205TIP3    H134174   4.790   6.432   6.599
 4205TIP3    H234175   4.698   6.360   6.502
 4206TIP3   OH234176   5.537   6.835   7.024
 4206TIP3    H134177   5.541   6.895   6.950
 4206TIP3    H234178   5.539   6.748   6.985
 4207TIP3   OH234179   0.000   5.805   5.933
 4207TIP3    H134180   6.872   5.790   6.020
 4207TIP3    H234181   6.903   5.720   5.890
 4208TIP3   OH234182   6.567   1.885   7.480
 4208TIP3    H134183   6.490   1.929   7.446
 4208TIP3    H234184   6.601   1.834   7.406
 4209TIP3   OH234185   6.863   2.269   1.224
 4209TIP3    H134186   6.904   2.355   1.236
 4209TIP3    H234187   6.908   2.212   1.286
 4210TIP3   OH234188   4.741   1.160   0.565
 4210TIP3    H134189   4.729   1.070   0.535
 4210TIP3    H234190   4.703   1.161   0.653
 4211TIP3   OH234191   2.196   2.407   7.182
 4211TIP3    H134192   2.235   2.460   7.252
 4211TIP3    H234193   2.105   2.436   7.179
 4212TIP3   OH234194   3.295   0.229   7.986
 4212TIP3    H134195   3.349   0.153   7.966
 4212TIP3    H234196   3.264   0.214   8.075
 4213TIP3   OH234197   2.651   0.372   7.406
 4213TIP3    H134198   2.588   0.316   7.361
 4213TIP3    H234199   2.678   0.436   7.339
 4214TIP3   OH234200   4.563   1.039   1.129
 4214TIP3    H134201   4.514   1.013   1.051
 4214TIP3    H234202   4.512   1.004   1.202
 4215TIP3   OH234203   3.961   3.087   1.870
 4215TIP3    H134204   4.020   3.107   1.942
 4215TIP3    H234205   3.988   3.000   1.840
 4216TIP3   OH234206   3.410   0.617   1.682
 4216TIP3    H134207   3.406   0.640   1.775
 4216TIP3    H234208   3.322   0.636   1.650
 4217TIP3   OH234209   1.462   2.684   0.662
 4217TIP3    H134210   1.548   2.722   0.642
 4217TIP3    H234211   1.468   2.657   0.753
 4218TIP3   OH234212   5.311   5.576   0.308
 4218TIP3    H134213   5.260   5.558   0.387
 4218TIP3    H234214   5.394   5.531   0.322
 4219TIP3   OH234215   4.701   4.793   1.348
 4219TIP3    H134216   4.730   4.702   1.339
 4219TIP3    H234217   4.652   4.795   1.430
 4220TIP3   OH234218   1.357   6.442   0.762
 4220TIP3    H134219   1.435   6.461   0.814
 4220TIP3    H234220   1.379   6.471   0.673
 4221TIP3   OH234221   3.920   1.800   1.322
 4221TIP3    H134222   3.874   1.740   1.264
 4221TIP3    H234223   3.993   1.748   1.357
 4222TIP3   OH234224   4.291   0.137   8.538
 4222TIP3    H134225   4.198   0.149   8.557
 4222TIP3    H234226   4.303   0.180   8.453
 4223TIP3   OH234227   3.922   1.792   7.616
 4223TIP3    H134228   3.932   1.887   7.617
 4223TIP3    H234229   3.945   1.765   7.706
 4224TIP3   OH234230   5.613   6.067   0.402
 4224TIP3    H134231   5.594   6.066   0.496
 4224TIP3    H234232   5.548   6.007   0.364
 4225TIP3   OH234233   2.507   2.464   7.567
 4225TIP3    H134234   2.428   2.518   7.572
 4225TIP3    H234235   2.572   2.520   7.525
 4226TIP3   OH234236   5.104   6.802   7.347
 4226TIP3    H134237   5.014   6.814   7.317
 4226TIP3    H234238   5.158   6.827   7.272
 4227TIP3   OH234239   3.962   3.310   7.034
 4227TIP3    H134240   3.953   3.326   7.128
 4227TIP3    H234241   3.916   3.382   6.992
 4228TIP3   OH234242   4.403   0.962   7.111
 4228TIP3    H134243   4.426   1.048   7.145
 4228TIP3    H234244   4.477   0.937   7.056
 4229TIP3   OH234245   3.308   3.784   6.483
 4229TIP3    H134246   3.231   3.733   6.507
 4229TIP3    H234247   3.310   3.856   6.545
 4230TIP3   OH234248   2.055   0.698   7.751
 4230TIP3    H134249   2.147   0.673   7.751
 4230TIP3    H234250   2.052   0.779   7.802
 4231TIP3   OH234251   1.716   5.563   1.262
 4231TIP3    H134252   1.657   5.593   1.332
 4231TIP3    H234253   1.769   5.639   1.240
 4232TIP3   OH234254   4.715   4.568   7.957
 4232TIP3    H134255   4.652   4.498   7.941
 4232TIP3    H234256   4.660   4.645   7.975
 4233TIP3   OH234257   3.648   0.391   7.130
 4233TIP3    H134258   3.566   0.414   7.172
 4233TIP3    H234259   3.626   0.380   7.037
 4234TIP3   OH234260   1.756   3.871   6.825
 4234TIP3    H134261   1.750   3.803   6.757
 4234TIP3    H234262   1.691   3.845   6.890
 4235TIP3   OH234263   1.028   0.007   7.738
 4235TIP3    H134264   0.999   6.894   7.826
 4235TIP3    H234265   0.973   0.081   7.712
 4236TIP3   OH234266   0.068   5.338   2.000
 4236TIP3    H134267   0.138   5.293   2.048
 4236TIP3    H234268   0.045   5.412   2.055
 4237TIP3   OH234269   4.899   0.115   0.642
 4237TIP3    H134270   4.824   0.069   0.679
 4237TIP3    H234271   4.936   0.164   0.715
 4238TIP3   OH234272   3.521   1.331   0.813
 4238TIP3    H134273   3.462   1.405   0.826
 4238TIP3    H234274   3.606   1.362   0.844
 4239TIP3   OH234275   0.340   0.741   7.579
 4239TIP3    H134276   0.326   0.685   7.503
 4239TIP3    H234277   0.435   0.737   7.595
 4240TIP3   OH234278   3.834   3.805   6.673
 4240TIP3    H134279   3.896   3.742   6.637
 4240TIP3    H234280   3.751   3.758   6.679
 4241TIP3   OH234281   5.217   2.559   1.315
 4241TIP3    H134282   5.174   2.505   1.382
 4241TIP3    H234283   5.283   2.609   1.363
 4242TIP3   OH234284   1.923   3.019   7.146
 4242TIP3    H134285   1.917   3.021   7.051
 4242TIP3    H234286   1.837   3.049   7.176
 4243TIP3   OH234287   5.403   1.805   7.945
 4243TIP3    H134288   5.489   1.804   7.986
 4243TIP3    H234289   5.355   1.873   7.992
 4244TIP3   OH234290   3.111   2.616   0.887
 4244TIP3    H134291   3.114   2.673   0.810
 4244TIP3    H234292   3.156   2.536   0.858
 4245TIP3   OH234293   2.614   0.608   1.575
 4245TIP3    H134294   2.564   0.530   1.550
 4245TIP3    H234295   2.581   0.677   1.518
 4246TIP3   OH234296   1.559   0.628   8.234
 4246TIP3    H134297   1.637   0.576   8.219
 4246TIP3    H234298   1.547   0.679   8.154
 4247TIP3   OH234299   6.027   4.590   6.488
 4247TIP3    H134300   6.022   4.652   6.415
 4247TIP3    H234301   6.120   4.568   6.495
 4248TIP3   OH234302   1.839   3.100   1.330
 4248TIP3    H134303   1.903   3.088   1.401
 4248TIP3    H234304   1.846   3.193   1.308
 4249TIP3   OH234305   3.329   3.628   7.471
 4249TIP3    H134306   3.311   3.612   7.564
 4249TIP3    H234307   3.334   3.540   7.433
 4250TIP3   OH234308   6.421   1.409   1.516
 4250TIP3    H134309   6.358   1.460   1.566
 4250TIP3    H234310   6.372   1.378   1.440
 4251TIP3   OH234311   0.811   3.963   7.209
 4251TIP3    H134312   0.862   3.986   7.132
 4251TIP3    H234313   0.775   4.046   7.240
 4252TIP3   OH234314   2.377   6.828   5.961
 4252TIP3    H134315   2.286   6.849   5.944
 4252TIP3    H234316   2.423   0.002   5.955
 4253TIP3   OH234317   6.593   4.425   8.261
 4253TIP3    H134318   6.509   4.403   8.302
 4253TIP3    H234319   6.576   4.417   8.167
 4254TIP3   OH234320   5.282   2.558   2.765
 4254TIP3    H134321   5.303   2.489   2.701
 4254TIP3    H234322   5.362   2.567   2.817
 4255TIP3   OH234323   1.773   5.075   1.931
 4255TIP3    H134324   1.685   5.040   1.938
 4255TIP3    H234325   1.779   5.107   1.840
 4256TIP3   OH234326   3.484   5.830   7.192
 4256TIP3    H134327   3.450   5.913   7.224
 4256TIP3    H234328   3.434   5.764   7.239
 4257TIP3   OH234329   4.971   3.506   7.686
 4257TIP3    H134330   4.957   3.436   7.750
 4257TIP3    H234331   4.908   3.574   7.710
 4258TIP3   OH234332   4.333   0.122   1.754
 4258TIP3    H134333   4.353   0.113   1.848
 4258TIP3    H234334   4.262   0.187   1.751
 4259TIP3   OH234335   1.612   0.154   1.298
 4259TIP3    H134336   1.629   0.218   1.229
 4259TIP3    H234337   1.691   0.098   1.299
 4260TIP3   OH234338   3.939   4.133   7.272
 4260TIP3    H134339   4.028   4.113   7.244
 4260TIP3    H234340   3.943   4.127   7.368
 4261TIP3   OH234341   5.879   0.266   0.687
 4261TIP3    H134342   5.855   0.344   0.637
 4261TIP3    H234343   5.865   0.291   0.778
 4262TIP3   OH234344   3.535   1.072   2.127
 4262TIP3    H134345   3.597   1.019   2.177
 4262TIP3    H234346   3.553   1.050   2.036
 4263TIP3   OH234347   5.819   0.185   7.031
 4263TIP3    H134348   5.849   0.274   7.048
 4263TIP3    H234349   5.731   0.197   6.995
 4264TIP3   OH234350   6.167   6.318   0.453
 4264TIP3    H134351   6.242   6.271   0.417
 4264TIP3    H234352   6.203   6.374   0.522
 4265TIP3   OH234353   5.606   6.707   7.266
 4265TIP3    H134354   5.693   6.745   7.260
 4265TIP3    H234355   5.559   6.743   7.191
 4266TIP3   OH234356   4.577   1.391   0.402
 4266TIP3    H134357   4.587   1.444   0.323
 4266TIP3    H234358   4.628   1.438   0.468
 4267TIP3   OH234359   5.871   5.852   1.978
 4267TIP3    H134360   5.884   5.782   2.042
 4267TIP3    H234361   5.918   5.927   2.014
 4268TIP3   OH234362   4.600   2.948   7.098
 4268TIP3    H134363   4.525   2.978   7.047
 4268TIP3    H234364   4.674   2.952   7.037
 4269TIP3   OH234365   5.184   1.839   0.977
 4269TIP3    H134366   5.100   1.885   0.986
 4269TIP3    H234367   5.245   1.905   0.945
 4270TIP3   OH234368   6.655   4.293   6.960
 4270TIP3    H134369   6.685   4.219   6.907
 4270TIP3    H234370   6.591   4.338   6.905
 4271TIP3   OH234371   2.818   2.646   8.351
 4271TIP3    H134372   2.855   2.580   8.292
 4271TIP3    H234373   2.735   2.671   8.310
 4272TIP3   OH234374   1.971   1.111   7.809
 4272TIP3    H134375   1.884   1.103   7.848
 4272TIP3    H234376   1.957   1.159   7.728
 4273TIP3   OH234377   3.533   5.004   1.420
 4273TIP3    H134378   3.490   4.989   1.336
 4273TIP3    H234379   3.546   4.916   1.456
 4274TIP3   OH234380   6.278   5.082   7.115
 4274TIP3    H134381   6.228   5.004   7.141
 4274TIP3    H234382   6.250   5.150   7.176
 4275TIP3   OH234383   2.155   2.127   1.076
 4275TIP3    H134384   2.180   2.179   1.152
 4275TIP3    H234385   2.218   2.152   1.008
 4276TIP3   OH234386   0.530   6.550   7.715
 4276TIP3    H134387   0.450   6.524   7.762
 4276TIP3    H234388   0.598   6.493   7.750
 4277TIP3   OH234389   1.264   1.024   0.494
 4277TIP3    H134390   1.331   1.090   0.475
 4277TIP3    H234391   1.301   0.942   0.461
 4278TIP3   OH234392   3.774   6.228   7.631
 4278TIP3    H134393   3.862   6.240   7.595
 4278TIP3    H234394   3.755   6.311   7.674
 4279TIP3   OH234395   0.202   2.269   7.790
 4279TIP3    H134396   0.111   2.295   7.777
 4279TIP3    H234397   0.206   2.179   7.759
 4280TIP3   OH234398   0.459   4.061   0.681
 4280TIP3    H134399   0.373   4.027   0.658
 4280TIP3    H234400   0.518   4.023   0.616
 4281TIP3   OH234401   3.469   1.323   2.006
 4281TIP3    H134402   3.488   1.241   2.050
 4281TIP3    H234403   3.379   1.313   1.975
 4282TIP3   OH234404   5.236   3.080   6.699
 4282TIP3    H134405   5.305   3.144   6.683
 4282TIP3    H234406   5.273   2.996   6.670
 4283TIP3   OH234407   5.186   3.054   0.823
 4283TIP3    H134408   5.238   2.980   0.792
 4283TIP3    H234409   5.246   3.106   0.876
 4284TIP3   OH234410   1.737   6.403   1.641
 4284TIP3    H134411   1.797   6.331   1.622
 4284TIP3    H234412   1.676   6.367   1.705
 4285TIP3   OH234413   3.716   2.190   0.522
 4285TIP3    H134414   3.694   2.262   0.462
 4285TIP3    H234415   3.651   2.122   0.503
 4286TIP3   OH234416   1.532   5.975   7.166
 4286TIP3    H134417   1.573   5.890   7.179
 4286TIP3    H234418   1.598   6.028   7.122
 4287TIP3   OH234419   3.208   2.068   6.654
 4287TIP3    H134420   3.252   1.984   6.638
 4287TIP3    H234421   3.115   2.047   6.657
 4288TIP3   OH234422   3.238   3.112   7.365
 4288TIP3    H134423   3.210   3.032   7.408
 4288TIP3    H234424   3.301   3.084   7.299
 4289TIP3   OH234425   1.711   3.069   6.873
 4289TIP3    H134426   1.723   2.982   6.835
 4289TIP3    H234427   1.658   3.053   6.951
 4290TIP3   OH234428   0.927   3.554   1.744
 4290TIP3    H134429   0.891   3.588   1.826
 4290TIP3    H234430   0.864   3.487   1.717
 4291TIP3   OH234431   3.031   2.582   7.502
 4291TIP3    H134432   3.083   2.658   7.526
 4291TIP3    H234433   2.968   2.573   7.573
 4292TIP3   OH234434   4.587   5.479   1.689
 4292TIP3    H134435   4.578   5.423   1.612
 4292TIP3    H234436   4.668   5.528   1.674
 4293TIP3   OH234437   5.716   3.469   0.849
 4293TIP3    H134438   5.656   3.542   0.862
 4293TIP3    H234439   5.705   3.444   0.757
 4294TIP3   OH234440   1.406   3.379   6.122
 4294TIP3    H134441   1.408   3.355   6.215
 4294TIP3    H234442   1.489   3.347   6.087
 4295TIP3   OH234443   5.790   0.614   1.980
 4295TIP3    H134444   5.734   0.682   1.944
 4295TIP3    H234445   5.819   0.648   2.065
 4296TIP3   OH234446   0.339   1.609   8.344
 4296TIP3    H134447   0.406   1.618   8.277
 4296TIP3    H234448   0.297   1.695   8.348
 4297TIP3   OH234449   1.772   3.832   7.651
 4297TIP3    H134450   1.811   3.749   7.624
 4297TIP3    H234451   1.786   3.836   7.746
 4298TIP3   OH234452   6.488   0.781   0.566
 4298TIP3    H134453   6.399   0.791   0.599
 4298TIP3    H234454   6.543   0.821   0.633
 4299TIP3   OH234455   6.620   6.804   7.157
 4299TIP3    H134456   6.713   6.817   7.142
 4299TIP3    H234457   6.586   6.776   7.072
 4300TIP3   OH234458   6.051   1.273   8.463
 4300TIP3    H134459   6.059   1.347   8.402
 4300TIP3    H234460   6.115   1.291   8.531
 4301TIP3   OH234461   0.806   5.504   7.259
 4301TIP3    H134462   0.741   5.474   7.322
 4301TIP3    H234463   0.758   5.509   7.176
 4302TIP3   OH234464   4.808   1.590   6.366
 4302TIP3    H134465   4.723   1.617   6.331
 4302TIP3    H234466   4.811   1.495   6.352
 4303TIP3   OH234467   2.199   4.201   1.709
 4303TIP3    H134468   2.273   4.174   1.764
 4303TIP3    H234469   2.124   4.154   1.745
 4304TIP3   OH234470   4.453   4.249   0.256
 4304TIP3    H134471   4.381   4.287   0.307
 4304TIP3    H234472   4.515   4.321   0.245
 4305TIP3   OH234473   5.648   4.174   0.641
 4305TIP3    H134474   5.727   4.138   0.680
 4305TIP3    H234475   5.582   4.105   0.650
 4306TIP3   OH234476   4.769   1.935   7.019
 4306TIP3    H134477   4.702   1.903   6.959
 4306TIP3    H234478   4.852   1.906   6.982
 4307TIP3   OH234479   2.050   3.339   1.255
 4307TIP3    H134480   2.145   3.327   1.251
 4307TIP3    H234481   2.015   3.262   1.211
 4308TIP3   OH234482   1.773   0.244   7.237
 4308TIP3    H134483   1.829   0.300   7.182
 4308TIP3    H234484   1.704   0.302   7.268
 4309TIP3   OH234485   5.357   3.071   8.001
 4309TIP3    H134486   5.340   2.980   8.026
 4309TIP3    H234487   5.407   3.107   8.074
 4310TIP3   OH234488   2.504   5.282   8.062
 4310TIP3    H134489   2.582   5.266   8.009
 4310TIP3    H234490   2.500   5.377   8.069
 4311TIP3   OH234491   4.292   5.255   6.894
 4311TIP3    H134492   4.238   5.217   6.964
 4311TIP3    H234493   4.230   5.308   6.843
 4312TIP3   OH234494   0.573   1.062   6.336
 4312TIP3    H134495   0.484   1.088   6.356
 4312TIP3    H234496   0.628   1.123   6.386
 4313TIP3   OH234497   1.637   6.313   0.585
 4313TIP3    H134498   1.614   6.392   0.634
 4313TIP3    H234499   1.572   6.308   0.515
 4314TIP3   OH234500   3.122   4.772   0.675
 4314TIP3    H134501   3.124   4.693   0.729
 4314TIP3    H234502   3.044   4.819   0.704
 4315TIP3   OH234503   5.588   5.599   7.803
 4315TIP3    H134504   5.514   5.541   7.824
 4315TIP3    H234505   5.661   5.539   7.788
 4316TIP3   OH234506   5.702   6.320   0.956
 4316TIP3    H134507   5.727   6.398   1.004
 4316TIP3    H234508   5.612   6.303   0.983
 4317TIP3   OH234509   4.794   1.827   1.139
 4317TIP3    H134510   4.816   1.738   1.110
 4317TIP3    H234511   4.736   1.815   1.214
 4318TIP3   OH234512   4.475   1.228   0.227
 4318TIP3    H134513   4.394   1.242   0.277
 4318TIP3    H234514   4.539   1.287   0.268
 4319TIP3   OH234515   6.804   6.569   1.094
 4319TIP3    H134516   6.753   6.639   1.052
 4319TIP3    H234517   6.875   6.616   1.138
 4320TIP3   OH234518   6.007   0.315   8.067
 4320TIP3    H134519   6.069   0.253   8.027
 4320TIP3    H234520   5.965   0.264   8.136
 4321TIP3   OH234521   0.804   4.674   7.901
 4321TIP3    H134522   0.822   4.691   7.993
 4321TIP3    H234523   0.849   4.591   7.883
 4322TIP3   OH234524   5.229   3.596   7.615
 4322TIP3    H134525   5.247   3.624   7.704
 4322TIP3    H234526   5.147   3.547   7.621
 4323TIP3   OH234527   1.904   2.354   7.882
 4323TIP3    H134528   1.880   2.444   7.905
 4323TIP3    H234529   1.997   2.359   7.859
 4324TIP3   OH234530   0.811   3.820   8.414
 4324TIP3    H134531   0.868   3.867   8.474
 4324TIP3    H234532   0.846   3.731   8.413
 4325TIP3   OH234533   2.401   3.223   0.340
 4325TIP3    H134534   2.416   3.314   0.368
 4325TIP3    H234535   2.388   3.229   0.246
 4326TIP3   OH234536   0.942   3.278   8.476
 4326TIP3    H134537   0.992   3.325   8.410
 4326TIP3    H234538   0.981   3.305   8.559
 4327TIP3   OH234539   5.498   3.697   1.211
 4327TIP3    H134540   5.534   3.633   1.273
 4327TIP3    H234541   5.544   3.679   1.129
 4328TIP3   OH234542   1.974   6.403   5.984
 4328TIP3    H134543   1.985   6.314   5.952
 4328TIP3    H234544   1.991   6.459   5.908
 4329TIP3   OH234545   6.899   1.505   6.384
 4329TIP3    H134546   0.060   1.566   6.360
 4329TIP3    H234547   6.821   1.540   6.341
 4330TIP3   OH234548   5.420   2.989   8.324
 4330TIP3    H134549   5.421   2.924   8.254
 4330TIP3    H234550   5.352   2.959   8.384
 4331TIP3   OH234551   0.131   3.123   1.148
 4331TIP3    H134552   0.220   3.156   1.140
 4331TIP3    H234553   0.084   3.192   1.197
 4332TIP3   OH234554   5.691   0.902   7.840
 4332TIP3    H134555   5.712   0.875   7.930
 4332TIP3    H234556   5.775   0.930   7.804
 4333TIP3   OH234557   0.814   5.544   1.664
 4333TIP3    H134558   0.891   5.511   1.712
 4333TIP3    H234559   0.796   5.629   1.703
 4334TIP3   OH234560   1.576   2.245   7.005
 4334TIP3    H134561   1.619   2.318   7.051
 4334TIP3    H234562   1.500   2.284   6.963
 4335TIP3   OH234563   0.993   2.224   1.222
 4335TIP3    H134564   0.984   2.257   1.133
 4335TIP3    H234565   1.000   2.303   1.276
 4336TIP3   OH234566   2.224   0.553   6.600
 4336TIP3    H134567   2.131   0.574   6.589
 4336TIP3    H234568   2.255   0.534   6.511
 4337TIP3   OH234569   4.712   5.198   7.564
 4337TIP3    H134570   4.705   5.104   7.547
 4337TIP3    H234571   4.690   5.240   7.481
 4338TIP3   OH234572   5.360   5.268   8.548
 4338TIP3    H134573   5.310   5.333   8.498
 4338TIP3    H234574   5.393   5.207   8.482
 4339TIP3   OH234575   4.117   2.894   8.440
 4339TIP3    H134576   4.164   2.907   8.357
 4339TIP3    H234577   4.025   2.907   8.418
 4340TIP3   OH234578   2.986   2.822   1.514
 4340TIP3    H134579   2.921   2.859   1.574
 4340TIP3    H234580   2.953   2.844   1.427
 4341TIP3   OH234581   3.196   4.042   1.268
 4341TIP3    H134582   3.223   3.964   1.316
 4341TIP3    H234583   3.179   4.107   1.336
 4342TIP3   OH234584   3.767   3.170   6.803
 4342TIP3    H134585   3.777   3.138   6.713
 4342TIP3    H234586   3.741   3.262   6.792
 4343TIP3   OH234587   0.774   4.353   1.337
 4343TIP3    H134588   0.720   4.413   1.285
 4343TIP3    H234589   0.804   4.405   1.411
 4344TIP3   OH234590   0.348   0.791   6.680
 4344TIP3    H134591   0.313   0.784   6.769
 4344TIP3    H234592   0.338   0.702   6.644
 4345TIP3   OH234593   3.966   3.927   7.023
 4345TIP3    H134594   3.888   3.872   7.019
 4345TIP3    H234595   4.027   3.888   6.962
 4346TIP3   OH234596   3.425   5.294   7.379
 4346TIP3    H134597   3.350   5.324   7.328
 4346TIP3    H234598   3.462   5.374   7.416
 4347TIP3   OH234599   0.474   4.931   0.861
 4347TIP3    H134600   0.534   4.989   0.815
 4347TIP3    H234601   0.397   4.928   0.805
 4348TIP3   OH234602   4.341   2.358   0.791
 4348TIP3    H134603   4.399   2.395   0.725
 4348TIP3    H234604   4.274   2.311   0.741
 4349TIP3   OH234605   6.701   5.608   1.159
 4349TIP3    H134606   6.698   5.650   1.073
 4349TIP3    H234607   6.672   5.676   1.220
 4350TIP3   OH234608   1.316   3.010   1.236
 4350TIP3    H134609   1.297   3.080   1.173
 4350TIP3    H234610   1.403   3.032   1.270
 4351TIP3   OH234611   0.366   6.335   0.908
 4351TIP3    H134612   0.371   6.241   0.895
 4351TIP3    H234613   0.446   6.370   0.869
 4352TIP3   OH234614   4.204   0.109   8.046
 4352TIP3    H134615   4.295   0.105   8.018
 4352TIP3    H234616   4.156   0.141   7.970
 4353TIP3   OH234617   3.843   0.791   0.684
 4353TIP3    H134618   3.897   0.713   0.700
 4353TIP3    H234619   3.858   0.846   0.760
 4354TIP3   OH234620   5.861   1.515   0.346
 4354TIP3    H134621   5.871   1.555   0.260
 4354TIP3    H234622   5.767   1.500   0.355
 4355TIP3   OH234623   0.451   1.444   1.564
 4355TIP3    H134624   0.432   1.424   1.655
 4355TIP3    H234625   0.499   1.367   1.532
 4356TIP3   OH234626   3.026   5.171   0.987
 4356TIP3    H134627   2.932   5.153   0.989
 4356TIP3    H234628   3.034   5.262   1.016
 4357TIP3   OH234629   5.564   2.737   1.565
 4357TIP3    H134630   5.632   2.773   1.621
 4357TIP3    H234631   5.530   2.812   1.517
 4358TIP3   OH234632   2.921   1.602   8.385
 4358TIP3    H134633   2.913   1.529   8.446
 4358TIP3    H234634   2.948   1.676   8.440
 4359TIP3   OH234635   3.568   2.485   1.103
 4359TIP3    H134636   3.544   2.572   1.134
 4359TIP3    H234637   3.531   2.425   1.168
 4360TIP3   OH234638   4.232   0.208   0.757
 4360TIP3    H134639   4.319   0.169   0.769
 4360TIP3    H234640   4.251   0.297   0.727
 4361TIP3   OH234641   1.982   2.867   1.496
 4361TIP3    H134642   1.956   2.786   1.541
 4361TIP3    H234643   2.051   2.904   1.551
 4362TIP3   OH234644   5.668   2.702   0.318
 4362TIP3    H134645   5.599   2.680   0.256
 4362TIP3    H234646   5.664   2.634   0.385
 4363TIP3   OH234647   0.544   6.748   1.919
 4363TIP3    H134648   0.606   6.675   1.920
 4363TIP3    H234649   0.479   6.726   1.986
 4364TIP3   OH234650   1.438   6.072   6.775
 4364TIP3    H134651   1.385   6.108   6.846
 4364TIP3    H234652   1.433   5.978   6.786
 4365TIP3   OH234653   5.205   4.993   1.497
 4365TIP3    H134654   5.114   4.968   1.511
 4365TIP3    H234655   5.229   5.041   1.576
 4366TIP3   OH234656   2.921   1.817   0.013
 4366TIP3    H134657   2.834   1.830   0.052
 4366TIP3    H234658   2.969   1.765   0.078
 4367TIP3   OH234659   2.210   1.638   6.862
 4367TIP3    H134660   2.160   1.569   6.906
 4367TIP3    H234661   2.212   1.610   6.770
 4368TIP3   OH234662   4.083   3.766   1.584
 4368TIP3    H134663   4.142   3.837   1.608
 4368TIP3    H234664   4.016   3.808   1.530
 4369TIP3   OH234665   3.873   5.678   1.755
 4369TIP3    H134666   3.940   5.610   1.753
 4369TIP3    H234667   3.821   5.658   1.833
 4370TIP3   OH234668   3.778   4.862   2.166
 4370TIP3    H134669   3.829   4.830   2.240
 4370TIP3    H234670   3.748   4.783   2.121
 4371TIP3   OH234671   4.797   2.839   2.379
 4371TIP3    H134672   4.769   2.926   2.409
 4371TIP3    H234673   4.753   2.778   2.439
 4372TIP3   OH234674   2.800   3.584   0.614
 4372TIP3    H134675   2.882   3.561   0.571
 4372TIP3    H234676   2.796   3.680   0.608
 4373TIP3   OH234677   0.433   3.538   0.484
 4373TIP3    H134678   0.378   3.466   0.453
 4373TIP3    H234679   0.523   3.509   0.467
 4374TIP3   OH234680   0.909   5.825   6.548
 4374TIP3    H134681   0.847   5.898   6.550
 4374TIP3    H234682   0.874   5.764   6.613
 4375TIP3   OH234683   5.159   0.975   1.337
 4375TIP3    H134684   5.150   1.060   1.381
 4375TIP3    H234685   5.136   0.993   1.246
 4376TIP3   OH234686   0.918   3.233   0.652
 4376TIP3    H134687   0.938   3.151   0.698
 4376TIP3    H234688   0.906   3.206   0.561
 4377TIP3   OH234689   3.369   6.055   1.849
 4377TIP3    H134690   3.348   6.111   1.924
 4377TIP3    H234691   3.459   6.028   1.863
 4378TIP3   OH234692   5.644   0.715   1.676
 4378TIP3    H134693   5.672   0.806   1.684
 4378TIP3    H234694   5.724   0.667   1.655
 4379TIP3   OH234695   2.973   3.809   1.352
 4379TIP3    H134696   3.021   3.807   1.434
 4379TIP3    H234697   2.936   3.898   1.348
 4380TIP3   OH234698   0.222   1.154   6.285
 4380TIP3    H134699   0.284   1.122   6.219
 4380TIP3    H234700   0.266   1.230   6.323
 4381TIP3   OH234701   2.284   4.623   7.423
 4381TIP3    H134702   2.296   4.552   7.360
 4381TIP3    H234703   2.293   4.580   7.508
 4382TIP3   OH234704   1.542   2.166   0.350
 4382TIP3    H134705   1.496   2.086   0.375
 4382TIP3    H234706   1.475   2.234   0.358
 4383TIP3   OH234707   4.501   5.108   0.188
 4383TIP3    H134708   4.503   5.204   0.184
 4383TIP3    H234709   4.517   5.080   0.098
 4384TIP3   OH234710   3.508   1.253   1.143
 4384TIP3    H134711   3.417   1.266   1.116
 4384TIP3    H234712   3.502   1.191   1.216
 4385TIP3   OH234713   6.053   0.639   1.530
 4385TIP3    H134714   5.978   0.598   1.575
 4385TIP3    H234715   6.075   0.715   1.584
 4386TIP3   OH234716   4.297   6.840   2.108
 4386TIP3    H134717   4.266   6.771   2.166
 4386TIP3    H234718   4.375   6.875   2.151
 4387TIP3   OH234719   0.030   3.542   1.484
 4387TIP3    H134720   0.029   3.561   1.578
 4387TIP3    H234721   0.020   3.627   1.442
 4388TIP3   OH234722   2.311   1.327   7.544
 4388TIP3    H134723   2.351   1.275   7.613
 4388TIP3    H234724   2.259   1.263   7.494
 4389TIP3   OH234725   2.980   4.341   0.584
 4389TIP3    H134726   3.055   4.391   0.617
 4389TIP3    H234727   3.018   4.259   0.552
 4390TIP3   OH234728   2.945   6.447   8.338
 4390TIP3    H134729   2.860   6.433   8.297
 4390TIP3    H234730   2.929   6.434   8.432
 4391TIP3   OH234731   5.730   0.325   7.880
 4391TIP3    H134732   5.685   0.335   7.796
 4391TIP3    H234733   5.801   0.263   7.862
 4392TIP3   OH234734   2.331   2.970   7.973
 4392TIP3    H134735   2.394   3.028   8.016
 4392TIP3    H234736   2.368   2.882   7.982
 4393TIP3   OH234737   0.515   2.946   8.533
 4393TIP3    H134738   0.574   2.907   8.469
 4393TIP3    H234739   0.489   2.874   0.022
 4394TIP3   OH234740   3.269   4.076   7.585
 4394TIP3    H134741   3.232   4.062   7.498
 4394TIP3    H234742   3.357   4.108   7.570
 4395TIP3   OH234743   0.517   1.941   8.331
 4395TIP3    H134744   0.422   1.954   8.341
 4395TIP3    H234745   0.531   1.942   8.237
 4396TIP3   OH234746   0.546   3.656   2.154
 4396TIP3    H134747   0.638   3.633   2.160
 4396TIP3    H234748   0.543   3.750   2.169
 4397TIP3   OH234749   3.197   4.621   7.197
 4397TIP3    H134750   3.140   4.595   7.125
 4397TIP3    H234751   3.144   4.609   7.276
 4398TIP3   OH234752   0.742   2.064   2.549
 4398TIP3    H134753   0.685   2.010   2.603
 4398TIP3    H234754   0.701   2.151   2.551
 4399TIP3   OH234755   6.755   4.383   0.682
 4399TIP3    H134756   6.829   4.330   0.714
 4399TIP3    H234757   6.693   4.383   0.755
 4400TIP3   OH234758   4.036   3.096   1.525
 4400TIP3    H134759   4.003   3.037   1.593
 4400TIP3    H234760   3.961   3.113   1.469
 4401TIP3   OH234761   1.141   0.728   0.409
 4401TIP3    H134762   1.048   0.705   0.406
 4401TIP3    H234763   1.170   0.699   0.496
 4402TIP3   OH234764   0.163   2.597   7.313
 4402TIP3    H134765   0.131   2.598   7.403
 4402TIP3    H234766   0.108   2.532   7.268
 4403TIP3   OH234767   3.615   0.184   6.282
 4403TIP3    H134768   3.669   0.261   6.300
 4403TIP3    H234769   3.656   0.114   6.333
 4404TIP3   OH234770   3.588   5.718   1.268
 4404TIP3    H134771   3.647   5.706   1.341
 4404TIP3    H234772   3.508   5.755   1.307
 4405TIP3   OH234773   4.464   1.466   7.449
 4405TIP3    H134774   4.470   1.388   7.503
 4405TIP3    H234775   4.487   1.538   7.508
 4406TIP3   OH234776   0.973   5.541   1.160
 4406TIP3    H134777   0.958   5.488   1.238
 4406TIP3    H234778   1.022   5.484   1.101
 4407TIP3   OH234779   3.204   2.071   7.320
 4407TIP3    H134780   3.282   2.073   7.264
 4407TIP3    H234781   3.131   2.071   7.258
 4408TIP3   OH234782   0.341   3.017   6.046
 4408TIP3    H134783   0.428   3.056   6.037
 4408TIP3    H234784   0.290   3.082   6.096
 4409TIP3   OH234785   0.835   2.404   8.524
 4409TIP3    H134786   0.856   2.494   8.548
 4409TIP3    H234787   0.916   2.368   8.490
 4410TIP3   OH234788   4.056   5.536   6.709
 4410TIP3    H134789   4.110   5.554   6.633
 4410TIP3    H234790   4.090   5.454   6.745
 4411TIP3   OH234791   1.315   4.630   6.702
 4411TIP3    H134792   1.319   4.561   6.636
 4411TIP3    H234793   1.242   4.685   6.675
 4412TIP3   OH234794   6.100   1.822   0.710
 4412TIP3    H134795   6.195   1.821   0.701
 4412TIP3    H234796   6.073   1.733   0.686
 4413TIP3   OH234797   1.303   2.255   8.382
 4413TIP3    H134798   1.333   2.290   8.298
 4413TIP3    H234799   1.374   2.198   8.412
 4414TIP3   OH234800   5.315   0.245   1.637
 4414TIP3    H134801   5.220   0.239   1.633
 4414TIP3    H234802   5.343   0.241   1.545
 4415TIP3   OH234803   4.998   4.411   6.715
 4415TIP3    H134804   5.032   4.456   6.792
 4415TIP3    H234805   4.924   4.360   6.748
 4416TIP3   OH234806   5.074   5.529   8.178
 4416TIP3    H134807   5.119   5.567   8.102
 4416TIP3    H234808   4.990   5.499   8.144
 4417TIP3   OH234809   4.451   4.041   8.430
 4417TIP3    H134810   4.457   3.947   8.413
 4417TIP3    H234811   4.361   4.064   8.409
 4418TIP3   OH234812   6.066   6.704   0.515
 4418TIP3    H134813   6.106   6.727   0.431
 4418TIP3    H234814   6.123   6.636   0.550
 4419TIP3   OH234815   5.165   1.846   7.035
 4419TIP3    H134816   5.134   1.812   6.951
 4419TIP3    H234817   5.088   1.842   7.092
 4420TIP3   OH234818   3.574   4.834   6.320
 4420TIP3    H134819   3.655   4.785   6.336
 4420TIP3    H234820   3.535   4.844   6.407
 4421TIP3   OH234821   1.951   5.174   7.170
 4421TIP3    H134822   1.892   5.200   7.240
 4421TIP3    H234823   1.925   5.085   7.147
 4422TIP3   OH234824   6.404   6.157   0.301
 4422TIP3    H134825   6.445   6.210   0.233
 4422TIP3    H234826   6.414   6.066   0.271
 4423TIP3   OH234827   5.168   3.679   0.142
 4423TIP3    H134828   5.182   3.622   0.218
 4423TIP3    H234829   5.076   3.665   0.118
 4424TIP3   OH234830   0.949   2.657   7.423
 4424TIP3    H134831   0.920   2.700   7.342
 4424TIP3    H234832   0.886   2.586   7.437
 4425TIP3   OH234833   3.592   1.431   0.320
 4425TIP3    H134834   3.561   1.470   0.402
 4425TIP3    H234835   3.658   1.492   0.288
 4426TIP3   OH234836   0.795   2.038   7.001
 4426TIP3    H134837   0.888   2.043   7.023
 4426TIP3    H234838   0.761   2.126   7.018
 4427TIP3   OH234839   1.865   4.216   7.778
 4427TIP3    H134840   1.785   4.261   7.805
 4427TIP3    H234841   1.878   4.147   7.844
 4428TIP3   OH234842   1.415   2.728   8.536
 4428TIP3    H134843   1.369   2.812   8.545
 4428TIP3    H234844   1.421   2.713   8.442
 4429TIP3   OH234845   5.573   4.645   0.721
 4429TIP3    H134846   5.664   4.639   0.692
 4429TIP3    H234847   5.523   4.600   0.653
 4430TIP3   OH234848   6.558   0.836   0.151
 4430TIP3    H134849   6.512   0.797   0.077
 4430TIP3    H234850   6.638   0.874   0.113
 4431TIP3   OH234851   1.867   3.990   0.367
 4431TIP3    H134852   1.907   3.931   0.430
 4431TIP3    H234853   1.918   4.070   0.373
 4432TIP3   OH234854   6.131   4.924   2.203
 4432TIP3    H134855   6.110   4.840   2.161
 4432TIP3    H234856   6.109   4.911   2.295
 4433TIP3   OH234857   5.174   5.329   7.914
 4433TIP3    H134858   5.186   5.253   7.858
 4433TIP3    H234859   5.086   5.317   7.951
 4434TIP3   OH234860   1.513   5.060   1.811
 4434TIP3    H134861   1.449   5.085   1.879
 4434TIP3    H234862   1.475   4.982   1.770
 4435TIP3   OH234863   0.257   6.573   8.109
 4435TIP3    H134864   0.181   6.574   8.167
 4435TIP3    H234865   0.324   6.623   8.156
 4436TIP3   OH234866   0.911   6.376   1.339
 4436TIP3    H134867   0.913   6.291   1.297
 4436TIP3    H234868   1.003   6.402   1.344
 4437TIP3   OH234869   6.898   1.187   7.855
 4437TIP3    H134870   0.036   1.103   7.854
 4437TIP3    H234871   6.844   1.183   7.934
 4438TIP3   OH234872   4.009   5.393   2.464
 4438TIP3    H134873   4.053   5.336   2.528
 4438TIP3    H234874   4.063   5.387   2.386
 4439TIP3   OH234875   3.448   0.883   7.383
 4439TIP3    H134876   3.390   0.838   7.445
 4439TIP3    H234877   3.497   0.813   7.341
 4440TIP3   OH234878   1.732   0.831   7.821
 4440TIP3    H134879   1.686   0.879   7.752
 4440TIP3    H234880   1.812   0.799   7.778
 4441TIP3   OH234881   5.073   1.734   1.782
 4441TIP3    H134882   5.141   1.688   1.832
 4441TIP3    H234883   5.118   1.806   1.740
 4442TIP3   OH234884   5.618   5.633   0.304
 4442TIP3    H134885   5.569   5.571   0.250
 4442TIP3    H234886   5.597   5.719   0.267
 4443TIP3   OH234887   6.357   1.055   8.082
 4443TIP3    H134888   6.399   1.123   8.029
 4443TIP3    H234889   6.411   1.050   8.161
 4444TIP3   OH234890   3.930   4.595   6.270
 4444TIP3    H134891   3.936   4.647   6.350
 4444TIP3    H234892   3.868   4.642   6.215
 4445TIP3   OH234893   2.591   5.442   7.770
 4445TIP3    H134894   2.540   5.445   7.851
 4445TIP3    H234895   2.673   5.488   7.791
 4446TIP3   OH234896   1.259   0.129   8.509
 4446TIP3    H134897   1.218   0.151   8.425
 4446TIP3    H234898   1.219   0.188   0.005
 4447TIP3   OH234899   3.494   0.404   0.327
 4447TIP3    H134900   3.458   0.327   0.371
 4447TIP3    H234901   3.556   0.369   0.264
 4448TIP3   OH234902   0.868   0.006   1.709
 4448TIP3    H134903   0.902   6.828   1.729
 4448TIP3    H234904   0.931   0.066   1.749
 4449TIP3   OH234905   2.835   1.063   7.125
 4449TIP3    H134906   2.767   1.049   7.060
 4449TIP3    H234907   2.816   1.149   7.161
 4450TIP3   OH234908   6.048   1.813   1.143
 4450TIP3    H134909   6.027   1.844   1.055
 4450TIP3    H234910   6.097   1.885   1.183
 4451TIP3   OH234911   0.710   4.321   1.637
 4451TIP3    H134912   0.761   4.254   1.680
 4451TIP3    H234913   0.650   4.273   1.580
 4452TIP3   OH234914   1.890   2.115   1.285
 4452TIP3    H134915   1.855   2.135   1.372
 4452TIP3    H234916   1.819   2.137   1.225
 4453TIP3   OH234917   5.977   3.027   1.218
 4453TIP3    H134918   6.032   2.995   1.147
 4453TIP3    H234919   6.011   3.115   1.237
 4454TIP3   OH234920   0.397   5.932   2.552
 4454TIP3    H134921   0.464   5.867   2.576
 4454TIP3    H234922   0.416   6.007   2.608
 4455TIP3   OH234923   5.193   2.349   0.774
 4455TIP3    H134924   5.134   2.419   0.746
 4455TIP3    H234925   5.184   2.282   0.706
 4456TIP3   OH234926   4.942   2.826   0.733
 4456TIP3    H134927   4.983   2.805   0.817
 4456TIP3    H234928   4.995   2.898   0.698
 4457TIP3   OH234929   5.431   3.208   0.931
 4457TIP3    H134930   5.484   3.159   0.868
 4457TIP3    H234931   5.495   3.252   0.987
 4458TIP3   OH234932   4.424   6.630   1.212
 4458TIP3    H134933   4.361   6.583   1.267
 4458TIP3    H234934   4.419   6.586   1.127
 4459TIP3   OH234935   2.370   0.915   6.333
 4459TIP3    H134936   2.325   0.993   6.366
 4459TIP3    H234937   2.306   0.872   6.276
 4460TIP3   OH234938   6.137   5.543   6.865
 4460TIP3    H134939   6.197   5.517   6.795
 4460TIP3    H234940   6.054   5.503   6.842
 4461TIP3   OH234941   6.708   2.152   8.291
 4461TIP3    H134942   6.662   2.178   8.211
 4461TIP3    H234943   6.763   2.227   8.313
 4462TIP3   OH234944   3.276   3.522   2.082
 4462TIP3    H134945   3.285   3.429   2.105
 4462TIP3    H234946   3.209   3.523   2.014
 4463TIP3   OH234947   0.411   5.138   7.936
 4463TIP3    H134948   0.441   5.048   7.944
 4463TIP3    H234949   0.475   5.181   7.880
 4464TIP3   OH234950   4.079   2.974   6.501
 4464TIP3    H134951   3.987   2.991   6.520
 4464TIP3    H234952   4.093   2.882   6.527
 4465TIP3   OH234953   3.903   4.037   0.739
 4465TIP3    H134954   3.921   4.131   0.737
 4465TIP3    H234955   3.988   3.996   0.755
 4466TIP3   OH234956   1.368   0.985   7.875
 4466TIP3    H134957   1.401   1.074   7.890
 4466TIP3    H234958   1.274   0.995   7.867
 4467TIP3   OH234959   1.604   0.076   7.472
 4467TIP3    H134960   1.641   0.132   7.540
 4467TIP3    H234961   1.675   0.065   7.409
 4468TIP3   OH234962   6.057   1.335   8.125
 4468TIP3    H134963   6.113   1.302   8.054
 4468TIP3    H234964   5.982   1.275   8.127
 4469TIP3   OH234965   6.018   3.174   7.224
 4469TIP3    H134966   6.026   3.093   7.174
 4469TIP3    H234967   6.029   3.244   7.159
 4470TIP3   OH234968   6.469   2.871   1.002
 4470TIP3    H134969   6.388   2.867   1.054
 4470TIP3    H234970   6.469   2.959   0.965
 4471TIP3   OH234971   5.757   6.464   2.850
 4471TIP3    H134972   5.804   6.387   2.817
 4471TIP3    H234973   5.813   6.538   2.823
 4472TIP3   OH234974   0.493   3.080   0.311
 4472TIP3    H134975   0.405   3.051   0.286
 4472TIP3    H234976   0.538   3.095   0.227
 4473TIP3   OH234977   1.894   1.884   8.023
 4473TIP3    H134978   1.932   1.919   8.104
 4473TIP3    H234979   1.851   1.959   7.983
 4474TIP3   OH234980   5.879   5.695   7.233
 4474TIP3    H134981   5.943   5.624   7.245
 4474TIP3    H234982   5.807   5.672   7.292
 4475TIP3   OH234983   3.328   3.280   0.625
 4475TIP3    H134984   3.375   3.202   0.595
 4475TIP3    H234985   3.322   3.269   0.720
 4476TIP3   OH234986   4.269   0.154   7.658
 4476TIP3    H134987   4.296   0.205   7.734
 4476TIP3    H234988   4.343   0.161   7.597
 4477TIP3   OH234989   2.092   5.168   7.613
 4477TIP3    H134990   2.166   5.169   7.673
 4477TIP3    H234991   2.020   5.133   7.665
 4478TIP3   OH234992   1.227   0.578   7.184
 4478TIP3    H134993   1.140   0.611   7.206
 4478TIP3    H234994   1.212   0.521   7.108
 4479TIP3   OH234995   3.842   4.483   8.449
 4479TIP3    H134996   3.827   4.574   8.422
 4479TIP3    H234997   3.871   4.490   8.540
 4480TIP3   OH234998   1.571   5.121   8.186
 4480TIP3    H134999   1.507   5.186   8.215
 4480TIP3    H235000   1.611   5.160   8.109
 4481TIP3   OH235001   3.594   5.279   1.010
 4481TIP3    H135002   3.677   5.233   1.001
 4481TIP3    H235003   3.588   5.300   1.103
 4482TIP3   OH235004   3.418   4.343   0.560
 4482TIP3    H135005   3.370   4.302   0.488
 4482TIP3    H235006   3.506   4.304   0.555
 4483TIP3   OH235007   4.380   3.920   8.175
 4483TIP3    H135008   4.375   3.942   8.082
 4483TIP3    H235009   4.425   3.994   8.215
 4484TIP3   OH235010   6.163   5.012   0.717
 4484TIP3    H135011   6.168   4.998   0.622
 4484TIP3    H235012   6.149   5.106   0.726
 4485TIP3   OH235013   3.532   1.699   8.029
 4485TIP3    H135014   3.465   1.704   7.961
 4485TIP3    H235015   3.487   1.658   8.103
 4486TIP3   OH235016   1.196   0.069   0.752
 4486TIP3    H135017   1.234   0.119   0.825
 4486TIP3    H235018   1.121   0.023   0.791
 4487TIP3   OH235019   6.025   1.915   8.208
 4487TIP3    H135020   6.109   1.934   8.250
 4487TIP3    H235021   5.982   2.001   8.203
 4488TIP3   OH235022   3.748   0.390   6.374
 4488TIP3    H135023   3.839   0.408   6.354
 4488TIP3    H235024   3.748   0.367   6.467
 4489TIP3   OH235025   3.716   3.016   1.609
 4489TIP3    H135026   3.638   2.971   1.578
 4489TIP3    H235027   3.737   3.079   1.540
 4490TIP3   OH235028   3.840   5.870   8.037
 4490TIP3    H135029   3.809   5.958   8.015
 4490TIP3    H235030   3.933   5.871   8.015
 4491TIP3   OH235031   5.604   3.968   7.271
 4491TIP3    H135032   5.583   3.950   7.363
 4491TIP3    H235033   5.681   4.024   7.274
 4492TIP3   OH235034   3.799   4.184   0.380
 4492TIP3    H135035   3.756   4.134   0.311
 4492TIP3    H235036   3.799   4.126   0.456
 4493TIP3   OH235037   3.339   6.450   8.511
 4493TIP3    H135038   3.334   6.376   8.450
 4493TIP3    H235039   3.293   6.521   8.467
 4494TIP3   OH235040   4.502   4.472   6.659
 4494TIP3    H135041   4.517   4.400   6.598
 4494TIP3    H235042   4.588   4.493   6.694
 4495TIP3   OH235043   4.397   6.758   8.213
 4495TIP3    H135044   4.477   6.811   8.225
 4495TIP3    H235045   4.359   6.753   8.301
 4496TIP3   OH235046   3.403   2.040   7.771
 4496TIP3    H135047   3.384   2.106   7.838
 4496TIP3    H235048   3.494   2.055   7.748
 4497TIP3   OH235049   5.014   6.800   2.585
 4497TIP3    H135050   4.961   6.754   2.520
 4497TIP3    H235051   5.033   6.885   2.545
 4498TIP3   OH235052   4.225   1.097   8.469
 4498TIP3    H135053   4.308   1.132   8.502
 4498TIP3    H235054   4.235   1.097   8.374
 4499TIP3   OH235055   5.008   1.327   0.984
 4499TIP3    H135056   5.056   1.257   0.937
 4499TIP3    H235057   4.944   1.280   1.037
 4500TIP3   OH235058   2.531   2.703   1.689
 4500TIP3    H135059   2.456   2.762   1.692
 4500TIP3    H235060   2.503   2.631   1.632
 4501TIP3   OH235061   6.738   3.676   1.665
 4501TIP3    H135062   6.723   3.765   1.634
 4501TIP3    H235063   6.709   3.676   1.756
 4502TIP3   OH235064   4.585   3.651   0.430
 4502TIP3    H135065   4.538   3.577   0.392
 4502TIP3    H235066   4.541   3.728   0.395
 4503TIP3   OH235067   2.542   0.401   1.382
 4503TIP3    H135068   2.523   0.412   1.289
 4503TIP3    H235069   2.560   0.307   1.391
 4504TIP3   OH235070   6.088   4.934   0.441
 4504TIP3    H135071   6.031   5.009   0.430
 4504TIP3    H235072   6.133   4.925   0.358
 4505TIP3   OH235073   6.737   6.061   6.074
 4505TIP3    H135074   6.693   5.976   6.077
 4505TIP3    H235075   6.828   6.042   6.095
 4506TIP3   OH235076   5.858   2.935   7.852
 4506TIP3    H135077   5.868   2.845   7.884
 4506TIP3    H235078   5.947   2.967   7.842
 4507TIP3   OH235079   0.159   2.049   0.741
 4507TIP3    H135080   0.214   2.038   0.664
 4507TIP3    H235081   0.182   2.136   0.774
 4508TIP3   OH235082   6.323   6.469   2.037
 4508TIP3    H135083   6.240   6.464   2.085
 4508TIP3    H235084   6.329   6.385   1.992
 4509TIP3   OH235085   0.691   0.575   7.296
 4509TIP3    H135086   0.666   0.533   7.379
 4509TIP3    H235087   0.615   0.628   7.272
 4510TIP3   OH235088   4.028   0.145   1.723
 4510TIP3    H135089   4.018   0.233   1.686
 4510TIP3    H235090   4.060   0.160   1.812
 4511TIP3   OH235091   5.714   5.288   2.310
 4511TIP3    H135092   5.659   5.241   2.247
 4511TIP3    H235093   5.803   5.271   2.280
 4512TIP3   OH235094   3.458   5.436   1.900
 4512TIP3    H135095   3.542   5.407   1.935
 4512TIP3    H235096   3.395   5.370   1.930
 4513TIP3   OH235097   3.321   0.902   7.131
 4513TIP3    H135098   3.231   0.917   7.159
 4513TIP3    H235099   3.373   0.915   7.210
 4514TIP3   OH235100   6.832   0.686   7.247
 4514TIP3    H135101   6.858   0.594   7.247
 4514TIP3    H235102   6.796   0.702   7.334
 4515TIP3   OH235103   5.307   2.775   8.139
 4515TIP3    H135104   5.266   2.695   8.171
 4515TIP3    H235105   5.380   2.744   8.085
 4516TIP3   OH235106   3.659   6.612   0.679
 4516TIP3    H135107   3.750   6.632   0.655
 4516TIP3    H235108   3.625   6.693   0.716
 4517TIP3   OH235109   5.941   2.723   7.475
 4517TIP3    H135110   5.899   2.672   7.544
 4517TIP3    H235111   5.964   2.658   7.408
 4518TIP3   OH235112   3.441   1.105   0.625
 4518TIP3    H135113   3.489   1.149   0.695
 4518TIP3    H235114   3.416   1.021   0.662
 4519TIP3   OH235115   2.840   4.451   6.549
 4519TIP3    H135116   2.764   4.395   6.533
 4519TIP3    H235117   2.915   4.394   6.535
 4520TIP3   OH235118   0.402   0.023   8.414
 4520TIP3    H135119   0.463   0.093   8.436
 4520TIP3    H235120   0.359   0.002   8.497
 4521TIP3   OH235121   0.830   6.392   0.722
 4521TIP3    H135122   0.818   6.382   0.628
 4521TIP3    H235123   0.925   6.402   0.733
 4522TIP3   OH235124   3.381   0.060   1.084
 4522TIP3    H135125   3.330   6.900   1.127
 4522TIP3    H235126   3.398   0.124   1.154
 4523TIP3   OH235127   0.052   6.209   2.477
 4523TIP3    H135128   0.056   6.221   2.572
 4523TIP3    H235129   0.137   6.241   2.445
 4524TIP3   OH235130   6.039   2.114   6.884
 4524TIP3    H135131   6.022   2.168   6.961
 4524TIP3    H235132   6.049   2.176   6.812
 4525TIP3   OH235133   4.998   0.236   2.196
 4525TIP3    H135134   4.967   0.322   2.171
 4525TIP3    H235135   5.073   0.220   2.138
 4526TIP3   OH235136   6.013   0.637   1.259
 4526TIP3    H135137   6.027   0.620   1.352
 4526TIP3    H235138   6.034   0.553   1.217
 4527TIP3   OH235139   1.177   1.092   1.493
 4527TIP3    H135140   1.270   1.076   1.506
 4527TIP3    H235141   1.140   1.005   1.477
 4528TIP3   OH235142   1.445   1.171   1.235
 4528TIP3    H135143   1.352   1.173   1.213
 4528TIP3    H235144   1.454   1.095   1.294
 4529TIP3   OH235145   3.245   2.837   7.240
 4529TIP3    H135146   3.160   2.824   7.282
 4529TIP3    H235147   3.308   2.829   7.312
 4530TIP3   OH235148   6.683   5.950   1.797
 4530TIP3    H135149   6.724   5.923   1.880
 4530TIP3    H235150   6.591   5.929   1.807
 4531TIP3   OH235151   0.297   1.659   0.785
 4531TIP3    H135152   0.344   1.685   0.864
 4531TIP3    H235153   0.344   1.583   0.752
 4532TIP3   OH235154   2.790   0.024   8.108
 4532TIP3    H135155   2.799   0.028   8.203
 4532TIP3    H235156   2.818   6.845   8.085
 4533TIP3   OH235157   6.294   2.292   2.659
 4533TIP3    H135158   6.366   2.232   2.639
 4533TIP3    H235159   6.329   2.348   2.729
 4534TIP3   OH235160   1.183   5.886   6.215
 4534TIP3    H135161   1.214   5.843   6.135
 4534TIP3    H235162   1.147   5.815   6.268
 4535TIP3   OH235163   1.713   1.893   0.297
 4535TIP3    H135164   1.772   1.920   0.368
 4535TIP3    H235165   1.628   1.880   0.340
 4536TIP3   OH235166   2.592   1.060   6.172
 4536TIP3    H135167   2.667   1.015   6.134
 4536TIP3    H235168   2.516   1.020   6.131
 4537TIP3   OH235169   2.370   0.585   7.379
 4537TIP3    H135170   2.443   0.533   7.412
 4537TIP3    H235171   2.384   0.590   7.285
 4538TIP3   OH235172   0.479   0.990   7.018
 4538TIP3    H135173   0.515   0.903   7.000
 4538TIP3    H235174   0.497   1.041   6.940
 4539TIP3   OH235175   2.679   2.926   6.412
 4539TIP3    H135176   2.696   2.840   6.372
 4539TIP3    H235177   2.678   2.987   6.338
 4540TIP3   OH235178   4.089   3.863   6.786
 4540TIP3    H135179   4.172   3.910   6.792
 4540TIP3    H235180   4.105   3.794   6.722
 4541TIP3   OH235181   0.428   0.579   1.000
 4541TIP3    H135182   0.407   0.499   1.048
 4541TIP3    H235183   0.463   0.639   1.066
 4542TIP3   OH235184   2.838   4.269   0.870
 4542TIP3    H135185   2.920   4.318   0.867
 4542TIP3    H235186   2.773   4.334   0.898
 4543TIP3   OH235187   1.174   1.831   7.478
 4543TIP3    H135188   1.110   1.901   7.490
 4543TIP3    H235189   1.251   1.874   7.440
 4544TIP3   OH235190   1.726   5.422   0.174
 4544TIP3    H135191   1.660   5.475   0.220
 4544TIP3    H235192   1.722   5.452   0.084
 4545TIP3   OH235193   1.563   4.605   6.845
 4545TIP3    H135194   1.527   4.559   6.920
 4545TIP3    H235195   1.493   4.603   6.779
 4546TIP3   OH235196   1.652   1.831   1.581
 4546TIP3    H135197   1.587   1.827   1.511
 4546TIP3    H235198   1.732   1.794   1.541
 4547TIP3   OH235199   4.210   4.416   8.390
 4547TIP3    H135200   4.163   4.381   8.466
 4547TIP3    H235201   4.264   4.487   8.425
 4548TIP3   OH235202   3.962   5.542   7.456
 4548TIP3    H135203   4.019   5.478   7.497
 4548TIP3    H235204   4.019   5.589   7.395
 4549TIP3   OH235205   0.663   4.148   1.874
 4549TIP3    H135206   0.650   4.230   1.922
 4549TIP3    H235207   0.707   4.090   1.936
 4550TIP3   OH235208   0.187   1.955   8.050
 4550TIP3    H135209   0.141   1.874   8.074
 4550TIP3    H235210   0.247   1.929   7.980
 4551TIP3   OH235211   1.193   2.085   1.389
 4551TIP3    H135212   1.206   2.167   1.437
 4551TIP3    H235213   1.138   2.109   1.315
 4552TIP3   OH235214   6.216   0.386   7.337
 4552TIP3    H135215   6.144   0.447   7.355
 4552TIP3    H235216   6.189   0.340   7.257
 4553TIP3   OH235217   2.559   6.674   6.924
 4553TIP3    H135218   2.485   6.649   6.980
 4553TIP3    H235219   2.588   6.591   6.885
 4554TIP3   OH235220   5.298   1.403   0.392
 4554TIP3    H135221   5.292   1.388   0.486
 4554TIP3    H235222   5.221   1.361   0.355
 4555TIP3   OH235223   5.317   1.824   0.700
 4555TIP3    H135224   5.338   1.867   0.784
 4555TIP3    H235225   5.229   1.790   0.712
 4556TIP3   OH235226   0.247   4.791   7.060
 4556TIP3    H135227   0.239   4.706   7.017
 4556TIP3    H235228   0.332   4.825   7.031
 4557TIP3   OH235229   4.720   6.167   0.537
 4557TIP3    H135230   4.731   6.241   0.597
 4557TIP3    H235231   4.739   6.090   0.591
 4558TIP3   OH235232   6.051   0.410   6.634
 4558TIP3    H135233   6.003   0.371   6.561
 4558TIP3    H235234   6.138   0.429   6.597
 4559TIP3   OH235235   5.023   5.943   6.975
 4559TIP3    H135236   4.948   5.884   6.982
 4559TIP3    H235237   5.020   5.975   6.884
 4560TIP3   OH235238   4.388   6.325   1.766
 4560TIP3    H135239   4.295   6.307   1.780
 4560TIP3    H235240   4.430   6.302   1.849
 4561TIP3   OH235241   5.618   3.090   8.491
 4561TIP3    H135242   5.638   3.172   8.444
 4561TIP3    H235243   5.556   3.044   8.434
 4562TIP3   OH235244   5.375   2.442   6.749
 4562TIP3    H135245   5.373   2.500   6.673
 4562TIP3    H235246   5.383   2.354   6.713
 4563TIP3   OH235247   0.414   1.904   7.775
 4563TIP3    H135248   0.342   1.842   7.783
 4563TIP3    H235249   0.404   1.942   7.688
 4564TIP3   OH235250   1.625   3.975   0.673
 4564TIP3    H135251   1.552   4.014   0.721
 4564TIP3    H235252   1.686   3.945   0.741
 4565TIP3   OH235253   4.448   3.879   7.069
 4565TIP3    H135254   4.414   3.924   6.992
 4565TIP3    H235255   4.541   3.899   7.070
 4566TIP3   OH235256   4.755   0.481   0.790
 4566TIP3    H135257   4.743   0.438   0.706
 4566TIP3    H235258   4.792   0.566   0.769
 4567TIP3   OH235259   2.906   1.390   6.156
 4567TIP3    H135260   2.876   1.326   6.221
 4567TIP3    H235261   2.887   1.475   6.195
 4568TIP3   OH235262   0.346   4.052   1.172
 4568TIP3    H135263   0.351   4.046   1.267
 4568TIP3    H235264   0.411   4.119   1.149
 4569TIP3   OH235265   0.765   6.452   8.123
 4569TIP3    H135266   0.810   6.376   8.161
 4569TIP3    H235267   0.674   6.423   8.114
 4570TIP3   OH235268   6.592   0.006   1.918
 4570TIP3    H135269   6.549   6.836   1.885
 4570TIP3    H235270   6.672   6.884   1.960
 4571TIP3   OH235271   3.796   5.616   6.873
 4571TIP3    H135272   3.808   5.699   6.826
 4571TIP3    H235273   3.878   5.604   6.921
 4572TIP3   OH235274   4.582   5.242   7.017
 4572TIP3    H135275   4.574   5.160   6.970
 4572TIP3    H235276   4.653   5.228   7.079
 4573TIP3   OH235277   5.896   1.939   7.237
 4573TIP3    H135278   5.827   2.003   7.222
 4573TIP3    H235279   5.866   1.888   7.312
 4574TIP3   OH235280   5.162   0.063   0.828
 4574TIP3    H135281   5.147   0.027   0.741
 4574TIP3    H235282   5.222   0.001   0.869
 4575TIP3   OH235283   2.883   4.073   8.336
 4575TIP3    H135284   2.929   4.111   8.411
 4575TIP3    H235285   2.853   3.988   8.366
 4576TIP3   OH235286   1.402   3.316   6.397
 4576TIP3    H135287   1.315   3.295   6.362
 4576TIP3    H235288   1.419   3.245   6.459
 4577TIP3   OH235289   3.459   0.344   1.704
 4577TIP3    H135290   3.419   0.428   1.680
 4577TIP3    H235291   3.438   0.332   1.796
 4578TIP3   OH235292   3.058   3.814   0.651
 4578TIP3    H135293   3.145   3.776   0.656
 4578TIP3    H235294   3.008   3.770   0.720
 4579TIP3   OH235295   1.142   4.800   1.266
 4579TIP3    H135296   1.219   4.761   1.309
 4579TIP3    H235297   1.170   4.888   1.242
 4580TIP3   OH235298   5.591   6.360   2.672
 4580TIP3    H135299   5.508   6.403   2.650
 4580TIP3    H235300   5.619   6.403   2.753
 4581TIP3   OH235301   6.132   0.288   7.625
 4581TIP3    H135302   6.219   0.272   7.661
 4581TIP3    H235303   6.096   0.358   7.679
 4582TIP3   OH235304   4.077   3.386   6.237
 4582TIP3    H135305   4.022   3.359   6.311
 4582TIP3    H235306   4.165   3.393   6.274
 4583TIP3   OH235307   2.535   5.720   0.714
 4583TIP3    H135308   2.601   5.654   0.736
 4583TIP3    H235309   2.456   5.669   0.694
 4584TIP3   OH235310   1.649   0.483   1.307
 4584TIP3    H135311   1.620   0.418   1.372
 4584TIP3    H235312   1.743   0.490   1.321
 4585TIP3   OH235313   6.441   1.223   7.049
 4585TIP3    H135314   6.472   1.279   6.978
 4585TIP3    H235315   6.347   1.237   7.051
 4586TIP3   OH235316   5.717   4.594   8.473
 4586TIP3    H135317   5.736   4.638   8.556
 4586TIP3    H235318   5.779   4.521   8.470
 4587TIP3   OH235319   5.595   0.778   7.232
 4587TIP3    H135320   5.563   0.812   7.315
 4587TIP3    H235321   5.560   0.838   7.166
 4588TIP3   OH235322   5.412   1.409   1.662
 4588TIP3    H135323   5.364   1.344   1.611
 4588TIP3    H235324   5.439   1.475   1.598
 4589TIP3   OH235325   6.770   4.744   7.741
 4589TIP3    H135326   6.729   4.821   7.781
 4589TIP3    H235327   6.796   4.773   7.654
 4590TIP3   OH235328   0.449   0.036   2.165
 4590TIP3    H135329   0.501   0.046   2.086
 4590TIP3    H235330   0.413   6.857   2.159
 4591TIP3   OH235331   2.740   0.572   0.946
 4591TIP3    H135332   2.796   0.517   1.001
 4591TIP3    H235333   2.674   0.606   1.006
 4592TIP3   OH235334   6.387   5.814   1.763
 4592TIP3    H135335   6.448   5.765   1.818
 4592TIP3    H235336   6.334   5.864   1.825
 4593TIP3   OH235337   0.002   1.868   0.917
 4593TIP3    H135338   6.828   1.859   0.871
 4593TIP3    H235339   0.065   1.891   0.849
 4594TIP3   OH235340   6.626   1.469   1.025
 4594TIP3    H135341   6.693   1.508   1.082
 4594TIP3    H235342   6.560   1.436   1.085
 4595TIP3   OH235343   3.614   1.090   8.282
 4595TIP3    H135344   3.689   1.091   8.342
 4595TIP3    H235345   3.537   1.088   8.340
 4596TIP3   OH235346   4.869   1.482   1.420
 4596TIP3    H135347   4.947   1.444   1.379
 4596TIP3    H235348   4.876   1.576   1.402
 4597TIP3   OH235349   5.346   5.247   0.362
 4597TIP3    H135350   5.289   5.313   0.402
 4597TIP3    H235351   5.287   5.198   0.304
 4598TIP3   OH235352   0.922   4.172   6.989
 4598TIP3    H135353   0.887   4.256   7.018
 4598TIP3    H235354   1.001   4.160   7.041
 4599TIP3   OH235355   1.364   2.148   6.691
 4599TIP3    H135356   1.444   2.192   6.666
 4599TIP3    H235357   1.370   2.062   6.649
 4600TIP3   OH235358   6.597   0.664   2.223
 4600TIP3    H135359   6.670   0.724   2.237
 4600TIP3    H235360   6.550   0.664   2.307
 4601TIP3   OH235361   6.614   1.230   1.773
 4601TIP3    H135362   6.534   1.269   1.809
 4601TIP3    H235363   6.670   1.218   1.849
 4602TIP3   OH235364   1.111   3.769   1.468
 4602TIP3    H135365   1.109   3.859   1.502
 4602TIP3    H235366   1.032   3.728   1.504
 4603TIP3   OH235367   5.837   5.146   0.643
 4603TIP3    H135368   5.857   5.230   0.684
 4603TIP3    H235369   5.888   5.147   0.562
 4604TIP3   OH235370   1.314   4.745   8.378
 4604TIP3    H135371   1.230   4.705   8.356
 4604TIP3    H235372   1.334   4.711   8.465
 4605TIP3   OH235373   2.466   5.112   8.281
 4605TIP3    H135374   2.513   5.030   8.264
 4605TIP3    H235375   2.508   5.176   8.222
 4606TIP3   OH235376   1.558   1.830   7.642
 4606TIP3    H135377   1.557   1.836   7.737
 4606TIP3    H235378   1.483   1.883   7.614
 4607TIP3   OH235379   3.430   1.918   6.589
 4607TIP3    H135380   3.483   1.841   6.568
 4607TIP3    H235381   3.441   1.929   6.684
 4608TIP3   OH235382   2.768   4.483   0.490
 4608TIP3    H135383   2.676   4.469   0.511
 4608TIP3    H235384   2.815   4.460   0.570
 4609TIP3   OH235385   3.293   6.141   7.069
 4609TIP3    H135386   3.286   6.128   7.163
 4609TIP3    H235387   3.372   6.194   7.057
 4610TIP3   OH235388   5.277   3.302   8.293
 4610TIP3    H135389   5.297   3.395   8.299
 4610TIP3    H235390   5.354   3.265   8.248
 4611TIP3   OH235391   4.798   0.924   1.198
 4611TIP3    H135392   4.715   0.956   1.163
 4611TIP3    H235393   4.782   0.832   1.217
 4612TIP3   OH235394   5.728   1.031   8.324
 4612TIP3    H135395   5.656   0.969   8.319
 4612TIP3    H235396   5.799   0.981   8.365
 4613TIP3   OH235397   5.889   6.234   6.166
 4613TIP3    H135398   5.831   6.199   6.233
 4613TIP3    H235399   5.922   6.157   6.121
 4614TIP3   OH235400   6.768   0.070   1.565
 4614TIP3    H135401   6.847   0.081   1.619
 4614TIP3    H235402   6.752   6.885   1.563
 4615TIP3   OH235403   3.916   6.323   6.181
 4615TIP3    H135404   3.927   6.231   6.203
 4615TIP3    H235405   3.827   6.329   6.146
 4616TIP3   OH235406   5.150   6.087   2.316
 4616TIP3    H135407   5.069   6.132   2.294
 4616TIP3    H235408   5.129   5.994   2.308
 4617TIP3   OH235409   0.448   2.153   0.913
 4617TIP3    H135410   0.412   2.236   0.944
 4617TIP3    H235411   0.525   2.137   0.967
 4618TIP3   OH235412   6.027   1.404   0.880
 4618TIP3    H135413   6.044   1.319   0.839
 4618TIP3    H235414   6.078   1.466   0.828
 4619TIP3   OH235415   5.784   2.438   1.689
 4619TIP3    H135416   5.745   2.366   1.638
 4619TIP3    H235417   5.775   2.410   1.780
 4620TIP3   OH235418   4.419   2.792   7.420
 4620TIP3    H135419   4.388   2.858   7.482
 4620TIP3    H235420   4.512   2.814   7.407
 4621TIP3   OH235421   2.326   4.901   7.931
 4621TIP3    H135422   2.383   4.955   7.876
 4621TIP3    H235423   2.385   4.836   7.970
 4622TIP3   OH235424   3.181   4.508   0.728
 4622TIP3    H135425   3.146   4.485   0.813
 4622TIP3    H235426   3.263   4.459   0.721
 4623TIP3   OH235427   2.589   1.897   0.472
 4623TIP3    H135428   2.651   1.846   0.524
 4623TIP3    H235429   2.616   1.988   0.484
 4624TIP3   OH235430   5.427   6.699   0.397
 4624TIP3    H135431   5.497   6.703   0.332
 4624TIP3    H235432   5.382   6.617   0.379
 4625TIP3   OH235433   1.103   4.826   7.719
 4625TIP3    H135434   1.191   4.848   7.750
 4625TIP3    H235435   1.094   4.732   7.735
 4626TIP3   OH235436   6.106   5.436   1.289
 4626TIP3    H135437   6.020   5.396   1.298
 4626TIP3    H235438   6.152   5.380   1.227
 4627TIP3   OH235439   0.884   5.371   6.409
 4627TIP3    H135440   0.809   5.417   6.447
 4627TIP3    H235441   0.960   5.403   6.459
 4628TIP3   OH235442   2.213   6.285   0.939
 4628TIP3    H135443   2.231   6.365   0.888
 4628TIP3    H235444   2.261   6.216   0.894
 4629TIP3   OH235445   1.047   4.645   8.297
 4629TIP3    H135446   0.984   4.697   8.247
 4629TIP3    H235447   1.058   4.565   8.246
 4630TIP3   OH235448   3.685   6.148   7.242
 4630TIP3    H135449   3.653   6.199   7.316
 4630TIP3    H235450   3.732   6.075   7.281
 4631TIP3   OH235451   0.701   1.501   8.428
 4631TIP3    H135452   0.699   1.406   8.426
 4631TIP3    H235453   0.669   1.524   8.516
 4632TIP3   OH235454   0.385   3.381   2.003
 4632TIP3    H135455   0.401   3.332   2.084
 4632TIP3    H235456   0.347   3.317   1.943
 4633TIP3   OH235457   6.128   0.948   8.181
 4633TIP3    H135458   6.185   0.874   8.203
 4633TIP3    H235459   6.189   1.018   8.159
 4634TIP3   OH235460   2.199   5.651   0.941
 4634TIP3    H135461   2.186   5.746   0.945
 4634TIP3    H235462   2.294   5.640   0.941
 4635TIP3   OH235463   6.417   0.738   2.014
 4635TIP3    H135464   6.416   0.831   1.991
 4635TIP3    H235465   6.489   0.729   2.076
 4636TIP3   OH235466   0.493   2.328   6.954
 4636TIP3    H135467   0.427   2.268   6.921
 4636TIP3    H235468   0.524   2.287   7.035
 4637TIP3   OH235469   6.257   4.112   7.793
 4637TIP3    H135470   6.289   4.081   7.877
 4637TIP3    H235471   6.177   4.161   7.814
 4638TIP3   OH235472   2.848   0.114   7.349
 4638TIP3    H135473   2.801   0.038   7.383
 4638TIP3    H235474   2.912   0.136   7.417
 4639TIP3   OH235475   5.963   6.029   5.981
 4639TIP3    H135476   5.984   5.969   6.053
 4639TIP3    H235477   5.867   6.037   5.984
 4640TIP3   OH235478   0.546   3.447   0.786
 4640TIP3    H135479   0.544   3.399   0.702
 4640TIP3    H235480   0.464   3.496   0.788
 4641TIP3   OH235481   3.066   0.502   0.122
 4641TIP3    H135482   3.029   0.434   0.066
 4641TIP3    H235483   3.155   0.515   0.087
 4642TIP3   OH235484   4.754   2.877   0.171
 4642TIP3    H135485   4.820   2.941   0.197
 4642TIP3    H235486   4.804   2.805   0.134
 4643TIP3   OH235487   1.605   5.754   0.383
 4643TIP3    H135488   1.660   5.698   0.438
 4643TIP3    H235489   1.522   5.760   0.430
 4644TIP3   OH235490   3.452   3.051   0.570
 4644TIP3    H135491   3.523   3.083   0.626
 4644TIP3    H235492   3.459   2.956   0.576
 4645TIP3   OH235493   3.809   3.461   0.161
 4645TIP3    H135494   3.757   3.539   0.142
 4645TIP3    H235495   3.746   3.389   0.157
 4646TIP3   OH235496   5.389   4.435   7.343
 4646TIP3    H135497   5.330   4.367   7.307
 4646TIP3    H235498   5.472   4.389   7.357
 4647TIP3   OH235499   5.980   1.085   1.593
 4647TIP3    H135500   6.050   1.137   1.553
 4647TIP3    H235501   6.016   0.997   1.599
 4648TIP3   OH235502   5.333   2.703   2.347
 4648TIP3    H135503   5.341   2.742   2.434
 4648TIP3    H235504   5.242   2.676   2.341
 4649TIP3   OH235505   2.415   2.925   8.345
 4649TIP3    H135506   2.324   2.925   8.376
 4649TIP3    H235507   2.432   3.016   8.321
 4650TIP3   OH235508   0.430   1.441   7.788
 4650TIP3    H135509   0.360   1.441   7.723
 4650TIP3    H235510   0.453   1.534   7.799
 4651TIP3   OH235511   4.143   4.223   7.880
 4651TIP3    H135512   4.196   4.144   7.873
 4651TIP3    H235513   4.202   4.288   7.918
 4652TIP3   OH235514   3.024   0.759   8.030
 4652TIP3    H135515   3.027   0.667   8.055
 4652TIP3    H235516   3.068   0.805   8.102
 4653TIP3   OH235517   3.863   3.755   0.886
 4653TIP3    H135518   3.915   3.816   0.834
 4653TIP3    H235519   3.844   3.683   0.826
 4654TIP3   OH235520   3.122   3.362   7.800
 4654TIP3    H135521   3.054   3.426   7.822
 4654TIP3    H235522   3.088   3.316   7.723
 4655TIP3   OH235523   1.412   4.041   0.895
 4655TIP3    H135524   1.447   4.087   0.971
 4655TIP3    H235525   1.322   4.073   0.886
 4656TIP3   OH235526   4.607   1.981   0.701
 4656TIP3    H135527   4.617   2.017   0.789
 4656TIP3    H235528   4.653   2.043   0.644
 4657TIP3   OH235529   5.678   0.317   1.580
 4657TIP3    H135530   5.629   0.299   1.661
 4657TIP3    H235531   5.671   0.236   1.530
 4658TIP3   OH235532   4.827   1.118   7.630
 4658TIP3    H135533   4.810   1.114   7.724
 4658TIP3    H235534   4.919   1.144   7.623
 4659TIP3   OH235535   1.459   2.701   8.275
 4659TIP3    H135536   1.380   2.694   8.223
 4659TIP3    H235537   1.521   2.747   8.219
 4660TIP3   OH235538   3.015   0.280   0.334
 4660TIP3    H135539   3.039   0.367   0.300
 4660TIP3    H235540   3.048   0.219   0.269
 4661TIP3   OH235541   3.928   3.198   1.119
 4661TIP3    H135542   3.930   3.104   1.137
 4661TIP3    H235543   4.014   3.230   1.147
 4662TIP3   OH235544   6.219   3.339   2.484
 4662TIP3    H135545   6.196   3.401   2.416
 4662TIP3    H235546   6.165   3.364   2.559
 4663TIP3   OH235547   0.728   2.458   6.840
 4663TIP3    H135548   0.760   2.387   6.784
 4663TIP3    H235549   0.642   2.427   6.870
 4664TIP3   OH235550   5.242   5.512   1.000
 4664TIP3    H135551   5.256   5.421   1.027
 4664TIP3    H235552   5.322   5.557   1.024
 4665TIP3   OH235553   0.704   5.531   6.999
 4665TIP3    H135554   0.790   5.558   6.966
 4665TIP3    H235555   0.650   5.524   6.920
 4666TIP3   OH235556   1.266   4.326   2.492
 4666TIP3    H135557   1.268   4.251   2.552
 4666TIP3    H235558   1.174   4.334   2.467
 4667TIP3   OH235559   2.390   0.149   7.601
 4667TIP3    H135560   2.322   0.179   7.661
 4667TIP3    H235561   2.360   0.178   7.515
 4668TIP3   OH235562   1.832   6.886   1.207
 4668TIP3    H135563   1.891   6.841   1.268
 4668TIP3    H235564   1.822   6.825   1.134
 4669TIP3   OH235565   6.422   5.857   7.630
 4669TIP3    H135566   6.445   5.793   7.563
 4669TIP3    H235567   6.506   5.888   7.663
 4670TIP3   OH235568   6.818   1.134   7.133
 4670TIP3    H135569   6.732   1.101   7.161
 4670TIP3    H235570   6.806   1.157   7.041
 4671TIP3   OH235571   6.394   3.742   6.737
 4671TIP3    H135572   6.477   3.779   6.767
 4671TIP3    H235573   6.412   3.649   6.723
 4672TIP3   OH235574   1.887   0.276   8.339
 4672TIP3    H135575   1.818   0.215   8.365
 4672TIP3    H235576   1.965   0.245   8.386
 4673TIP3   OH235577   5.630   0.563   6.694
 4673TIP3    H135578   5.574   0.491   6.722
 4673TIP3    H235579   5.584   0.642   6.723
 4674TIP3   OH235580   1.892   5.236   8.273
 4674TIP3    H135581   1.925   5.146   8.264
 4674TIP3    H235582   1.931   5.267   8.355
 4675TIP3   OH235583   3.303   3.112   7.719
 4675TIP3    H135584   3.279   3.119   7.811
 4675TIP3    H235585   3.247   3.042   7.685
 4676TIP3   OH235586   0.523   4.190   7.069
 4676TIP3    H135587   0.590   4.200   7.136
 4676TIP3    H235588   0.567   4.139   7.000
 4677TIP3   OH235589   0.265   1.923   6.518
 4677TIP3    H135590   0.333   1.991   6.523
 4677TIP3    H235591   0.183   1.970   6.523
 4678TIP3   OH235592   4.867   5.844   2.016
 4678TIP3    H135593   4.896   5.852   2.107
 4678TIP3    H235594   4.915   5.913   1.970
 4679TIP3   OH235595   3.093   4.533   8.151
 4679TIP3    H135596   3.013   4.481   8.155
 4679TIP3    H235597   3.063   4.624   8.148
 4680TIP3   OH235598   4.610   5.100   2.198
 4680TIP3    H135599   4.566   5.045   2.133
 4680TIP3    H235600   4.683   5.047   2.229
 4681TIP3   OH235601   0.915   2.011   8.093
 4681TIP3    H135602   0.919   2.027   8.188
 4681TIP3    H235603   0.911   2.098   8.054
 4682TIP3   OH235604   0.378   5.486   0.644
 4682TIP3    H135605   0.426   5.520   0.720
 4682TIP3    H235606   0.334   5.408   0.676
 4683TIP3   OH235607   2.229   1.384   6.724
 4683TIP3    H135608   2.183   1.332   6.658
 4683TIP3    H235609   2.258   1.462   6.677
 4684TIP3   OH235610   1.205   3.603   0.297
 4684TIP3    H135611   1.215   3.598   0.392
 4684TIP3    H235612   1.131   3.662   0.284
 4685TIP3   OH235613   4.818   3.933   6.779
 4685TIP3    H135614   4.896   3.968   6.735
 4685TIP3    H235615   4.747   3.989   6.748
 4686TIP3   OH235616   4.378   3.557   7.278
 4686TIP3    H135617   4.301   3.507   7.305
 4686TIP3    H235618   4.430   3.494   7.228
 4687TIP3   OH235619   3.673   4.867   8.142
 4687TIP3    H135620   3.680   4.814   8.222
 4687TIP3    H235621   3.761   4.863   8.104
 4688TIP3   OH235622   2.781   1.155   7.945
 4688TIP3    H135623   2.767   1.079   8.002
 4688TIP3    H235624   2.765   1.122   7.857
 4689TIP3   OH235625   0.478   1.355   8.130
 4689TIP3    H135626   0.460   1.423   8.065
 4689TIP3    H235627   0.573   1.359   8.142
 4690TIP3   OH235628   4.994   0.906   1.658
 4690TIP3    H135629   4.977   0.815   1.683
 4690TIP3    H235630   4.936   0.921   1.583
 4691TIP3   OH235631   2.374   6.108   1.708
 4691TIP3    H135632   2.431   6.093   1.783
 4691TIP3    H235633   2.422   6.074   1.633
 4692TIP3   OH235634   3.796   0.848   0.404
 4692TIP3    H135635   3.811   0.831   0.497
 4692TIP3    H235636   3.726   0.787   0.381
 4693TIP3   OH235637   1.243   6.142   0.158
 4693TIP3    H135638   1.186   6.157   0.234
 4693TIP3    H235639   1.274   6.052   0.169
 4694TIP3   OH235640   4.183   2.783   7.241
 4694TIP3    H135641   4.250   2.790   7.309
 4694TIP3    H235642   4.128   2.710   7.268
 4695TIP3   OH235643   3.708   6.384   2.416
 4695TIP3    H135644   3.720   6.293   2.391
 4695TIP3    H235645   3.767   6.397   2.490
 4696TIP3   OH235646   5.715   5.303   0.003
 4696TIP3    H135647   5.713   5.353   8.488
 4696TIP3    H235648   5.799   5.258   0.001
 4697TIP3   OH235649   0.466   4.375   7.993
 4697TIP3    H135650   0.535   4.403   8.053
 4697TIP3    H235651   0.423   4.456   7.967
 4698TIP3   OH235652   6.739   3.853   6.388
 4698TIP3    H135653   6.719   3.871   6.296
 4698TIP3    H235654   6.722   3.759   6.398
 4699TIP3   OH235655   0.412   1.118   6.077
 4699TIP3    H135656   0.501   1.142   6.050
 4699TIP3    H235657   0.406   1.024   6.060
 4700TIP3   OH235658   3.168   6.795   1.120
 4700TIP3    H135659   3.085   6.795   1.072
 4700TIP3    H235660   3.143   6.802   1.212
 4701TIP3   OH235661   3.654   4.794   1.517
 4701TIP3    H135662   3.744   4.786   1.548
 4701TIP3    H235663   3.600   4.773   1.593
 4702TIP3   OH235664   3.644   4.117   7.879
 4702TIP3    H135665   3.714   4.183   7.881
 4702TIP3    H235666   3.674   4.049   7.938
 4703TIP3   OH235667   4.639   4.125   6.696
 4703TIP3    H135668   4.558   4.148   6.742
 4703TIP3    H235669   4.619   4.141   6.604
 4704TIP3   OH235670   3.924   1.059   7.154
 4704TIP3    H135671   3.991   1.019   7.099
 4704TIP3    H235672   3.854   1.081   7.093
 4705TIP3   OH235673   6.787   4.419   1.154
 4705TIP3    H135674   6.780   4.470   1.235
 4705TIP3    H235675   6.745   4.335   1.175
 4706TIP3   OH235676   3.873   4.995   0.600
 4706TIP3    H135677   3.875   4.914   0.549
 4706TIP3    H235678   3.787   4.995   0.643
 4707TIP3   OH235679   3.984   4.733   6.508
 4707TIP3    H135680   4.031   4.813   6.529
 4707TIP3    H235681   3.899   4.742   6.551
 4708TIP3   OH235682   4.572   4.930   6.958
 4708TIP3    H135683   4.523   4.852   6.935
 4708TIP3    H235684   4.623   4.951   6.880
 4709TIP3   OH235685   4.965   5.882   1.234
 4709TIP3    H135686   5.003   5.957   1.188
 4709TIP3    H235687   5.007   5.806   1.193
 4710TIP3   OH235688   3.606   1.829   1.441
 4710TIP3    H135689   3.532   1.769   1.445
 4710TIP3    H235690   3.683   1.772   1.439
 4711TIP3   OH235691   2.638   4.187   6.489
 4711TIP3    H135692   2.560   4.164   6.541
 4711TIP3    H235693   2.635   4.128   6.414
 4712TIP3   OH235694   2.027   6.147   7.645
 4712TIP3    H135695   2.021   6.054   7.665
 4712TIP3    H235696   2.114   6.172   7.677
 4713TIP3   OH235697   5.536   4.006   1.507
 4713TIP3    H135698   5.521   3.986   1.599
 4713TIP3    H235699   5.575   3.926   1.471
 4714TIP3   OH235700   3.621   0.119   7.291
 4714TIP3    H135701   3.686   0.142   7.225
 4714TIP3    H235702   3.577   0.202   7.311
 4715TIP3   OH235703   2.350   4.889   7.367
 4715TIP3    H135704   2.325   4.800   7.392
 4715TIP3    H235705   2.269   4.939   7.373
 4716TIP3   OH235706   0.812   1.905   1.978
 4716TIP3    H135707   0.771   1.896   1.892
 4716TIP3    H235708   0.759   1.850   2.036
 4717TIP3   OH235709   3.262   4.317   0.268
 4717TIP3    H135710   3.321   4.241   0.266
 4717TIP3    H235711   3.317   4.389   0.237
 4718TIP3   OH235712   6.773   2.320   1.591
 4718TIP3    H135713   6.862   2.286   1.581
 4718TIP3    H235714   6.718   2.253   1.553
 4719TIP3   OH235715   5.514   0.160   8.566
 4719TIP3    H135716   5.587   0.146   0.060
 4719TIP3    H235717   5.453   0.089   0.018
 4720TIP3   OH235718   0.762   2.631   1.510
 4720TIP3    H135719   0.830   2.689   1.544
 4720TIP3    H235720   0.810   2.567   1.457
 4721TIP3   OH235721   2.774   6.071   7.453
 4721TIP3    H135722   2.701   6.010   7.448
 4721TIP3    H235723   2.845   6.028   7.404
 4722TIP3   OH235724   4.592   3.123   1.271
 4722TIP3    H135725   4.507   3.166   1.280
 4722TIP3    H235726   4.620   3.108   1.362
 4723TIP3   OH235727   3.757   4.250   7.579
 4723TIP3    H135728   3.755   4.165   7.536
 4723TIP3    H235729   3.799   4.234   7.663
 4724TIP3   OH235730   0.832   4.135   7.883
 4724TIP3    H135731   0.855   4.175   7.967
 4724TIP3    H235732   0.858   4.044   7.892
 4725TIP3   OH235733   0.175   4.284   6.994
 4725TIP3    H135734   0.129   4.298   6.912
 4725TIP3    H235735   0.260   4.326   6.981
 4726TIP3   OH235736   5.650   6.747   1.894
 4726TIP3    H135737   5.612   6.735   1.807
 4726TIP3    H235738   5.589   6.702   1.953
 4727TIP3   OH235739   4.829   3.929   8.313
 4727TIP3    H135740   4.753   3.901   8.262
 4727TIP3    H235741   4.835   3.866   8.385
 4728TIP3   OH235742   3.292   3.353   8.039
 4728TIP3    H135743   3.282   3.376   7.947
 4728TIP3    H235744   3.303   3.258   8.040
 4729TIP3   OH235745   5.347   3.853   0.074
 4729TIP3    H135746   5.271   3.806   0.108
 4729TIP3    H235747   5.317   3.890   8.558
 4730TIP3   OH235748   1.059   4.425   0.089
 4730TIP3    H135749   1.128   4.373   0.131
 4730TIP3    H235750   1.083   4.515   0.108
 4731TIP3   OH235751   3.934   2.223   0.325
 4731TIP3    H135752   3.877   2.226   0.402
 4731TIP3    H235753   3.897   2.155   0.270
 4732TIP3   OH235754   2.397   5.131   7.201
 4732TIP3    H135755   2.472   5.099   7.151
 4732TIP3    H235756   2.352   5.052   7.230
 4733TIP3   OH235757   2.898   6.881   2.119
 4733TIP3    H135758   2.923   6.877   2.026
 4733TIP3    H235759   2.976   0.003   2.164
 4734TIP3   OH235760   5.879   4.780   1.972
 4734TIP3    H135761   5.970   4.757   1.992
 4734TIP3    H235762   5.847   4.708   1.917
 4735TIP3   OH235763   5.765   5.087   1.660
 4735TIP3    H135764   5.834   5.103   1.724
 4735TIP3    H235765   5.683   5.092   1.711
 4736TIP3   OH235766   6.516   2.321   0.068
 4736TIP3    H135767   6.432   2.319   0.113
 4736TIP3    H235768   6.567   2.386   0.116
 4737TIP3   OH235769   3.731   4.958   6.584
 4737TIP3    H135770   3.649   4.931   6.542
 4737TIP3    H235771   3.728   4.917   6.670
 4738TIP3   OH235772   5.429   5.742   2.297
 4738TIP3    H135773   5.392   5.782   2.376
 4738TIP3    H235774   5.444   5.651   2.321
 4739TIP3   OH235775   4.319   1.872   7.770
 4739TIP3    H135776   4.301   1.802   7.832
 4739TIP3    H235777   4.357   1.942   7.823
 4740TIP3   OH235778   2.631   6.432   6.791
 4740TIP3    H135779   2.629   6.474   6.705
 4740TIP3    H235780   2.718   6.392   6.796
 4741TIP3   OH235781   2.260   3.801   1.040
 4741TIP3    H135782   2.309   3.757   0.971
 4741TIP3    H235783   2.177   3.754   1.045
 4742TIP3   OH235784   5.878   2.158   8.296
 4742TIP3    H135785   5.862   2.239   8.247
 4742TIP3    H235786   5.792   2.118   8.307
 4743TIP3   OH235787   3.535   3.797   8.410
 4743TIP3    H135788   3.503   3.887   8.416
 4743TIP3    H235789   3.630   3.806   8.403
 4744TIP3   OH235790   1.070   4.140   1.288
 4744TIP3    H135791   1.160   4.107   1.293
 4744TIP3    H235792   1.068   4.196   1.211
 4745TIP3   OH235793   5.822   2.414   8.448
 4745TIP3    H135794   5.810   2.325   8.483
 4745TIP3    H235795   5.745   2.462   8.479
 4746TIP3   OH235796   0.656   0.474   7.867
 4746TIP3    H135797   0.643   0.566   7.889
 4746TIP3    H235798   0.569   0.443   7.841
 4747TIP3   OH235799   2.457   4.575   6.663
 4747TIP3    H135800   2.422   4.489   6.687
 4747TIP3    H235801   2.381   4.633   6.666
 4748TIP3   OH235802   1.127   5.589   2.508
 4748TIP3    H135803   1.174   5.538   2.442
 4748TIP3    H235804   1.077   5.653   2.458
 4749TIP3   OH235805   6.696   6.726   1.543
 4749TIP3    H135806   6.652   6.713   1.460
 4749TIP3    H235807   6.688   6.642   1.589
 4750TIP3   OH235808   6.769   0.919   8.548
 4750TIP3    H135809   6.721   0.933   8.466
 4750TIP3    H235810   6.848   0.972   8.539
 4751TIP3   OH235811   6.001   5.500   0.413
 4751TIP3    H135812   5.964   5.488   0.326
 4751TIP3    H235813   5.996   5.414   0.453
 4752TIP3   OH235814   2.419   4.530   6.224
 4752TIP3    H135815   2.421   4.623   6.242
 4752TIP3    H235816   2.511   4.502   6.229
 4753TIP3   OH235817   5.408   3.992   7.538
 4753TIP3    H135818   5.327   4.028   7.573
 4753TIP3    H235819   5.382   3.910   7.496
 4754TIP3   OH235820   4.801   2.658   8.103
 4754TIP3    H135821   4.743   2.582   8.105
 4754TIP3    H235822   4.870   2.638   8.166
 4755TIP3   OH235823   2.983   0.456   6.899
 4755TIP3    H135824   3.020   0.542   6.914
 4755TIP3    H235825   3.040   0.396   6.948
 4756TIP3   OH235826   2.586   4.513   7.181
 4756TIP3    H135827   2.595   4.513   7.276
 4756TIP3    H235828   2.495   4.538   7.165
 4757TIP3   OH235829   5.557   1.175   6.503
 4757TIP3    H135830   5.464   1.156   6.493
 4757TIP3    H235831   5.560   1.260   6.547
 4758TIP3   OH235832   0.566   4.339   0.567
 4758TIP3    H135833   0.591   4.269   0.506
 4758TIP3    H235834   0.475   4.321   0.588
 4759TIP3   OH235835   5.211   0.179   2.038
 4759TIP3    H135836   5.302   0.166   2.066
 4759TIP3    H235837   5.207   0.141   1.950
 4760TIP3   OH235838   0.644   1.657   0.088
 4760TIP3    H135839   0.569   1.645   0.146
 4760TIP3    H235840   0.646   1.751   0.071
 4761TIP3   OH235841   0.259   6.452   6.210
 4761TIP3    H135842   0.228   6.522   6.154
 4761TIP3    H235843   0.180   6.408   6.240
 4762TIP3   OH235844   6.811   2.934   7.699
 4762TIP3    H135845   6.864   2.974   7.630
 4762TIP3    H235846   6.841   2.844   7.704
 4763TIP3   OH235847   4.064   6.821   1.270
 4763TIP3    H135848   4.022   6.900   1.305
 4763TIP3    H235849   4.006   6.749   1.297
 4764TIP3   OH235850   2.241   4.389   6.415
 4764TIP3    H135851   2.296   4.455   6.375
 4764TIP3    H235852   2.170   4.375   6.352
 4765TIP3   OH235853   6.735   1.762   6.574
 4765TIP3    H135854   6.686   1.693   6.619
 4765TIP3    H235855   6.721   1.744   6.481
 4766TIP3   OH235856   2.463   5.692   7.226
 4766TIP3    H135857   2.503   5.735   7.151
 4766TIP3    H235858   2.519   5.617   7.243
 4767TIP3   OH235859   5.754   3.518   1.240
 4767TIP3    H135860   5.767   3.438   1.188
 4767TIP3    H235861   5.806   3.503   1.319
 4768TIP3   OH235862   4.538   2.373   0.226
 4768TIP3    H135863   4.487   2.325   0.290
 4768TIP3    H235864   4.516   2.465   0.241
 4769TIP3   OH235865   0.512   6.663   7.310
 4769TIP3    H135866   0.467   6.578   7.315
 4769TIP3    H235867   0.572   6.655   7.236
 4770TIP3   OH235868   3.788   6.443   0.395
 4770TIP3    H135869   3.797   6.532   0.360
 4770TIP3    H235870   3.700   6.441   0.434
 4771TIP3   OH235871   0.719   5.846   7.678
 4771TIP3    H135872   0.780   5.891   7.619
 4771TIP3    H235873   0.757   5.859   7.766
 4772TIP3   OH235874   6.441   0.120   8.447
 4772TIP3    H135875   6.438   0.153   8.537
 4772TIP3    H235876   6.351   0.128   8.416
 4773TIP3   OH235877   4.977   6.703   0.376
 4773TIP3    H135878   4.926   6.784   0.383
 4773TIP3    H235879   4.951   6.651   0.452
 4774TIP3   OH235880   0.980   1.253   1.046
 4774TIP3    H135881   1.007   1.341   1.021
 4774TIP3    H235882   0.887   1.260   1.066
 4775TIP3   OH235883   6.127   1.418   0.344
 4775TIP3    H135884   6.166   1.376   0.267
 4775TIP3    H235885   6.046   1.457   0.311
 4776TIP3   OH235886   4.512   4.368   1.012
 4776TIP3    H135887   4.509   4.378   0.916
 4776TIP3    H235888   4.481   4.452   1.045
 4777TIP3   OH235889   3.854   5.705   7.666
 4777TIP3    H135890   3.835   5.631   7.724
 4777TIP3    H235891   3.875   5.664   7.582
 4778TIP3   OH235892   5.205   0.335   0.638
 4778TIP3    H135893   5.221   0.244   0.663
 4778TIP3    H235894   5.269   0.354   0.569
 4779TIP3   OH235895   5.377   4.855   8.157
 4779TIP3    H135896   5.382   4.937   8.108
 4779TIP3    H235897   5.440   4.797   8.113
 4780TIP3   OH235898   6.459   6.692   1.806
 4780TIP3    H135899   6.450   6.713   1.713
 4780TIP3    H235900   6.522   6.620   1.808
 4781TIP3   OH235901   3.197   6.527   7.969
 4781TIP3    H135902   3.258   6.456   7.990
 4781TIP3    H235903   3.110   6.488   7.979
 4782TIP3   OH235904   4.365   0.641   1.381
 4782TIP3    H135905   4.365   0.717   1.323
 4782TIP3    H235906   4.338   0.568   1.326
 4783TIP3   OH235907   6.846   4.305   7.500
 4783TIP3    H135908   6.831   4.210   7.504
 4783TIP3    H235909   6.881   4.320   7.413
 4784TIP3   OH235910   1.506   0.774   7.984
 4784TIP3    H135911   1.579   0.767   7.923
 4784TIP3    H235912   1.445   0.834   7.942
 4785TIP3   OH235913   3.567   0.577   1.235
 4785TIP3    H135914   3.563   0.671   1.218
 4785TIP3    H235915   3.542   0.536   1.151
 4786TIP3   OH235916   0.072   6.031   0.751
 4786TIP3    H135917   6.887   6.044   0.753
 4786TIP3    H235918   0.100   6.068   0.668
 4787TIP3   OH235919   2.514   3.756   6.898
 4787TIP3    H135920   2.601   3.719   6.912
 4787TIP3    H235921   2.530   3.845   6.869
 4788TIP3   OH235922   2.717   6.553   0.749
 4788TIP3    H135923   2.709   6.615   0.822
 4788TIP3    H235924   2.733   6.608   0.672
 4789TIP3   OH235925   6.455   4.026   0.222
 4789TIP3    H135926   6.464   4.000   0.314
 4789TIP3    H235927   6.494   4.113   0.218
 4790TIP3   OH235928   0.084   5.209   0.477
 4790TIP3    H135929   0.175   5.236   0.467
 4790TIP3    H235930   0.048   5.271   0.540
 4791TIP3   OH235931   5.589   1.275   1.367
 4791TIP3    H135932   5.570   1.332   1.292
 4791TIP3    H235933   5.610   1.190   1.329
 4792TIP3   OH235934   5.380   0.551   7.829
 4792TIP3    H135935   5.419   0.548   7.917
 4792TIP3    H235936   5.290   0.523   7.842
 4793TIP3   OH235937   2.093   5.325   8.467
 4793TIP3    H135938   2.165   5.269   8.495
 4793TIP3    H235939   2.136   5.398   8.422
 4794TIP3   OH235940   2.963   6.134   7.644
 4794TIP3    H135941   2.916   6.152   7.726
 4794TIP3    H235942   2.894   6.112   7.581
 4795TIP3   OH235943   6.875   6.530   0.074
 4795TIP3    H135944   6.845   6.507   8.553
 4795TIP3    H235945   6.903   6.621   0.067
 4796TIP3   OH235946   1.011   4.165   1.895
 4796TIP3    H135947   1.043   4.107   1.964
 4796TIP3    H235948   0.973   4.240   1.942
 4797TIP3   OH235949   2.926   1.395   0.005
 4797TIP3    H135950   2.872   1.318   8.555
 4797TIP3    H235951   2.981   1.370   0.079
 4798TIP3   OH235952   2.907   3.538   7.884
 4798TIP3    H135953   2.929   3.631   7.892
 4798TIP3    H235954   2.820   3.531   7.923
 4799TIP3   OH235955   1.017   1.497   0.262
 4799TIP3    H135956   0.948   1.435   0.287
 4799TIP3    H235957   0.980   1.545   0.188
 4800TIP3   OH235958   0.249   4.496   0.417
 4800TIP3    H135959   0.307   4.434   0.372
 4800TIP3    H235960   0.231   4.563   0.351
 4801TIP3   OH235961   1.000   6.093   6.077
 4801TIP3    H135962   1.061   6.033   6.121
 4801TIP3    H235963   0.913   6.058   6.096
 4802TIP3   OH235964   3.598   4.823   0.963
 4802TIP3    H135965   3.627   4.891   1.024
 4802TIP3    H235966   3.602   4.742   1.014
 4803TIP3   OH235967   5.595   2.549   6.439
 4803TIP3    H135968   5.572   2.504   6.359
 4803TIP3    H235969   5.512   2.562   6.485
 4804TIP3   OH235970   1.753   1.163   7.027
 4804TIP3    H135971   1.662   1.152   7.056
 4804TIP3    H235972   1.745   1.206   6.942
 4805TIP3   OH235973   2.416   2.472   7.847
 4805TIP3    H135974   2.480   2.409   7.882
 4805TIP3    H235975   2.435   2.476   7.753
 4806TIP3   OH235976   2.028   0.018   2.135
 4806TIP3    H135977   2.002   6.869   2.064
 4806TIP3    H235978   2.115   6.897   2.160
 4807TIP3   OH235979   2.141   2.477   7.865
 4807TIP3    H135980   2.237   2.480   7.869
 4807TIP3    H235981   2.112   2.530   7.939
 4808TIP3   OH235982   4.577   5.757   1.547
 4808TIP3    H135983   4.582   5.849   1.570
 4808TIP3    H235984   4.667   5.725   1.555
 4809TIP3   OH235985   6.502   5.258   7.987
 4809TIP3    H135986   6.544   5.337   7.953
 4809TIP3    H235987   6.517   5.261   8.082
 4810TIP3   OH235988   2.986   4.226   8.529
 4810TIP3    H135989   2.977   4.188   0.049
 4810TIP3    H235990   3.020   4.314   8.545
 4811TIP3   OH235991   3.859   3.569   6.937
 4811TIP3    H135992   3.796   3.641   6.941
 4811TIP3    H235993   3.827   3.513   6.867
 4812TIP3   OH235994   2.399   2.854   6.558
 4812TIP3    H135995   2.488   2.882   6.535
 4812TIP3    H235996   2.405   2.759   6.567
 4813TIP3   OH235997   4.256   0.212   1.445
 4813TIP3    H135998   4.175   0.199   1.397
 4813TIP3    H235999   4.319   0.241   1.380
 4814TIP3   OH236000   4.125   2.920   0.960
 4814TIP3    H136001   4.188   2.975   1.007
 4814TIP3    H236002   4.047   2.919   1.017
 4815TIP3   OH236003   3.922   2.239   8.347
 4815TIP3    H136004   3.897   2.288   8.269
 4815TIP3    H236005   3.932   2.305   8.415
 4816TIP3   OH236006   1.723   6.735   0.996
 4816TIP3    H136007   1.638   6.705   1.028
 4816TIP3    H236008   1.771   6.654   0.977
 4817TIP3   OH236009   2.344   1.755   8.109
 4817TIP3    H136010   2.397   1.715   8.178
 4817TIP3    H236011   2.262   1.778   8.152
 4818TIP3   OH236012   4.173   3.585   7.014
 4818TIP3    H136013   4.197   3.652   7.078
 4818TIP3    H236014   4.078   3.582   7.017
 4819TIP3   OH236015   2.921   6.658   0.247
 4819TIP3    H136016   2.980   6.585   0.265
 4819TIP3    H236017   2.915   6.661   0.152
 4820TIP3   OH236018   2.251   5.761   8.077
 4820TIP3    H136019   2.309   5.803   8.140
 4820TIP3    H236020   2.274   5.668   8.081
 4821TIP3   OH236021   4.036   2.649   2.124
 4821TIP3    H136022   4.018   2.578   2.186
 4821TIP3    H236023   4.132   2.652   2.118
 4822TIP3   OH236024   4.190   6.409   2.314
 4822TIP3    H136025   4.113   6.366   2.277
 4822TIP3    H236026   4.261   6.346   2.301
 4823TIP3   OH236027   1.953   1.372   2.316
 4823TIP3    H136028   1.924   1.463   2.322
 4823TIP3    H236029   1.950   1.352   2.222
 4824TIP3   OH236030   2.450   5.956   6.394
 4824TIP3    H136031   2.538   5.978   6.423
 4824TIP3    H236032   2.425   5.881   6.448
 4825TIP3   OH236033   5.881   5.100   8.426
 4825TIP3    H136034   5.948   5.081   8.360
 4825TIP3    H236035   5.809   5.041   8.405
 4826TIP3   OH236036   3.364   5.952   1.247
 4826TIP3    H136037   3.414   5.964   1.328
 4826TIP3    H236038   3.290   5.897   1.273
 4827TIP3   OH236039   1.561   4.102   1.119
 4827TIP3    H136040   1.583   4.022   1.167
 4827TIP3    H236041   1.642   4.152   1.117
 4828TIP3   OH236042   2.557   2.698   8.272
 4828TIP3    H136043   2.512   2.771   8.314
 4828TIP3    H236044   2.508   2.621   8.299
 4829TIP3   OH236045   6.166   2.078   2.465
 4829TIP3    H136046   6.122   2.089   2.549
 4829TIP3    H236047   6.259   2.094   2.483
 4830TIP3   OH236048   2.532   4.549   8.479
 4830TIP3    H136049   2.599   4.508   8.425
 4830TIP3    H236050   2.551   4.520   0.001
 4831TIP3   OH236051   2.965   5.538   1.696
 4831TIP3    H136052   2.976   5.600   1.767
 4831TIP3    H236053   2.984   5.452   1.735
 4832TIP3   OH236054   4.563   3.364   7.574
 4832TIP3    H136055   4.473   3.387   7.598
 4832TIP3    H236056   4.614   3.382   7.652
 4833TIP3   OH236057   0.839   5.129   6.282
 4833TIP3    H136058   0.755   5.158   6.247
 4833TIP3    H236059   0.878   5.207   6.322
 4834TIP3   OH236060   1.215   0.935   7.116
 4834TIP3    H136061   1.196   0.882   7.039
 4834TIP3    H236062   1.218   1.025   7.083
 4835TIP3   OH236063   3.643   4.243   0.725
 4835TIP3    H136064   3.585   4.279   0.792
 4835TIP3    H236065   3.618   4.151   0.719
 4836TIP3   OH236066   3.457   3.084   1.094
 4836TIP3    H136067   3.539   3.073   1.046
 4836TIP3    H236068   3.465   3.025   1.169
 4837TIP3   OH236069   1.770   4.741   1.772
 4837TIP3    H136070   1.773   4.829   1.810
 4837TIP3    H236071   1.830   4.689   1.827
 4838TIP3   OH236072   5.658   4.640   7.772
 4838TIP3    H136073   5.640   4.680   7.687
 4838TIP3    H236074   5.753   4.647   7.782
 4839TIP3   OH236075   3.316   6.733   6.536
 4839TIP3    H136076   3.345   6.689   6.456
 4839TIP3    H236077   3.390   6.787   6.562
 4840TIP3   OH236078   5.753   0.862   0.963
 4840TIP3    H136079   5.832   0.907   0.932
 4840TIP3    H236080   5.769   0.849   1.056
 4841TIP3   OH236081   4.066   3.843   1.286
 4841TIP3    H136082   3.988   3.817   1.238
 4841TIP3    H236083   4.126   3.769   1.275
 4842TIP3   OH236084   4.438   1.152   0.554
 4842TIP3    H136085   4.497   1.211   0.506
 4842TIP3    H236086   4.415   1.084   0.490
 4843TIP3   OH236087   5.653   2.956   0.489
 4843TIP3    H136088   5.703   2.999   0.420
 4843TIP3    H236089   5.622   2.874   0.449
 4844TIP3   OH236090   1.736   5.490   8.466
 4844TIP3    H136091   1.770   5.481   8.377
 4844TIP3    H236092   1.729   5.584   8.480
 4845TIP3   OH236093   3.373   3.279   0.940
 4845TIP3    H136094   3.279   3.266   0.926
 4845TIP3    H236095   3.397   3.211   1.003
 4846TIP3   OH236096   3.056   4.629   6.417
 4846TIP3    H136097   2.968   4.592   6.422
 4846TIP3    H236098   3.113   4.562   6.454
 4847TIP3   OH236099   3.404   0.109   6.124
 4847TIP3    H136100   3.479   0.129   6.180
 4847TIP3    H236101   3.420   0.020   6.092
 4848TIP3   OH236102   0.590   0.027   8.098
 4848TIP3    H136103   0.558   0.020   8.008
 4848TIP3    H236104   0.658   6.870   8.104
 4849TIP3   OH236105   4.545   4.938   1.998
 4849TIP3    H136106   4.613   4.983   1.948
 4849TIP3    H236107   4.536   4.853   1.955
 4850TIP3   OH236108   6.672   2.455   1.832
 4850TIP3    H136109   6.660   2.363   1.858
 4850TIP3    H236110   6.712   2.450   1.746
 4851TIP3   OH236111   2.563   3.659   1.056
 4851TIP3    H136112   2.610   3.741   1.041
 4851TIP3    H236113   2.492   3.660   0.992
 4852TIP3   OH236114   6.036   4.627   1.738
 4852TIP3    H136115   6.079   4.571   1.803
 4852TIP3    H236116   5.942   4.613   1.752
 4853TIP3   OH236117   2.272   1.767   7.573
 4853TIP3    H136118   2.188   1.812   7.583
 4853TIP3    H236119   2.315   1.812   7.501
 4854TIP3   OH236120   4.136   4.385   0.889
 4854TIP3    H136121   4.165   4.477   0.892
 4854TIP3    H236122   4.130   4.360   0.981
 4855TIP3   OH236123   6.056   1.187   0.684
 4855TIP3    H136124   5.983   1.235   0.646
 4855TIP3    H236125   6.104   1.153   0.608
 4856TIP3   OH236126   6.367   4.120   0.885
 4856TIP3    H136127   6.332   4.051   0.829
 4856TIP3    H236128   6.462   4.116   0.872
 4857TIP3   OH236129   6.618   2.858   1.234
 4857TIP3    H136130   6.594   2.790   1.297
 4857TIP3    H236131   6.560   2.843   1.159
 4858TIP3   OH236132   1.606   2.158   1.284
 4858TIP3    H136133   1.535   2.220   1.267
 4858TIP3    H236134   1.621   2.164   1.378
 4859TIP3   OH236135   2.300   4.773   1.369
 4859TIP3    H136136   2.344   4.856   1.353
 4859TIP3    H236137   2.311   4.757   1.463
 4860TIP3   OH236138   5.333   3.423   1.462
 4860TIP3    H136139   5.327   3.354   1.528
 4860TIP3    H236140   5.419   3.462   1.477
 4861TIP3   OH236141   0.250   5.500   1.218
 4861TIP3    H136142   0.202   5.583   1.220
 4861TIP3    H236143   0.186   5.435   1.247
 4862TIP3   OH236144   1.199   0.029   1.648
 4862TIP3    H136145   1.140   0.015   1.722
 4862TIP3    H236146   1.231   6.851   1.626
 4863TIP3   OH236147   2.495   6.408   0.008
 4863TIP3    H136148   2.579   6.455   0.010
 4863TIP3    H236149   2.516   6.323   8.537
 4864TIP3   OH236150   4.169   2.240   0.111
 4864TIP3    H136151   4.103   2.305   0.135
 4864TIP3    H236152   4.194   2.263   0.022
 4865TIP3   OH236153   5.241   4.879   7.831
 4865TIP3    H136154   5.327   4.918   7.846
 4865TIP3    H236155   5.255   4.785   7.842
 4866TIP3   OH236156   6.878   3.067   1.464
 4866TIP3    H136157   6.858   3.155   1.434
 4866TIP3    H236158   6.820   3.053   1.538
 4867TIP3   OH236159   0.140   4.311   6.265
 4867TIP3    H136160   0.142   4.281   6.174
 4867TIP3    H236161   0.065   4.265   6.303
 4868TIP3   OH236162   0.400   3.693   0.871
 4868TIP3    H136163   0.455   3.706   0.794
 4868TIP3    H236164   0.415   3.770   0.925
 4869TIP3   OH236165   1.621   2.968   0.602
 4869TIP3    H136166   1.631   2.987   0.696
 4869TIP3    H236167   1.709   2.943   0.574
 4870TIP3   OH236168   0.711   4.483   1.003
 4870TIP3    H136169   0.705   4.498   1.098
 4870TIP3    H236170   0.737   4.568   0.968
 4871TIP3   OH236171   5.552   1.427   0.835
 4871TIP3    H136172   5.590   1.498   0.886
 4871TIP3    H236173   5.595   1.348   0.868
 4872TIP3   OH236174   1.466   3.392   7.304
 4872TIP3    H136175   1.514   3.466   7.341
 4872TIP3    H236176   1.404   3.367   7.373
 4873TIP3   OH236177   3.553   0.351   8.560
 4873TIP3    H136178   3.517   0.348   8.471
 4873TIP3    H236179   3.572   0.444   0.008
 4874TIP3   OH236180   3.014   0.746   1.943
 4874TIP3    H136181   2.942   0.806   1.923
 4874TIP3    H236182   3.093   0.799   1.933
 4875TIP3   OH236183   1.379   4.183   0.602
 4875TIP3    H136184   1.403   4.110   0.545
 4875TIP3    H236185   1.320   4.145   0.666
 4876TIP3   OH236186   6.684   6.158   2.277
 4876TIP3    H136187   6.621   6.221   2.313
 4876TIP3    H236188   6.712   6.106   2.352
 4877TIP3   OH236189   6.509   6.893   7.649
 4877TIP3    H136190   6.496   6.858   7.561
 4877TIP3    H236191   6.603   0.003   7.654
 4878TIP3   OH236192   0.066   3.950   0.860
 4878TIP3    H136193   0.015   3.869   0.849
 4878TIP3    H236194   0.075   3.960   0.954
 4879TIP3   OH236195   0.255   1.897   8.347
 4879TIP3    H136196   0.175   1.863   8.307
 4879TIP3    H236197   0.229   1.980   8.387
 4880TIP3   OH236198   4.492   4.309   7.740
 4880TIP3    H136199   4.436   4.380   7.708
 4880TIP3    H236200   4.481   4.239   7.676
 4881TIP3   OH236201   1.726   5.330   8.077
 4881TIP3    H136202   1.685   5.407   8.116
 4881TIP3    H236203   1.781   5.294   8.146
 4882TIP3   OH236204   3.915   3.477   7.882
 4882TIP3    H136205   3.910   3.473   7.978
 4882TIP3    H236206   3.881   3.564   7.860
 4883TIP3   OH236207   2.005   5.577   1.864
 4883TIP3    H136208   1.910   5.574   1.872
 4883TIP3    H236209   2.029   5.492   1.828
 4884TIP3   OH236210   5.674   4.251   8.382
 4884TIP3    H136211   5.759   4.294   8.394
 4884TIP3    H236212   5.619   4.316   8.339
 4885TIP3   OH236213   3.552   3.370   1.266
 4885TIP3    H136214   3.588   3.364   1.177
 4885TIP3    H236215   3.493   3.295   1.272
 4886TIP3   OH236216   2.829   5.695   1.011
 4886TIP3    H136217   2.877   5.671   0.931
 4886TIP3    H236218   2.826   5.790   1.010
 4887TIP3   OH236219   5.198   2.087   0.609
 4887TIP3    H136220   5.166   2.130   0.530
 4887TIP3    H236221   5.271   2.033   0.579
 4888TIP3   OH236222   1.840   2.826   1.246
 4888TIP3    H136223   1.870   2.903   1.294
 4888TIP3    H236224   1.919   2.790   1.207
 4889TIP3   OH236225   0.056   1.688   8.153
 4889TIP3    H136226   0.128   1.640   8.113
 4889TIP3    H236227   0.001   1.620   8.192
 4890TIP3   OH236228   1.830   4.041   7.468
 4890TIP3    H136229   1.858   3.972   7.408
 4890TIP3    H236230   1.822   3.998   7.553
 4891TIP3   OH236231   1.227   3.890   0.646
 4891TIP3    H136232   1.192   3.803   0.627
 4891TIP3    H236233   1.280   3.878   0.724
 4892TIP3   OH236234   6.576   1.705   7.860
 4892TIP3    H136235   6.584   1.760   7.938
 4892TIP3    H236236   6.585   1.616   7.892
 4893TIP3   OH236237   5.774   3.312   7.865
 4893TIP3    H136238   5.809   3.399   7.846
 4893TIP3    H236239   5.745   3.279   7.781
 4894TIP3   OH236240   4.209   0.103   2.452
 4894TIP3    H136241   4.301   0.131   2.458
 4894TIP3    H236242   4.164   0.155   2.518
 4895TIP3   OH236243   4.033   5.392   7.675
 4895TIP3    H136244   3.989   5.307   7.672
 4895TIP3    H236245   4.003   5.432   7.756
 4896TIP3   OH236246   4.409   0.339   8.348
 4896TIP3    H136247   4.429   0.379   8.432
 4896TIP3    H236248   4.493   0.333   8.303
 4897TIP3   OH236249   6.131   1.761   7.989
 4897TIP3    H136250   6.126   1.817   8.067
 4897TIP3    H236251   6.188   1.689   8.014
 4898TIP3   OH236252   4.717   4.366   8.139
 4898TIP3    H136253   4.734   4.458   8.119
 4898TIP3    H236254   4.658   4.369   8.215
 4899TIP3   OH236255   4.885   2.949   8.442
 4899TIP3    H136256   4.797   2.982   8.428
 4899TIP3    H236257   4.873   2.863   8.481
 4900TIP3   OH236258   6.532   0.199   1.593
 4900TIP3    H136259   6.556   0.280   1.548
 4900TIP3    H236260   6.611   0.145   1.588
 4901TIP3   OH236261   1.676   0.930   0.011
 4901TIP3    H136262   1.678   0.834   0.010
 4901TIP3    H236263   1.614   0.952   0.080
 4902TIP3   OH236264   0.213   4.640   0.189
 4902TIP3    H136265   0.158   4.622   0.113
 4902TIP3    H236266   0.303   4.636   0.156
 4903TIP3   OH236267   1.182   2.518   7.649
 4903TIP3    H136268   1.145   2.579   7.713
 4903TIP3    H236269   1.274   2.544   7.641
 4904TIP3   OH236270   6.671   5.684   0.880
 4904TIP3    H136271   6.652   5.633   0.801
 4904TIP3    H236272   6.594   5.738   0.893
 4905TIP3   OH236273   0.287   6.257   2.373
 4905TIP3    H136274   0.343   6.279   2.448
 4905TIP3    H236275   0.313   6.318   2.305
 4906TIP3   OH236276   2.540   5.653   7.553
 4906TIP3    H136277   2.544   5.613   7.466
 4906TIP3    H236278   2.550   5.579   7.613
 4907TIP3   OH236279   2.606   6.147   2.325
 4907TIP3    H136280   2.579   6.147   2.417
 4907TIP3    H236281   2.532   6.184   2.278
 4908TIP3   OH236282   3.047   2.679   1.147
 4908TIP3    H136283   3.093   2.661   1.064
 4908TIP3    H236284   3.116   2.705   1.207
 4909TIP3   OH236285   1.447   4.354   0.374
 4909TIP3    H136286   1.377   4.345   0.438
 4909TIP3    H236287   1.479   4.265   0.360
 4910TIP3   OH236288   2.622   4.989   1.066
 4910TIP3    H136289   2.689   4.942   1.115
 4910TIP3    H236290   2.575   4.921   1.018
 4911TIP3   OH236291   3.009   5.431   7.948
 4911TIP3    H136292   3.076   5.413   7.883
 4911TIP3    H236293   3.039   5.385   8.027
 4912TIP3   OH236294   4.377   5.020   7.121
 4912TIP3    H136295   4.453   4.982   7.075
 4912TIP3    H236296   4.415   5.064   7.196
 4913TIP3   OH236297   1.273   5.436   2.294
 4913TIP3    H136298   1.243   5.493   2.223
 4913TIP3    H236299   1.360   5.470   2.316
 4914TIP3   OH236300   5.754   6.333   1.593
 4914TIP3    H136301   5.828   6.393   1.586
 4914TIP3    H236302   5.794   6.246   1.597
 4915TIP3   OH236303   0.036   0.172   6.794
 4915TIP3    H136304   0.103   0.127   6.845
 4915TIP3    H236305   0.083   0.208   6.719
 4916TIP3   OH236306   6.739   4.843   0.561
 4916TIP3    H136307   6.815   4.796   0.595
 4916TIP3    H236308   6.712   4.793   0.484
 4917TIP3   OH236309   5.653   2.078   7.211
 4917TIP3    H136310   5.643   2.111   7.300
 4917TIP3    H236311   5.593   2.132   7.159
 4918TIP3   OH236312   4.623   6.273   0.041
 4918TIP3    H136313   4.663   6.246   0.123
 4918TIP3    H236314   4.675   6.229   8.540
 4919TIP3   OH236315   2.827   1.018   7.398
 4919TIP3    H136316   2.885   1.074   7.346
 4919TIP3    H236317   2.868   0.932   7.396
 4920TIP3   OH236318   4.164   3.373   1.516
 4920TIP3    H136319   4.228   3.394   1.584
 4920TIP3    H236320   4.153   3.278   1.521
 4921TIP3   OH236321   2.566   3.121   7.732
 4921TIP3    H136322   2.653   3.152   7.706
 4921TIP3    H236323   2.514   3.129   7.652
 4922TIP3   OH236324   3.877   4.257   7.816
 4922TIP3    H136325   3.971   4.241   7.821
 4922TIP3    H236326   3.865   4.343   7.856
 4923TIP3   OH236327   4.753   6.520   0.118
 4923TIP3    H136328   4.710   6.463   0.054
 4923TIP3    H236329   4.769   6.464   0.194
 4924TIP3   OH236330   4.261   4.922   0.868
 4924TIP3    H136331   4.229   4.973   0.794
 4924TIP3    H236332   4.345   4.961   0.890
 4925TIP3   OH236333   5.438   0.109   7.921
 4925TIP3    H136334   5.520   0.059   7.923
 4925TIP3    H236335   5.404   0.094   7.833
 4926TIP3   OH236336   5.817   4.680   0.287
 4926TIP3    H136337   5.861   4.715   0.364
 4926TIP3    H236338   5.844   4.589   0.283
 4927TIP3   OH236339   4.086   3.204   2.127
 4927TIP3    H136340   4.120   3.276   2.075
 4927TIP3    H236341   3.992   3.222   2.135
 4928TIP3   OH236342   1.329   0.297   0.870
 4928TIP3    H136343   1.349   0.302   0.964
 4928TIP3    H236344   1.313   0.387   0.844
 4929TIP3   OH236345   0.700   1.091   8.215
 4929TIP3    H136346   0.764   1.044   8.161
 4929TIP3    H236347   0.620   1.091   8.162
 4930TIP3   OH236348   6.339   3.670   2.083
 4930TIP3    H136349   6.434   3.664   2.093
 4930TIP3    H236350   6.325   3.754   2.039
 4931TIP3   OH236351   2.617   6.289   1.449
 4931TIP3    H136352   2.551   6.357   1.435
 4931TIP3    H236353   2.635   6.293   1.543
 4932TIP3   OH236354   4.363   5.120   1.379
 4932TIP3    H136355   4.291   5.059   1.367
 4932TIP3    H236356   4.437   5.065   1.407
 4933TIP3   OH236357   4.323   2.297   0.373
 4933TIP3    H136358   4.237   2.286   0.332
 4933TIP3    H236359   4.356   2.208   0.386
 4934TIP3   OH236360   0.281   0.406   7.101
 4934TIP3    H136361   0.245   0.342   7.162
 4934TIP3    H236362   0.362   0.367   7.069
 4935TIP3   OH236363   3.457   3.892   5.920
 4935TIP3    H136364   3.522   3.898   5.850
 4935TIP3    H236365   3.398   3.823   5.892
 4936TIP3   OH236366   1.481   1.403   0.610
 4936TIP3    H136367   1.502   1.319   0.650
 4936TIP3    H236368   1.566   1.445   0.594
 4937TIP3   OH236369   6.142   2.922   7.487
 4937TIP3    H136370   6.181   2.911   7.401
 4937TIP3    H236371   6.071   2.857   7.490
 4938TIP3   OH236372   2.336   4.185   7.096
 4938TIP3    H136373   2.394   4.114   7.069
 4938TIP3    H236374   2.268   4.143   7.148
 4939TIP3   OH236375   0.428   6.713   8.240
 4939TIP3    H136376   0.519   6.713   8.209
 4939TIP3    H236377   0.428   6.773   8.314
 4940TIP3   OH236378   1.460   0.347   1.107
 4940TIP3    H136379   1.427   0.306   1.186
 4940TIP3    H236380   1.503   0.427   1.137
 4941TIP3   OH236381   4.437   6.060   6.739
 4941TIP3    H136382   4.479   6.119   6.676
 4941TIP3    H236383   4.482   6.075   6.821
 4942TIP3   OH236384   5.619   1.147   7.137
 4942TIP3    H136385   5.575   1.072   7.098
 4942TIP3    H236386   5.610   1.217   7.072
 4943TIP3   OH236387   2.015   4.831   6.554
 4943TIP3    H136388   2.106   4.803   6.560
 4943TIP3    H236389   1.979   4.781   6.481
 4944TIP3   OH236390   5.047   6.761   8.059
 4944TIP3    H136391   5.130   6.795   8.092
 4944TIP3    H236392   5.061   6.750   7.965
 4945TIP3   OH236393   4.245   6.300   6.196
 4945TIP3    H136394   4.214   6.228   6.140
 4945TIP3    H236395   4.311   6.260   6.252
 4946TIP3   OH236396   4.907   1.813   1.486
 4946TIP3    H136397   4.824   1.833   1.530
 4946TIP3    H236398   4.929   1.895   1.440
 4947TIP3   OH236399   5.036   1.130   0.593
 4947TIP3    H136400   5.075   1.044   0.576
 4947TIP3    H236401   5.002   1.158   0.508
 4948TIP3   OH236402   5.194   2.610   0.063
 4948TIP3    H136403   5.259   2.676   0.042
 4948TIP3    H236404   5.237   2.552   0.126
 4949TIP3   OH236405   4.109   6.433   0.597
 4949TIP3    H136406   4.173   6.461   0.664
 4949TIP3    H236407   4.161   6.427   0.517
 4950TIP3   OH236408   2.579   6.185   8.332
 4950TIP3    H136409   2.539   6.141   8.256
 4950TIP3    H236410   2.601   6.113   8.392
 4951TIP3   OH236411   6.104   3.273   0.187
 4951TIP3    H136412   6.075   3.262   0.096
 4951TIP3    H236413   6.032   3.237   0.239
 4952TIP3   OH236414   0.673   3.427   1.346
 4952TIP3    H136415   0.627   3.346   1.325
 4952TIP3    H236416   0.630   3.460   1.425
 4953TIP3   OH236417   5.884   3.753   1.808
 4953TIP3    H136418   5.908   3.663   1.784
 4953TIP3    H236419   5.788   3.751   1.816
 4954TIP3   OH236420   6.069   6.579   2.180
 4954TIP3    H136421   5.976   6.560   2.193
 4954TIP3    H236422   6.072   6.671   2.154
 4955TIP3   OH236423   5.579   3.319   0.370
 4955TIP3    H136424   5.667   3.281   0.361
 4955TIP3    H236425   5.566   3.367   0.288
 4956TIP3   OH236426   2.165   2.648   0.598
 4956TIP3    H136427   2.157   2.575   0.537
 4956TIP3    H236428   2.176   2.725   0.542
 4957TIP3   OH236429   2.844   3.951   1.636
 4957TIP3    H136430   2.845   3.949   1.732
 4957TIP3    H236431   2.824   4.042   1.614
 4958TIP3   OH236432   0.602   0.892   6.731
 4958TIP3    H136433   0.513   0.891   6.697
 4958TIP3    H236434   0.635   0.804   6.717
 4959TIP3   OH236435   1.444   5.884   1.013
 4959TIP3    H136436   1.505   5.957   1.006
 4959TIP3    H236437   1.449   5.841   0.927
 4960TIP3   OH236438   5.775   0.550   2.365
 4960TIP3    H136439   5.837   0.533   2.436
 4960TIP3    H236440   5.790   0.480   2.302
 4961TIP3   OH236441   0.339   2.974   1.220
 4961TIP3    H136442   0.367   2.918   1.292
 4961TIP3    H236443   0.257   2.936   1.190
 4962TIP3   OH236444   5.341   2.905   6.938
 4962TIP3    H136445   5.321   2.866   6.853
 4962TIP3    H236446   5.420   2.956   6.924
 4963TIP3   OH236447   0.750   4.126   1.092
 4963TIP3    H136448   0.663   4.164   1.104
 4963TIP3    H236449   0.756   4.107   0.999
 4964TIP3   OH236450   1.372   4.558   0.634
 4964TIP3    H136451   1.428   4.617   0.685
 4964TIP3    H236452   1.405   4.566   0.544
 4965TIP3   OH236453   5.681   2.004   0.751
 4965TIP3    H136454   5.662   1.926   0.700
 4965TIP3    H236455   5.610   2.065   0.729
 4966TIP3   OH236456   1.149   5.721   7.500
 4966TIP3    H136457   1.092   5.678   7.436
 4966TIP3    H236458   1.111   5.807   7.512
 4967TIP3   OH236459   0.631   1.587   0.554
 4967TIP3    H136460   0.697   1.581   0.623
 4967TIP3    H236461   0.551   1.556   0.595
 4968TIP3   OH236462   6.182   5.759   1.162
 4968TIP3    H136463   6.240   5.728   1.231
 4968TIP3    H236464   6.193   5.696   1.091
 4969TIP3   OH236465   3.352   1.129   8.408
 4969TIP3    H136466   3.312   1.207   8.447
 4969TIP3    H236467   3.294   1.057   8.434
 4970TIP3   OH236468   1.858   0.477   7.781
 4970TIP3    H136469   1.895   0.565   7.791
 4970TIP3    H236470   1.910   0.422   7.839
 4971TIP3   OH236471   3.003   3.544   8.434
 4971TIP3    H136472   2.925   3.572   8.482
 4971TIP3    H236473   2.969   3.496   8.358
 4972TIP3   OH236474   0.018   4.250   0.891
 4972TIP3    H136475   0.099   4.285   0.855
 4972TIP3    H236476   0.045   4.184   0.954
 4973TIP3   OH236477   0.341   4.769   8.450
 4973TIP3    H136478   0.257   4.811   8.469
 4973TIP3    H236479   0.358   4.790   8.358
 4974TIP3   OH236480   3.058   6.054   2.259
 4974TIP3    H136481   3.052   6.149   2.245
 4974TIP3    H236482   3.151   6.034   2.248
 4975TIP3   OH236483   6.675   4.758   0.286
 4975TIP3    H136484   6.717   4.723   0.207
 4975TIP3    H236485   6.663   4.682   0.343
 4976TIP3   OH236486   3.294   5.227   7.635
 4976TIP3    H136487   3.239   5.155   7.667
 4976TIP3    H236488   3.363   5.184   7.584
 4977TIP3   OH236489   1.361   6.434   1.121
 4977TIP3    H136490   1.376   6.378   1.044
 4977TIP3    H236491   1.448   6.465   1.146
 4978TIP3   OH236492   1.699   3.827   0.953
 4978TIP3    H136493   1.699   3.845   1.047
 4978TIP3    H236494   1.779   3.776   0.939
 4979TIP3   OH236495   4.656   0.359   8.216
 4979TIP3    H136496   4.689   0.370   8.127
 4979TIP3    H236497   4.698   0.429   8.266
 4980TIP3   OH236498   0.769   2.035   0.614
 4980TIP3    H136499   0.815   1.999   0.690
 4980TIP3    H236500   0.753   1.959   0.558
 4981TIP3   OH236501   2.169   1.076   6.949
 4981TIP3    H136502   2.189   1.023   6.871
 4981TIP3    H236503   2.167   1.012   7.020
 4982TIP3   OH236504   1.179   6.191   2.311
 4982TIP3    H136505   1.193   6.097   2.307
 4982TIP3    H236506   1.085   6.201   2.325
 4983TIP3   OH236507   3.773   4.585   1.776
 4983TIP3    H136508   3.853   4.615   1.734
 4983TIP3    H236509   3.702   4.632   1.731
 4984TIP3   OH236510   5.670   6.185   6.329
 4984TIP3    H136511   5.610   6.126   6.375
 4984TIP3    H236512   5.660   6.269   6.373
 4985TIP3   OH236513   3.068   4.185   1.844
 4985TIP3    H136514   3.143   4.235   1.811
 4985TIP3    H236515   3.107   4.107   1.885
 4986TIP3   OH236516   2.193   6.748   7.103
 4986TIP3    H136517   2.271   6.704   7.134
 4986TIP3    H236518   2.155   6.688   7.039
 4987TIP3   OH236519   6.627   4.713   7.475
 4987TIP3    H136520   6.709   4.762   7.485
 4987TIP3    H236521   6.654   4.625   7.451
 4988TIP3   OH236522   6.118   4.874   7.685
 4988TIP3    H136523   6.189   4.884   7.622
 4988TIP3    H236524   6.162   4.854   7.768
 4989TIP3   OH236525   2.439   5.287   1.022
 4989TIP3    H136526   2.443   5.382   1.013
 4989TIP3    H236527   2.522   5.264   1.064
 4990TIP3   OH236528   5.162   4.911   6.207
 4990TIP3    H136529   5.174   4.920   6.113
 4990TIP3    H236530   5.213   4.982   6.245
 4991TIP3   OH236531   1.053   4.402   6.645
 4991TIP3    H136532   0.997   4.476   6.625
 4991TIP3    H236533   1.064   4.406   6.741
 4992TIP3   OH236534   3.863   5.037   0.182
 4992TIP3    H136535   3.838   4.945   0.186
 4992TIP3    H236536   3.872   5.063   0.273
 4993TIP3   OH236537   4.739   6.404   0.363
 4993TIP3    H136538   4.769   6.371   0.448
 4993TIP3    H236539   4.738   6.499   0.374
 4994TIP3   OH236540   4.015   3.434   8.158
 4994TIP3    H136541   4.107   3.408   8.149
 4994TIP3    H236542   4.007   3.463   8.249
 4995TIP3   OH236543   3.057   4.127   0.209
 4995TIP3    H136544   3.115   4.066   0.163
 4995TIP3    H236545   3.113   4.201   0.231
 4996TIP3   OH236546   0.645   2.192   6.478
 4996TIP3    H136547   0.679   2.264   6.425
 4996TIP3    H236548   0.552   2.213   6.490
 4997TIP3   OH236549   4.833   1.426   0.605
 4997TIP3    H136550   4.799   1.337   0.606
 4997TIP3    H236551   4.915   1.421   0.654
 4998TIP3   OH236552   3.685   3.456   0.691
 4998TIP3    H136553   3.614   3.508   0.728
 4998TIP3    H236554   3.674   3.464   0.596
 4999TIP3   OH236555   2.178   4.917   7.039
 4999TIP3    H136556   2.189   4.972   6.961
 4999TIP3    H236557   2.107   4.958   7.088
 5000TIP3   OH236558   3.193   5.364   0.004
 5000TIP3    H136559   3.277   5.324   8.551
 5000TIP3    H236560   3.140   5.293   0.041
 5001TIP3   OH236561   0.554   3.521   1.865
 5001TIP3    H136562   0.541   3.615   1.872
 5001TIP3    H236563   0.489   3.483   1.923
 5002TIP3   OH236564   0.645   5.766   1.203
 5002TIP3    H136565   0.564   5.809   1.175
 5002TIP3    H236566   0.672   5.714   1.127
 5003TIP3   OH236567   4.685   4.638   8.294
 5003TIP3    H136568   4.691   4.655   8.388
 5003TIP3    H236569   4.755   4.690   8.256
 5004TIP3   OH236570   6.038   0.455   0.514
 5004TIP3    H136571   6.132   0.468   0.502
 5004TIP3    H236572   5.997   0.518   0.454
 5005TIP3   OH236573   1.278   4.285   7.926
 5005TIP3    H136574   1.209   4.247   7.982
 5005TIP3    H236575   1.353   4.227   7.938
 5006TIP3   OH236576   2.065   5.192   8.019
 5006TIP3    H136577   2.053   5.277   8.063
 5006TIP3    H236578   2.120   5.142   8.079
 5007TIP3   OH236579   4.609   1.711   1.313
 5007TIP3    H136580   4.607   1.623   1.351
 5007TIP3    H236581   4.655   1.764   1.378
 5008TIP3   OH236582   0.324   5.678   0.897
 5008TIP3    H136583   0.296   5.769   0.909
 5008TIP3    H236584   0.401   5.670   0.953
 5009TIP3   OH236585   0.285   0.248   0.738
 5009TIP3    H136586   0.277   0.170   0.683
 5009TIP3    H236587   0.374   0.243   0.774
 5010TIP3   OH236588   1.307   3.327   7.809
 5010TIP3    H136589   1.269   3.250   7.852
 5010TIP3    H236590   1.368   3.290   7.744
 5011TIP3   OH236591   3.929   6.647   0.633
 5011TIP3    H136592   3.978   6.727   0.617
 5011TIP3    H236593   3.978   6.579   0.588
 5012TIP3   OH236594   6.449   0.811   8.453
 5012TIP3    H136595   6.419   0.800   8.363
 5012TIP3    H236596   6.504   0.734   8.469
 5013TIP3   OH236597   4.739   5.271   0.849
 5013TIP3    H136598   4.771   5.181   0.839
 5013TIP3    H236599   4.680   5.267   0.925
 5014TIP3   OH236600   2.042   3.669   2.058
 5014TIP3    H136601   2.105   3.705   2.121
 5014TIP3    H236602   1.975   3.628   2.113
 5015TIP3   OH236603   2.002   3.171   1.016
 5015TIP3    H136604   1.975   3.081   0.996
 5015TIP3    H236605   1.965   3.223   0.945
 5016TIP3   OH236606   4.339   5.520   8.166
 5016TIP3    H136607   4.333   5.470   8.085
 5016TIP3    H236608   4.313   5.457   8.234
 5017TIP3   OH236609   4.021   5.426   1.717
 5017TIP3    H136610   4.025   5.433   1.813
 5017TIP3    H236611   4.074   5.349   1.696
 5018TIP3   OH236612   0.068   3.682   7.257
 5018TIP3    H136613   6.888   3.656   7.280
 5018TIP3    H236614   0.113   3.692   7.341
 5019TIP3   OH236615   1.804   4.537   6.972
 5019TIP3    H136616   1.858   4.615   6.958
 5019TIP3    H236617   1.725   4.555   6.921
 5020TIP3   OH236618   5.428   4.216   1.120
 5020TIP3    H136619   5.353   4.261   1.081
 5020TIP3    H236620   5.457   4.155   1.051
 5021TIP3   OH236621   4.316   3.432   0.602
 5021TIP3    H136622   4.376   3.413   0.530
 5021TIP3    H236623   4.268   3.350   0.615
 5022TIP3   OH236624   5.124   5.248   0.109
 5022TIP3    H136625   5.144   5.181   0.175
 5022TIP3    H236626   5.202   5.250   0.054
 5023TIP3   OH236627   0.250   3.858   8.435
 5023TIP3    H136628   0.201   3.815   8.365
 5023TIP3    H236629   0.342   3.848   8.410
 5024TIP3   OH236630   4.615   2.917   5.943
 5024TIP3    H136631   4.564   2.844   5.979
 5024TIP3    H236632   4.588   2.993   5.995
 5025TIP3   OH236633   1.777   4.707   6.685
 5025TIP3    H136634   1.832   4.785   6.700
 5025TIP3    H236635   1.728   4.697   6.766
 5026TIP3   OH236636   0.410   3.773   1.178
 5026TIP3    H136637   0.332   3.755   1.231
 5026TIP3    H236638   0.405   3.867   1.158
 5027TIP3   OH236639   3.414   2.762   0.617
 5027TIP3    H136640   3.383   2.757   0.707
 5027TIP3    H236641   3.469   2.685   0.607
 5028TIP3   OH236642   4.204   3.175   0.644
 5028TIP3    H136643   4.273   3.109   0.638
 5028TIP3    H236644   4.128   3.135   0.603
 5029TIP3   OH236645   0.486   2.049   0.669
 5029TIP3    H136646   0.580   2.066   0.659
 5029TIP3    H236647   0.465   2.080   0.757
 5030TIP3   OH236648   5.461   5.126   6.752
 5030TIP3    H136649   5.409   5.140   6.673
 5030TIP3    H236650   5.444   5.035   6.777
 5031TIP3   OH236651   1.546   6.720   1.335
 5031TIP3    H136652   1.623   6.758   1.378
 5031TIP3    H236653   1.578   6.638   1.298
 5032TIP3   OH236654   0.448   3.346   7.539
 5032TIP3    H136655   0.482   3.261   7.566
 5032TIP3    H236656   0.368   3.356   7.590
 5033TIP3   OH236657   6.407   0.822   7.616
 5033TIP3    H136658   6.389   0.738   7.658
 5033TIP3    H236659   6.388   0.887   7.683
 5034TIP3   OH236660   6.595   2.498   0.264
 5034TIP3    H136661   6.637   2.469   0.345
 5034TIP3    H236662   6.551   2.580   0.287
 5035TIP3   OH236663   0.130   4.721   1.649
 5035TIP3    H136664   0.129   4.693   1.558
 5035TIP3    H236665   0.220   4.749   1.665
 5036TIP3   OH236666   0.759   3.559   6.994
 5036TIP3    H136667   0.683   3.562   6.936
 5036TIP3    H236668   0.830   3.525   6.939
 5037TIP3   OH236669   0.276   3.220   1.812
 5037TIP3    H136670   0.234   3.135   1.808
 5037TIP3    H236671   0.353   3.212   1.756
 5038TIP3   OH236672   1.297   1.018   6.139
 5038TIP3    H136673   1.295   1.036   6.233
 5038TIP3    H236674   1.209   0.988   6.119
 5039TIP3   OH236675   6.343   2.839   7.111
 5039TIP3    H136676   6.388   2.773   7.163
 5039TIP3    H236677   6.400   2.916   7.116
 5040TIP3   OH236678   0.994   2.006   8.348
 5040TIP3    H136679   1.040   1.929   8.382
 5040TIP3    H236680   0.902   1.989   8.369
 5041TIP3   OH236681   4.452   0.198   7.907
 5041TIP3    H136682   4.477   0.279   7.951
 5041TIP3    H236683   4.536   0.155   7.887
 5042TIP3   OH236684   3.633   1.380   8.466
 5042TIP3    H136685   3.539   1.392   8.452
 5042TIP3    H236686   3.644   1.286   8.477
 5043TIP3   OH236687   0.149   3.317   7.410
 5043TIP3    H136688   0.168   3.313   7.316
 5043TIP3    H236689   0.059   3.350   7.415
 5044TIP3   OH236690   0.182   0.565   0.852
 5044TIP3    H136691   0.229   0.549   0.933
 5044TIP3    H236692   0.146   0.480   0.828
 5045TIP3   OH236693   2.848   4.879   6.699
 5045TIP3    H136694   2.805   4.821   6.762
 5045TIP3    H236695   2.787   4.953   6.690
 5046TIP3   OH236696   2.184   6.551   6.196
 5046TIP3    H136697   2.252   6.563   6.262
 5046TIP3    H236698   2.232   6.542   6.114
 5047TIP3   OH236699   0.318   2.574   7.874
 5047TIP3    H136700   0.384   2.573   7.944
 5047TIP3    H236701   0.351   2.512   7.810
 5048TIP3   OH236702   5.012   1.054   1.114
 5048TIP3    H136703   4.938   1.001   1.145
 5048TIP3    H236704   5.012   1.041   1.019
 5049TIP3   OH236705   2.624   5.292   0.368
 5049TIP3    H136706   2.670   5.366   0.409
 5049TIP3    H236707   2.646   5.217   0.421
 5050TIP3   OH236708   2.463   4.650   1.168
 5050TIP3    H136709   2.392   4.678   1.226
 5050TIP3    H236710   2.535   4.630   1.227
 5051TIP3   OH236711   0.335   5.580   8.498
 5051TIP3    H136712   0.280   5.641   8.450
 5051TIP3    H236713   0.414   5.572   8.446
 5052TIP3   OH236714   5.483   6.661   6.115
 5052TIP3    H136715   5.426   6.583   6.111
 5052TIP3    H236716   5.571   6.627   6.103
 5053TIP3   OH236717   4.325   1.258   7.806
 5053TIP3    H136718   4.364   1.336   7.845
 5053TIP3    H236719   4.387   1.231   7.739
 5054TIP3   OH236720   1.486   2.678   7.421
 5054TIP3    H136721   1.522   2.764   7.400
 5054TIP3    H236722   1.520   2.657   7.507
 5055TIP3   OH236723   5.926   4.987   7.289
 5055TIP3    H136724   5.983   4.955   7.219
 5055TIP3    H236725   5.840   4.952   7.268
 5056TIP3   OH236726   2.618   1.061   8.386
 5056TIP3    H136727   2.575   1.031   8.306
 5056TIP3    H236728   2.562   1.130   8.420
 5057TIP3   OH236729   3.287   1.154   0.946
 5057TIP3    H136730   3.330   1.207   0.879
 5057TIP3    H236731   3.254   1.217   1.009
 5058TIP3   OH236732   4.964   3.105   0.119
 5058TIP3    H136733   4.903   3.163   0.166
 5058TIP3    H236734   4.925   3.094   0.033
 5059TIP3   OH236735   0.130   2.972   1.855
 5059TIP3    H136736   0.042   2.967   1.892
 5059TIP3    H236737   0.177   2.897   1.892
 5060TIP3   OH236738   5.624   3.810   0.113
 5060TIP3    H136739   5.530   3.830   0.112
 5060TIP3    H236740   5.666   3.891   0.085
 5061TIP3   OH236741   6.815   2.296   7.935
 5061TIP3    H136742   6.830   2.290   7.841
 5061TIP3    H236743   6.860   2.376   7.961
 5062TIP3   OH236744   3.635   3.781   0.510
 5062TIP3    H136745   3.664   3.838   0.439
 5062TIP3    H236746   3.654   3.692   0.479
 5063TIP3   OH236747   3.461   1.605   2.042
 5063TIP3    H136748   3.500   1.518   2.043
 5063TIP3    H236749   3.525   1.661   2.087
 5064TIP3   OH236750   4.156   4.008   0.084
 5064TIP3    H136751   4.083   4.045   0.034
 5064TIP3    H236752   4.165   3.919   0.051
 5065TIP3   OH236753   1.024   2.506   0.816
 5065TIP3    H136754   1.071   2.426   0.839
 5065TIP3    H236755   0.936   2.494   0.853
 5066TIP3   OH236756   0.410   2.721   0.687
 5066TIP3    H136757   0.328   2.734   0.735
 5066TIP3    H236758   0.467   2.676   0.748
 5067TIP3   OH236759   1.278   2.558   6.380
 5067TIP3    H136760   1.343   2.619   6.415
 5067TIP3    H236761   1.216   2.545   6.451
 5068TIP3   OH236762   6.607   3.850   8.271
 5068TIP3    H136763   6.524   3.896   8.279
 5068TIP3    H236764   6.649   3.889   8.194
 5069TIP3   OH236765   2.519   4.419   0.375
 5069TIP3    H136766   2.594   4.440   0.319
 5069TIP3    H236767   2.445   4.465   0.334
 5070TIP3   OH236768   2.285   5.212   2.270
 5070TIP3    H136769   2.322   5.272   2.336
 5070TIP3    H236770   2.218   5.162   2.317
 5071TIP3   OH236771   3.647   6.420   2.105
 5071TIP3    H136772   3.674   6.444   2.194
 5071TIP3    H236773   3.661   6.325   2.100
 5072TIP3   OH236774   1.841   4.847   0.246
 5072TIP3    H136775   1.787   4.771   0.269
 5072TIP3    H236776   1.903   4.855   0.318
 5073TIP3   OH236777   6.110   3.285   7.806
 5073TIP3    H136778   6.172   3.349   7.842
 5073TIP3    H236779   6.037   3.286   7.868
 5074TIP3   OH236780   1.746   1.697   8.184
 5074TIP3    H136781   1.757   1.616   8.134
 5074TIP3    H236782   1.802   1.760   8.138
 5075TIP3   OH236783   6.439   6.205   1.920
 5075TIP3    H136784   6.508   6.155   1.963
 5075TIP3    H236785   6.479   6.290   1.901
 5076TIP3   OH236786   0.239   0.355   1.064
 5076TIP3    H136787   0.173   0.299   1.023
 5076TIP3    H236788   0.191   0.407   1.128
 5077TIP3   OH236789   4.675   6.630   6.777
 5077TIP3    H136790   4.660   6.703   6.836
 5077TIP3    H236791   4.768   6.637   6.753
 5078TIP3   OH236792   2.097   0.672   6.998
 5078TIP3    H136793   2.171   0.652   6.941
 5078TIP3    H236794   2.106   0.611   7.071
 5079TIP3   OH236795   4.943   1.439   7.363
 5079TIP3    H136796   4.897   1.417   7.444
 5079TIP3    H236797   4.880   1.490   7.313
 5080TIP3   OH236798   5.187   3.934   8.422
 5080TIP3    H136799   5.168   3.889   8.340
 5080TIP3    H236800   5.165   4.026   8.405
 5081TIP3   OH236801   4.966   1.793   6.282
 5081TIP3    H136802   4.913   1.724   6.322
 5081TIP3    H236803   5.053   1.781   6.318
 5082TIP3   OH236804   4.406   6.868   0.631
 5082TIP3    H136805   4.375   6.811   0.560
 5082TIP3    H236806   4.384   6.821   0.711
 5083TIP3   OH236807   5.863   3.914   1.469
 5083TIP3    H136808   5.834   3.959   1.389
 5083TIP3    H236809   5.809   3.835   1.474
 5084TIP3   OH236810   4.302   0.702   6.815
 5084TIP3    H136811   4.220   0.741   6.785
 5084TIP3    H236812   4.356   0.695   6.737
 5085TIP3   OH236813   3.407   1.400   6.627
 5085TIP3    H136814   3.482   1.387   6.685
 5085TIP3    H236815   3.426   1.481   6.580
 5086TIP3   OH236816   4.512   6.065   1.203
 5086TIP3    H136817   4.483   5.975   1.217
 5086TIP3    H236818   4.543   6.095   1.289
 5087TIP3   OH236819   5.818   6.842   0.394
 5087TIP3    H136820   5.795   6.750   0.384
 5087TIP3    H236821   5.914   6.843   0.385
 5088TIP3   OH236822   4.674   3.211   0.938
 5088TIP3    H136823   4.649   3.137   0.882
 5088TIP3    H236824   4.751   3.248   0.895
 5089TIP3   OH236825   6.468   3.442   8.494
 5089TIP3    H136826   6.512   3.490   8.424
 5089TIP3    H236827   6.539   3.414   8.553
 5090TIP3   OH236828   6.409   1.116   7.525
 5090TIP3    H136829   6.344   1.104   7.594
 5090TIP3    H236830   6.493   1.102   7.569
 5091TIP3   OH236831   3.678   0.617   7.917
 5091TIP3    H136832   3.679   0.671   7.995
 5091TIP3    H236833   3.690   0.678   7.844
 5092TIP3   OH236834   2.024   4.677   0.598
 5092TIP3    H136835   2.017   4.734   0.522
 5092TIP3    H236836   1.933   4.657   0.621
 5093TIP3   OH236837   6.455   6.060   0.821
 5093TIP3    H136838   6.394   6.025   0.757
 5093TIP3    H236839   6.420   6.033   0.906
 5094TIP3   OH236840   5.022   5.189   6.434
 5094TIP3    H136841   5.009   5.279   6.405
 5094TIP3    H236842   4.939   5.145   6.416
 5095TIP3   OH236843   6.855   2.946   1.034
 5095TIP3    H136844   0.012   3.013   1.052
 5095TIP3    H236845   6.838   2.906   1.119
 5096TIP3   OH236846   4.133   1.547   0.823
 5096TIP3    H136847   4.195   1.477   0.801
 5096TIP3    H236848   4.176   1.595   0.894
 5097TIP3   OH236849   6.232   2.435   2.394
 5097TIP3    H136850   6.260   2.507   2.450
 5097TIP3    H236851   6.272   2.357   2.432
 5098TIP3   OH236852   4.974   4.759   8.149
 5098TIP3    H136853   4.960   4.783   8.057
 5098TIP3    H236854   5.043   4.818   8.179
 5099TIP3   OH236855   2.664   1.608   0.819
 5099TIP3    H136856   2.633   1.647   0.737
 5099TIP3    H236857   2.586   1.604   0.874
 5100TIP3   OH236858   3.757   4.479   6.689
 5100TIP3    H136859   3.729   4.423   6.761
 5100TIP3    H236860   3.771   4.419   6.616
 5101TIP3   OH236861   6.573   3.588   1.223
 5101TIP3    H136862   6.506   3.647   1.258
 5101TIP3    H236863   6.597   3.534   1.298
 5102TIP3   OH236864   6.842   4.196   8.375
 5102TIP3    H136865   6.886   4.281   8.377
 5102TIP3    H236866   6.873   4.151   8.453
 5103TIP3   OH236867   6.052   2.031   7.505
 5103TIP3    H136868   5.959   2.039   7.485
 5103TIP3    H236869   6.091   2.111   7.470
 5104TIP3   OH236870   1.255   6.000   1.173
 5104TIP3    H136871   1.324   5.960   1.121
 5104TIP3    H236872   1.175   5.952   1.148
 5105TIP3   OH236873   6.141   6.656   7.848
 5105TIP3    H136874   6.170   6.649   7.757
 5105TIP3    H236875   6.185   6.583   7.892
 5106TIP3   OH236876   4.091   1.581   1.434
 5106TIP3    H136877   4.048   1.504   1.395
 5106TIP3    H236878   4.126   1.549   1.517
 5107TIP3   OH236879   4.281   2.269   2.131
 5107TIP3    H136880   4.288   2.364   2.120
 5107TIP3    H236881   4.204   2.244   2.080
 5108TIP3   OH236882   6.518   3.510   7.143
 5108TIP3    H136883   6.446   3.490   7.082
 5108TIP3    H236884   6.593   3.462   7.109
 5109TIP3   OH236885   3.861   1.498   1.809
 5109TIP3    H136886   3.947   1.534   1.787
 5109TIP3    H236887   3.879   1.405   1.828
 5110TIP3   OH236888   1.730   6.156   7.086
 5110TIP3    H136889   1.675   6.232   7.105
 5110TIP3    H236890   1.816   6.179   7.123
 5111TIP3   OH236891   4.002   6.280   8.151
 5111TIP3    H136892   3.945   6.250   8.222
 5111TIP3    H236893   4.090   6.253   8.177
 5112TIP3   OH236894   6.023   5.899   6.229
 5112TIP3    H136895   5.975   5.861   6.303
 5112TIP3    H236896   6.103   5.933   6.267
 5113TIP3   OH236897   2.274   3.170   7.015
 5113TIP3    H136898   2.305   3.236   6.953
 5113TIP3    H236899   2.189   3.143   6.981
 5114TIP3   OH236900   0.030   1.617   7.254
 5114TIP3    H136901   6.890   1.542   7.286
 5114TIP3    H236902   6.875   1.671   7.208
 5115TIP3   OH236903   1.931   5.765   6.983
 5115TIP3    H136904   1.902   5.773   7.073
 5115TIP3    H236905   1.969   5.677   6.978
 5116TIP3   OH236906   2.844   3.647   7.581
 5116TIP3    H136907   2.847   3.590   7.657
 5116TIP3    H236908   2.907   3.608   7.519
 5117TIP3   OH236909   0.446   6.229   7.358
 5117TIP3    H136910   0.421   6.140   7.381
 5117TIP3    H236911   0.530   6.243   7.402
 5118TIP3   OH236912   4.293   4.181   8.240
 5118TIP3    H136913   4.309   4.220   8.154
 5118TIP3    H236914   4.252   4.252   8.291
 5119TIP3   OH236915   0.968   1.224   7.022
 5119TIP3    H136916   0.937   1.155   7.080
 5119TIP3    H236917   0.942   1.305   7.066
 5120TIP3   OH236918   4.948   1.701   8.481
 5120TIP3    H136919   5.019   1.764   8.494
 5120TIP3    H236920   4.990   1.615   8.491
 5121TIP3   OH236921   1.355   1.513   8.239
 5121TIP3    H136922   1.302   1.474   8.309
 5121TIP3    H236923   1.358   1.445   8.171
 5122TIP3   OH236924   2.872   1.244   1.088
 5122TIP3    H136925   2.812   1.284   1.025
 5122TIP3    H236926   2.915   1.174   1.039
 5123TIP3   OH236927   3.935   1.553   6.734
 5123TIP3    H136928   3.914   1.584   6.822
 5123TIP3    H236929   4.028   1.531   6.739
 5124TIP3   OH236930   4.403   5.262   8.404
 5124TIP3    H136931   4.383   5.179   8.447
 5124TIP3    H236932   4.465   5.305   8.464
 5125TIP3   OH236933   2.971   0.237   8.023
 5125TIP3    H136934   3.055   0.198   8.049
 5125TIP3    H236935   2.910   0.163   8.021
 5126TIP3   OH236936   2.128   0.881   7.179
 5126TIP3    H136937   2.052   0.859   7.125
 5126TIP3    H236938   2.146   0.802   7.229
 5127TIP3   OH236939   5.306   5.047   1.241
 5127TIP3    H136940   5.284   5.023   1.331
 5127TIP3    H236941   5.374   4.986   1.215
 5128TIP3   OH236942   5.325   1.450   8.225
 5128TIP3    H136943   5.315   1.479   8.134
 5128TIP3    H236944   5.420   1.446   8.238
 5129TIP3   OH236945   1.226   2.557   1.435
 5129TIP3    H136946   1.274   2.526   1.511
 5129TIP3    H236947   1.266   2.643   1.415
 5130TIP3   OH236948   0.569   1.000   7.989
 5130TIP3    H136949   0.573   1.067   7.920
 5130TIP3    H236950   0.480   1.006   8.023
 5131TIP3   OH236951   4.554   4.323   6.424
 5131TIP3    H136952   4.547   4.231   6.400
 5131TIP3    H236953   4.626   4.356   6.369
 5132TIP3   OH236954   1.793   5.895   0.231
 5132TIP3    H136955   1.733   5.840   0.279
 5132TIP3    H236956   1.879   5.857   0.246
 5133TIP3   OH236957   5.267   3.994   6.128
 5133TIP3    H136958   5.284   4.088   6.126
 5133TIP3    H236959   5.351   3.955   6.152
 5134TIP3   OH236960   4.042   5.947   1.572
 5134TIP3    H136961   4.028   6.025   1.627
 5134TIP3    H236962   4.133   5.954   1.543
 5135TIP3   OH236963   6.037   3.913   7.569
 5135TIP3    H136964   6.005   3.972   7.501
 5135TIP3    H236965   6.126   3.891   7.541
 5136TIP3   OH236966   2.001   0.199   0.916
 5136TIP3    H136967   1.919   0.151   0.932
 5136TIP3    H236968   2.040   0.156   0.840
 5137TIP3   OH236969   6.030   4.312   7.069
 5137TIP3    H136970   6.090   4.241   7.090
 5137TIP3    H236971   5.962   4.271   7.015
 5138TIP3   OH236972   4.982   3.259   8.122
 5138TIP3    H136973   4.983   3.269   8.217
 5138TIP3    H236974   5.038   3.183   8.106
 5139TIP3   OH236975   2.203   2.932   7.129
 5139TIP3    H136976   2.118   2.967   7.104
 5139TIP3    H236977   2.266   2.997   7.097
 5140TIP3   OH236978   6.372   4.818   2.113
 5140TIP3    H136979   6.338   4.858   2.192
 5140TIP3    H236980   6.349   4.725   2.120
 5141TIP3   OH236981   3.108   3.821   6.029
 5141TIP3    H136982   3.169   3.871   6.083
 5141TIP3    H236983   3.162   3.785   5.959
 5142TIP3   OH236984   1.554   1.473   0.054
 5142TIP3    H136985   1.480   1.429   0.095
 5142TIP3    H236986   1.627   1.412   0.065
 5143TIP3   OH236987   0.284   6.484   8.437
 5143TIP3    H136988   0.376   6.508   8.425
 5143TIP3    H236989   0.274   6.403   8.387
 5144TIP3   OH236990   5.113   6.268   7.446
 5144TIP3    H136991   5.159   6.352   7.435
 5144TIP3    H236992   5.182   6.206   7.467
 5145TIP3   OH236993   2.304   5.704   1.717
 5145TIP3    H136994   2.314   5.692   1.811
 5145TIP3    H236995   2.234   5.768   1.708
 5146TIP3   OH236996   0.003   1.738   1.159
 5146TIP3    H136997   0.007   1.767   1.067
 5146TIP3    H236998   6.835   1.781   1.194
 5147TIP3   OH236999   1.375   5.441   7.125
 5147TIP3    H137000   1.431   5.494   7.068
 5147TIP3    H237001   1.315   5.397   7.066
 5148TIP3   OH237002   4.657   0.317   7.310
 5148TIP3    H137003   4.736   0.264   7.322
 5148TIP3    H237004   4.689   0.399   7.273
 5149TIP3   OH237005   2.236   2.008   0.770
 5149TIP3    H137006   2.263   2.099   0.781
 5149TIP3    H237007   2.279   1.979   0.690
 5150TIP3   OH237008   6.298   1.826   1.439
 5150TIP3    H137009   6.350   1.752   1.407
 5150TIP3    H237010   6.352   1.865   1.508
 5151TIP3   OH237011   3.108   4.854   6.604
 5151TIP3    H137012   3.096   4.806   6.522
 5151TIP3    H237013   3.022   4.891   6.623
 5152TIP3   OH237014   2.932   3.711   0.894
 5152TIP3    H137015   3.002   3.746   0.949
 5152TIP3    H237016   2.881   3.655   0.952
 5153TIP3   OH237017   4.487   6.549   0.544
 5153TIP3    H137018   4.524   6.604   0.613
 5153TIP3    H237019   4.455   6.611   0.478
 5154TIP3   OH237020   1.677   6.420   2.528
 5154TIP3    H137021   1.606   6.459   2.579
 5154TIP3    H237022   1.752   6.422   2.587
 5155TIP3   OH237023   4.853   0.071   2.050
 5155TIP3    H137024   4.892   0.155   2.073
 5155TIP3    H237025   4.919   0.006   2.077
 5156TIP3   OH237026   5.772   2.084   6.827
 5156TIP3    H137027   5.736   2.073   6.739
 5156TIP3    H237028   5.866   2.070   6.816
 5157TIP3   OH237029   6.297   2.005   1.222
 5157TIP3    H137030   6.361   2.066   1.258
 5157TIP3    H237031   6.292   1.935   1.287
 5158TIP3   OH237032   6.743   6.660   5.986
 5158TIP3    H137033   6.746   6.567   6.008
 5158TIP3    H237034   6.730   6.705   6.070
 5159TIP3   OH237035   6.348   6.417   7.921
 5159TIP3    H137036   6.400   6.480   7.872
 5159TIP3    H237037   6.308   6.362   7.853
 5160TIP3   OH237038   2.372   3.462   2.415
 5160TIP3    H137039   2.449   3.465   2.472
 5160TIP3    H237040   2.356   3.368   2.401
 5161TIP3   OH237041   5.583   0.156   6.852
 5161TIP3    H137042   5.567   0.246   6.821
 5161TIP3    H237043   5.577   0.103   6.773
 5162TIP3   OH237044   2.089   5.279   1.812
 5162TIP3    H137045   2.166   5.288   1.868
 5162TIP3    H237046   2.112   5.209   1.751
 5163TIP3   OH237047   0.302   3.286   0.768
 5163TIP3    H137048   0.256   3.369   0.778
 5163TIP3    H237049   0.360   3.281   0.843
 5164TIP3   OH237050   0.711   4.559   0.151
 5164TIP3    H137051   0.775   4.620   0.115
 5164TIP3    H237052   0.635   4.567   0.093
 5165TIP3   OH237053   6.052   2.238   7.813
 5165TIP3    H137054   5.957   2.233   7.812
 5165TIP3    H237055   6.080   2.193   7.733
 5166TIP3   OH237056   4.132   5.065   0.623
 5166TIP3    H137057   4.127   5.155   0.654
 5166TIP3    H237058   4.043   5.044   0.594
 5167TIP3   OH237059   2.374   4.868   0.115
 5167TIP3    H137060   2.409   4.949   0.154
 5167TIP3    H237061   2.287   4.859   0.154
 5168TIP3   OH237062   1.184   2.844   7.829
 5168TIP3    H137063   1.237   2.785   7.883
 5168TIP3    H237064   1.232   2.851   7.746
 5169TIP3   OH237065   5.778   2.629   6.622
 5169TIP3    H137066   5.726   2.621   6.702
 5169TIP3    H237067   5.734   2.571   6.559
 5170TIP3   OH237068   6.217   2.882   0.878
 5170TIP3    H137069   6.312   2.875   0.883
 5170TIP3    H237070   6.185   2.836   0.956
 5171TIP3   OH237071   0.225   2.784   7.713
 5171TIP3    H137072   0.272   2.733   7.779
 5171TIP3    H237073   0.274   2.771   7.632
 5172TIP3   OH237074   3.254   4.628   0.198
 5172TIP3    H137075   3.298   4.608   0.281
 5172TIP3    H237076   3.318   4.681   0.149
 5173TIP3   OH237077   5.837   6.356   6.909
 5173TIP3    H137078   5.763   6.393   6.861
 5173TIP3    H237079   5.896   6.322   6.841
 5174TIP3   OH237080   0.957   4.593   0.475
 5174TIP3    H137081   0.950   4.499   0.492
 5174TIP3    H237082   0.893   4.632   0.534
 5175TIP3   OH237083   3.082   3.874   8.486
 5175TIP3    H137084   3.108   3.888   8.395
 5175TIP3    H237085   3.145   3.924   8.538
 5176TIP3   OH237086   6.207   3.681   1.539
 5176TIP3    H137087   6.286   3.723   1.505
 5176TIP3    H237088   6.231   3.588   1.548
 5177TIP3   OH237089   4.860   6.169   7.460
 5177TIP3    H137090   4.815   6.215   7.389
 5177TIP3    H237091   4.945   6.212   7.467
 5178TIP3   OH237092   6.527   2.284   0.785
 5178TIP3    H137093   6.615   2.254   0.806
 5178TIP3    H237094   6.492   2.217   0.727
 5179TIP3   OH237095   3.993   5.437   7.045
 5179TIP3    H137096   4.057   5.380   7.088
 5179TIP3    H237097   3.909   5.391   7.056
 5180TIP3   OH237098   3.061   5.218   0.196
 5180TIP3    H137099   3.146   5.181   0.173
 5180TIP3    H237100   3.053   5.203   0.290
 5181TIP3   OH237101   4.956   6.140   7.142
 5181TIP3    H137102   4.978   6.088   7.065
 5181TIP3    H237103   4.995   6.094   7.216
 5182TIP3   OH237104   5.741   2.068   6.215
 5182TIP3    H137105   5.659   2.062   6.265
 5182TIP3    H237106   5.765   1.977   6.198
 5183TIP3   OH237107   5.024   3.433   6.501
 5183TIP3    H137108   5.098   3.406   6.447
 5183TIP3    H237109   4.994   3.353   6.544
 5184TIP3   OH237110   1.225   6.145   0.460
 5184TIP3    H137111   1.168   6.086   0.510
 5184TIP3    H237112   1.310   6.102   0.461
 5185TIP3   OH237113   2.187   3.221   8.310
 5185TIP3    H137114   2.281   3.236   8.318
 5185TIP3    H237115   2.171   3.224   8.216
 5186TIP3   OH237116   0.949   4.616   1.158
 5186TIP3    H137117   0.894   4.575   1.225
 5186TIP3    H237118   1.004   4.677   1.208
 5187TIP3   OH237119   5.086   0.485   0.830
 5187TIP3    H137120   5.096   0.578   0.807
 5187TIP3    H237121   5.141   0.439   0.767
 5188TIP3   OH237122   3.113   3.198   0.950
 5188TIP3    H137123   3.071   3.133   0.895
 5188TIP3    H237124   3.066   3.280   0.931
 5189TIP3   OH237125   2.884   0.717   0.099
 5189TIP3    H137126   2.865   0.663   0.021
 5189TIP3    H237127   2.963   0.678   0.136
 5190TIP3   OH237128   0.207   2.860   0.440
 5190TIP3    H137129   0.227   2.939   0.389
 5190TIP3    H237130   0.128   2.883   0.488
 5191TIP3   OH237131   5.473   2.377   7.259
 5191TIP3    H137132   5.401   2.364   7.197
 5191TIP3    H237133   5.508   2.463   7.236
 5192TIP3   OH237134   5.033   1.938   0.445
 5192TIP3    H137135   5.089   1.936   0.523
 5192TIP3    H237136   4.973   1.864   0.457
 5193TIP3   OH237137   6.462   0.236   7.314
 5193TIP3    H137138   6.371   0.264   7.314
 5193TIP3    H237139   6.465   0.165   7.378
 5194TIP3   OH237140   5.166   0.340   7.633
 5194TIP3    H137141   5.237   0.397   7.603
 5194TIP3    H237142   5.089   0.371   7.586
 5195TIP3   OH237143   6.856   1.220   0.975
 5195TIP3    H137144   6.878   1.196   0.885
 5195TIP3    H237145   0.003   1.165   1.029
 5196TIP3   OH237146   1.975   5.230   2.064
 5196TIP3    H137147   1.890   5.192   2.038
 5196TIP3    H237148   2.023   5.239   1.982
 5197TIP3   OH237149   3.331   2.063   0.283
 5197TIP3    H137150   3.319   2.031   0.193
 5197TIP3    H237151   3.273   2.008   0.335
 5198TIP3   OH237152   0.916   4.367   8.146
 5198TIP3    H137153   0.913   4.279   8.183
 5198TIP3    H237154   1.005   4.398   8.162
 5199TIP3   OH237155   5.223   6.163   6.755
 5199TIP3    H137156   5.293   6.143   6.693
 5199TIP3    H237157   5.155   6.097   6.738
 5200TIP3   OH237158   2.358   0.161   8.362
 5200TIP3    H137159   2.346   0.255   8.373
 5200TIP3    H237160   2.434   0.140   8.417
 5201TIP3   OH237161   0.151   6.607   6.028
 5201TIP3    H137162   0.071   6.581   5.983
 5201TIP3    H237163   0.169   6.696   5.996
 5202TIP3   OH237164   1.124   3.837   8.168
 5202TIP3    H137165   1.066   3.792   8.228
 5202TIP3    H237166   1.208   3.841   8.213
 5203TIP3   OH237167   4.908   0.921   6.556
 5203TIP3    H137168   4.819   0.940   6.526
 5203TIP3    H237169   4.957   1.002   6.540
 5204TIP3   OH237170   6.011   4.693   6.735
 5204TIP3    H137171   6.010   4.629   6.664
 5204TIP3    H237172   6.049   4.646   6.810
 5205TIP3   OH237173   3.716   2.805   8.101
 5205TIP3    H137174   3.780   2.870   8.070
 5205TIP3    H237175   3.706   2.825   8.194
 5206TIP3   OH237176   4.774   0.678   1.270
 5206TIP3    H137177   4.798   0.606   1.211
 5206TIP3    H237178   4.782   0.641   1.358
 5207TIP3   OH237179   5.949   5.236   7.162
 5207TIP3    H137180   5.930   5.167   7.225
 5207TIP3    H237181   5.961   5.190   7.079
 5208TIP3   OH237182   3.549   6.839   1.808
 5208TIP3    H137183   3.620   6.813   1.748
 5208TIP3    H237184   3.583   0.008   1.851
 5209TIP3   OH237185   4.209   5.243   1.600
 5209TIP3    H137186   4.169   5.156   1.610
 5209TIP3    H237187   4.279   5.229   1.536
 5210TIP3   OH237188   6.890   5.881   1.035
 5210TIP3    H137189   6.816   5.938   1.056
 5210TIP3    H237190   6.877   5.857   0.944
 5211TIP3   OH237191   3.746   6.502   8.416
 5211TIP3    H137192   3.770   6.413   8.441
 5211TIP3    H237193   3.691   6.533   8.488
 5212TIP3   OH237194   0.365   0.408   0.407
 5212TIP3    H137195   0.348   0.365   0.324
 5212TIP3    H237196   0.279   0.430   0.441
 5213TIP3   OH237197   2.943   0.826   1.135
 5213TIP3    H137198   2.948   0.919   1.109
 5213TIP3    H237199   2.850   0.804   1.127
 5214TIP3   OH237200   2.413   1.191   7.993
 5214TIP3    H137201   2.429   1.135   7.917
 5214TIP3    H237202   2.493   1.243   8.002
 5215TIP3   OH237203   6.675   1.150   7.668
 5215TIP3    H137204   6.754   1.145   7.722
 5215TIP3    H237205   6.685   1.232   7.618
 5216TIP3   OH237206   5.929   5.421   1.675
 5216TIP3    H137207   5.927   5.358   1.602
 5216TIP3    H237208   5.913   5.506   1.634
 5217TIP3   OH237209   3.576   0.780   0.874
 5217TIP3    H137210   3.581   0.690   0.905
 5217TIP3    H237211   3.665   0.802   0.847
 5218TIP3   OH237212   5.582   1.430   8.289
 5218TIP3    H137213   5.599   1.371   8.216
 5218TIP3    H237214   5.669   1.460   8.316
 5219TIP3   OH237215   0.096   6.060   7.887
 5219TIP3    H137216   0.048   5.977   7.883
 5219TIP3    H237217   0.185   6.038   7.859
 5220TIP3   OH237218   6.511   1.663   1.351
 5220TIP3    H137219   6.502   1.587   1.409
 5220TIP3    H237220   6.597   1.653   1.311
 5221TIP3   OH237221   3.526   0.054   2.557
 5221TIP3    H137222   3.498   0.005   2.480
 5221TIP3    H237223   3.572   6.900   2.611
 5222TIP3   OH237224   1.989   4.400   0.903
 5222TIP3    H137225   1.975   4.418   0.996
 5222TIP3    H237226   1.947   4.315   0.888
 5223TIP3   OH237227   0.618   0.701   0.010
 5223TIP3    H137228   0.609   0.775   8.517
 5223TIP3    H237229   0.641   0.741   0.094
 5224TIP3   OH237230   6.518   3.037   1.429
 5224TIP3    H137231   6.568   3.009   1.352
 5224TIP3    H237232   6.529   2.966   1.491
 5225TIP3   OH237233   3.347   6.737   7.438
 5225TIP3    H137234   3.428   6.777   7.470
 5225TIP3    H237235   3.374   6.683   7.364
 5226TIP3   OH237236   4.843   5.005   0.646
 5226TIP3    H137237   4.896   5.050   0.580
 5226TIP3    H237238   4.885   4.920   0.657
 5227TIP3   OH237239   5.056   1.310   1.319
 5227TIP3    H137240   5.047   1.259   1.239
 5227TIP3    H237241   5.146   1.344   1.315
 5228TIP3   OH237242   4.199   6.154   8.310
 5228TIP3    H137243   4.194   6.094   8.385
 5228TIP3    H237244   4.233   6.236   8.348
 5229TIP3   OH237245   3.277   2.236   0.015
 5229TIP3    H137246   3.212   2.169   0.030
 5229TIP3    H237247   3.296   2.272   0.102
 5230TIP3   OH237248   6.241   2.595   0.647
 5230TIP3    H137249   6.146   2.594   0.635
 5230TIP3    H237250   6.269   2.505   0.632
 5231TIP3   OH237251   6.801   4.149   0.492
 5231TIP3    H137252   6.738   4.193   0.436
 5231TIP3    H237253   6.755   4.136   0.575
 5232TIP3   OH237254   1.380   1.572   1.197
 5232TIP3    H137255   1.395   1.642   1.133
 5232TIP3    H237256   1.455   1.575   1.255
 5233TIP3   OH237257   3.113   3.490   0.696
 5233TIP3    H137258   3.146   3.580   0.702
 5233TIP3    H237259   3.179   3.444   0.645
 5234TIP3   OH237260   5.346   3.761   7.416
 5234TIP3    H137261   5.324   3.723   7.331
 5234TIP3    H237262   5.315   3.697   7.480
 5235TIP3   OH237263   4.276   1.597   8.436
 5235TIP3    H137264   4.264   1.692   8.430
 5235TIP3    H237265   4.187   1.563   8.449
 5236TIP3   OH237266   2.866   6.887   7.692
 5236TIP3    H137267   2.829   6.830   7.624
 5236TIP3    H237268   2.935   0.027   7.647
 5237TIP3   OH237269   1.122   4.775   0.575
 5237TIP3    H137270   1.121   4.733   0.661
 5237TIP3    H237271   1.070   4.717   0.520
 5238TIP3   OH237272   2.338   2.897   1.695
 5238TIP3    H137273   2.298   2.925   1.777
 5238TIP3    H237274   2.395   2.969   1.669
 5239TIP3   OH237275   0.352   6.038   8.107
 5239TIP3    H137276   0.277   6.027   8.166
 5239TIP3    H237277   0.335   6.121   8.062
 5240TIP3   OH237278   1.617   2.595   0.160
 5240TIP3    H137279   1.596   2.660   0.093
 5240TIP3    H237280   1.578   2.514   0.127
 5241TIP3   OH237281   0.805   2.799   7.904
 5241TIP3    H137282   0.815   2.862   7.833
 5241TIP3    H237283   0.843   2.718   7.870
 5242TIP3   OH237284   2.822   3.574   7.139
 5242TIP3    H137285   2.848   3.574   7.047
 5242TIP3    H237286   2.728   3.557   7.137
 5243TIP3   OH237287   0.199   4.197   8.200
 5243TIP3    H137288   0.155   4.117   8.230
 5243TIP3    H237289   0.156   4.268   8.248
 5244TIP3   OH237290   2.096   0.664   1.433
 5244TIP3    H137291   2.020   0.721   1.418
 5244TIP3    H237292   2.159   0.719   1.479
 5245TIP3   OH237293   3.971   0.992   1.426
 5245TIP3    H137294   4.008   1.034   1.348
 5245TIP3    H237295   3.998   0.901   1.419
 5246TIP3   OH237296   5.617   0.087   6.559
 5246TIP3    H137297   5.557   0.016   6.580
 5246TIP3    H237298   5.612   0.094   6.463
 5247TIP3   OH237299   0.598   3.423   7.176
 5247TIP3    H137300   0.577   3.479   7.252
 5247TIP3    H237301   0.657   3.476   7.123
 5248TIP3   OH237302   0.744   4.775   0.511
 5248TIP3    H137303   0.676   4.710   0.492
 5248TIP3    H237304   0.775   4.802   0.425
 5249TIP3   OH237305   0.679   0.133   7.619
 5249TIP3    H137306   0.652   0.044   7.598
 5249TIP3    H237307   0.620   0.160   7.689
 5250TIP3   OH237308   3.918   4.752   0.471
 5250TIP3    H137309   4.010   4.735   0.452
 5250TIP3    H237310   3.875   4.750   0.386
 5251TIP3   OH237311   0.635   6.773   7.556
 5251TIP3    H137312   0.598   6.711   7.619
 5251TIP3    H237313   0.599   6.745   7.472
 5252TIP3   OH237314   5.829   1.783   2.420
 5252TIP3    H137315   5.905   1.733   2.451
 5252TIP3    H237316   5.756   1.722   2.428
 5253TIP3   OH237317   3.192   0.890   1.470
 5253TIP3    H137318   3.149   0.968   1.505
 5253TIP3    H237319   3.226   0.918   1.385
 5254TIP3   OH237320   2.464   5.725   0.299
 5254TIP3    H137321   2.463   5.633   0.273
 5254TIP3    H237322   2.540   5.733   0.357
 5255TIP3   OH237323   0.754   6.332   1.672
 5255TIP3    H137324   0.806   6.262   1.635
 5255TIP3    H237325   0.803   6.359   1.750
 5256TIP3   OH237326   3.999   2.053   7.358
 5256TIP3    H137327   3.920   2.086   7.400
 5256TIP3    H237328   3.974   2.042   7.266
 5257TIP3   OH237329   2.642   1.160   2.223
 5257TIP3    H137330   2.588   1.235   2.200
 5257TIP3    H237331   2.727   1.177   2.182
 5258TIP3   OH237332   5.174   0.938   7.208
 5258TIP3    H137333   5.109   0.952   7.277
 5258TIP3    H237334   5.147   0.857   7.166
 5259TIP3   OH237335   3.025   2.055   7.569
 5259TIP3    H137336   3.103   2.004   7.548
 5259TIP3    H237337   2.988   2.079   7.484
 5260TIP3   OH237338   6.065   4.439   8.019
 5260TIP3    H137339   6.126   4.389   7.965
 5260TIP3    H237340   5.979   4.408   7.992
 5261TIP3   OH237341   0.047   5.696   1.217
 5261TIP3    H137342   6.882   5.636   1.223
 5261TIP3    H237343   0.020   5.762   1.153
 5262TIP3   OH237344   6.895   4.044   0.050
 5262TIP3    H137345   6.901   4.025   0.144
 5262TIP3    H237346   6.814   4.002   0.022
 5263TIP3   OH237347   0.953   2.627   6.887
 5263TIP3    H137348   0.991   2.554   6.839
 5263TIP3    H237349   0.859   2.615   6.880
 5264TIP3   OH237350   3.574   5.939   0.332
 5264TIP3    H137351   3.533   5.974   0.253
 5264TIP3    H237352   3.623   5.862   0.303
 5265TIP3   OH237353   1.716   6.365   0.028
 5265TIP3    H137354   1.709   6.427   0.101
 5265TIP3    H237355   1.626   6.334   0.015
 5266TIP3   OH237356   1.458   0.841   0.766
 5266TIP3    H137357   1.366   0.819   0.756
 5266TIP3    H237358   1.499   0.813   0.684
 5267TIP3   OH237359   6.367   5.327   0.775
 5267TIP3    H137360   6.282   5.367   0.755
 5267TIP3    H237361   6.369   5.247   0.723
 5268TIP3   OH237362   5.669   4.323   7.148
 5268TIP3    H137363   5.700   4.238   7.179
 5268TIP3    H237364   5.705   4.332   7.060
 5269TIP3   OH237365   6.488   5.445   7.070
 5269TIP3    H137366   6.457   5.502   6.999
 5269TIP3    H237367   6.582   5.463   7.076
 5270TIP3   OH237368   0.084   5.032   2.514
 5270TIP3    H137369   0.078   4.961   2.450
 5270TIP3    H237370   0.056   5.110   2.467
 5271TIP3   OH237371   2.045   3.670   0.215
 5271TIP3    H137372   2.001   3.585   0.222
 5271TIP3    H237373   2.069   3.691   0.306
 5272TIP3   OH237374   6.412   5.630   1.385
 5272TIP3    H137375   6.449   5.697   1.442
 5272TIP3    H237376   6.356   5.577   1.443
 5273TIP3   OH237377   5.601   5.016   0.526
 5273TIP3    H137378   5.582   5.051   0.439
 5273TIP3    H237379   5.681   5.060   0.553
 5274TIP3   OH237380   5.138   0.919   8.360
 5274TIP3    H137381   5.145   0.884   8.271
 5274TIP3    H237382   5.133   1.014   8.348
 5275TIP3   OH237383   5.628   2.987   1.883
 5275TIP3    H137384   5.631   3.040   1.963
 5275TIP3    H237385   5.535   2.968   1.870
 5276TIP3   OH237386   0.669   4.602   1.262
 5276TIP3    H137387   0.706   4.684   1.293
 5276TIP3    H237388   0.577   4.605   1.289
 5277TIP3   OH237389   4.693   4.674   1.000
 5277TIP3    H137390   4.658   4.651   0.914
 5277TIP3    H237391   4.616   4.687   1.055
 5278TIP3   OH237392   5.954   1.613   0.614
 5278TIP3    H137393   5.944   1.589   0.522
 5278TIP3    H237394   6.021   1.554   0.648
 5279TIP3   OH237395   1.270   1.112   8.319
 5279TIP3    H137396   1.254   1.145   8.230
 5279TIP3    H237397   1.187   1.072   8.344
 5280TIP3   OH237398   4.061   2.450   8.450
 5280TIP3    H137399   4.123   2.478   8.517
 5280TIP3    H237400   4.015   2.530   8.424
 5281TIP3   OH237401   6.736   1.022   6.414
 5281TIP3    H137402   6.805   1.024   6.480
 5281TIP3    H237403   6.744   1.106   6.368
 5282TIP3   OH237404   4.725   2.385   6.946
 5282TIP3    H137405   4.674   2.306   6.958
 5282TIP3    H237406   4.729   2.424   7.033
 5283TIP3   OH237407   1.588   1.970   8.246
 5283TIP3    H137408   1.528   2.040   8.270
 5283TIP3    H237409   1.578   1.904   8.314
 5284TIP3   OH237410   1.761   2.811   8.441
 5284TIP3    H137411   1.745   2.775   8.528
 5284TIP3    H237412   1.702   2.764   8.383
 5285TIP3   OH237413   1.544   6.586   7.519
 5285TIP3    H137414   1.541   6.496   7.486
 5285TIP3    H237415   1.609   6.584   7.588
 5286TIP3   OH237416   3.178   2.460   6.897
 5286TIP3    H137417   3.129   2.426   6.972
 5286TIP3    H237418   3.225   2.384   6.862
 5287TIP3   OH237419   2.393   2.323   0.046
 5287TIP3    H137420   2.421   2.379   8.540
 5287TIP3    H237421   2.341   2.254   0.006
 5288TIP3   OH237422   4.498   3.209   7.817
 5288TIP3    H137423   4.544   3.293   7.819
 5288TIP3    H237424   4.562   3.145   7.849
 5289TIP3   OH237425   0.156   1.237   7.548
 5289TIP3    H137426   0.114   1.169   7.495
 5289TIP3    H237427   0.182   1.192   7.628
 5290TIP3   OH237428   6.059   4.737   0.722
 5290TIP3    H137429   6.109   4.819   0.730
 5290TIP3    H237430   6.056   4.720   0.628
 5291TIP3   OH237431   2.096   1.070   0.254
 5291TIP3    H137432   2.146   1.147   0.226
 5291TIP3    H237433   2.157   1.020   0.307
 5292TIP3   OH237434   4.227   2.934   8.177
 5292TIP3    H137435   4.300   2.993   8.160
 5292TIP3    H237436   4.158   2.965   8.118
 5293TIP3   OH237437   2.613   1.371   8.004
 5293TIP3    H137438   2.628   1.403   8.093
 5293TIP3    H237439   2.690   1.317   7.985
 5294TIP3   OH237440   3.026   3.549   6.931
 5294TIP3    H137441   3.094   3.608   6.898
 5294TIP3    H237442   2.964   3.541   6.858
 5295TIP3   OH237443   2.366   6.555   5.980
 5295TIP3    H137444   2.439   6.504   6.016
 5295TIP3    H237445   2.402   6.642   5.965
 5296TIP3   OH237446   6.630   6.000   8.504
 5296TIP3    H137447   6.663   6.082   8.468
 5296TIP3    H237448   6.672   5.992   0.023
 5297TIP3   OH237449   3.885   2.602   0.109
 5297TIP3    H137450   3.797   2.598   0.144
 5297TIP3    H237451   3.932   2.532   0.154
 5298TIP3   OH237452   3.823   1.544   8.557
 5298TIP3    H137453   3.788   1.621   8.512
 5298TIP3    H237454   3.775   1.471   8.519
 5299TIP3   OH237455   5.835   2.100   1.054
 5299TIP3    H137456   5.845   2.008   1.030
 5299TIP3    H237457   5.924   2.135   1.051
 5300TIP3   OH237458   0.126   6.231   7.109
 5300TIP3    H137459   0.097   6.167   7.174
 5300TIP3    H237460   0.206   6.193   7.072
 5301TIP3   OH237461   6.572   5.713   6.351
 5301TIP3    H137462   6.582   5.622   6.379
 5301TIP3    H237463   6.496   5.745   6.399
 5302TIP3   OH237464   4.568   4.982   7.683
 5302TIP3    H137465   4.487   4.932   7.689
 5302TIP3    H237466   4.586   5.011   7.772
 5303TIP3   OH237467   5.847   3.445   0.140
 5303TIP3    H137468   5.849   3.380   0.210
 5303TIP3    H237469   5.787   3.408   0.075
 5304TIP3   OH237470   0.667   2.213   8.006
 5304TIP3    H137471   0.736   2.229   8.070
 5304TIP3    H237472   0.622   2.297   7.998
 5305TIP3   OH237473   2.530   1.893   0.196
 5305TIP3    H137474   2.444   1.930   0.177
 5305TIP3    H237475   2.539   1.899   0.291
 5306TIP3   OH237476   3.193   2.360   7.457
 5306TIP3    H137477   3.180   2.270   7.427
 5306TIP3    H237478   3.119   2.409   7.419
 5307TIP3   OH237479   1.263   0.623   6.806
 5307TIP3    H137480   1.186   0.595   6.756
 5307TIP3    H237481   1.259   0.718   6.805
 5308TIP3   OH237482   0.958   2.176   0.939
 5308TIP3    H137483   0.946   2.089   0.901
 5308TIP3    H237484   1.048   2.200   0.915
 5309TIP3   OH237485   4.642   5.779   6.352
 5309TIP3    H137486   4.663   5.685   6.355
 5309TIP3    H237487   4.595   5.789   6.269
 5310TIP3   OH237488   2.377   1.197   1.174
 5310TIP3    H137489   2.353   1.153   1.093
 5310TIP3    H237490   2.458   1.154   1.202
 5311TIP3   OH237491   2.198   2.068   1.770
 5311TIP3    H137492   2.207   2.147   1.716
 5311TIP3    H237493   2.281   2.061   1.816
 5312TIP3   OH237494   2.298   3.395   7.164
 5312TIP3    H137495   2.218   3.440   7.138
 5312TIP3    H237496   2.293   3.310   7.120
 5313TIP3   OH237497   6.102   5.293   0.591
 5313TIP3    H137498   6.114   5.365   0.654
 5313TIP3    H237499   6.189   5.257   0.579
 5314TIP3   OH237500   1.689   1.880   6.764
 5314TIP3    H137501   1.677   1.845   6.675
 5314TIP3    H237502   1.669   1.973   6.755
 5315TIP3   OH237503   2.676   3.116   8.346
 5315TIP3    H137504   2.662   3.082   8.434
 5315TIP3    H237505   2.770   3.105   8.331
 5316TIP3   OH237506   1.320   2.962   0.058
 5316TIP3    H137507   1.242   2.967   0.113
 5316TIP3    H237508   1.394   2.974   0.118
 5317TIP3   OH237509   5.554   5.137   2.118
 5317TIP3    H137510   5.633   5.091   2.088
 5317TIP3    H237511   5.483   5.094   2.071
 5318TIP3   OH237512   4.485   3.465   0.844
 5318TIP3    H137513   4.564   3.485   0.794
 5318TIP3    H237514   4.423   3.435   0.778
 5319TIP3   OH237515   0.759   0.972   0.835
 5319TIP3    H137516   0.751   0.891   0.784
 5319TIP3    H237517   0.853   0.988   0.840
 5320TIP3   OH237518   4.341   3.520   8.457
 5320TIP3    H137519   4.325   3.466   8.379
 5320TIP3    H237520   4.262   3.509   8.510
 5321TIP3   OH237521   5.898   3.089   2.062
 5321TIP3    H137522   5.885   3.022   2.129
 5321TIP3    H237523   5.816   3.138   2.061
 5322TIP3   OH237524   2.287   5.596   0.079
 5322TIP3    H137525   2.210   5.540   0.093
 5322TIP3    H237526   2.357   5.552   0.126
 5323TIP3   OH237527   3.817   5.390   0.118
 5323TIP3    H137528   3.830   5.332   0.193
 5323TIP3    H237529   3.900   5.436   0.109
 5324TIP3   OH237530   6.239   6.023   1.884
 5324TIP3    H137531   6.191   6.086   1.938
 5324TIP3    H237532   6.322   6.066   1.866
 5325TIP3   OH237533   5.969   2.345   0.396
 5325TIP3    H137534   5.893   2.292   0.421
 5325TIP3    H237535   5.991   2.394   0.475
 5326TIP3   OH237536   1.508   5.275   1.561
 5326TIP3    H137537   1.459   5.307   1.486
 5326TIP3    H237538   1.444   5.227   1.613
 5327TIP3   OH237539   1.290   6.468   6.815
 5327TIP3    H137540   1.384   6.488   6.817
 5327TIP3    H237541   1.282   6.387   6.864
 5328TIP3   OH237542   2.111   6.106   7.976
 5328TIP3    H137543   2.136   6.198   7.966
 5328TIP3    H237544   2.177   6.058   7.926
 5329TIP3   OH237545   5.283   5.583   7.239
 5329TIP3    H137546   5.272   5.532   7.160
 5329TIP3    H237547   5.303   5.672   7.208
 5330TIP3   OH237548   0.491   0.319   7.339
 5330TIP3    H137549   0.542   0.263   7.280
 5330TIP3    H237550   0.554   0.345   7.407
 5331TIP3   OH237551   4.564   1.728   0.812
 5331TIP3    H137552   4.604   1.678   0.741
 5331TIP3    H237553   4.540   1.812   0.772
 5332TIP3   OH237554   2.788   5.141   1.340
 5332TIP3    H137555   2.781   5.047   1.324
 5332TIP3    H237556   2.825   5.147   1.429
 5333TIP3   OH237557   6.771   4.493   8.478
 5333TIP3    H137558   6.709   4.507   8.550
 5333TIP3    H237559   6.723   4.514   8.399
 5334TIP3   OH237560   4.185   2.963   6.166
 5334TIP3    H137561   4.108   2.981   6.220
 5334TIP3    H237562   4.150   2.945   6.079
 5335TIP3   OH237563   0.239   2.792   6.895
 5335TIP3    H137564   0.152   2.811   6.930
 5335TIP3    H237565   0.298   2.848   6.945
 5336TIP3   OH237566   3.135   5.952   6.965
 5336TIP3    H137567   3.173   5.942   6.877
 5336TIP3    H237568   3.180   6.028   7.002
 5337TIP3   OH237569   2.009   2.913   0.829
 5337TIP3    H137570   1.987   2.927   0.736
 5337TIP3    H237571   2.041   2.823   0.832
 5338TIP3   OH237572   3.117   5.573   1.442
 5338TIP3    H137573   3.166   5.493   1.462
 5338TIP3    H237574   3.062   5.588   1.518
 5339TIP3   OH237575   4.901   2.265   0.038
 5339TIP3    H137576   4.830   2.300   8.552
 5339TIP3    H237577   4.912   2.330   0.108
 5340TIP3   OH237578   4.808   5.730   0.368
 5340TIP3    H137579   4.855   5.807   0.337
 5340TIP3    H237580   4.727   5.765   0.406
 5341TIP3   OH237581   6.013   1.291   1.817
 5341TIP3    H137582   5.982   1.220   1.874
 5341TIP3    H237583   5.981   1.268   1.730
 5342TIP3   OH237584   0.702   6.188   7.571
 5342TIP3    H137585   0.635   6.128   7.604
 5342TIP3    H237586   0.713   6.252   7.642
 5343TIP3   OH237587   5.210   2.542   7.524
 5343TIP3    H137588   5.147   2.531   7.453
 5343TIP3    H237589   5.296   2.528   7.483
 5344TIP3   OH237590   4.764   2.950   6.885
 5344TIP3    H137591   4.787   3.034   6.845
 5344TIP3    H237592   4.711   2.906   6.819
 5345TIP3   OH237593   1.034   2.459   0.538
 5345TIP3    H137594   1.102   2.458   0.471
 5345TIP3    H237595   1.071   2.512   0.609
 5346TIP3   OH237596   5.283   1.208   1.510
 5346TIP3    H137597   5.280   1.282   1.449
 5346TIP3    H237598   5.347   1.148   1.471
 5347TIP3   OH237599   0.415   4.717   1.035
 5347TIP3    H137600   0.433   4.792   0.979
 5347TIP3    H237601   0.338   4.675   0.996
 5348TIP3   OH237602   2.897   0.363   7.209
 5348TIP3    H137603   2.871   0.284   7.257
 5348TIP3    H237604   2.816   0.413   7.199
 5349TIP3   OH237605   1.555   2.574   8.025
 5349TIP3    H137606   1.530   2.598   7.936
 5349TIP3    H237607   1.639   2.529   8.015
 5350TIP3   OH237608   0.215   3.018   0.216
 5350TIP3    H137609   0.151   3.068   0.166
 5350TIP3    H237610   0.231   2.939   0.164
 5351TIP3   OH237611   5.832   3.636   7.022
 5351TIP3    H137612   5.838   3.578   7.098
 5351TIP3    H237613   5.920   3.672   7.012
 5352TIP3   OH237614   3.121   1.794   1.329
 5352TIP3    H137615   3.191   1.843   1.288
 5352TIP3    H237616   3.096   1.846   1.405
 5353TIP3   OH237617   3.192   0.714   8.310
 5353TIP3    H137618   3.151   0.632   8.337
 5353TIP3    H237619   3.274   0.687   8.267
 5354TIP3   OH237620   4.251   6.860   0.980
 5354TIP3    H137621   4.233   6.870   1.073
 5354TIP3    H237622   4.295   0.032   0.955
 5355TIP3   OH237623   4.811   1.211   0.246
 5355TIP3    H137624   4.748   1.156   0.200
 5355TIP3    H237625   4.768   1.232   0.329
 5356TIP3   OH237626   4.121   5.794   0.440
 5356TIP3    H137627   4.203   5.751   0.418
 5356TIP3    H237628   4.145   5.858   0.507
 5357TIP3   OH237629   1.462   4.082   7.878
 5357TIP3    H137630   1.483   4.097   7.786
 5357TIP3    H237631   1.404   4.007   7.878
 5358TIP3   OH237632   2.466   1.478   7.776
 5358TIP3    H137633   2.547   1.509   7.735
 5358TIP3    H237634   2.482   1.488   7.870
 5359TIP3   OH237635   5.108   4.837   0.402
 5359TIP3    H137636   5.150   4.776   0.462
 5359TIP3    H237637   5.026   4.796   0.378
 5360TIP3   OH237638   4.226   5.252   6.535
 5360TIP3    H137639   4.146   5.245   6.588
 5360TIP3    H237640   4.206   5.202   6.456
 5361TIP3   OH237641   6.487   6.658   0.583
 5361TIP3    H137642   6.448   6.736   0.543
 5361TIP3    H237643   6.551   6.692   0.644
 5362TIP3   OH237644   0.719   6.402   7.848
 5362TIP3    H137645   0.766   6.437   7.924
 5362TIP3    H237646   0.712   6.308   7.866
 5363TIP3   OH237647   6.868   3.575   0.516
 5363TIP3    H137648   0.049   3.605   0.524
 5363TIP3    H237649   6.875   3.488   0.477
 5364TIP3   OH237650   4.956   0.217   7.255
 5364TIP3    H137651   4.929   0.293   7.203
 5364TIP3    H237652   4.970   0.147   7.190
 5365TIP3   OH237653   3.386   2.692   0.112
 5365TIP3    H137654   3.397   2.780   0.074
 5365TIP3    H237655   3.306   2.699   0.165
 5366TIP3   OH237656   2.196   5.889   1.334
 5366TIP3    H137657   2.243   5.818   1.289
 5366TIP3    H237658   2.146   5.932   1.265
 5367TIP3   OH237659   3.242   2.920   8.481
 5367TIP3    H137660   3.162   2.923   8.428
 5367TIP3    H237661   3.224   2.978   8.555
 5368TIP3   OH237662   3.482   2.936   1.319
 5368TIP3    H137663   3.398   2.953   1.362
 5368TIP3    H237664   3.542   2.914   1.390
 5369TIP3   OH237665   5.683   1.763   0.587
 5369TIP3    H137666   5.763   1.710   0.584
 5369TIP3    H237667   5.614   1.702   0.560
 5370TIP3   OH237668   3.748   3.533   7.541
 5370TIP3    H137669   3.692   3.572   7.474
 5370TIP3    H237670   3.765   3.604   7.603
 5371TIP3   OH237671   1.844   1.138   0.662
 5371TIP3    H137672   1.774   1.086   0.623
 5371TIP3    H237673   1.829   1.227   0.628
 5372TIP3   OH237674   4.590   4.984   8.264
 5372TIP3    H137675   4.524   5.034   8.216
 5372TIP3    H237676   4.673   5.018   8.233
 5373TIP3   OH237677   3.808   5.859   6.740
 5373TIP3    H137678   3.899   5.857   6.710
 5373TIP3    H237679   3.778   5.948   6.718
 5374TIP3   OH237680   1.024   0.016   6.916
 5374TIP3    H137681   1.073   6.843   6.926
 5374TIP3    H237682   0.966   0.019   6.992
 5375TIP3   OH237683   6.094   3.776   6.518
 5375TIP3    H137684   6.164   3.716   6.495
 5375TIP3    H237685   6.034   3.724   6.571
 5376TIP3   OH237686   1.247   6.434   6.088
 5376TIP3    H137687   1.190   6.410   6.015
 5376TIP3    H237688   1.307   6.499   6.051
 5377TIP3   OH237689   1.109   4.528   7.776
 5377TIP3    H137690   1.047   4.476   7.827
 5377TIP3    H237691   1.143   4.467   7.710
 5378TIP3   OH237692   0.914   4.961   0.634
 5378TIP3    H137693   0.852   4.910   0.583
 5378TIP3    H237694   0.999   4.921   0.616
 5379TIP3   OH237695   0.125   3.215   0.026
 5379TIP3    H137696   0.218   3.202   0.010
 5379TIP3    H237697   0.081   3.168   8.522
 5380TIP3   OH237698   1.228   3.593   8.418
 5380TIP3    H137699   1.267   3.679   8.401
 5380TIP3    H237700   1.294   3.547   8.469
 5381TIP3   OH237701   1.442   5.378   0.356
 5381TIP3    H137702   1.364   5.324   0.349
 5381TIP3    H237703   1.485   5.348   0.436
 5382TIP3   OH237704   1.876   6.867   7.985
 5382TIP3    H137705   1.911   0.022   7.922
 5382TIP3    H237706   1.799   6.831   7.941
 5383TIP3   OH237707   1.739   1.612   0.220
 5383TIP3    H137708   1.738   1.706   0.238
 5383TIP3    H237709   1.671   1.600   0.154
 5384TIP3   OH237710   5.370   2.948   1.838
 5384TIP3    H137711   5.345   2.884   1.772
 5384TIP3    H237712   5.287   2.987   1.866
 5385TIP3   OH237713   1.178   3.680   0.832
 5385TIP3    H137714   1.120   3.756   0.832
 5385TIP3    H237715   1.122   3.607   0.859
 5386TIP3   OH237716   0.974   5.591   8.476
 5386TIP3    H137717   0.930   5.675   8.466
 5386TIP3    H237718   0.928   5.547   8.547
 5387TIP3   OH237719   1.294   5.960   1.485
 5387TIP3    H137720   1.202   5.970   1.461
 5387TIP3    H237721   1.326   5.889   1.428
 5388TIP3   OH237722   3.082   0.601   7.235
 5388TIP3    H137723   2.997   0.558   7.222
 5388TIP3    H237724   3.107   0.629   7.147
 5389TIP3   OH237725   4.643   1.905   7.624
 5389TIP3    H137726   4.718   1.896   7.565
 5389TIP3    H237727   4.646   1.995   7.654
 5390TIP3   OH237728   1.798   0.442   8.138
 5390TIP3    H137729   1.814   0.386   8.214
 5390TIP3    H237730   1.872   0.425   8.079
 5391TIP3   OH237731   0.688   1.525   1.188
 5391TIP3    H137732   0.599   1.504   1.161
 5391TIP3    H237733   0.679   1.568   1.273
 5392TIP3   OH237734   5.627   5.332   1.823
 5392TIP3    H137735   5.577   5.253   1.844
 5392TIP3    H237736   5.586   5.367   1.744
 5393TIP3   OH237737   4.358   6.269   1.495
 5393TIP3    H137738   4.362   6.297   1.586
 5393TIP3    H237739   4.432   6.209   1.485
 5394TIP3   OH237740   1.826   3.983   6.219
 5394TIP3    H137741   1.743   3.977   6.265
 5394TIP3    H237742   1.816   3.927   6.142
 5395TIP3   OH237743   0.240   5.073   1.005
 5395TIP3    H137744   0.189   5.094   0.927
 5395TIP3    H237745   0.315   5.023   0.972
 5396TIP3   OH237746   6.881   1.702   7.888
 5396TIP3    H137747   6.885   1.727   7.980
 5396TIP3    H237748   6.795   1.731   7.859
 5397TIP3   OH237749   0.274   2.352   0.998
 5397TIP3    H137750   0.263   2.446   0.982
 5397TIP3    H237751   0.240   2.339   1.087
 5398TIP3   OH237752   3.251   4.412   6.518
 5398TIP3    H137753   3.227   4.354   6.590
 5398TIP3    H237754   3.333   4.376   6.484
 5399TIP3   OH237755   0.065   4.662   1.369
 5399TIP3    H137756   6.905   4.598   1.383
 5399TIP3    H237757   0.041   4.706   1.287
 5400TIP3   OH237758   0.817   3.511   6.139
 5400TIP3    H137759   0.836   3.603   6.121
 5400TIP3    H237760   0.899   3.466   6.119
 5401TIP3   OH237761   1.126   4.715   6.949
 5401TIP3    H137762   1.108   4.641   6.892
 5401TIP3    H237763   1.043   4.731   6.994
 5402TIP3   OH237764   6.547   4.561   0.822
 5402TIP3    H137765   6.639   4.579   0.802
 5402TIP3    H237766   6.550   4.499   0.894
 5403TIP3   OH237767   0.339   2.247   0.501
 5403TIP3    H137768   0.434   2.261   0.498
 5403TIP3    H237769   0.315   2.262   0.593
 5404TIP3   OH237770   3.985   1.694   7.882
 5404TIP3    H137771   4.020   1.606   7.869
 5404TIP3    H237772   4.010   1.717   7.971
 5405TIP3   OH237773   1.146   0.875   7.367
 5405TIP3    H137774   1.080   0.823   7.321
 5405TIP3    H237775   1.205   0.906   7.299
 5406TIP3   OH237776   0.880   6.140   1.186
 5406TIP3    H137777   0.794   6.176   1.164
 5406TIP3    H237778   0.928   6.143   1.103
 5407TIP3   OH237779   2.873   2.085   0.826
 5407TIP3    H137780   2.862   2.179   0.813
 5407TIP3    H237781   2.928   2.079   0.905
 5408TIP3   OH237782   4.509   1.821   8.317
 5408TIP3    H137783   4.560   1.743   8.297
 5408TIP3    H237784   4.574   1.888   8.337
 5409TIP3   OH237785   3.223   3.818   2.144
 5409TIP3    H137786   3.156   3.795   2.208
 5409TIP3    H237787   3.252   3.734   2.109
 5410TIP3   OH237788   4.840   4.894   7.127
 5410TIP3    H137789   4.814   4.955   7.057
 5410TIP3    H237790   4.809   4.809   7.097
 5411TIP3   OH237791   1.672   3.015   8.233
 5411TIP3    H137792   1.725   3.070   8.174
 5411TIP3    H237793   1.620   2.961   8.174
 5412TIP3   OH237794   4.689   5.587   8.063
 5412TIP3    H137795   4.731   5.666   8.027
 5412TIP3    H237796   4.630   5.559   7.994
 5413TIP3   OH237797   5.559   0.918   6.591
 5413TIP3    H137798   5.583   1.009   6.579
 5413TIP3    H237799   5.604   0.871   6.522
 5414TIP3   OH237800   4.185   3.835   7.707
 5414TIP3    H137801   4.158   3.746   7.686
 5414TIP3    H237802   4.106   3.878   7.740
 5415TIP3   OH237803   4.131   1.073   7.759
 5415TIP3    H137804   4.104   1.052   7.848
 5415TIP3    H237805   4.196   1.142   7.769
 5416TIP3   OH237806   3.519   2.591   2.098
 5416TIP3    H137807   3.614   2.599   2.090
 5416TIP3    H237808   3.498   2.512   2.049
 5417TIP3   OH237809   3.461   4.589   7.274
 5417TIP3    H137810   3.515   4.589   7.195
 5417TIP3    H237811   3.371   4.588   7.241
 5418TIP3   OH237812   3.592   6.267   1.752
 5418TIP3    H137813   3.554   6.314   1.826
 5418TIP3    H237814   3.544   6.299   1.676
 5419TIP3   OH237815   6.260   3.817   1.824
 5419TIP3    H137816   6.225   3.906   1.821
 5419TIP3    H237817   6.209   3.768   1.760
 5420TIP3   OH237818   1.090   3.074   1.029
 5420TIP3    H137819   1.092   3.079   0.933
 5420TIP3    H237820   1.019   3.013   1.048
 5421TIP3   OH237821   1.639   2.551   8.416
 5421TIP3    H137822   1.603   2.485   8.475
 5421TIP3    H237823   1.564   2.579   8.364
 5422TIP3   OH237824   2.011   3.849   7.333
 5422TIP3    H137825   1.986   3.784   7.268
 5422TIP3    H237826   1.995   3.806   7.417
 5423TIP3   OH237827   0.302   4.032   7.995
 5423TIP3    H137828   0.323   4.100   8.059
 5423TIP3    H237829   0.384   3.985   7.983
 5424TIP3   OH237830   2.088   2.766   1.135
 5424TIP3    H137831   2.136   2.814   1.203
 5424TIP3    H237832   2.127   2.795   1.053
 5425TIP3   OH237833   6.429   4.189   6.318
 5425TIP3    H137834   6.409   4.229   6.234
 5425TIP3    H237835   6.432   4.263   6.380
 5426TIP3   OH237836   5.521   4.876   0.916
 5426TIP3    H137837   5.539   4.879   0.822
 5426TIP3    H237838   5.438   4.829   0.923
 5427TIP3   OH237839   2.604   5.467   7.292
 5427TIP3    H137840   2.620   5.418   7.373
 5427TIP3    H237841   2.642   5.412   7.224
 5428TIP3   OH237842   0.453   3.145   7.255
 5428TIP3    H137843   0.447   3.139   7.351
 5428TIP3    H237844   0.534   3.193   7.239
 5429TIP3   OH237845   4.134   4.588   7.119
 5429TIP3    H137846   4.049   4.548   7.140
 5429TIP3    H237847   4.126   4.613   7.027
 5430TIP3   OH237848   1.683   2.648   7.063
 5430TIP3    H137849   1.608   2.701   7.035
 5430TIP3    H237850   1.645   2.583   7.122
 5431TIP3   OH237851   0.010   0.442   7.314
 5431TIP3    H137852   6.839   0.391   7.312
 5431TIP3    H237853   0.080   0.377   7.316
 5432TIP3   OH237854   1.965   2.305   0.896
 5432TIP3    H137855   1.989   2.388   0.938
 5432TIP3    H237856   2.006   2.238   0.952
 5433TIP3   OH237857   2.407   2.325   0.559
 5433TIP3    H137858   2.391   2.246   0.610
 5433TIP3    H237859   2.474   2.372   0.609
 5434TIP3   OH237860   0.479   0.234   7.016
 5434TIP3    H137861   0.574   0.227   7.008
 5434TIP3    H237862   0.449   0.263   6.930
 5435TIP3   OH237863   1.717   5.636   1.883
 5435TIP3    H137864   1.691   5.544   1.878
 5435TIP3    H237865   1.707   5.667   1.793
 5436TIP3   OH237866   6.613   2.926   6.515
 5436TIP3    H137867   6.618   2.831   6.509
 5436TIP3    H237868   6.614   2.957   6.425
 5437TIP3   OH237869   4.510   1.004   7.725
 5437TIP3    H137870   4.591   0.958   7.744
 5437TIP3    H237871   4.445   0.934   7.713
 5438TIP3   OH237872   6.612   2.605   6.684
 5438TIP3    H137873   6.601   2.628   6.592
 5438TIP3    H237874   6.523   2.595   6.717
 5439TIP3   OH237875   6.232   3.996   6.181
 5439TIP3    H137876   6.251   3.908   6.213
 5439TIP3    H237877   6.298   4.052   6.224
 5440TIP3   OH237878   1.714   0.585   7.179
 5440TIP3    H137879   1.651   0.596   7.107
 5440TIP3    H237880   1.662   0.550   7.251
 5441TIP3   OH237881   1.636   6.494   0.253
 5441TIP3    H137882   1.565   6.487   0.317
 5441TIP3    H237883   1.704   6.544   0.297
 5442TIP3   OH237884   3.581   0.180   1.523
 5442TIP3    H137885   3.638   0.138   1.587
 5442TIP3    H237886   3.523   0.236   1.574
 5443TIP3   OH237887   1.849   3.598   7.568
 5443TIP3    H137888   1.872   3.544   7.492
 5443TIP3    H237889   1.880   3.547   7.643
 5444TIP3   OH237890   0.039   3.563   7.933
 5444TIP3    H137891   0.133   3.566   7.950
 5444TIP3    H237892   0.020   3.471   7.917
 5445TIP3   OH237893   4.298   5.635   7.535
 5445TIP3    H137894   4.250   5.649   7.617
 5445TIP3    H237895   4.291   5.541   7.519
 5446TIP3   OH237896   5.086   5.056   7.601
 5446TIP3    H137897   5.144   5.127   7.630
 5446TIP3    H237898   5.129   5.020   7.524
 5447TIP3   OH237899   3.194   1.748   7.492
 5447TIP3    H137900   3.143   1.678   7.451
 5447TIP3    H237901   3.191   1.728   7.585
 5448TIP3   OH237902   4.476   1.125   8.044
 5448TIP3    H137903   4.402   1.141   8.103
 5448TIP3    H237904   4.439   1.130   7.956
 5449TIP3   OH237905   4.854   6.596   1.370
 5449TIP3    H137906   4.867   6.675   1.422
 5449TIP3    H237907   4.890   6.525   1.424
 5450TIP3   OH237908   0.599   4.243   7.523
 5450TIP3    H137909   0.619   4.334   7.503
 5450TIP3    H237910   0.613   4.236   7.618
 5451TIP3   OH237911   6.870   4.870   7.511
 5451TIP3    H137912   6.845   4.959   7.536
 5451TIP3    H237913   0.057   4.871   7.513
 5452TIP3   OH237914   2.691   3.527   0.301
 5452TIP3    H137915   2.694   3.623   0.309
 5452TIP3    H237916   2.698   3.495   0.391
 5453TIP3   OH237917   0.727   1.268   1.081
 5453TIP3    H137918   0.728   1.339   1.146
 5453TIP3    H237919   0.648   1.283   1.031
 5454TIP3   OH237920   5.975   0.098   7.446
 5454TIP3    H137921   5.973   0.027   7.510
 5454TIP3    H237922   6.025   0.167   7.490
 5455TIP3   OH237923   5.608   2.295   8.275
 5455TIP3    H137924   5.556   2.344   8.212
 5455TIP3    H237925   5.667   2.359   8.314
 5456TIP3   OH237926   6.115   4.309   0.263
 5456TIP3    H137927   6.181   4.290   0.330
 5456TIP3    H237928   6.131   4.243   0.195
 5457TIP3   OH237929   3.873   5.189   0.411
 5457TIP3    H137930   3.871   5.280   0.440
 5457TIP3    H237931   3.886   5.139   0.492
 5458TIP3   OH237932   4.651   0.780   7.828
 5458TIP3    H137933   4.712   0.745   7.764
 5458TIP3    H237934   4.704   0.835   7.886
 5459TIP3   OH237935   6.599   3.582   8.291
 5459TIP3    H137936   6.618   3.670   8.258
 5459TIP3    H237937   6.684   3.537   8.288
 5460TIP3   OH237938   6.219   2.456   7.590
 5460TIP3    H137939   6.205   2.398   7.515
 5460TIP3    H237940   6.273   2.404   7.650
 5461TIP3   OH237941   3.943   5.366   0.984
 5461TIP3    H137942   3.934   5.435   1.049
 5461TIP3    H237943   3.964   5.413   0.903
 5462TIP3   OH237944   5.385   6.162   2.748
 5462TIP3    H137945   5.463   6.215   2.768
 5462TIP3    H237946   5.372   6.173   2.654
 5463TIP3   OH237947   2.211   2.896   0.122
 5463TIP3    H137948   2.290   2.843   0.132
 5463TIP3    H237949   2.243   2.983   0.100
 5464TIP3   OH237950   5.481   0.299   0.634
 5464TIP3    H137951   5.503   0.231   0.697
 5464TIP3    H237952   5.559   0.308   0.580
 5465TIP3   OH237953   5.574   3.124   1.637
 5465TIP3    H137954   5.522   3.184   1.690
 5465TIP3    H237955   5.615   3.065   1.701
 5466TIP3   OH237956   4.780   6.678   0.935
 5466TIP3    H137957   4.872   6.705   0.943
 5466TIP3    H237958   4.740   6.706   1.017
 5467TIP3   OH237959   1.501   6.266   1.738
 5467TIP3    H137960   1.440   6.307   1.678
 5467TIP3    H237961   1.473   6.174   1.742
 5468TIP3   OH237962   2.568   4.768   0.504
 5468TIP3    H137963   2.596   4.708   0.573
 5468TIP3    H237964   2.638   4.765   0.440
 5469TIP3   OH237965   4.142   1.410   1.650
 5469TIP3    H137966   4.122   1.334   1.705
 5469TIP3    H237967   4.238   1.410   1.644
 5470TIP3   OH237968   6.658   1.546   7.167
 5470TIP3    H137969   6.594   1.564   7.236
 5470TIP3    H237970   6.660   1.450   7.162
 5471TIP3   OH237971   4.648   3.453   1.072
 5471TIP3    H137972   4.682   3.365   1.089
 5471TIP3    H237973   4.590   3.442   0.997
 5472TIP3   OH237974   6.780   0.029   7.583
 5472TIP3    H137975   6.844   6.891   7.531
 5472TIP3    H237976   6.826   0.107   7.613
 5473TIP3   OH237977   3.957   5.523   1.969
 5473TIP3    H137978   3.865   5.498   1.975
 5473TIP3    H237979   3.978   5.558   2.056
 5474TIP3   OH237980   6.818   0.069   2.446
 5474TIP3    H137981   6.860   6.896   2.424
 5474TIP3    H237982   6.736   0.044   2.490
 5475TIP3   OH237983   2.786   2.355   0.795
 5475TIP3    H137984   2.690   2.352   0.789
 5475TIP3    H237985   2.804   2.429   0.853
 5476TIP3   OH237986   1.953   1.575   8.385
 5476TIP3    H137987   1.974   1.571   8.291
 5476TIP3    H237988   1.896   1.500   8.400
 5477TIP3   OH237989   2.336   0.582   2.021
 5477TIP3    H137990   2.404   0.585   2.088
 5477TIP3    H237991   2.290   0.666   2.030
 5478TIP3   OH237992   0.278   6.775   6.713
 5478TIP3    H137993   0.242   6.719   6.782
 5478TIP3    H237994   0.372   6.756   6.714
 5479TIP3   OH237995   2.080   6.765   6.705
 5479TIP3    H137996   2.071   6.811   6.622
 5479TIP3    H237997   2.134   6.823   6.759
 5480TIP3   OH237998   5.954   6.083   2.099
 5480TIP3    H137999   6.039   6.074   2.142
 5480TIP3    H238000   5.898   6.122   2.165
 5481TIP3   OH238001   4.277   5.620   6.536
 5481TIP3    H138002   4.284   5.715   6.530
 5481TIP3    H238003   4.204   5.598   6.477
 5482TIP3   OH238004   6.238   3.880   0.831
 5482TIP3    H138005   6.252   3.786   0.834
 5482TIP3    H238006   6.166   3.895   0.893
 5483TIP3   OH238007   1.774   2.257   0.513
 5483TIP3    H138008   1.816   2.176   0.544
 5483TIP3    H238009   1.705   2.226   0.454
 5484TIP3   OH238010   4.761   4.366   0.000
 5484TIP3    H138011   4.688   4.351   8.507
 5484TIP3    H238012   4.779   4.280   0.038
 5485TIP3   OH238013   2.892   6.517   1.575
 5485TIP3    H138014   2.975   6.468   1.578
 5485TIP3    H238015   2.913   6.601   1.616
 5486TIP3   OH238016   6.151   6.255   6.573
 5486TIP3    H138017   6.076   6.294   6.529
 5486TIP3    H238018   6.162   6.170   6.530
 5487TIP3   OH238019   5.476   1.934   7.542
 5487TIP3    H138020   5.464   1.988   7.620
 5487TIP3    H238021   5.419   1.974   7.476
 5488TIP3   OH238022   4.050   2.127   6.843
 5488TIP3    H138023   3.998   2.161   6.771
 5488TIP3    H238024   4.138   2.160   6.827
 5489TIP3   OH238025   1.387   1.968   7.325
 5489TIP3    H138026   1.465   1.966   7.269
 5489TIP3    H238027   1.409   2.029   7.395
 5490TIP3   OH238028   1.106   3.399   0.816
 5490TIP3    H138029   1.172   3.329   0.824
 5490TIP3    H238030   1.047   3.367   0.747
 5491TIP3   OH238031   1.055   5.246   0.819
 5491TIP3    H138032   0.962   5.265   0.830
 5491TIP3    H238033   1.076   5.184   0.889
 5492TIP3   OH238034   5.535   2.097   0.532
 5492TIP3    H138035   5.511   2.182   0.495
 5492TIP3    H238036   5.473   2.035   0.492
 5493TIP3   OH238037   3.902   0.987   2.198
 5493TIP3    H138038   3.911   0.984   2.293
 5493TIP3    H238039   3.821   0.940   2.179
 5494TIP3   OH238040   0.265   6.620   1.187
 5494TIP3    H138041   0.281   6.649   1.277
 5494TIP3    H238042   0.232   6.531   1.196
 5495TIP3   OH238043   5.167   0.427   8.157
 5495TIP3    H138044   5.256   0.395   8.141
 5495TIP3    H238045   5.126   0.360   8.210
 5496TIP3   OH238046   2.926   0.341   0.868
 5496TIP3    H138047   2.837   0.329   0.836
 5496TIP3    H238048   2.957   0.420   0.822
 5497TIP3   OH238049   5.887   3.500   6.501
 5497TIP3    H138050   5.977   3.471   6.483
 5497TIP3    H238051   5.850   3.517   6.414
 5498TIP3   OH238052   2.759   1.022   7.717
 5498TIP3    H138053   2.744   1.003   7.625
 5498TIP3    H238054   2.845   0.984   7.736
 5499TIP3   OH238055   4.339   6.122   0.333
 5499TIP3    H138056   4.308   6.062   0.400
 5499TIP3    H238057   4.327   6.209   0.371
 5500TIP3   OH238058   3.045   1.478   7.442
 5500TIP3    H138059   2.982   1.417   7.480
 5500TIP3    H238060   3.129   1.453   7.481
 5501TIP3   OH238061   2.371   3.511   0.349
 5501TIP3    H138062   2.356   3.495   0.256
 5501TIP3    H238063   2.367   3.606   0.358
 5502TIP3   OH238064   2.397   0.953   6.015
 5502TIP3    H138065   2.328   0.915   6.068
 5502TIP3    H238066   2.364   0.948   5.925
 5503TIP3   OH238067   6.224   2.274   6.334
 5503TIP3    H138068   6.202   2.249   6.244
 5503TIP3    H238069   6.144   2.257   6.384
 5504TIP3   OH238070   4.960   2.980   1.020
 5504TIP3    H138071   4.943   2.894   1.058
 5504TIP3    H238072   5.037   2.967   0.964
 5505TIP3   OH238073   1.777   1.443   8.100
 5505TIP3    H138074   1.783   1.409   8.189
 5505TIP3    H238075   1.789   1.367   8.043
 5506TIP3   OH238076   5.926   4.867   1.269
 5506TIP3    H138077   5.894   4.778   1.281
 5506TIP3    H238078   5.990   4.880   1.339
 5507TIP3   OH238079   1.382   0.933   0.028
 5507TIP3    H138080   1.320   0.901   8.530
 5507TIP3    H238081   1.404   0.857   0.081
 5508TIP3   OH238082   5.048   0.310   8.370
 5508TIP3    H138083   5.000   0.372   8.425
 5508TIP3    H238084   5.130   0.296   8.416
 5509TIP3   OH238085   2.246   5.527   8.343
 5509TIP3    H138086   2.238   5.621   8.325
 5509TIP3    H238087   2.333   5.518   8.382
 5510TIP3   OH238088   4.734   2.805   7.290
 5510TIP3    H138089   4.691   2.874   7.239
 5510TIP3    H238090   4.722   2.831   7.381
 5511TIP3   OH238091   5.003   2.723   7.300
 5511TIP3    H138092   4.952   2.677   7.367
 5511TIP3    H238093   4.940   2.784   7.260
 5512TIP3   OH238094   2.559   1.684   0.030
 5512TIP3    H138095   2.566   1.727   8.512
 5512TIP3    H238096   2.553   1.756   0.093
 5513TIP3   OH238097   2.069   4.330   8.161
 5513TIP3    H138098   2.074   4.403   8.223
 5513TIP3    H238099   2.056   4.372   8.075
 5514TIP3   OH238100   1.306   0.532   1.363
 5514TIP3    H138101   1.374   0.534   1.296
 5514TIP3    H238102   1.285   0.440   1.374
 5515TIP3   OH238103   3.049   6.840   6.473
 5515TIP3    H138104   3.125   6.783   6.475
 5515TIP3    H238105   3.070   6.906   6.407
 5516TIP3   OH238106   2.898   6.391   7.202
 5516TIP3    H138107   2.842   6.416   7.275
 5516TIP3    H238108   2.859   6.312   7.166
 5517TIP3   OH238109   6.890   4.504   7.761
 5517TIP3    H138110   0.019   4.504   7.674
 5517TIP3    H238111   6.827   4.576   7.760
 5518TIP3   OH238112   0.461   4.574   0.033
 5518TIP3    H138113   0.435   4.636   8.532
 5518TIP3    H238114   0.422   4.491   0.006
 5519TIP3   OH238115   4.757   5.877   7.054
 5519TIP3    H138116   4.768   5.873   7.149
 5519TIP3    H238117   4.687   5.940   7.040
 5520TIP3   OH238118   3.087   1.302   7.215
 5520TIP3    H138119   3.012   1.327   7.161
 5520TIP3    H238120   3.087   1.366   7.287
 5521TIP3   OH238121   1.754   0.365   5.829
 5521TIP3    H138122   1.753   0.450   5.873
 5521TIP3    H238123   1.682   0.317   5.871
 5522TIP3   OH238124   2.972   1.350   7.889
 5522TIP3    H138125   3.067   1.359   7.897
 5522TIP3    H238126   2.954   1.260   7.916
 5523TIP3   OH238127   0.633   3.307   2.308
 5523TIP3    H138128   0.563   3.251   2.275
 5523TIP3    H238129   0.676   3.341   2.229
 5524TIP3   OH238130   6.579   5.067   7.348
 5524TIP3    H138131   6.521   5.142   7.334
 5524TIP3    H238132   6.561   5.008   7.275
 5525TIP3   OH238133   5.901   6.830   1.813
 5525TIP3    H138134   5.944   6.744   1.817
 5525TIP3    H238135   5.809   6.811   1.832
 5526TIP3   OH238136   2.380   1.553   2.133
 5526TIP3    H138137   2.444   1.547   2.063
 5526TIP3    H238138   2.296   1.566   2.089
 5527TIP3   OH238139   2.723   5.967   6.238
 5527TIP3    H138140   2.796   5.941   6.295
 5527TIP3    H238141   2.710   5.891   6.180
 5528TIP3   OH238142   4.818   0.413   1.884
 5528TIP3    H138143   4.800   0.431   1.976
 5528TIP3    H238144   4.732   0.410   1.843
 5529TIP3   OH238145   2.801   3.044   7.946
 5529TIP3    H138146   2.853   3.037   7.866
 5529TIP3    H238147   2.739   2.971   7.940
 5530TIP3   OH238148   3.281   0.583   7.935
 5530TIP3    H138149   3.323   0.663   7.968
 5530TIP3    H238150   3.354   0.533   7.897
 5531TIP3   OH238151   2.249   6.201   8.470
 5531TIP3    H138152   2.224   6.216   8.379
 5531TIP3    H238153   2.308   6.273   8.491
 5532TIP3   OH238154   5.792   2.133   0.468
 5532TIP3    H138155   5.697   2.131   0.480
 5532TIP3    H238156   5.821   2.045   0.491
 5533TIP3   OH238157   6.028   2.586   8.213
 5533TIP3    H138158   6.089   2.568   8.284
 5533TIP3    H238159   6.012   2.500   8.173
 5534TIP3   OH238160   0.885   5.016   6.683
 5534TIP3    H138161   0.843   4.930   6.691
 5534TIP3    H238162   0.816   5.075   6.654
 5535TIP3   OH238163   4.119   5.690   2.415
 5535TIP3    H138164   4.105   5.624   2.483
 5535TIP3    H238165   4.213   5.707   2.417
 5536TIP3   OH238166   1.776   5.250   7.360
 5536TIP3    H138167   1.810   5.297   7.435
 5536TIP3    H238168   1.763   5.160   7.391
 5537TIP3   OH238169   3.619   4.855   0.049
 5537TIP3    H138170   3.610   4.921   0.118
 5537TIP3    H238171   3.531   4.820   0.038
 5538TIP3   OH238172   1.807   0.482   0.517
 5538TIP3    H138173   1.857   0.438   0.586
 5538TIP3    H238174   1.871   0.503   0.450
 5539TIP3   OH238175   5.666   2.049   6.572
 5539TIP3    H138176   5.622   1.990   6.510
 5539TIP3    H238177   5.677   2.130   6.523
 5540TIP3   OH238178   6.230   2.912   1.161
 5540TIP3    H138179   6.227   2.970   1.237
 5540TIP3    H238180   6.257   2.827   1.196
 5541TIP3   OH238181   4.351   5.791   0.712
 5541TIP3    H138182   4.283   5.726   0.691
 5541TIP3    H238183   4.303   5.866   0.745
 5542TIP3   OH238184   2.316   0.607   0.821
 5542TIP3    H138185   2.375   0.669   0.778
 5542TIP3    H238186   2.237   0.608   0.767
 5543TIP3   OH238187   4.088   4.379   6.392
 5543TIP3    H138188   4.121   4.305   6.342
 5543TIP3    H238189   4.105   4.455   6.336
 5544TIP3   OH238190   6.349   3.644   8.163
 5544TIP3    H138191   6.336   3.735   8.137
 5544TIP3    H238192   6.442   3.640   8.188
 5545TIP3   OH238193   6.430   0.646   1.148
 5545TIP3    H138194   6.392   0.620   1.064
 5545TIP3    H238195   6.407   0.574   1.208
 5546TIP3   OH238196   5.597   3.197   1.157
 5546TIP3    H138197   5.602   3.212   1.251
 5546TIP3    H238198   5.540   3.121   1.148
 5547TIP3   OH238199   1.615   3.227   7.865
 5547TIP3    H138200   1.647   3.142   7.895
 5547TIP3    H238201   1.585   3.271   7.944
 5548TIP3   OH238202   1.341   4.881   7.816
 5548TIP3    H138203   1.350   4.836   7.900
 5548TIP3    H238204   1.398   4.958   7.825
 5549TIP3   OH238205   5.594   5.412   0.764
 5549TIP3    H138206   5.686   5.424   0.790
 5549TIP3    H238207   5.582   5.317   0.763
 5550TIP3   OH238208   4.637   2.267   0.688
 5550TIP3    H138209   4.627   2.291   0.781
 5550TIP3    H238210   4.559   2.304   0.646
 5551TIP3   OH238211   6.764   2.811   7.376
 5551TIP3    H138212   6.725   2.887   7.333
 5551TIP3    H238213   6.858   2.831   7.381
 5552TIP3   OH238214   4.853   1.054   7.887
 5552TIP3    H138215   4.940   1.016   7.872
 5552TIP3    H238216   4.850   1.067   7.982
 5553TIP3   OH238217   3.387   1.868   1.906
 5553TIP3    H138218   3.481   1.862   1.922
 5553TIP3    H238219   3.354   1.781   1.930
 5554TIP3   OH238220   5.976   3.841   6.887
 5554TIP3    H138221   5.909   3.795   6.837
 5554TIP3    H238222   5.936   3.925   6.910
 5555TIP3   OH238223   5.774   5.829   7.927
 5555TIP3    H138224   5.688   5.790   7.940
 5555TIP3    H238225   5.757   5.924   7.925
 5556TIP3   OH238226   6.502   6.465   1.020
 5556TIP3    H138227   6.594   6.490   1.011
 5556TIP3    H238228   6.492   6.442   1.112
 5557TIP3   OH238229   0.679   3.421   8.268
 5557TIP3    H138230   0.772   3.443   8.264
 5557TIP3    H238231   0.678   3.328   8.292
 5558TIP3   OH238232   6.791   3.807   1.167
 5558TIP3    H138233   6.832   3.732   1.123
 5558TIP3    H238234   6.699   3.783   1.177
 5559TIP3   OH238235   2.004   1.154   1.421
 5559TIP3    H138236   2.079   1.200   1.382
 5559TIP3    H238237   2.010   1.172   1.514
 5560TIP3   OH238238   3.098   3.785   1.104
 5560TIP3    H138239   3.091   3.787   1.199
 5560TIP3    H238240   3.173   3.727   1.087
 5561TIP3   OH238241   2.173   2.907   6.336
 5561TIP3    H138242   2.099   2.905   6.276
 5561TIP3    H238243   2.233   2.839   6.304
 5562TIP3   OH238244   2.780   6.044   1.409
 5562TIP3    H138245   2.751   6.128   1.444
 5562TIP3    H238246   2.875   6.053   1.399
 5563TIP3   OH238247   0.780   6.449   7.364
 5563TIP3    H138248   0.795   6.529   7.314
 5563TIP3    H238249   0.801   6.473   7.454
 5564TIP3   OH238250   4.361   6.905   0.222
 5564TIP3    H138251   4.451   6.878   0.239
 5564TIP3    H238252   4.365   0.037   0.136
 5565TIP3   OH238253   3.478   4.239   7.521
 5565TIP3    H138254   3.536   4.210   7.451
 5565TIP3    H238255   3.537   4.277   7.586
 5566TIP3   OH238256   5.734   2.938   1.283
 5566TIP3    H138257   5.753   2.860   1.231
 5566TIP3    H238258   5.812   2.992   1.275
 5567TIP3   OH238259   0.689   2.956   0.851
 5567TIP3    H138260   0.641   2.982   0.773
 5567TIP3    H238261   0.764   2.907   0.817
 5568TIP3   OH238262   0.986   5.768   1.555
 5568TIP3    H138263   1.013   5.842   1.500
 5568TIP3    H238264   0.892   5.761   1.541
 5569TIP3   OH238265   2.098   3.560   6.750
 5569TIP3    H138266   2.077   3.472   6.783
 5569TIP3    H238267   2.023   3.583   6.696
 5570TIP3   OH238268   4.502   2.460   2.403
 5570TIP3    H138269   4.507   2.427   2.313
 5570TIP3    H238270   4.417   2.505   2.406
 5571TIP3   OH238271   1.542   4.865   7.255
 5571TIP3    H138272   1.590   4.797   7.302
 5571TIP3    H238273   1.531   4.830   7.167
 5572TIP3   OH238274   0.626   6.779   1.486
 5572TIP3    H138275   0.618   6.802   1.393
 5572TIP3    H238276   0.719   6.791   1.506
 5573TIP3   OH238277   5.982   4.968   6.832
 5573TIP3    H138278   5.994   5.057   6.863
 5573TIP3    H238279   5.924   4.977   6.756
 5574TIP3   OH238280   3.726   3.456   8.400
 5574TIP3    H138281   3.808   3.477   8.445
 5574TIP3    H238282   3.739   3.488   8.310
 5575TIP3   OH238283   4.295   3.015   7.543
 5575TIP3    H138284   4.334   3.102   7.537
 5575TIP3    H238285   4.276   3.004   7.636
 5576TIP3   OH238286   3.198   3.066   6.235
 5576TIP3    H138287   3.289   3.048   6.211
 5576TIP3    H238288   3.151   3.061   6.151
 5577TIP3   OH238289   1.529   0.474   0.518
 5577TIP3    H138290   1.523   0.387   0.557
 5577TIP3    H238291   1.623   0.493   0.514
 5578TIP3   OH238292   1.070   6.439   0.531
 5578TIP3    H138293   1.101   6.357   0.492
 5578TIP3    H238294   1.021   6.482   0.461
 5579TIP3   OH238295   3.176   0.464   1.008
 5579TIP3    H138296   3.226   0.387   0.980
 5579TIP3    H238297   3.085   0.439   0.997
 5580TIP3   OH238298   1.668   3.650   8.550
 5580TIP3    H138299   1.618   3.623   0.061
 5580TIP3    H238300   1.709   3.569   8.519
 5581TIP3   OH238301   6.305   2.110   0.121
 5581TIP3    H138302   6.367   2.040   0.102
 5581TIP3    H238303   6.246   2.111   0.046
 5582TIP3   OH238304   4.981   2.509   6.484
 5582TIP3    H138305   5.048   2.442   6.470
 5582TIP3    H238306   5.030   2.590   6.495
 5583TIP3   OH238307   0.383   6.205   6.991
 5583TIP3    H138308   0.382   6.230   6.899
 5583TIP3    H238309   0.419   6.281   7.036
 5584TIP3   OH238310   5.441   4.634   7.969
 5584TIP3    H138311   5.378   4.584   7.918
 5584TIP3    H238312   5.523   4.626   7.921
 5585TIP3   OH238313   0.071   4.845   8.468
 5585TIP3    H138314   0.032   4.909   8.528
 5585TIP3    H238315   6.905   4.809   8.421
 5586TIP3   OH238316   0.344   5.412   7.725
 5586TIP3    H138317   0.325   5.440   7.636
 5586TIP3    H238318   0.433   5.375   7.720
 5587TIP3   OH238319   0.960   0.704   7.282
 5587TIP3    H138320   0.884   0.702   7.341
 5587TIP3    H238321   0.924   0.683   7.196
 5588TIP3   OH238322   6.646   5.458   0.237
 5588TIP3    H138323   6.704   5.512   0.291
 5588TIP3    H238324   6.589   5.521   0.193
 5589TIP3   OH238325   3.783   0.133   7.057
 5589TIP3    H138326   3.754   0.220   7.028
 5589TIP3    H238327   3.838   0.102   6.986
 5590TIP3   OH238328   5.977   2.496   0.628
 5590TIP3    H138329   5.957   2.573   0.681
 5590TIP3    H238330   5.955   2.422   0.684
 5591TIP3   OH238331   6.153   6.267   0.764
 5591TIP3    H138332   6.099   6.328   0.715
 5591TIP3    H238333   6.238   6.311   0.771
 5592TIP3   OH238334   5.371   4.963   6.386
 5592TIP3    H138335   5.366   4.868   6.396
 5592TIP3    H238336   5.464   4.983   6.389
 5593TIP3   OH238337   1.240   3.588   7.861
 5593TIP3    H138338   1.258   3.498   7.834
 5593TIP3    H238339   1.161   3.582   7.915
 5594TIP3   OH238340   6.714   3.505   0.738
 5594TIP3    H138341   6.634   3.478   0.693
 5594TIP3    H238342   6.775   3.527   0.668
 5595TIP3   OH238343   2.422   2.186   1.231
 5595TIP3    H138344   2.433   2.093   1.213
 5595TIP3    H238345   2.352   2.191   1.296
 5596TIP3   OH238346   4.442   5.168   0.638
 5596TIP3    H138347   4.527   5.195   0.604
 5596TIP3    H238348   4.424   5.228   0.710
 5597TIP3   OH238349   4.587   0.896   1.722
 5597TIP3    H138350   4.659   0.834   1.731
 5597TIP3    H238351   4.516   0.858   1.774
 5598TIP3   OH238352   0.937   6.307   2.359
 5598TIP3    H138353   0.976   6.394   2.349
 5598TIP3    H238354   0.913   6.302   2.451
 5599TIP3   OH238355   0.011   1.159   0.203
 5599TIP3    H138356   0.099   1.184   0.176
 5599TIP3    H238357   0.021   1.129   0.293
 5600TIP3   OH238358   4.757   4.678   6.946
 5600TIP3    H138359   4.690   4.697   6.880
 5600TIP3    H238360   4.838   4.671   6.896
 5601TIP3   OH238361   6.473   4.047   0.501
 5601TIP3    H138362   6.528   4.077   0.573
 5601TIP3    H238363   6.385   4.039   0.540
 5602TIP3   OH238364   4.604   3.162   7.356
 5602TIP3    H138365   4.594   3.238   7.413
 5602TIP3    H238366   4.516   3.146   7.322
 5603TIP3   OH238367   0.139   0.126   7.681
 5603TIP3    H138368   0.166   0.076   7.758
 5603TIP3    H238369   0.210   0.112   7.618
 5604TIP3   OH238370   5.776   6.810   0.978
 5604TIP3    H138371   5.848   6.845   1.032
 5604TIP3    H238372   5.817   6.791   0.894
 5605TIP3   OH238373   6.031   5.852   8.428
 5605TIP3    H138374   5.979   5.827   8.353
 5605TIP3    H238375   6.103   5.904   8.392
 5606TIP3   OH238376   5.041   4.119   0.765
 5606TIP3    H138377   5.021   4.073   0.683
 5606TIP3    H238378   5.080   4.053   0.821
 5607TIP3   OH238379   1.789   0.801   0.292
 5607TIP3    H138380   1.773   0.732   0.227
 5607TIP3    H238381   1.870   0.774   0.335
 5608TIP3   OH238382   5.771   4.853   6.667
 5608TIP3    H138383   5.857   4.815   6.650
 5608TIP3    H238384   5.711   4.805   6.610
 5609TIP3   OH238385   6.313   6.446   2.772
 5609TIP3    H138386   6.371   6.384   2.729
 5609TIP3    H238387   6.367   6.487   2.840
 5610TIP3   OH238388   1.313   6.384   1.548
 5610TIP3    H138389   1.291   6.465   1.593
 5610TIP3    H238390   1.230   6.356   1.508
 5611TIP3   OH238391   5.060   3.996   7.335
 5611TIP3    H138392   5.049   3.946   7.416
 5611TIP3    H238393   5.003   4.073   7.347
 5612TIP3   OH238394   1.372   3.758   1.046
 5612TIP3    H138395   1.415   3.821   0.988
 5612TIP3    H238396   1.398   3.673   1.011
 5613TIP3   OH238397   0.795   0.860   0.445
 5613TIP3    H138398   0.798   0.789   0.509
 5613TIP3    H238399   0.871   0.914   0.467
 5614TIP3   OH238400   2.564   4.033   7.046
 5614TIP3    H138401   2.631   4.034   6.977
 5614TIP3    H238402   2.597   3.972   7.111
 5615TIP3   OH238403   3.316   5.533   6.416
 5615TIP3    H138404   3.332   5.480   6.338
 5615TIP3    H238405   3.259   5.604   6.385
 5616TIP3   OH238406   3.149   2.645   8.434
 5616TIP3    H138407   3.208   2.712   8.469
 5616TIP3    H238408   3.083   2.694   8.386
 5617TIP3   OH238409   6.039   5.499   1.987
 5617TIP3    H138410   6.069   5.590   1.996
 5617TIP3    H238411   6.087   5.451   2.055
 5618TIP3   OH238412   5.855   4.717   6.947
 5618TIP3    H138413   5.910   4.760   6.881
 5618TIP3    H238414   5.789   4.670   6.896
 5619TIP3   OH238415   4.655   6.554   1.855
 5619TIP3    H138416   4.619   6.643   1.853
 5619TIP3    H238417   4.693   6.545   1.942
 5620TIP3   OH238418   4.274   2.547   7.789
 5620TIP3    H138419   4.231   2.632   7.776
 5620TIP3    H238420   4.208   2.492   7.830
 5621TIP3   OH238421   1.099   1.767   1.780
 5621TIP3    H138422   1.176   1.820   1.799
 5621TIP3    H238423   1.064   1.802   1.699
 5622TIP3   OH238424   1.966   0.886   1.315
 5622TIP3    H138425   1.883   0.904   1.272
 5622TIP3    H238426   2.002   0.973   1.335
 5623TIP3   OH238427   5.394   3.721   0.550
 5623TIP3    H138428   5.354   3.719   0.463
 5623TIP3    H238429   5.409   3.629   0.572
 5624TIP3   OH238430   6.496   5.366   7.642
 5624TIP3    H138431   6.506   5.273   7.661
 5624TIP3    H238432   6.510   5.410   7.725
 5625TIP3   OH238433   4.434   0.671   7.959
 5625TIP3    H138434   4.506   0.723   7.923
 5625TIP3    H238435   4.427   0.699   8.050
 5626TIP3   OH238436   4.130   2.412   1.795
 5626TIP3    H138437   4.183   2.473   1.845
 5626TIP3    H238438   4.126   2.333   1.849
 5627TIP3   OH238439   1.461   1.908   0.430
 5627TIP3    H138440   1.373   1.931   0.402
 5627TIP3    H238441   1.449   1.830   0.484
 5628TIP3   OH238442   2.667   2.624   1.150
 5628TIP3    H138443   2.674   2.537   1.188
 5628TIP3    H238444   2.709   2.616   1.064
 5629TIP3   OH238445   3.664   3.380   2.011
 5629TIP3    H138446   3.608   3.455   1.989
 5629TIP3    H238447   3.604   3.316   2.049
 5630TIP3   OH238448   6.455   1.412   1.962
 5630TIP3    H138449   6.442   1.507   1.962
 5630TIP3    H238450   6.375   1.377   1.924
 5631TIP3   OH238451   5.138   0.719   8.182
 5631TIP3    H138452   5.177   0.632   8.198
 5631TIP3    H238453   5.048   0.701   8.157
 5632TIP3   OH238454   0.644   4.128   8.445
 5632TIP3    H138455   0.716   4.188   8.463
 5632TIP3    H238456   0.607   4.158   8.362
 5633TIP3   OH238457   2.758   0.633   7.617
 5633TIP3    H138458   2.750   0.538   7.624
 5633TIP3    H238459   2.670   0.665   7.634
 5634TIP3   OH238460   2.660   4.511   0.168
 5634TIP3    H138461   2.668   4.602   0.197
 5634TIP3    H238462   2.718   4.505   0.093
 5635TIP3   OH238463   5.418   2.078   1.287
 5635TIP3    H138464   5.397   2.163   1.250
 5635TIP3    H238465   5.468   2.034   1.218
 5636TIP3   OH238466   6.699   5.221   0.337
 5636TIP3    H138467   6.683   5.314   0.321
 5636TIP3    H238468   6.784   5.204   0.298
 5637TIP3   OH238469   5.783   1.377   1.563
 5637TIP3    H138470   5.758   1.328   1.642
 5637TIP3    H238471   5.733   1.335   1.493
 5638TIP3   OH238472   0.744   0.778   7.001
 5638TIP3    H138473   0.811   0.721   6.962
 5638TIP3    H238474   0.662   0.746   6.965
 5639TIP3   OH238475   4.840   0.056   1.758
 5639TIP3    H138476   4.747   0.075   1.745
 5639TIP3    H238477   4.856   0.075   1.850
 5640TIP3   OH238478   0.098   4.422   8.332
 5640TIP3    H138479   0.094   4.472   8.250
 5640TIP3    H238480   0.024   4.453   8.383
 5641TIP3   OH238481   1.392   0.863   6.453
 5641TIP3    H138482   1.426   0.839   6.539
 5641TIP3    H238483   1.382   0.959   6.457
 5642TIP3   OH238484   6.051   3.157   8.167
 5642TIP3    H138485   6.092   3.071   8.157
 5642TIP3    H238486   5.986   3.144   8.236
 5643TIP3   OH238487   4.909   1.546   1.697
 5643TIP3    H138488   4.895   1.497   1.615
 5643TIP3    H238489   4.983   1.604   1.678
 5644TIP3   OH238490   1.477   0.074   0.875
 5644TIP3    H138491   1.402   0.123   0.842
 5644TIP3    H238492   1.457   0.059   0.967
 5645TIP3   OH238493   1.210   0.513   8.238
 5645TIP3    H138494   1.131   0.487   8.189
 5645TIP3    H238495   1.258   0.431   8.249
 5646TIP3   OH238496   2.920   3.797   7.914
 5646TIP3    H138497   2.982   3.859   7.876
 5646TIP3    H238498   2.887   3.841   7.993
 5647TIP3   OH238499   4.886   2.285   0.893
 5647TIP3    H138500   4.924   2.356   0.841
 5647TIP3    H238501   4.946   2.212   0.883
 5648TIP3   OH238502   0.796   1.585   0.761
 5648TIP3    H138503   0.740   1.639   0.818
 5648TIP3    H238504   0.871   1.563   0.816
 5649TIP3   OH238505   5.626   6.210   6.653
 5649TIP3    H138506   5.549   6.172   6.610
 5649TIP3    H238507   5.590   6.272   6.716
 5650TIP3   OH238508   5.705   2.763   7.697
 5650TIP3    H138509   5.765   2.791   7.767
 5650TIP3    H238510   5.627   2.817   7.709
 5651TIP3   OH238511   1.639   6.266   8.023
 5651TIP3    H138512   1.660   6.298   7.935
 5651TIP3    H238513   1.655   6.172   8.018
 5652TIP3   OH238514   5.080   3.808   8.214
 5652TIP3    H138515   5.049   3.719   8.229
 5652TIP3    H238516   5.001   3.858   8.195
 5653TIP3   OH238517   5.959   3.018   0.049
 5653TIP3    H138518   5.925   3.036   0.136
 5653TIP3    H238519   5.944   3.100   0.001
 5654TIP3   OH238520   5.128   5.915   7.262
 5654TIP3    H138521   5.103   5.836   7.311
 5654TIP3    H238522   5.097   5.899   7.173
 5655TIP3   OH238523   6.849   2.615   1.246
 5655TIP3    H138524   6.795   2.603   1.168
 5655TIP3    H238525   6.847   2.709   1.262
 5656TIP3   OH238526   1.350   6.339   7.616
 5656TIP3    H138527   1.329   6.373   7.702
 5656TIP3    H238528   1.276   6.365   7.560
 5657TIP3   OH238529   6.728   4.960   7.961
 5657TIP3    H138530   6.642   4.945   7.921
 5657TIP3    H238531   6.708   4.991   8.050
 5658TIP3   OH238532   3.925   6.712   7.747
 5658TIP3    H138533   3.907   6.672   7.661
 5658TIP3    H238534   3.954   6.800   7.726
 5659TIP3   OH238535   2.946   4.415   7.531
 5659TIP3    H138536   3.031   4.377   7.510
 5659TIP3    H238537   2.895   4.343   7.568
 5660TIP3   OH238538   0.439   3.427   8.158
 5660TIP3    H138539   0.524   3.452   8.195
 5660TIP3    H238540   0.455   3.342   8.117
 5661TIP3   OH238541   6.673   3.174   7.772
 5661TIP3    H138542   6.760   3.191   7.807
 5661TIP3    H238543   6.684   3.099   7.714
 5662TIP3   OH238544   1.549   2.956   7.762
 5662TIP3    H138545   1.482   2.898   7.724
 5662TIP3    H238546   1.526   3.043   7.728
 5663TIP3   OH238547   6.322   0.453   1.301
 5663TIP3    H138548   6.327   0.461   1.396
 5663TIP3    H238549   6.238   0.409   1.285
 5664TIP3   OH238550   5.700   3.232   1.397
 5664TIP3    H138551   5.662   3.168   1.458
 5664TIP3    H238552   5.790   3.245   1.430
 5665TIP3   OH238553   3.932   4.172   8.116
 5665TIP3    H138554   3.949   4.110   8.187
 5665TIP3    H238555   3.984   4.140   8.043
 5666TIP3   OH238556   5.562   2.026   8.309
 5666TIP3    H138557   5.521   1.990   8.230
 5666TIP3    H238558   5.567   2.120   8.293
 5667TIP3   OH238559   0.951   4.002   0.680
 5667TIP3    H138560   1.038   3.963   0.689
 5667TIP3    H238561   0.920   3.974   0.594
 5668TIP3   OH238562   2.129   6.138   0.453
 5668TIP3    H138563   2.091   6.214   0.498
 5668TIP3    H238564   2.143   6.169   0.363
 5669TIP3   OH238565   5.077   0.689   7.069
 5669TIP3    H138566   5.025   0.644   7.135
 5669TIP3    H238567   5.123   0.620   7.022
 5670TIP3   OH238568   6.017   1.088   7.515
 5670TIP3    H138569   6.009   1.078   7.610
 5670TIP3    H238570   6.046   1.003   7.483
 5671TIP3   OH238571   0.492   0.890   1.444
 5671TIP3    H138572   0.499   0.930   1.531
 5671TIP3    H238573   0.479   0.964   1.385
 5672TIP3   OH238574   5.384   2.842   0.371
 5672TIP3    H138575   5.432   2.870   0.293
 5672TIP3    H238576   5.364   2.923   0.418
 5673TIP3   OH238577   4.028   5.905   6.548
 5673TIP3    H138578   4.016   5.929   6.456
 5673TIP3    H238579   4.123   5.907   6.561
 5674TIP3   OH238580   0.916   3.607   0.570
 5674TIP3    H138581   0.996   3.556   0.553
 5674TIP3    H238582   0.933   3.693   0.531
 5675TIP3   OH238583   4.437   3.156   6.937
 5675TIP3    H138584   4.398   3.239   6.965
 5675TIP3    H238585   4.371   3.117   6.880
 5676TIP3   OH238586   5.541   0.952   0.152
 5676TIP3    H138587   5.544   0.974   0.059
 5676TIP3    H238588   5.479   1.014   0.190
 5677TIP3   OH238589   5.814   1.294   0.604
 5677TIP3    H138590   5.756   1.311   0.678
 5677TIP3    H238591   5.777   1.216   0.562
 5678TIP3   OH238592   6.763   4.698   6.629
 5678TIP3    H138593   6.833   4.724   6.569
 5678TIP3    H238594   6.707   4.640   6.577
 5679TIP3   OH238595   5.093   1.459   8.550
 5679TIP3    H138596   5.112   1.372   0.018
 5679TIP3    H238597   5.180   1.497   8.533
 5680TIP3   OH238598   0.397   1.051   7.456
 5680TIP3    H138599   0.363   1.130   7.413
 5680TIP3    H238600   0.365   0.979   7.402
 5681TIP3   OH238601   5.307   2.807   0.786
 5681TIP3    H138602   5.293   2.778   0.876
 5681TIP3    H238603   5.386   2.761   0.757
 5682TIP3   OH238604   5.806   2.765   6.356
 5682TIP3    H138605   5.777   2.823   6.285
 5682TIP3    H238606   5.728   2.712   6.377
 5683TIP3   OH238607   2.695   1.335   0.563
 5683TIP3    H138608   2.694   1.324   0.468
 5683TIP3    H238609   2.704   1.429   0.576
 5684TIP3   OH238610   3.510   1.251   7.265
 5684TIP3    H138611   3.446   1.214   7.326
 5684TIP3    H238612   3.474   1.233   7.179
 5685TIP3   OH238613   6.430   0.734   7.901
 5685TIP3    H138614   6.469   0.661   7.853
 5685TIP3    H238615   6.336   0.716   7.900
 5686TIP3   OH238616   4.503   1.679   0.013
 5686TIP3    H138617   4.495   1.734   8.502
 5686TIP3    H238618   4.435   1.613   0.002
 5687TIP3   OH238619   0.997   5.053   7.895
 5687TIP3    H138620   1.018   4.982   7.835
 5687TIP3    H238621   1.003   5.132   7.842
 5688TIP3   OH238622   3.072   2.001   8.167
 5688TIP3    H138623   3.070   2.055   8.088
 5688TIP3    H238624   3.019   1.924   8.145
 5689TIP3   OH238625   0.644   0.370   6.534
 5689TIP3    H138626   0.632   0.303   6.467
 5689TIP3    H238627   0.698   0.328   6.601
 5690TIP3   OH238628   4.475   5.206   8.123
 5690TIP3    H138629   4.449   5.221   8.214
 5690TIP3    H238630   4.409   5.252   8.072
 5691TIP3   OH238631   5.714   2.916   0.930
 5691TIP3    H138632   5.679   2.828   0.920
 5691TIP3    H238633   5.809   2.905   0.932
 5692TIP3   OH238634   4.307   2.351   8.113
 5692TIP3    H138635   4.376   2.364   8.048
 5692TIP3    H238636   4.311   2.258   8.134
 5693TIP3   OH238637   4.585   0.474   1.460
 5693TIP3    H138638   4.512   0.432   1.504
 5693TIP3    H238639   4.547   0.552   1.418
 5694TIP3   OH238640   4.779   5.017   1.172
 5694TIP3    H138641   4.740   4.941   1.215
 5694TIP3    H238642   4.794   4.989   1.082
 5695TIP3   OH238643   1.982   0.043   6.993
 5695TIP3    H138644   2.002   0.117   7.050
 5695TIP3    H238645   2.038   6.882   7.025
 5696TIP3   OH238646   1.016   5.812   1.127
 5696TIP3    H138647   0.957   5.878   1.090
 5696TIP3    H238648   0.961   5.734   1.137
 5697TIP3   OH238649   4.271   6.318   6.849
 5697TIP3    H138650   4.214   6.339   6.776
 5697TIP3    H238651   4.359   6.337   6.818
 5698TIP3   OH238652   1.908   4.038   0.802
 5698TIP3    H138653   1.999   4.048   0.831
 5698TIP3    H238654   1.856   4.044   0.883
 5699TIP3   OH238655   6.843   0.181   8.129
 5699TIP3    H138656   6.858   0.088   8.141
 5699TIP3    H238657   6.762   0.200   8.175
 5700TIP3   OH238658   0.197   1.251   1.879
 5700TIP3    H138659   0.230   1.330   1.922
 5700TIP3    H238660   0.239   1.179   1.926
 5701TIP3   OH238661   6.757   4.669   8.070
 5701TIP3    H138662   6.850   4.647   8.071
 5701TIP3    H238663   6.738   4.701   8.158
 5702TIP3   OH238664   1.999   2.244   2.505
 5702TIP3    H138665   1.995   2.175   2.571
 5702TIP3    H238666   1.934   2.220   2.440
 5703TIP3   OH238667   4.668   6.698   0.380
 5703TIP3    H138668   4.667   6.715   0.286
 5703TIP3    H238669   4.706   6.777   0.418
 5704TIP3   OH238670   6.667   6.727   6.858
 5704TIP3    H138671   6.759   6.718   6.833
 5704TIP3    H238672   6.650   6.652   6.915
 5705TIP3   OH238673   0.562   0.734   7.938
 5705TIP3    H138674   0.578   0.823   7.968
 5705TIP3    H238675   0.477   0.711   7.976
 5706TIP3   OH238676   6.741   3.200   0.113
 5706TIP3    H138677   6.728   3.282   0.065
 5706TIP3    H238678   6.808   3.220   0.178
 5707TIP3   OH238679   4.671   2.409   8.483
 5707TIP3    H138680   4.646   2.335   8.539
 5707TIP3    H238681   4.589   2.443   8.449
 5708TIP3   OH238682   3.766   1.083   8.521
 5708TIP3    H138683   3.816   1.001   8.515
 5708TIP3    H238684   3.738   1.087   0.046
 5709TIP3   OH238685   2.540   4.159   0.984
 5709TIP3    H138686   2.623   4.114   0.993
 5709TIP3    H238687   2.516   4.184   1.073
 5710TIP3   OH238688   6.611   4.262   0.918
 5710TIP3    H138689   6.539   4.293   0.973
 5710TIP3    H238690   6.688   4.266   0.976
 5711TIP3   OH238691   5.363   4.226   8.374
 5711TIP3    H138692   5.356   4.270   8.289
 5711TIP3    H238693   5.458   4.215   8.387
 5712TIP3   OH238694   4.466   5.295   7.277
 5712TIP3    H138695   4.454   5.319   7.185
 5712TIP3    H238696   4.559   5.312   7.294
 5713TIP3   OH238697   0.109   1.495   0.949
 5713TIP3    H138698   0.165   1.563   0.913
 5713TIP3    H238699   0.068   1.454   0.873
 5714TIP3   OH238700   2.513   6.431   7.434
 5714TIP3    H138701   2.609   6.427   7.435
 5714TIP3    H238702   2.489   6.449   7.525
 5715TIP3   OH238703   3.731   1.226   1.844
 5715TIP3    H138704   3.638   1.247   1.840
 5715TIP3    H238705   3.751   1.219   1.938
 5716TIP3   OH238706   3.810   6.440   1.772
 5716TIP3    H138707   3.725   6.402   1.795
 5716TIP3    H238708   3.840   6.483   1.852
 5717TIP3   OH238709   0.599   0.812   0.266
 5717TIP3    H138710   0.581   0.726   0.304
 5717TIP3    H238711   0.683   0.838   0.305
 5718TIP3   OH238712   5.095   5.094   0.505
 5718TIP3    H138713   5.118   5.010   0.466
 5718TIP3    H238714   5.176   5.124   0.546
 5719TIP3   OH238715   3.293   5.596   7.867
 5719TIP3    H138716   3.229   5.564   7.803
 5719TIP3    H238717   3.333   5.672   7.825
 5720TIP3   OH238718   5.128   3.657   7.284
 5720TIP3    H138719   5.066   3.615   7.343
 5720TIP3    H238720   5.145   3.592   7.216
 5721TIP3   OH238721   4.957   2.750   7.809
 5721TIP3    H138722   4.972   2.702   7.890
 5721TIP3    H238723   5.044   2.781   7.783
 5722TIP3   OH238724   5.327   3.921   8.000
 5722TIP3    H138725   5.343   3.876   8.083
 5722TIP3    H238726   5.292   4.007   8.026
 5723TIP3   OH238727   5.759   3.734   8.020
 5723TIP3    H138728   5.764   3.829   8.025
 5723TIP3    H238729   5.843   3.708   7.983
 5724TIP3   OH238730   4.961   0.095   7.014
 5724TIP3    H138731   5.026   0.112   6.946
 5724TIP3    H238732   4.979   0.005   7.043
 5725TIP3   OH238733   5.860   3.512   7.273
 5725TIP3    H138734   5.816   3.439   7.317
 5725TIP3    H238735   5.874   3.577   7.341
 5726TIP3   OH238736   4.379   1.482   2.368
 5726TIP3    H138737   4.311   1.542   2.338
 5726TIP3    H238738   4.460   1.532   2.364
 5727TIP3   OH238739   1.231   2.015   0.362
 5727TIP3    H138740   1.202   2.051   0.446
 5727TIP3    H238741   1.152   2.014   0.308
 5728TIP3   OH238742   6.429   5.214   6.953
 5728TIP3    H138743   6.373   5.155   7.004
 5728TIP3    H238744   6.435   5.294   7.006
 5729TIP3   OH238745   4.963   0.759   6.072
 5729TIP3    H138746   4.871   0.767   6.100
 5729TIP3    H238747   4.996   0.683   6.121
 5730TIP3   OH238748   0.226   4.999   1.823
 5730TIP3    H138749   0.176   5.056   1.765
 5730TIP3    H238750   0.289   4.954   1.766
 5731TIP3   OH238751   5.053   2.678   8.252
 5731TIP3    H138752   5.032   2.601   8.305
 5731TIP3    H238753   5.063   2.644   8.163
 5732TIP3   OH238754   3.173   5.863   7.610
 5732TIP3    H138755   3.221   5.893   7.687
 5732TIP3    H238756   3.097   5.921   7.604
 5733TIP3   OH238757   0.371   1.374   8.465
 5733TIP3    H138758   0.370   1.463   8.430
 5733TIP3    H238759   0.391   1.319   8.389
 5734TIP3   OH238760   0.843   5.757   7.962
 5734TIP3    H138761   0.844   5.662   7.977
 5734TIP3    H238762   0.887   5.794   8.038
 5735TIP3   OH238763   4.980   1.308   1.841
 5735TIP3    H138764   4.917   1.272   1.779
 5735TIP3    H238765   5.001   1.395   1.807
 5736TIP3   OH238766   0.956   1.222   7.992
 5736TIP3    H138767   0.904   1.272   7.929
 5736TIP3    H238768   0.929   1.255   8.077
 5737TIP3   OH238769   2.421   5.146   0.257
 5737TIP3    H138770   2.389   5.119   0.343
 5737TIP3    H238771   2.492   5.207   0.275
 5738TIP3   OH238772   3.244   6.547   6.964
 5738TIP3    H138773   3.251   6.462   6.922
 5738TIP3    H238774   3.164   6.542   7.016
 5739TIP3   OH238775   6.640   6.546   7.989
 5739TIP3    H138776   6.584   6.481   8.031
 5739TIP3    H238777   6.606   6.553   7.900
 5740TIP3   OH238778   2.532   4.556   7.933
 5740TIP3    H138779   2.562   4.630   7.985
 5740TIP3    H238780   2.476   4.506   7.992
 5741TIP3   OH238781   6.416   5.296   0.360
 5741TIP3    H138782   6.355   5.297   0.287
 5741TIP3    H238783   6.501   5.315   0.320
 5742TIP3   OH238784   5.901   5.397   0.773
 5742TIP3    H138785   5.941   5.460   0.713
 5742TIP3    H238786   5.975   5.350   0.811
 5743TIP3   OH238787   5.533   2.284   0.891
 5743TIP3    H138788   5.626   2.301   0.878
 5743TIP3    H238789   5.490   2.331   0.820
 5744TIP3   OH238790   0.510   1.210   1.911
 5744TIP3    H138791   0.584   1.221   1.971
 5744TIP3    H238792   0.436   1.188   1.968
 5745TIP3   OH238793   1.482   1.253   7.887
 5745TIP3    H138794   1.425   1.255   7.810
 5745TIP3    H238795   1.470   1.338   7.929
 5746TIP3   OH238796   1.783   6.303   7.730
 5746TIP3    H138797   1.763   6.395   7.750
 5746TIP3    H238798   1.781   6.298   7.635
 5747TIP3   OH238799   0.955   1.759   7.155
 5747TIP3    H138800   0.978   1.846   7.122
 5747TIP3    H238801   1.040   1.717   7.173
 5748TIP3   OH238802   2.873   3.909   7.343
 5748TIP3    H138803   2.858   3.872   7.430
 5748TIP3    H238804   2.954   3.868   7.313
 5749TIP3   OH238805   5.392   2.364   0.536
 5749TIP3    H138806   5.311   2.350   0.487
 5749TIP3    H238807   5.366   2.417   0.611
 5750TIP3   OH238808   3.651   3.921   6.435
 5750TIP3    H138809   3.680   3.851   6.376
 5750TIP3    H238810   3.716   3.922   6.505
 5751TIP3   OH238811   3.775   6.023   1.022
 5751TIP3    H138812   3.697   6.005   0.969
 5751TIP3    H238813   3.741   6.045   1.109
 5752TIP3   OH238814   5.139   4.568   1.863
 5752TIP3    H138815   5.208   4.599   1.922
 5752TIP3    H238816   5.071   4.535   1.922
 5753TIP3   OH238817   4.005   6.360   7.010
 5753TIP3    H138818   4.044   6.414   6.941
 5753TIP3    H238819   4.077   6.304   7.040
 5754TIP3   OH238820   2.003   0.976   6.218
 5754TIP3    H138821   1.973   0.919   6.289
 5754TIP3    H238822   1.934   1.042   6.210
 5755TIP3   OH238823   0.970   3.005   7.275
 5755TIP3    H138824   0.960   3.066   7.201
 5755TIP3    H238825   0.893   3.021   7.329
 5756TIP3   OH238826   6.874   1.955   8.347
 5756TIP3    H138827   0.034   2.011   8.383
 5756TIP3    H238828   6.811   2.016   8.309
 5757TIP3   OH238829   6.752   6.513   6.485
 5757TIP3    H138830   6.663   6.522   6.451
 5757TIP3    H238831   6.740   6.504   6.580
 5758TIP3   OH238832   0.995   4.867   1.508
 5758TIP3    H138833   1.051   4.895   1.580
 5758TIP3    H238834   1.056   4.847   1.436
 5759TIP3   OH238835   5.089   2.931   0.285
 5759TIP3    H138836   5.058   3.000   0.227
 5759TIP3    H238837   5.181   2.920   0.261
 5760TIP3   OH238838   3.272   1.382   0.601
 5760TIP3    H138839   3.329   1.305   0.596
 5760TIP3    H238840   3.208   1.360   0.669
 5761TIP3   OH238841   6.675   6.078   7.285
 5761TIP3    H138842   6.769   6.098   7.283
 5761TIP3    H238843   6.650   6.074   7.193
 5762TIP3   OH238844   4.956   6.499   8.118
 5762TIP3    H138845   4.959   6.590   8.148
 5762TIP3    H238846   5.020   6.496   8.047
 5763TIP3   OH238847   3.590   4.300   5.740
 5763TIP3    H138848   3.676   4.338   5.726
 5763TIP3    H238849   3.535   4.337   5.671
 5764TIP3   OH238850   5.488   3.415   7.149
 5764TIP3    H138851   5.396   3.426   7.127
 5764TIP3    H238852   5.535   3.461   7.078
 5765TIP3   OH238853   5.093   3.816   0.699
 5765TIP3    H138854   5.126   3.818   0.609
 5765TIP3    H238855   5.155   3.761   0.746
 5766TIP3   OH238856   1.223   0.125   7.379
 5766TIP3    H138857   1.284   0.052   7.390
 5766TIP3    H238858   1.264   0.198   7.426
 5767TIP3   OH238859   6.009   3.817   8.237
 5767TIP3    H138860   6.055   3.834   8.319
 5767TIP3    H238861   5.917   3.809   8.263
 5768TIP3   OH238862   0.395   3.867   6.944
 5768TIP3    H138863   0.363   3.872   6.854
 5768TIP3    H238864   0.473   3.921   6.946
 5769TIP3   OH238865   6.586   1.310   0.760
 5769TIP3    H138866   6.553   1.287   0.846
 5769TIP3    H238867   6.680   1.294   0.764
 5770TIP3   OH238868   0.747   4.822   8.403
 5770TIP3    H138869   0.793   4.791   8.480
 5770TIP3    H238870   0.739   4.917   8.416
 5771TIP3   OH238871   4.447   6.651   7.753
 5771TIP3    H138872   4.511   6.691   7.694
 5771TIP3    H238873   4.367   6.700   7.738
 5772TIP3   OH238874   1.507   1.113   0.679
 5772TIP3    H138875   1.425   1.072   0.706
 5772TIP3    H238876   1.548   1.047   0.623
 5773TIP3   OH238877   4.950   4.551   1.504
 5773TIP3    H138878   4.879   4.530   1.444
 5773TIP3    H238879   5.026   4.503   1.470
 5774TIP3   OH238880   3.690   5.946   0.574
 5774TIP3    H138881   3.620   5.938   0.639
 5774TIP3    H238882   3.646   5.972   0.494
 5775TIP3   OH238883   6.506   6.673   2.218
 5775TIP3    H138884   6.477   6.694   2.130
 5775TIP3    H238885   6.601   6.677   2.214
 5776TIP3   OH238886   6.045   3.370   7.010
 5776TIP3    H138887   6.089   3.454   7.020
 5776TIP3    H238888   6.008   3.372   6.922
 5777TIP3   OH238889   6.006   3.927   1.998
 5777TIP3    H138890   6.056   3.989   1.944
 5777TIP3    H238891   5.981   3.858   1.936
 5778TIP3   OH238892   3.653   3.412   6.457
 5778TIP3    H138893   3.626   3.419   6.366
 5778TIP3    H238894   3.639   3.320   6.480
 5779TIP3   OH238895   6.111   1.987   1.524
 5779TIP3    H138896   6.169   2.037   1.581
 5779TIP3    H238897   6.168   1.925   1.480
 5780TIP3   OH238898   0.132   4.587   0.951
 5780TIP3    H138899   0.135   4.555   0.861
 5780TIP3    H238900   0.050   4.637   0.956
 5781TIP3   OH238901   2.309   1.462   1.122
 5781TIP3    H138902   2.391   1.453   1.171
 5781TIP3    H238903   2.277   1.373   1.113
 5782TIP3   OH238904   1.522   4.536   1.507
 5782TIP3    H138905   1.599   4.585   1.477
 5782TIP3    H238906   1.551   4.495   1.589
 5783TIP3   OH238907   1.001   5.970   1.395
 5783TIP3    H138908   0.994   5.947   1.303
 5783TIP3    H238909   0.936   6.040   1.407
 5784TIP3   OH238910   5.143   3.426   7.153
 5784TIP3    H138911   5.135   3.366   7.227
 5784TIP3    H238912   5.082   3.392   7.088
 5785TIP3   OH238913   3.051   2.057   0.055
 5785TIP3    H138914   3.057   1.988   8.555
 5785TIP3    H238915   2.967   2.041   0.098
 5786TIP3   OH238916   1.389   0.710   0.234
 5786TIP3    H138917   1.416   0.619   0.223
 5786TIP3    H238918   1.309   0.706   0.286
 5787TIP3   OH238919   0.283   1.058   0.714
 5787TIP3    H138920   0.243   1.060   0.627
 5787TIP3    H238921   0.345   0.985   0.711
 5788TIP3   OH238922   1.496   5.626   6.974
 5788TIP3    H138923   1.492   5.679   6.894
 5788TIP3    H238924   1.579   5.578   6.967
 5789TIP3   OH238925   4.419   0.725   2.058
 5789TIP3    H138926   4.506   0.760   2.076
 5789TIP3    H238927   4.377   0.721   2.144
 5790TIP3   OH238928   0.440   6.381   0.480
 5790TIP3    H138929   0.422   6.329   0.558
 5790TIP3    H238930   0.530   6.360   0.456
 5791TIP3   OH238931   0.499   4.199   8.223
 5791TIP3    H138932   0.514   4.245   8.140
 5791TIP3    H238933   0.404   4.194   8.231
 5792TIP3   OH238934   6.510   6.599   7.754
 5792TIP3    H138935   6.469   6.679   7.723
 5792TIP3    H238936   6.576   6.578   7.688
 5793TIP3   OH238937   0.882   1.897   7.727
 5793TIP3    H138938   0.848   1.816   7.690
 5793TIP3    H238939   0.915   1.946   7.652
 5794TIP3   OH238940   5.312   0.327   0.394
 5794TIP3    H138941   5.404   0.346   0.408
 5794TIP3    H238942   5.309   0.233   0.377
 5795TIP3   OH238943   2.662   1.155   1.553
 5795TIP3    H138944   2.757   1.164   1.547
 5795TIP3    H238945   2.645   1.144   1.646
 5796TIP3   OH238946   3.402   4.122   7.042
 5796TIP3    H138947   3.469   4.188   7.027
 5796TIP3    H238948   3.330   4.170   7.084
 5797TIP3   OH238949   3.616   0.902   1.594
 5797TIP3    H138950   3.582   0.830   1.647
 5797TIP3    H238951   3.711   0.893   1.600
 5798TIP3   OH238952   3.761   1.691   2.201
 5798TIP3    H138953   3.699   1.709   2.272
 5798TIP3    H238954   3.847   1.698   2.242
 5799TIP3   OH238955   5.469   5.387   6.829
 5799TIP3    H138956   5.562   5.411   6.837
 5799TIP3    H238957   5.470   5.296   6.800
 5800TIP3   OH238958   1.434   3.943   7.276
 5800TIP3    H138959   1.475   3.938   7.362
 5800TIP3    H238960   1.425   4.037   7.259
 5801TIP3   OH238961   3.961   4.340   6.002
 5801TIP3    H138962   4.054   4.339   5.981
 5801TIP3    H238963   3.921   4.390   5.931
 5802TIP3   OH238964   0.681   5.119   6.916
 5802TIP3    H138965   0.746   5.170   6.966
 5802TIP3    H238966   0.697   5.143   6.825
 5803TIP3   OH238967   0.656   6.008   0.381
 5803TIP3    H138968   0.675   5.987   0.290
 5803TIP3    H238969   0.656   6.103   0.384
 5804TIP3   OH238970   0.052   6.157   1.206
 5804TIP3    H138971   0.033   6.089   1.270
 5804TIP3    H238972   6.879   6.166   1.157
 5805TIP3   OH238973   1.941   6.549   7.956
 5805TIP3    H138974   1.982   6.617   8.010
 5805TIP3    H238975   1.916   6.594   7.875
 5806TIP3   OH238976   2.780   4.859   1.274
 5806TIP3    H138977   2.872   4.839   1.288
 5806TIP3    H238978   2.733   4.792   1.323
 5807TIP3   OH238979   5.914   1.105   7.179
 5807TIP3    H138980   5.824   1.095   7.209
 5807TIP3    H238981   5.909   1.168   7.107
 5808TIP3   OH238982   3.465   1.346   8.118
 5808TIP3    H138983   3.413   1.386   8.188
 5808TIP3    H238984   3.480   1.256   8.148
 5809TIP3   OH238985   6.338   2.399   1.077
 5809TIP3    H138986   6.379   2.446   1.005
 5809TIP3    H238987   6.410   2.381   1.138
 5810TIP3   OH238988   0.381   5.684   0.217
 5810TIP3    H138989   0.326   5.692   0.295
 5810TIP3    H238990   0.391   5.590   0.203
 5811TIP3   OH238991   4.927   5.458   2.604
 5811TIP3    H138992   4.959   5.463   2.694
 5811TIP3    H238993   4.961   5.537   2.562
 5812TIP3   OH238994   2.110   2.282   0.599
 5812TIP3    H138995   2.031   2.271   0.652
 5812TIP3    H238996   2.182   2.275   0.661
 5813TIP3   OH238997   2.811   6.452   7.467
 5813TIP3    H138998   2.795   6.452   7.561
 5813TIP3    H238999   2.895   6.407   7.456
 5814TIP3   OH239000   2.797   3.114   0.760
 5814TIP3    H139001   2.882   3.099   0.719
 5814TIP3    H239002   2.760   3.188   0.711
 5815TIP3   OH239003   4.007   3.555   1.163
 5815TIP3    H139004   3.976   3.466   1.180
 5815TIP3    H239005   4.102   3.547   1.157
 5816TIP3   OH239006   1.865   4.443   1.671
 5816TIP3    H139007   1.771   4.449   1.688
 5816TIP3    H239008   1.903   4.518   1.717
 5817TIP3   OH239009   0.692   0.256   1.073
 5817TIP3    H139010   0.673   0.324   1.137
 5817TIP3    H239011   0.787   0.255   1.067
 5818TIP3   OH239012   6.333   0.549   7.528
 5818TIP3    H139013   6.291   0.484   7.472
 5818TIP3    H239014   6.427   0.529   7.521
 5819TIP3   OH239015   5.717   6.421   7.136
 5819TIP3    H139016   5.752   6.507   7.161
 5819TIP3    H239017   5.774   6.392   7.064
 5820TIP3   OH239018   0.720   5.202   2.084
 5820TIP3    H139019   0.695   5.140   2.153
 5820TIP3    H239020   0.638   5.219   2.037
 5821TIP3   OH239021   1.940   2.831   0.154
 5821TIP3    H139022   1.976   2.778   0.225
 5821TIP3    H239023   2.016   2.851   0.098
 5822TIP3   OH239024   3.117   1.465   6.421
 5822TIP3    H139025   3.144   1.375   6.402
 5822TIP3    H239026   3.195   1.507   6.457
 5823TIP3   OH239027   4.891   0.490   1.463
 5823TIP3    H139028   4.806   0.457   1.492
 5823TIP3    H239029   4.924   0.422   1.404
 5824TIP3   OH239030   5.240   5.227   1.059
 5824TIP3    H139031   5.228   5.195   0.970
 5824TIP3    H239032   5.268   5.149   1.108
 5825TIP3   OH239033   0.564   3.663   6.737
 5825TIP3    H139034   0.565   3.590   6.675
 5825TIP3    H239035   0.569   3.741   6.681
 5826TIP3   OH239036   1.866   3.119   0.566
 5826TIP3    H139037   1.891   3.091   0.478
 5826TIP3    H239038   1.782   3.163   0.554
 5827TIP3   OH239039   0.656   2.953   7.176
 5827TIP3    H139040   0.637   2.993   7.261
 5827TIP3    H239041   0.700   2.871   7.197
 5828TIP3   OH239042   0.248   0.221   7.304
 5828TIP3    H139043   0.246   0.158   7.376
 5828TIP3    H239044   0.330   0.270   7.317
 5829TIP3   OH239045   4.677   5.702   7.649
 5829TIP3    H139046   4.615   5.741   7.588
 5829TIP3    H239047   4.748   5.767   7.656
 5830TIP3   OH239048   1.986   3.489   8.367
 5830TIP3    H139049   2.000   3.520   8.277
 5830TIP3    H239050   2.004   3.395   8.362
 5831TIP3   OH239051   5.474   1.003   1.455
 5831TIP3    H139052   5.551   1.032   1.504
 5831TIP3    H239053   5.432   0.940   1.513
 5832TIP3   OH239054   4.193   0.282   1.043
 5832TIP3    H139055   4.194   0.248   0.954
 5832TIP3    H239056   4.128   0.228   1.088
 5833TIP3   OH239057   2.063   3.176   7.417
 5833TIP3    H139058   2.021   3.176   7.503
 5833TIP3    H239059   1.992   3.158   7.355
 5834TIP3   OH239060   2.361   0.992   0.691
 5834TIP3    H139061   2.274   1.032   0.683
 5834TIP3    H239062   2.412   1.031   0.621
 5835TIP3   OH239063   2.984   3.511   0.235
 5835TIP3    H139064   2.898   3.521   0.193
 5835TIP3    H239065   2.997   3.592   0.284
 5836TIP3   OH239066   6.723   1.454   7.897
 5836TIP3    H139067   6.733   1.407   7.815
 5836TIP3    H239068   6.806   1.500   7.908
 5837TIP3   OH239069   4.147   0.819   6.633
 5837TIP3    H139070   4.179   0.887   6.575
 5837TIP3    H239071   4.137   0.742   6.577
 5838TIP3   OH239072   6.740   1.838   7.217
 5838TIP3    H139073   6.791   1.909   7.178
 5838TIP3    H239074   6.699   1.794   7.142
 5839TIP3   OH239075   6.476   3.895   7.311
 5839TIP3    H139076   6.508   3.888   7.221
 5839TIP3    H239077   6.503   3.983   7.338
 5840TIP3   OH239078   0.881   1.152   1.493
 5840TIP3    H139079   0.942   1.135   1.565
 5840TIP3    H239080   0.890   1.077   1.435
 5841TIP3   OH239081   3.850   1.274   7.918
 5841TIP3    H139082   3.815   1.186   7.908
 5841TIP3    H239083   3.773   1.329   7.934
 5842TIP3   OH239084   6.195   1.532   0.693
 5842TIP3    H139085   6.257   1.537   0.765
 5842TIP3    H239086   6.249   1.524   0.614
 5843TIP3   OH239087   6.004   6.046   7.822
 5843TIP3    H139088   5.989   6.010   7.735
 5843TIP3    H239089   5.916   6.057   7.858
 5844TIP3   OH239090   4.470   2.384   7.872
 5844TIP3    H139091   4.412   2.452   7.838
 5844TIP3    H239092   4.553   2.398   7.827
 5845TIP3   OH239093   4.033   5.898   7.611
 5845TIP3    H139094   3.975   5.831   7.645
 5845TIP3    H239095   4.017   5.974   7.667
 5846TIP3   OH239096   5.178   3.993   7.055
 5846TIP3    H139097   5.204   4.040   7.134
 5846TIP3    H239098   5.149   4.061   6.995
 5847TIP3   OH239099   3.288   6.731   1.849
 5847TIP3    H139100   3.290   6.729   1.945
 5847TIP3    H239101   3.368   6.777   1.825
 5848TIP3   OH239102   3.218   4.325   7.154
 5848TIP3    H139103   3.195   4.337   7.247
 5848TIP3    H239104   3.175   4.397   7.109
 5849TIP3   OH239105   5.299   1.444   1.389
 5849TIP3    H139106   5.377   1.493   1.362
 5849TIP3    H239107   5.253   1.504   1.448
 5850TIP3   OH239108   1.802   4.669   1.394
 5850TIP3    H139109   1.802   4.730   1.320
 5850TIP3    H239110   1.893   4.670   1.426
 5851TIP3   OH239111   4.388   4.841   1.419
 5851TIP3    H139112   4.366   4.749   1.408
 5851TIP3    H239113   4.444   4.842   1.497
 5852TIP3   OH239114   2.133   0.547   7.241
 5852TIP3    H139115   2.074   0.547   7.316
 5852TIP3    H239116   2.220   0.562   7.278
 5853TIP3   OH239117   6.745   4.998   7.066
 5853TIP3    H139118   6.751   5.069   7.129
 5853TIP3    H239119   6.695   4.930   7.111
 5854TIP3   OH239120   5.325   5.181   7.713
 5854TIP3    H139121   5.387   5.117   7.677
 5854TIP3    H239122   5.368   5.265   7.701
 5855TIP3   OH239123   2.529   6.087   8.042
 5855TIP3    H139124   2.452   6.058   7.993
 5855TIP3    H239125   2.523   6.182   8.042
 5856TIP3   OH239126   6.262   6.557   0.901
 5856TIP3    H139127   6.336   6.524   0.951
 5856TIP3    H239128   6.185   6.531   0.952
 5857TIP3   OH239129   6.415   3.006   8.396
 5857TIP3    H139130   6.396   2.913   8.409
 5857TIP3    H239131   6.509   3.013   8.410
 5858TIP3   OH239132   5.404   4.004   0.686
 5858TIP3    H139133   5.372   3.959   0.608
 5858TIP3    H239134   5.367   3.954   0.759
 5859TIP3   OH239135   3.799   6.119   6.321
 5859TIP3    H139136   3.737   6.047   6.336
 5859TIP3    H239137   3.797   6.169   6.402
 5860TIP3   OH239138   3.181   0.729   0.977
 5860TIP3    H139139   3.197   0.635   0.978
 5860TIP3    H239140   3.102   0.741   1.030
 5861TIP3   OH239141   2.634   4.653   1.398
 5861TIP3    H139142   2.598   4.687   1.480
 5861TIP3    H239143   2.672   4.568   1.422
 5862TIP3   OH239144   1.384   1.649   0.510
 5862TIP3    H139145   1.372   1.644   0.415
 5862TIP3    H239146   1.409   1.560   0.536
 5863TIP3   OH239147   0.189   5.469   8.197
 5863TIP3    H139148   0.221   5.381   8.217
 5863TIP3    H239149   0.206   5.482   8.104
 5864TIP3   OH239150   4.546   2.223   2.100
 5864TIP3    H139151   4.559   2.178   2.017
 5864TIP3    H239152   4.453   2.242   2.104
 5865TIP3   OH239153   5.334   6.407   6.157
 5865TIP3    H139154   5.386   6.347   6.104
 5865TIP3    H239155   5.304   6.353   6.231
 5866TIP3   OH239156   0.139   2.131   8.489
 5866TIP3    H139157   0.219   2.174   8.518
 5866TIP3    H239158   0.092   2.109   0.003
 5867TIP3   OH239159   4.479   1.397   1.170
 5867TIP3    H139160   4.423   1.321   1.154
 5867TIP3    H239161   4.548   1.363   1.228
 5868TIP3   OH239162   3.805   1.173   1.037
 5868TIP3    H139163   3.839   1.253   0.998
 5868TIP3    H239164   3.715   1.195   1.061
 5869TIP3   OH239165   5.314   6.430   0.593
 5869TIP3    H139166   5.371   6.425   0.516
 5869TIP3    H239167   5.225   6.424   0.557
 5870TIP3   OH239168   1.637   2.264   2.009
 5870TIP3    H139169   1.637   2.347   1.962
 5870TIP3    H239170   1.551   2.226   1.992
 5871TIP3   OH239171   3.768   6.130   6.998
 5871TIP3    H139172   3.747   6.147   7.090
 5871TIP3    H239173   3.835   6.195   6.976
 5872TIP3   OH239174   0.242   4.464   7.303
 5872TIP3    H139175   0.288   4.453   7.220
 5872TIP3    H239176   0.150   4.466   7.279
 5873TIP3   OH239177   1.079   5.918   0.623
 5873TIP3    H139178   0.984   5.909   0.635
 5873TIP3    H239179   1.112   5.828   0.627
 5874TIP3   OH239180   3.027   5.130   1.490
 5874TIP3    H139181   3.025   5.132   1.394
 5874TIP3    H239182   3.084   5.056   1.510
 5875TIP3   OH239183   1.971   0.975   0.016
 5875TIP3    H139184   1.878   0.968   0.038
 5875TIP3    H239185   2.007   1.032   0.084
 5876TIP3   OH239186   2.108   4.663   7.052
 5876TIP3    H139187   2.084   4.656   7.144
 5876TIP3    H239188   2.090   4.755   7.029
 5877TIP3   OH239189   2.655   4.629   0.719
 5877TIP3    H139190   2.579   4.599   0.767
 5877TIP3    H239191   2.716   4.660   0.786
 5878TIP3   OH239192   4.949   5.464   7.132
 5878TIP3    H139193   5.016   5.497   7.073
 5878TIP3    H239194   4.946   5.370   7.115
 5879TIP3   OH239195   1.174   0.120   1.105
 5879TIP3    H139196   1.118   0.043   1.114
 5879TIP3    H239197   1.161   0.168   1.187
 5880TIP3   OH239198   5.919   6.736   7.966
 5880TIP3    H139199   6.008   6.713   7.937
 5880TIP3    H239200   5.883   6.653   7.998
 5881TIP3   OH239201   2.374   6.776   0.639
 5881TIP3    H139202   2.409   6.865   0.644
 5881TIP3    H239203   2.379   6.754   0.546
 5882TIP3   OH239204   4.363   5.827   1.234
 5882TIP3    H139205   4.404   5.754   1.280
 5882TIP3    H239206   4.269   5.806   1.235
 5883TIP3   OH239207   1.904   5.935   6.539
 5883TIP3    H139208   1.823   5.983   6.523
 5883TIP3    H239209   1.902   5.862   6.476
 5884TIP3   OH239210   3.184   6.770   8.104
 5884TIP3    H139211   3.191   6.682   8.065
 5884TIP3    H239212   3.150   6.824   8.033
 5885TIP3   OH239213   5.814   5.794   8.219
 5885TIP3    H139214   5.727   5.760   8.239
 5885TIP3    H239215   5.816   5.803   8.124
 5886TIP3   OH239216   6.330   3.448   6.955
 5886TIP3    H139217   6.376   3.471   6.874
 5886TIP3    H239218   6.242   3.485   6.944
 5887TIP3   OH239219   5.061   6.511   2.222
 5887TIP3    H139220   5.066   6.463   2.139
 5887TIP3    H239221   5.150   6.509   2.257
 5888TIP3   OH239222   4.996   0.469   0.518
 5888TIP3    H139223   4.943   0.492   0.595
 5888TIP3    H239224   5.073   0.427   0.554
 5889TIP3   OH239225   6.728   0.548   1.933
 5889TIP3    H139226   6.689   0.491   2.000
 5889TIP3    H239227   6.805   0.585   1.975
 5890TIP3   OH239228   6.395   1.539   7.330
 5890TIP3    H139229   6.376   1.595   7.405
 5890TIP3    H239230   6.311   1.500   7.308
 5891TIP3   OH239231   1.200   6.776   7.116
 5891TIP3    H139232   1.283   6.740   7.085
 5891TIP3    H239233   1.221   6.866   7.140
 5892TIP3   OH239234   2.191   2.162   1.348
 5892TIP3    H139235   2.214   2.189   1.437
 5892TIP3    H239236   2.103   2.125   1.356
 5893TIP3   OH239237   3.764   3.085   0.538
 5893TIP3    H139238   3.827   3.025   0.579
 5893TIP3    H239239   3.687   3.080   0.595
 5894TIP3   OH239240   5.179   4.378   1.690
 5894TIP3    H139241   5.252   4.322   1.717
 5894TIP3    H239242   5.168   4.439   1.763
 5895TIP3   OH239243   4.470   5.609   2.119
 5895TIP3    H139244   4.548   5.645   2.162
 5895TIP3    H239245   4.396   5.650   2.163
 5896TIP3   OH239246   4.114   5.202   7.140
 5896TIP3    H139247   4.114   5.112   7.109
 5896TIP3    H239248   4.096   5.195   7.234
 5897TIP3   OH239249   6.903   1.544   1.791
 5897TIP3    H139250   0.037   1.469   1.749
 5897TIP3    H239251   6.906   1.524   1.885
 5898TIP3   OH239252   3.346   1.809   0.757
 5898TIP3    H139253   3.421   1.778   0.706
 5898TIP3    H239254   3.317   1.888   0.710
 5899TIP3   OH239255   5.005   4.294   7.546
 5899TIP3    H139256   4.952   4.228   7.501
 5899TIP3    H239257   4.947   4.330   7.612
 5900TIP3   OH239258   6.883   3.275   7.964
 5900TIP3    H139259   0.059   3.233   7.967
 5900TIP3    H239260   6.839   3.247   8.045
 5901TIP3   OH239261   6.386   4.428   7.138
 5901TIP3    H139262   6.382   4.412   7.044
 5901TIP3    H239263   6.471   4.470   7.152
 5902TIP3   OH239264   6.296   1.032   6.728
 5902TIP3    H139265   6.249   1.010   6.809
 5902TIP3    H239266   6.272   1.123   6.710
 5903TIP3   OH239267   0.284   6.367   6.695
 5903TIP3    H139268   0.352   6.348   6.630
 5903TIP3    H239269   0.290   6.461   6.710
 5904TIP3   OH239270   5.174   3.278   1.021
 5904TIP3    H139271   5.250   3.283   0.964
 5904TIP3    H239272   5.190   3.343   1.089
 5905TIP3   OH239273   1.491   0.750   7.609
 5905TIP3    H139274   1.451   0.665   7.591
 5905TIP3    H239275   1.417   0.811   7.615
 5906TIP3   OH239276   1.838   6.013   7.426
 5906TIP3    H139277   1.882   6.061   7.496
 5906TIP3    H239278   1.907   5.997   7.361
 5907TIP3   OH239279   3.873   5.030   6.829
 5907TIP3    H139280   3.881   5.028   6.925
 5907TIP3    H239281   3.872   4.938   6.804
 5908TIP3   OH239282   2.415   4.833   8.404
 5908TIP3    H139283   2.409   4.884   8.485
 5908TIP3    H239284   2.473   4.760   8.426
 5909TIP3   OH239285   4.925   5.575   7.666
 5909TIP3    H139286   4.912   5.482   7.682
 5909TIP3    H239287   4.837   5.609   7.650
 5910TIP3   OH239288   1.797   1.135   6.311
 5910TIP3    H139289   1.771   1.190   6.385
 5910TIP3    H239290   1.740   1.162   6.239
 5911TIP3   OH239291   2.478   6.525   1.471
 5911TIP3    H139292   2.453   6.535   1.563
 5911TIP3    H239293   2.503   6.614   1.443
 5912TIP3   OH239294   2.662   0.278   0.802
 5912TIP3    H139295   2.618   0.203   0.842
 5912TIP3    H239296   2.632   0.354   0.852
 5913TIP3   OH239297   2.008   5.776   8.198
 5913TIP3    H139298   2.001   5.857   8.250
 5913TIP3    H239299   2.099   5.776   8.168
 5914TIP3   OH239300   0.647   0.514   1.241
 5914TIP3    H139301   0.742   0.523   1.230
 5914TIP3    H239302   0.615   0.603   1.249
 5915TIP3   OH239303   0.507   5.403   7.137
 5915TIP3    H139304   0.547   5.324   7.174
 5915TIP3    H239305   0.578   5.444   7.087
 5916TIP3   OH239306   0.407   3.198   8.524
 5916TIP3    H139307   0.448   3.112   8.521
 5916TIP3    H239308   0.471   3.257   8.484
 5917TIP3   OH239309   4.224   1.757   1.023
 5917TIP3    H139310   4.129   1.762   1.013
 5917TIP3    H239311   4.259   1.814   0.955
 5918TIP3   OH239312   1.055   6.517   8.206
 5918TIP3    H139313   1.049   6.547   8.297
 5918TIP3    H239314   1.058   6.422   8.213
 5919TIP3   OH239315   0.298   4.375   8.515
 5919TIP3    H139316   0.286   4.280   8.521
 5919TIP3    H239317   0.247   4.401   8.439
 5920TIP3   OH239318   2.296   5.743   7.710
 5920TIP3    H139319   2.249   5.770   7.632
 5920TIP3    H239320   2.386   5.729   7.681
 5921TIP3   OH239321   2.924   3.307   8.228
 5921TIP3    H139322   2.994   3.241   8.236
 5921TIP3    H239323   2.871   3.277   8.154
 5922TIP3   OH239324   1.770   6.573   8.219
 5922TIP3    H139325   1.831   6.575   8.292
 5922TIP3    H239326   1.815   6.522   8.152
 5923TIP3   OH239327   5.009   2.062   1.383
 5923TIP3    H139328   5.046   2.014   1.309
 5923TIP3    H239329   5.070   2.133   1.399
 5924TIP3   OH239330   0.042   6.739   6.920
 5924TIP3    H139331   0.100   6.667   6.943
 5924TIP3    H239332   0.036   6.791   7.000
 5925TIP3   OH239333   0.700   4.923   1.633
 5925TIP3    H139334   0.663   4.984   1.698
 5925TIP3    H239335   0.633   4.918   1.565
 5926TIP3   OH239336   6.606   2.739   8.468
 5926TIP3    H139337   6.531   2.762   8.523
 5926TIP3    H239338   6.606   2.644   8.464
 5927TIP3   OH239339   1.669   6.908   7.001
 5927TIP3    H139340   1.687   6.870   6.915
 5927TIP3    H239341   1.756   0.023   7.035
 5928TIP3   OH239342   0.121   4.057   6.606
 5928TIP3    H139343   0.046   4.047   6.664
 5928TIP3    H239344   0.090   4.116   6.537
 5929TIP3   OH239345   6.092   4.921   6.565
 5929TIP3    H139346   6.062   4.892   6.479
 5929TIP3    H239347   6.070   4.847   6.623
 5930TIP3   OH239348   2.001   3.112   0.268
 5930TIP3    H139349   2.053   3.096   0.190
 5930TIP3    H239350   1.917   3.069   0.250
 5931TIP3   OH239351   2.731   5.161   8.402
 5931TIP3    H139352   2.693   5.074   8.387
 5931TIP3    H239353   2.743   5.164   8.497
 5932TIP3   OH239354   2.184   4.019   0.858
 5932TIP3    H139355   2.239   4.087   0.820
 5932TIP3    H239356   2.243   3.971   0.917
 5933TIP3   OH239357   2.441   0.630   8.271
 5933TIP3    H139358   2.485   0.688   8.334
 5933TIP3    H239359   2.467   0.665   8.185
 5934TIP3   OH239360   3.675   3.178   8.436
 5934TIP3    H139361   3.704   3.269   8.432
 5934TIP3    H239362   3.645   3.159   8.347
 5935TIP3   OH239363   1.202   6.710   0.866
 5935TIP3    H139364   1.282   6.685   0.820
 5935TIP3    H239365   1.131   6.678   0.811
 5936TIP3   OH239366   0.243   2.242   8.051
 5936TIP3    H139367   0.225   2.259   7.959
 5936TIP3    H239368   0.204   2.156   8.068
 5937TIP3   OH239369   1.860   1.191   7.414
 5937TIP3    H139370   1.868   1.240   7.496
 5937TIP3    H239371   1.801   1.119   7.435
 5938TIP3   OH239372   6.753   5.199   1.144
 5938TIP3    H139373   6.760   5.109   1.113
 5938TIP3    H239374   6.696   5.242   1.080
 5939TIP3   OH239375   4.227   4.498   0.181
 5939TIP3    H139376   4.250   4.556   0.109
 5939TIP3    H239377   4.254   4.546   0.260
 5940TIP3   OH239378   1.733   1.263   0.025
 5940TIP3    H139379   1.650   1.233   8.555
 5940TIP3    H239380   1.763   1.190   0.080
 5941TIP3   OH239381   0.757   4.851   1.312
 5941TIP3    H139382   0.809   4.869   1.234
 5941TIP3    H239383   0.819   4.858   1.384
 5942TIP3   OH239384   3.155   2.343   1.674
 5942TIP3    H139385   3.104   2.270   1.709
 5942TIP3    H239386   3.090   2.398   1.630
 5943TIP3   OH239387   6.381   6.454   7.167
 5943TIP3    H139388   6.297   6.463   7.123
 5943TIP3    H239389   6.359   6.417   7.253
 5944TIP3   OH239390   0.380   3.871   6.280
 5944TIP3    H139391   0.390   3.776   6.270
 5944TIP3    H239392   0.425   3.892   6.361
 5945TIP3   OH239393   3.641   0.290   2.598
 5945TIP3    H139394   3.583   0.214   2.594
 5945TIP3    H239395   3.598   0.355   2.543
 5946TIP3   OH239396   3.505   6.608   0.404
 5946TIP3    H139397   3.525   6.621   0.497
 5946TIP3    H239398   3.439   6.675   0.384
 5947TIP3   OH239399   2.109   6.422   7.658
 5947TIP3    H139400   2.133   6.465   7.576
 5947TIP3    H239401   2.052   6.350   7.631
 5948TIP3   OH239402   2.394   2.735   7.538
 5948TIP3    H139403   2.334   2.807   7.518
 5948TIP3    H239404   2.432   2.758   7.622
 5949TIP3   OH239405   5.426   0.247   2.335
 5949TIP3    H139406   5.438   0.155   2.361
 5949TIP3    H239407   5.362   0.281   2.398
 5950TIP3   OH239408   2.802   3.798   8.416
 5950TIP3    H139409   2.891   3.795   8.451
 5950TIP3    H239410   2.793   3.719   8.364
 5951TIP3   OH239411   4.929   5.095   1.661
 5951TIP3    H139412   4.936   5.167   1.599
 5951TIP3    H239413   4.912   5.018   1.608
 5952TIP3   OH239414   2.894   1.545   0.720
 5952TIP3    H139415   2.878   1.559   0.626
 5952TIP3    H239416   2.809   1.560   0.761
 5953TIP3   OH239417   0.203   0.003   1.939
 5953TIP3    H139418   0.242   0.089   1.923
 5953TIP3    H239419   0.215   6.897   2.033
 5954TIP3   OH239420   1.073   5.588   7.267
 5954TIP3    H139421   0.980   5.565   7.267
 5954TIP3    H239422   1.100   5.580   7.176
 5955TIP3   OH239423   0.248   2.711   1.974
 5955TIP3    H139424   0.225   2.716   2.067
 5955TIP3    H239425   0.166   2.690   1.930
 5956TIP3   OH239426   5.526   2.989   7.777
 5956TIP3    H139427   5.457   3.008   7.840
 5956TIP3    H239428   5.607   3.002   7.825
 5957TIP3   OH239429   0.425   1.940   6.923
 5957TIP3    H139430   0.396   2.009   6.863
 5957TIP3    H239431   0.503   1.904   6.881
 5958TIP3   OH239432   5.200   4.640   1.355
 5958TIP3    H139433   5.174   4.657   1.446
 5958TIP3    H239434   5.145   4.698   1.303
 5959TIP3   OH239435   0.199   2.482   2.244
 5959TIP3    H139436   0.201   2.575   2.267
 5959TIP3    H239437   0.141   2.477   2.168
 5960TIP3   OH239438   1.986   0.192   1.303
 5960TIP3    H139439   1.926   0.182   1.229
 5960TIP3    H239440   1.933   0.172   1.379
 5961TIP3   OH239441   4.516   3.370   7.094
 5961TIP3    H139442   4.592   3.409   7.136
 5961TIP3    H239443   4.530   3.276   7.102
 5962TIP3   OH239444   3.167   2.872   2.142
 5962TIP3    H139445   3.101   2.815   2.181
 5962TIP3    H239446   3.138   2.961   2.163
 5963TIP3   OH239447   5.707   6.592   1.181
 5963TIP3    H139448   5.746   6.657   1.123
 5963TIP3    H239449   5.713   6.631   1.268
 5964TIP3   OH239450   0.845   4.059   1.697
 5964TIP3    H139451   0.909   4.088   1.762
 5964TIP3    H239452   0.764   4.047   1.746
 5965TIP3   OH239453   1.663   6.594   6.372
 5965TIP3    H139454   1.730   6.560   6.313
 5965TIP3    H239455   1.702   6.675   6.407
 5966TIP3   OH239456   2.463   5.590   1.001
 5966TIP3    H139457   2.554   5.569   0.980
 5966TIP3    H239458   2.467   5.625   1.090
 5967TIP3   OH239459   1.295   5.139   8.465
 5967TIP3    H139460   1.297   5.232   8.487
 5967TIP3    H239461   1.323   5.134   8.374
 5968TIP3   OH239462   5.227   6.204   0.786
 5968TIP3    H139463   5.176   6.279   0.754
 5968TIP3    H239464   5.166   6.131   0.786
 5969TIP3   OH239465   3.879   2.341   0.846
 5969TIP3    H139466   3.865   2.414   0.907
 5969TIP3    H239467   3.940   2.283   0.892
 5970TIP3   OH239468   2.493   5.464   0.654
 5970TIP3    H139469   2.561   5.470   0.587
 5970TIP3    H239470   2.541   5.447   0.735
 5971TIP3   OH239471   6.366   5.627   8.293
 5971TIP3    H139472   6.315   5.558   8.249
 5971TIP3    H239473   6.451   5.625   8.249
 5972TIP3   OH239474   4.837   1.887   1.830
 5972TIP3    H139475   4.932   1.876   1.828
 5972TIP3    H239476   4.803   1.813   1.780
 5973TIP3   OH239477   4.907   2.610   7.544
 5973TIP3    H139478   4.823   2.604   7.590
 5973TIP3    H239479   4.965   2.655   7.606
 5974TIP3   OH239480   0.126   6.792   1.011
 5974TIP3    H139481   0.079   6.737   0.950
 5974TIP3    H239482   0.183   6.732   1.060
 5975TIP3   OH239483   0.777   0.541   0.292
 5975TIP3    H139484   0.773   0.505   0.204
 5975TIP3    H239485   0.687   0.534   0.325
 5976TIP3   OH239486   4.633   6.669   6.409
 5976TIP3    H139487   4.674   6.603   6.465
 5976TIP3    H239488   4.615   6.622   6.327
 5977TIP3   OH239489   0.266   5.375   1.712
 5977TIP3    H139490   0.284   5.360   1.804
 5977TIP3    H239491   0.247   5.288   1.676
 5978TIP3   OH239492   2.081   3.479   0.537
 5978TIP3    H139493   2.126   3.554   0.498
 5978TIP3    H239494   2.019   3.451   0.470
 5979TIP3   OH239495   4.122   6.203   1.352
 5979TIP3    H139496   4.163   6.214   1.266
 5979TIP3    H239497   4.195   6.203   1.413
 5980TIP3   OH239498   6.040   4.829   1.537
 5980TIP3    H139499   6.059   4.906   1.589
 5980TIP3    H239500   6.033   4.758   1.601
 5981TIP3   OH239501   3.873   0.000   0.090
 5981TIP3    H139502   3.857   6.826   0.134
 5981TIP3    H239503   3.911   6.886   0.006
 5982TIP3   OH239504   3.222   3.616   8.062
 5982TIP3    H139505   3.199   3.529   8.029
 5982TIP3    H239506   3.251   3.601   8.151
 5983TIP3   OH239507   1.504   6.104   0.737
 5983TIP3    H139508   1.422   6.101   0.787
 5983TIP3    H239509   1.543   6.188   0.761
 5984TIP3   OH239510   0.818   6.664   6.860
 5984TIP3    H139511   0.862   6.592   6.815
 5984TIP3    H239512   0.884   6.733   6.867
 5985TIP3   OH239513   0.022   0.684   2.117
 5985TIP3    H139514   6.887   0.743   2.178
 5985TIP3    H239515   0.022   0.599   2.161
 5986TIP3   OH239516   4.374   0.410   0.063
 5986TIP3    H139517   4.345   0.481   0.119
 5986TIP3    H239518   4.293   0.375   0.025
 5987TIP3   OH239519   2.892   3.317   6.716
 5987TIP3    H139520   2.953   3.355   6.653
 5987TIP3    H239521   2.946   3.296   6.792
 5988TIP3   OH239522   5.520   5.546   8.240
 5988TIP3    H139523   5.574   5.470   8.223
 5988TIP3    H239524   5.432   5.511   8.253
 5989TIP3   OH239525   3.361   6.563   6.278
 5989TIP3    H139526   3.298   6.491   6.272
 5989TIP3    H239527   3.343   6.617   6.200
 5990TIP3   OH239528   4.972   5.222   6.705
 5990TIP3    H139529   5.030   5.206   6.631
 5990TIP3    H239530   4.929   5.305   6.684
 5991TIP3   OH239531   2.123   6.357   8.269
 5991TIP3    H139532   2.100   6.293   8.201
 5991TIP3    H239533   2.044   6.363   8.323
 5992TIP3   OH239534   0.122   1.474   0.645
 5992TIP3    H139535   0.139   1.568   0.646
 5992TIP3    H239536   0.055   1.463   0.577
 5993TIP3   OH239537   0.733   1.235   8.457
 5993TIP3    H139538   0.718   1.160   8.514
 5993TIP3    H239539   0.730   1.198   8.368
 5994TIP3   OH239540   0.915   2.861   1.886
 5994TIP3    H139541   0.933   2.795   1.953
 5994TIP3    H239542   0.938   2.819   1.804
 5995TIP3   OH239543   4.215   0.677   2.687
 5995TIP3    H139544   4.234   0.631   2.605
 5995TIP3    H239545   4.216   0.608   2.753
 5996TIP3   OH239546   4.610   1.684   0.526
 5996TIP3    H139547   4.597   1.754   0.461
 5996TIP3    H239548   4.705   1.675   0.533
 5997TIP3   OH239549   4.051   6.530   8.298
 5997TIP3    H139550   4.001   6.461   8.256
 5997TIP3    H239551   4.130   6.487   8.330
 5998TIP3   OH239552   5.816   4.901   0.867
 5998TIP3    H139553   5.852   4.825   0.820
 5998TIP3    H239554   5.863   4.976   0.830
 5999TIP3   OH239555   5.304   0.812   6.090
 5999TIP3    H139556   5.391   0.846   6.111
 5999TIP3    H239557   5.312   0.717   6.100
 6000TIP3   OH239558   2.452   2.931   0.960
 6000TIP3    H139559   2.375   2.969   0.918
 6000TIP3    H239560   2.467   2.985   1.037
 6001TIP3   OH239561   3.842   1.981   0.154
 6001TIP3    H139562   3.774   1.937   0.206
 6001TIP3    H239563   3.794   2.032   0.089
 6002TIP3   OH239564   4.511   4.260   2.127
 6002TIP3    H139565   4.565   4.337   2.114
 6002TIP3    H239566   4.422   4.290   2.108
 6003TIP3   OH239567   6.409   3.852   1.398
 6003TIP3    H139568   6.416   3.909   1.475
 6003TIP3    H239569   6.475   3.884   1.338
 6004TIP3   OH239570   0.412   5.279   8.169
 6004TIP3    H139571   0.429   5.221   8.095
 6004TIP3    H239572   0.496   5.321   8.187
 6005TIP3   OH239573   0.520   1.978   6.635
 6005TIP3    H139574   0.470   2.055   6.605
 6005TIP3    H239575   0.582   1.961   6.564
 6006TIP3   OH239576   6.481   2.334   1.369
 6006TIP3    H139577   6.451   2.326   1.460
 6006TIP3    H239578   6.547   2.265   1.360
 6007TIP3   OH239579   0.961   3.213   1.233
 6007TIP3    H139580   0.985   3.173   1.149
 6007TIP3    H239581   0.986   3.305   1.224
 6008TIP3   OH239582   3.912   4.345   1.749
 6008TIP3    H139583   3.856   4.422   1.759
 6008TIP3    H239584   3.898   4.317   1.658
 6009TIP3   OH239585   4.945   5.439   1.123
 6009TIP3    H139586   4.989   5.497   1.061
 6009TIP3    H239587   4.987   5.457   1.207
 6010TIP3   OH239588   0.884   4.081   8.246
 6010TIP3    H139589   0.973   4.075   8.282
 6010TIP3    H239590   0.830   4.036   8.311
 6011TIP3   OH239591   5.500   0.627   2.336
 6011TIP3    H139592   5.454   0.544   2.345
 6011TIP3    H239593   5.588   0.609   2.369
 6012TIP3   OH239594   4.715   3.730   7.441
 6012TIP3    H139595   4.752   3.708   7.526
 6012TIP3    H239596   4.621   3.714   7.451
 6013TIP3   OH239597   1.925   4.133   0.035
 6013TIP3    H139598   1.984   4.164   0.104
 6013TIP3    H239599   1.840   4.171   0.058
 6014TIP3   OH239600   4.507   4.656   0.766
 6014TIP3    H139601   4.522   4.745   0.734
 6014TIP3    H239602   4.488   4.605   0.688
 6015TIP3   OH239603   2.352   4.020   7.776
 6015TIP3    H139604   2.444   4.010   7.804
 6015TIP3    H239605   2.301   3.982   7.848
 6016TIP3   OH239606   6.623   2.385   6.885
 6016TIP3    H139607   6.559   2.456   6.881
 6016TIP3    H239608   6.676   2.405   6.962
 6017TIP3   OH239609   1.794   5.917   1.916
 6017TIP3    H139610   1.799   5.949   2.006
 6017TIP3    H239611   1.739   5.839   1.921
 6018TIP3   OH239612   2.496   0.049   1.588
 6018TIP3    H139613   2.410   0.079   1.616
 6018TIP3    H239614   2.510   6.877   1.637
 6019TIP3   OH239615   1.808   2.990   6.569
 6019TIP3    H139616   1.765   2.988   6.655
 6019TIP3    H239617   1.804   2.900   6.538
 6020TIP3   OH239618   6.671   5.358   2.434
 6020TIP3    H139619   6.617   5.371   2.356
 6020TIP3    H239620   6.731   5.433   2.435
 6021TIP3   OH239621   4.104   0.620   8.052
 6021TIP3    H139622   4.157   0.602   7.974
 6021TIP3    H239623   4.136   0.557   8.117
 6022TIP3   OH239624   2.369   0.323   0.311
 6022TIP3    H139625   2.379   0.284   0.397
 6022TIP3    H239626   2.432   0.395   0.309
 6023TIP3   OH239627   2.603   3.216   0.972
 6023TIP3    H139628   2.622   3.237   0.881
 6023TIP3    H239629   2.510   3.237   0.983
 6024TIP3   OH239630   3.337   2.263   2.299
 6024TIP3    H139631   3.343   2.192   2.235
 6024TIP3    H239632   3.387   2.232   2.374
 6025TIP3   OH239633   4.815   6.075   7.924
 6025TIP3    H139634   4.900   6.098   7.888
 6025TIP3    H239635   4.781   6.158   7.959
 6026TIP3   OH239636   2.966   2.475   8.187
 6026TIP3    H139637   3.043   2.431   8.223
 6026TIP3    H239638   2.991   2.498   8.098
 6027TIP3   OH239639   6.528   3.190   1.701
 6027TIP3    H139640   6.608   3.138   1.694
 6027TIP3    H239641   6.517   3.229   1.614
 6028TIP3   OH239642   0.398   1.772   1.718
 6028TIP3    H139643   0.420   1.690   1.763
 6028TIP3    H239644   0.313   1.755   1.678
 6029TIP3   OH239645   5.059   6.531   7.377
 6029TIP3    H139646   5.057   6.485   7.292
 6029TIP3    H239647   5.124   6.600   7.366
 6030TIP3   OH239648   0.540   2.230   7.520
 6030TIP3    H139649   0.609   2.221   7.586
 6030TIP3    H239650   0.502   2.142   7.512
 6031TIP3   OH239651   1.387   6.679   6.406
 6031TIP3    H139652   1.474   6.640   6.419
 6031TIP3    H239653   1.398   6.738   6.331
 6032TIP3   OH239654   5.349   3.151   0.406
 6032TIP3    H139655   5.304   3.205   0.341
 6032TIP3    H239656   5.441   3.176   0.399
 6033TIP3   OH239657   4.777   0.699   7.586
 6033TIP3    H139658   4.702   0.647   7.558
 6033TIP3    H239659   4.775   0.776   7.529
 6034TIP3   OH239660   1.968   6.260   1.562
 6034TIP3    H139661   1.957   6.166   1.545
 6034TIP3    H239662   2.006   6.264   1.650
 6035TIP3   OH239663   6.010   3.589   8.040
 6035TIP3    H139664   6.031   3.672   8.081
 6035TIP3    H239665   6.040   3.522   8.101
 6036TIP3   OH239666   5.823   0.701   6.954
 6036TIP3    H139667   5.748   0.750   6.922
 6036TIP3    H239668   5.854   0.650   6.879
 6037TIP3   OH239669   2.932   1.760   8.168
 6037TIP3    H139670   2.924   1.692   8.101
 6037TIP3    H239671   2.920   1.714   8.251
 6038TIP3   OH239672   0.996   3.940   7.514
 6038TIP3    H139673   0.940   3.905   7.444
 6038TIP3    H239674   1.032   3.862   7.556
 6039TIP3   OH239675   3.564   6.038   2.152
 6039TIP3    H139676   3.634   6.084   2.199
 6039TIP3    H239677   3.573   5.947   2.181
 6040TIP3   OH239678   3.444   2.728   7.578
 6040TIP3    H139679   3.427   2.709   7.486
 6040TIP3    H239680   3.368   2.779   7.607
 6041TIP3   OH239681   1.416   1.915   6.570
 6041TIP3    H139682   1.505   1.914   6.533
 6041TIP3    H239683   1.360   1.888   6.497
 6042TIP3   OH239684   3.203   1.011   8.172
 6042TIP3    H139685   3.137   1.077   8.150
 6042TIP3    H239686   3.209   1.015   8.268
 6043TIP3   OH239687   5.765   3.598   7.761
 6043TIP3    H139688   5.693   3.578   7.821
 6043TIP3    H239689   5.788   3.689   7.780
 6044TIP3   OH239690   4.549   1.737   7.934
 6044TIP3    H139691   4.466   1.762   7.976
 6044TIP3    H239692   4.604   1.815   7.943
 6045TIP3   OH239693   3.118   4.691   6.136
 6045TIP3    H139694   3.069   4.773   6.137
 6045TIP3    H239695   3.099   4.650   6.220
 6046TIP3   OH239696   4.926   3.254   1.140
 6046TIP3    H139697   4.942   3.282   1.230
 6046TIP3    H239698   4.997   3.292   1.089
 6047TIP3   OH239699   1.244   5.400   8.024
 6047TIP3    H139700   1.158   5.440   8.007
 6047TIP3    H239701   1.304   5.450   7.968
 6048TIP3   OH239702   6.393   3.899   7.980
 6048TIP3    H139703   6.480   3.862   7.966
 6048TIP3    H239704   6.402   3.950   8.061
 6049TIP3   OH239705   3.755   4.538   7.591
 6049TIP3    H139706   3.675   4.548   7.642
 6049TIP3    H239707   3.761   4.444   7.573
 6050TIP3   OH239708   2.403   1.027   8.219
 6050TIP3    H139709   2.398   1.069   8.134
 6050TIP3    H239710   2.322   0.977   8.226
 6051TIP3   OH239711   1.204   2.732   8.153
 6051TIP3    H139712   1.143   2.673   8.197
 6051TIP3    H239713   1.149   2.804   8.122
 6052TIP3   OH239714   5.764   2.950   8.269
 6052TIP3    H139715   5.776   2.856   8.284
 6052TIP3    H239716   5.776   2.990   8.354
 6053TIP3   OH239717   6.274   5.256   1.142
 6053TIP3    H139718   6.354   5.301   1.169
 6053TIP3    H239719   6.237   5.223   1.224
 6054TIP3   OH239720   4.653   3.691   8.281
 6054TIP3    H139721   4.638   3.614   8.336
 6054TIP3    H239722   4.674   3.655   8.194
 6055TIP3   OH239723   0.100   1.068   8.498
 6055TIP3    H139724   0.177   1.117   8.526
 6055TIP3    H239725   0.131   1.014   8.425
 6056TIP3   OH239726   0.273   1.616   1.182
 6056TIP3    H139727   0.279   1.709   1.161
 6056TIP3    H239728   0.181   1.603   1.204
 6057TIP3   OH239729   6.874   3.630   0.208
 6057TIP3    H139730   0.013   3.702   0.167
 6057TIP3    H239731   0.024   3.555   0.203
 6058TIP3   OH239732   4.947   4.213   6.017
 6058TIP3    H139733   5.040   4.190   6.027
 6058TIP3    H239734   4.941   4.303   6.048
 6059TIP3   OH239735   6.066   2.955   1.642
 6059TIP3    H139736   6.074   2.882   1.704
 6059TIP3    H239737   6.057   2.912   1.557
 6060TIP3   OH239738   4.251   2.115   1.841
 6060TIP3    H139739   4.188   2.156   1.901
 6060TIP3    H239740   4.267   2.029   1.880
 6061TIP3   OH239741   5.678   2.358   1.314
 6061TIP3    H139742   5.687   2.274   1.359
 6061TIP3    H239743   5.623   2.339   1.238
 6062TIP3   OH239744   1.883   2.504   8.499
 6062TIP3    H139745   1.795   2.532   8.473
 6062TIP3    H239746   1.920   2.581   8.543
 6063TIP3   OH239747   1.536   6.255   2.042
 6063TIP3    H139748   1.516   6.252   1.949
 6063TIP3    H239749   1.587   6.176   2.058
 6064TIP3   OH239750   3.654   6.535   7.962
 6064TIP3    H139751   3.583   6.526   7.898
 6064TIP3    H239752   3.734   6.526   7.910
 6065TIP3   OH239753   4.646   0.022   0.698
 6065TIP3    H139754   4.635   0.041   0.791
 6065TIP3    H239755   4.565   6.888   0.672
 6066TIP3   OH239756   2.133   2.862   6.743
 6066TIP3    H139757   2.204   2.828   6.797
 6066TIP3    H239758   2.109   2.790   6.685
 6067TIP3   OH239759   4.772   1.234   1.102
 6067TIP3    H139760   4.720   1.153   1.109
 6067TIP3    H239761   4.751   1.282   1.182
 6068TIP3   OH239762   1.644   5.507   7.750
 6068TIP3    H139763   1.691   5.547   7.677
 6068TIP3    H239764   1.633   5.415   7.725
 6069TIP3   OH239765   6.589   1.354   7.388
 6069TIP3    H139766   6.577   1.365   7.482
 6069TIP3    H239767   6.509   1.389   7.349
 6070TIP3   OH239768   2.544   3.452   1.278
 6070TIP3    H139769   2.589   3.506   1.343
 6070TIP3    H239770   2.533   3.510   1.203
 6071TIP3   OH239771   3.861   4.616   1.229
 6071TIP3    H139772   3.942   4.577   1.261
 6071TIP3    H239773   3.883   4.650   1.142
 6072TIP3   OH239774   2.655   1.751   7.450
 6072TIP3    H139775   2.649   1.846   7.447
 6072TIP3    H239776   2.736   1.730   7.402
 6073TIP3   OH239777   3.851   1.713   0.663
 6073TIP3    H139778   3.844   1.805   0.686
 6073TIP3    H239779   3.943   1.700   0.643
 6074TIP3   OH239780   3.903   2.677   8.393
 6074TIP3    H139781   3.849   2.755   8.380
 6074TIP3    H239782   3.880   2.646   8.480
 6075TIP3   OH239783   0.067   0.920   7.175
 6075TIP3    H139784   0.002   0.987   7.158
 6075TIP3    H239785   0.019   0.838   7.171
 6076TIP3   OH239786   6.204   0.286   7.062
 6076TIP3    H139787   6.113   0.295   7.032
 6076TIP3    H239788   6.202   0.215   7.125
 6077TIP3   OH239789   1.977   3.576   1.133
 6077TIP3    H139790   2.022   3.628   1.199
 6077TIP3    H239791   1.997   3.485   1.155
 6078TIP3   OH239792   2.281   3.766   1.755
 6078TIP3    H139793   2.300   3.831   1.823
 6078TIP3    H239794   2.191   3.739   1.772
 6079TIP3   OH239795   2.068   1.402   6.926
 6079TIP3    H139796   2.054   1.332   6.989
 6079TIP3    H239797   2.145   1.376   6.877
 6080TIP3   OH239798   1.390   1.406   7.632
 6080TIP3    H139799   1.364   1.345   7.563
 6080TIP3    H239800   1.309   1.452   7.654
 6081TIP3   OH239801   5.746   2.088   1.348
 6081TIP3    H139802   5.750   2.073   1.253
 6081TIP3    H239803   5.772   2.004   1.387
 6082TIP3   OH239804   2.200   4.015   8.380
 6082TIP3    H139805   2.170   3.931   8.415
 6082TIP3    H239806   2.174   4.079   8.446
 6083TIP3   OH239807   4.461   2.755   8.029
 6083TIP3    H139808   4.373   2.744   7.994
 6083TIP3    H239809   4.448   2.764   8.124
 6084TIP3   OH239810   2.243   1.306   1.373
 6084TIP3    H139811   2.325   1.349   1.399
 6084TIP3    H239812   2.266   1.256   1.295
 6085TIP3   OH239813   2.459   0.192   7.295
 6085TIP3    H139814   2.446   0.098   7.306
 6085TIP3    H239815   2.379   0.232   7.329
 6086TIP3   OH239816   6.268   2.542   6.386
 6086TIP3    H139817   6.278   2.448   6.371
 6086TIP3    H239818   6.175   2.559   6.371
 6087TIP3   OH239819   4.229   6.497   1.388
 6087TIP3    H139820   4.210   6.413   1.430
 6087TIP3    H239821   4.143   6.538   1.378
 6088TIP3   OH239822   3.926   1.341   7.583
 6088TIP3    H139823   3.862   1.408   7.608
 6088TIP3    H239824   3.963   1.311   7.666
 6089TIP3   OH239825   0.326   3.297   0.396
 6089TIP3    H139826   0.265   3.253   0.454
 6089TIP3    H239827   0.377   3.225   0.357
 6090TIP3   OH239828   1.022   6.252   7.671
 6090TIP3    H139829   1.044   6.244   7.764
 6090TIP3    H239830   1.013   6.346   7.656
 6091TIP3   OH239831   6.303   1.959   7.814
 6091TIP3    H139832   6.234   1.893   7.822
 6091TIP3    H239833   6.339   1.967   7.902
 6092TIP3   OH239834   6.817   6.799   6.222
 6092TIP3    H139835   6.865   6.764   6.297
 6092TIP3    H239836   6.829   6.894   6.227
 6093TIP3   OH239837   2.332   4.536   1.927
 6093TIP3    H139838   2.307   4.609   1.984
 6093TIP3    H239839   2.288   4.460   1.965
 6094TIP3   OH239840   3.341   3.481   1.677
 6094TIP3    H139841   3.385   3.412   1.726
 6094TIP3    H239842   3.283   3.522   1.741
 6095TIP3   OH239843   3.420   0.425   6.883
 6095TIP3    H139844   3.449   0.507   6.843
 6095TIP3    H239845   3.417   0.444   6.977
 6096TIP3   OH239846   6.135   6.576   2.597
 6096TIP3    H139847   6.191   6.635   2.547
 6096TIP3    H239848   6.193   6.533   2.660
 6097TIP3   OH239849   3.856   0.822   8.519
 6097TIP3    H139850   3.897   0.876   0.020
 6097TIP3    H239851   3.928   0.769   8.485
 6098TIP3   OH239852   4.042   1.223   0.559
 6098TIP3    H139853   3.971   1.285   0.542
 6098TIP3    H239854   4.118   1.279   0.577
 6099TIP3   OH239855   2.011   3.446   7.721
 6099TIP3    H139856   2.008   3.361   7.677
 6099TIP3    H239857   2.097   3.482   7.697
 6100TIP3   OH239858   6.421   5.278   7.321
 6100TIP3    H139859   6.394   5.359   7.277
 6100TIP3    H239860   6.365   5.274   7.399
 6101TIP3   OH239861   2.618   1.001   6.934
 6101TIP3    H139862   2.595   0.954   6.853
 6101TIP3    H239863   2.560   1.077   6.934
 6102TIP3   OH239864   2.233   2.077   6.065
 6102TIP3    H139865   2.205   2.008   6.005
 6102TIP3    H239866   2.202   2.158   6.025
 6103TIP3   OH239867   2.123   6.229   1.771
 6103TIP3    H139868   2.130   6.235   1.867
 6103TIP3    H239869   2.202   6.181   1.745
 6104TIP3   OH239870   5.160   1.797   2.059
 6104TIP3    H139871   5.126   1.884   2.041
 6104TIP3    H239872   5.245   1.794   2.015
 6105TIP3   OH239873   4.884   4.280   0.331
 6105TIP3    H139874   4.838   4.224   0.269
 6105TIP3    H239875   4.973   4.285   0.297
 6106TIP3   OH239876   3.415   5.247   0.764
 6106TIP3    H139877   3.467   5.241   0.844
 6106TIP3    H239878   3.337   5.195   0.781
 6107TIP3   OH239879   6.108   3.213   1.935
 6107TIP3    H139880   6.090   3.306   1.946
 6107TIP3    H239881   6.033   3.168   1.974
 6108TIP3   OH239882   5.447   1.706   0.961
 6108TIP3    H139883   5.354   1.706   0.985
 6108TIP3    H239884   5.453   1.640   0.892
 6109TIP3   OH239885   2.729   3.315   7.959
 6109TIP3    H139886   2.751   3.333   7.867
 6109TIP3    H239887   2.753   3.223   7.972
 6110TIP3   OH239888   0.536   1.911   7.469
 6110TIP3    H139889   0.583   1.835   7.504
 6110TIP3    H239890   0.575   1.926   7.383
 6111TIP3   OH239891   4.427   1.493   7.877
 6111TIP3    H139892   4.492   1.546   7.832
 6111TIP3    H239893   4.451   1.498   7.969
 6112TIP3   OH239894   5.780   2.157   8.013
 6112TIP3    H139895   5.808   2.066   8.019
 6112TIP3    H239896   5.693   2.153   7.972
 6113TIP3   OH239897   5.255   3.460   1.197
 6113TIP3    H139898   5.292   3.454   1.285
 6113TIP3    H239899   5.223   3.550   1.190
 6114TIP3   OH239900   6.508   6.196   1.263
 6114TIP3    H139901   6.554   6.121   1.302
 6114TIP3    H239902   6.573   6.266   1.263
 6115TIP3   OH239903   2.376   3.774   8.064
 6115TIP3    H139904   2.300   3.738   8.018
 6115TIP3    H239905   2.392   3.711   8.134
 6116TIP3   OH239906   3.657   5.242   8.207
 6116TIP3    H139907   3.646   5.179   8.278
 6116TIP3    H239908   3.693   5.320   8.248
 6117TIP3   OH239909   6.399   4.807   7.596
 6117TIP3    H139910   6.487   4.809   7.558
 6117TIP3    H239911   6.378   4.714   7.602
 6118TIP3   OH239912   0.509   4.128   0.125
 6118TIP3    H139913   0.569   4.139   0.051
 6118TIP3    H239914   0.422   4.134   0.086
 6119TIP3   OH239915   0.507   1.550   1.865
 6119TIP3    H139916   0.595   1.515   1.878
 6119TIP3    H239917   0.474   1.566   1.954
 6120TIP3   OH239918   3.684   0.209   1.110
 6120TIP3    H139919   3.637   0.176   1.187
 6120TIP3    H239920   3.741   0.136   1.084
 6121TIP3   OH239921   2.428   2.648   0.463
 6121TIP3    H139922   2.442   2.580   0.529
 6121TIP3    H239923   2.415   2.600   0.381
 6122TIP3   OH239924   3.990   6.553   1.312
 6122TIP3    H139925   3.962   6.510   1.231
 6122TIP3    H239926   3.931   6.518   1.379
 6123TIP3   OH239927   1.183   1.219   2.017
 6123TIP3    H139928   1.089   1.234   2.005
 6123TIP3    H239929   1.188   1.148   2.081
 6124TIP3   OH239930   2.983   0.031   0.201
 6124TIP3    H139931   2.961   0.098   0.137
 6124TIP3    H239932   2.908   6.881   0.201
 6125TIP3   OH239933   3.046   3.155   0.651
 6125TIP3    H139934   3.037   3.229   0.591
 6125TIP3    H239935   3.105   3.094   0.607
 6126TIP3   OH239936   1.466   5.706   8.476
 6126TIP3    H139937   1.548   5.749   8.450
 6126TIP3    H239938   1.482   5.675   8.565
 6127TIP3   OH239939   0.018   0.984   6.640
 6127TIP3    H139940   0.083   1.043   6.602
 6127TIP3    H239941   0.040   0.979   6.733
 6128TIP3   OH239942   3.395   0.384   0.737
 6128TIP3    H139943   3.319   0.354   0.786
 6128TIP3    H239944   3.461   0.317   0.753
 6129TIP3   OH239945   5.089   4.526   0.976
 6129TIP3    H139946   5.035   4.568   1.042
 6129TIP3    H239947   5.104   4.437   1.009
 6130TIP3   OH239948   0.039   0.283   0.500
 6130TIP3    H139949   0.059   0.338   0.424
 6130TIP3    H239950   0.058   0.194   0.471
 6131TIP3   OH239951   2.301   5.754   6.509
 6131TIP3    H139952   2.233   5.791   6.564
 6131TIP3    H239953   2.259   5.681   6.464
 6132TIP3   OH239954   6.858   0.647   0.073
 6132TIP3    H139955   0.025   0.628   0.128
 6132TIP3    H239956   6.882   0.727   0.026
 6133TIP3   OH239957   4.891   2.472   8.327
 6133TIP3    H139958   4.815   2.452   8.381
 6133TIP3    H239959   4.896   2.398   8.265
 6134TIP3   OH239960   5.633   3.311   7.394
 6134TIP3    H139961   5.595   3.330   7.308
 6134TIP3    H239962   5.574   3.355   7.456
 6135TIP3   OH239963   2.044   4.903   0.437
 6135TIP3    H139964   2.037   4.998   0.431
 6135TIP3    H239965   2.138   4.885   0.438
 6136TIP3   OH239966   0.791   1.959   6.536
 6136TIP3    H139967   0.744   2.028   6.489
 6136TIP3    H239968   0.883   1.983   6.527
 6137TIP3   OH239969   6.633   1.590   7.604
 6137TIP3    H139970   6.639   1.639   7.686
 6137TIP3    H239971   6.720   1.554   7.590
 6138TIP3   OH239972   6.499   6.501   6.383
 6138TIP3    H139973   6.460   6.481   6.298
 6138TIP3    H239974   6.481   6.423   6.436
 6139TIP3   OH239975   1.767   6.040   0.498
 6139TIP3    H139976   1.786   6.025   0.405
 6139TIP3    H239977   1.832   5.987   0.544
 6140TIP3   OH239978   1.926   1.797   1.769
 6140TIP3    H139979   1.875   1.816   1.848
 6140TIP3    H239980   1.920   1.703   1.758
 6141TIP3   OH239981   2.279   5.800   0.505
 6141TIP3    H139982   2.233   5.719   0.482
 6141TIP3    H239983   2.344   5.811   0.436
 6142TIP3   OH239984   3.308   4.609   0.488
 6142TIP3    H139985   3.225   4.625   0.533
 6142TIP3    H239986   3.342   4.529   0.527
 6143TIP3   OH239987   0.004   6.765   7.402
 6143TIP3    H139988   0.092   6.764   7.364
 6143TIP3    H239989   6.884   6.674   7.396
 6144TIP3   OH239990   1.621   6.539   2.277
 6144TIP3    H139991   1.697   6.503   2.231
 6144TIP3    H239992   1.655   6.560   2.365
 6145TIP3   OH239993   5.228   3.607   0.862
 6145TIP3    H139994   5.146   3.584   0.906
 6145TIP3    H239995   5.295   3.559   0.910
 6146TIP3   OH239996   3.169   3.958   7.959
 6146TIP3    H139997   3.178   4.027   7.893
 6146TIP3    H239998   3.255   3.955   8.003
 6147TIP3   OH239999   1.203   1.932   8.075
 6147TIP3    H140000   1.142   2.005   8.081
 6147TIP3    H240001   1.172   1.881   8.000
 6148TIP3   OH240002   6.880   2.690   6.283
 6148TIP3    H140003   0.023   2.668   6.206
 6148TIP3    H240004   6.874   2.786   6.283
 6149TIP3   OH240005   6.100   1.292   6.771
 6149TIP3    H140006   6.140   1.275   6.857
 6149TIP3    H240007   6.034   1.358   6.789
 6150TIP3   OH240008   6.632   3.725   0.411
 6150TIP3    H140009   6.650   3.745   0.320
 6150TIP3    H240010   6.709   3.678   0.442
 6151TIP3   OH240011   3.901   2.952   2.128
 6151TIP3    H140012   3.983   2.997   2.147
 6151TIP3    H240013   3.869   2.922   2.213
 6152TIP3   OH240014   3.586   6.388   7.360
 6152TIP3    H140015   3.577   6.421   7.450
 6152TIP3    H240016   3.673   6.415   7.332
 6153TIP3   OH240017   1.931   6.531   0.726
 6153TIP3    H140018   1.900   6.616   0.697
 6153TIP3    H240019   2.022   6.545   0.750
 6154TIP3   OH240020   3.074   3.444   1.238
 6154TIP3    H140021   3.003   3.465   1.177
 6154TIP3    H240022   3.078   3.348   1.237
 6155TIP3   OH240023   0.639   6.657   7.071
 6155TIP3    H140024   0.710   6.653   7.006
 6155TIP3    H240025   0.592   6.575   7.060
 6156TIP3   OH240026   3.945   3.278   7.579
 6156TIP3    H140027   3.978   3.191   7.558
 6156TIP3    H240028   3.951   3.283   7.675
 6157TIP3   OH240029   5.307   6.084   7.373
 6157TIP3    H140030   5.320   6.153   7.308
 6157TIP3    H240031   5.243   6.025   7.333
 6158TIP3   OH240032   5.441   6.281   1.027
 6158TIP3    H140033   5.406   6.223   1.094
 6158TIP3    H240034   5.364   6.317   0.983
 6159TIP3   OH240035   0.708   2.130   1.022
 6159TIP3    H140036   0.710   2.054   1.081
 6159TIP3    H240037   0.801   2.149   1.005
 6160TIP3   OH240038   6.235   3.056   1.374
 6160TIP3    H140039   6.305   3.084   1.433
 6160TIP3    H240040   6.170   3.125   1.379
 6161TIP3   OH240041   4.961   2.456   0.684
 6161TIP3    H140042   4.979   2.432   0.593
 6161TIP3    H240043   4.878   2.504   0.681
 6162TIP3   OH240044   5.196   6.786   0.579
 6162TIP3    H140045   5.290   6.769   0.566
 6162TIP3    H240046   5.173   6.846   0.508
 6163TIP3   OH240047   6.776   5.422   8.396
 6163TIP3    H140048   6.764   5.498   8.454
 6163TIP3    H240049   6.848   5.373   8.436
 6164TIP3   OH240050   5.108   4.378   7.267
 6164TIP3    H140051   5.066   4.369   7.353
 6164TIP3    H240052   5.058   4.319   7.210
 6165TIP3   OH240053   4.310   1.772   1.919
 6165TIP3    H140054   4.307   1.709   1.991
 6165TIP3    H240055   4.397   1.812   1.924
 6166TIP3   OH240056   1.687   4.005   6.442
 6166TIP3    H140057   1.675   3.936   6.507
 6166TIP3    H240058   1.731   4.076   6.489
 6167TIP3   OH240059   6.844   4.095   1.859
 6167TIP3    H140060   6.789   4.147   1.917
 6167TIP3    H240061   6.872   4.021   1.912
 6168TIP3   OH240062   6.497   2.630   6.941
 6168TIP3    H140063   6.525   2.639   7.032
 6168TIP3    H240064   6.526   2.710   6.899
 6169TIP3   OH240065   3.609   6.455   6.445
 6169TIP3    H140066   3.544   6.507   6.397
 6169TIP3    H240067   3.645   6.514   6.511
 6170TIP3   OH240068   0.791   1.801   2.420
 6170TIP3    H140069   0.747   1.793   2.335
 6170TIP3    H240070   0.769   1.889   2.450
 6171TIP3   OH240071   2.083   0.670   2.240
 6171TIP3    H140072   2.138   0.630   2.172
 6171TIP3    H240073   2.105   0.763   2.237
 6172TIP3   OH240074   3.650   2.281   6.485
 6172TIP3    H140075   3.725   2.225   6.504
 6172TIP3    H240076   3.582   2.220   6.455
 6173TIP3   OH240077   4.836   5.107   7.973
 6173TIP3    H140078   4.876   5.151   7.898
 6173TIP3    H240079   4.881   5.023   7.978
 6174TIP3   OH240080   3.994   3.467   0.613
 6174TIP3    H140081   4.073   3.485   0.664
 6174TIP3    H240082   3.931   3.435   0.678
 6175TIP3   OH240083   6.567   4.494   1.991
 6175TIP3    H140084   6.484   4.501   2.037
 6175TIP3    H240085   6.614   4.574   2.013
 6176TIP3   OH240086   2.264   6.809   8.534
 6176TIP3    H140087   2.182   6.842   0.003
 6176TIP3    H240088   2.238   6.753   8.460
 6177TIP3   OH240089   0.738   0.705   0.671
 6177TIP3    H140090   0.671   0.643   0.702
 6177TIP3    H240091   0.811   0.649   0.645
 6178TIP3   OH240092   0.097   1.951   1.760
 6178TIP3    H140093   0.139   1.896   1.693
 6178TIP3    H240094   0.016   1.981   1.719
 6179TIP3   OH240095   4.075   4.674   6.850
 6179TIP3    H140096   3.984   4.699   6.839
 6179TIP3    H240097   4.096   4.624   6.771
 6180TIP3   OH240098   1.500   4.792   1.712
 6180TIP3    H140099   1.583   4.745   1.707
 6180TIP3    H240100   1.442   4.734   1.761
 6181TIP3   OH240101   6.376   6.750   6.997
 6181TIP3    H140102   6.396   6.677   6.939
 6181TIP3    H240103   6.293   6.785   6.965
 6182TIP3   OH240104   4.787   4.958   0.901
 6182TIP3    H140105   4.810   4.981   0.811
 6182TIP3    H240106   4.810   4.866   0.910
 6183TIP3   OH240107   3.643   2.377   7.572
 6183TIP3    H140108   3.672   2.458   7.614
 6183TIP3    H240109   3.583   2.405   7.503
 6184TIP3   OH240110   6.855   3.759   7.640
 6184TIP3    H140111   6.857   3.782   7.733
 6184TIP3    H240112   0.034   3.777   7.609
 6185TIP3   OH240113   6.046   3.912   1.029
 6185TIP3    H140114   6.069   3.826   1.065
 6185TIP3    H240115   6.001   3.956   1.101
 6186TIP3   OH240116   5.875   6.620   2.657
 6186TIP3    H140117   5.873   6.713   2.636
 6186TIP3    H240118   5.965   6.593   2.637
 6187TIP3   OH240119   4.885   4.677   1.740
 6187TIP3    H140120   4.880   4.620   1.663
 6187TIP3    H240121   4.969   4.655   1.780
 6188TIP3   OH240122   3.479   3.654   7.749
 6188TIP3    H140123   3.456   3.562   7.737
 6188TIP3    H240124   3.574   3.657   7.737
 6189TIP3   OH240125   5.523   0.233   1.788
 6189TIP3    H140126   5.448   0.234   1.728
 6189TIP3    H240127   5.484   0.225   1.875
 6190TIP3   OH240128   0.496   5.015   7.675
 6190TIP3    H140129   0.553   5.077   7.720
 6190TIP3    H240130   0.556   4.951   7.638
 6191TIP3   OH240131   2.667   0.807   1.091
 6191TIP3    H140132   2.632   0.869   1.027
 6191TIP3    H240133   2.591   0.754   1.117
 6192TIP3   OH240134   3.536   0.881   6.690
 6192TIP3    H140135   3.615   0.871   6.637
 6192TIP3    H240136   3.487   0.950   6.646
 6193TIP3   OH240137   4.468   6.743   1.684
 6193TIP3    H140138   4.530   6.776   1.748
 6193TIP3    H240139   4.403   6.694   1.735
 6194TIP3   OH240140   3.850   3.508   6.036
 6194TIP3    H140141   3.912   3.476   6.102
 6194TIP3    H240142   3.900   3.572   5.985
 6195TIP3   OH240143   5.318   6.668   7.936
 6195TIP3    H140144   5.317   6.719   8.018
 6195TIP3    H240145   5.248   6.605   7.947
 6196TIP3   OH240146   3.659   3.080   0.788
 6196TIP3    H140147   3.698   3.013   0.844
 6196TIP3    H240148   3.709   3.159   0.806
 6197TIP3   OH240149   3.709   0.469   6.641
 6197TIP3    H140150   3.668   0.538   6.589
 6197TIP3    H240151   3.794   0.505   6.667
 6198TIP3   OH240152   5.490   2.712   0.070
 6198TIP3    H140153   5.498   2.791   0.123
 6198TIP3    H240154   5.541   2.731   8.558
 6199TIP3   OH240155   2.368   4.723   6.960
 6199TIP3    H140156   2.308   4.653   6.936
 6199TIP3    H240157   2.316   4.781   7.015
 6200TIP3   OH240158   6.372   1.744   1.735
 6200TIP3    H140159   6.342   1.711   1.819
 6200TIP3    H240160   6.430   1.675   1.702
 6201TIP3   OH240161   2.919   0.758   7.434
 6201TIP3    H140162   2.860   0.711   7.493
 6201TIP3    H240163   2.957   0.690   7.379
 6202TIP3   OH240164   5.272   5.752   1.648
 6202TIP3    H140165   5.349   5.786   1.602
 6202TIP3    H240166   5.200   5.767   1.587
 6203TIP3   OH240167   6.272   5.906   8.285
 6203TIP3    H140168   6.233   5.906   8.198
 6203TIP3    H240169   6.299   5.815   8.299
 6204TIP3   OH240170   0.536   6.414   8.404
 6204TIP3    H140171   0.526   6.360   8.482
 6204TIP3    H240172   0.613   6.468   8.420
 6205TIP3   OH240173   4.411   3.554   7.985
 6205TIP3    H140174   4.382   3.602   8.063
 6205TIP3    H240175   4.332   3.542   7.933
 6206TIP3   OH240176   1.353   4.612   1.304
 6206TIP3    H140177   1.413   4.571   1.368
 6206TIP3    H240178   1.404   4.616   1.224
 6207TIP3   OH240179   1.450   2.818   6.742
 6207TIP3    H140180   1.465   2.732   6.702
 6207TIP3    H240181   1.418   2.872   6.670
 6208TIP3   OH240182   6.523   3.700   7.506
 6208TIP3    H140183   6.478   3.763   7.450
 6208TIP3    H240184   6.492   3.719   7.595
 6209TIP3   OH240185   1.454   5.743   1.275
 6209TIP3    H140186   1.393   5.676   1.305
 6209TIP3    H240187   1.431   5.757   1.184
 6210TIP3   OH240188   2.717   0.139   0.264
 6210TIP3    H140189   2.718   0.185   0.180
 6210TIP3    H240190   2.625   0.118   0.279
 6211TIP3   OH240191   6.107   2.219   1.126
 6211TIP3    H140192   6.161   2.283   1.080
 6211TIP3    H240193   6.163   2.142   1.135
 6212TIP3   OH240194   2.955   1.145   0.414
 6212TIP3    H140195   2.978   1.105   0.497
 6212TIP3    H240196   3.018   1.110   0.352
 6213TIP3   OH240197   4.221   4.153   2.025
 6213TIP3    H140198   4.135   4.134   1.988
 6213TIP3    H240199   4.230   4.248   2.020
 6214TIP3   OH240200   6.109   6.654   1.445
 6214TIP3    H140201   6.101   6.743   1.479
 6214TIP3    H240202   6.203   6.638   1.440
 6215TIP3   OH240203   0.531   4.912   6.725
 6215TIP3    H140204   0.597   4.848   6.700
 6215TIP3    H240205   0.577   4.996   6.725
 6216TIP3   OH240206   6.581   2.076   8.548
 6216TIP3    H140207   6.639   2.087   8.473
 6216TIP3    H240208   6.577   2.162   0.022
 6217TIP3   OH240209   4.337   2.803   1.653
 6217TIP3    H140210   4.309   2.765   1.737
 6217TIP3    H240211   4.395   2.737   1.615
 6218TIP3   OH240212   0.200   5.021   1.296
 6218TIP3    H140213   0.257   5.059   1.229
 6218TIP3    H240214   0.163   4.943   1.253
 6219TIP3   OH240215   6.299   5.475   6.538
 6219TIP3    H140216   6.387   5.447   6.513
 6219TIP3    H240217   6.252   5.394   6.554
 6220TIP3   OH240218   2.809   4.672   7.120
 6220TIP3    H140219   2.767   4.752   7.150
 6220TIP3    H240220   2.737   4.613   7.099
 6221TIP3   OH240221   5.070   5.190   1.893
 6221TIP3    H140222   5.159   5.164   1.868
 6221TIP3    H240223   5.015   5.157   1.822
 6222TIP3   OH240224   0.106   3.411   6.963
 6222TIP3    H140225   0.150   3.494   6.942
 6222TIP3    H240226   0.172   3.360   7.009
 6223TIP3   OH240227   4.347   5.646   1.474
 6223TIP3    H140228   4.382   5.557   1.466
 6223TIP3    H240229   4.422   5.699   1.502
 6224TIP3   OH240230   4.355   3.944   1.466
 6224TIP3    H140231   4.289   3.991   1.415
 6224TIP3    H240232   4.315   3.931   1.552
 6225TIP3   OH240233   0.305   3.309   7.097
 6225TIP3    H140234   0.375   3.374   7.103
 6225TIP3    H240235   0.346   3.227   7.126
 6226TIP3   OH240236   1.888   3.498   1.741
 6226TIP3    H140237   1.904   3.481   1.648
 6226TIP3    H240238   1.897   3.412   1.783
 6227TIP3   OH240239   4.150   4.652   8.190
 6227TIP3    H140240   4.112   4.564   8.180
 6227TIP3    H240241   4.244   4.636   8.195
 6228TIP3   OH240242   2.465   3.986   0.058
 6228TIP3    H140243   2.422   4.002   0.142
 6228TIP3    H240244   2.543   4.042   0.060
 6229TIP3   OH240245   4.394   5.804   8.081
 6229TIP3    H140246   4.391   5.710   8.100
 6229TIP3    H240247   4.418   5.808   7.988
 6230TIP3   OH240248   1.823   2.014   2.139
 6230TIP3    H140249   1.762   2.049   2.075
 6230TIP3    H240250   1.814   1.919   2.132
 6231TIP3   OH240251   0.991   0.175   7.515
 6231TIP3    H140252   0.990   0.266   7.485
 6231TIP3    H240253   1.067   0.137   7.472
 6232TIP3   OH240254   1.670   2.307   0.831
 6232TIP3    H140255   1.677   2.279   0.739
 6232TIP3    H240256   1.759   2.329   0.856
 6233TIP3   OH240257   5.927   3.831   7.803
 6233TIP3    H140258   5.963   3.868   7.722
 6233TIP3    H240259   5.993   3.850   7.869
 6234TIP3   OH240260   0.713   6.072   8.138
 6234TIP3    H140261   0.804   6.103   8.148
 6234TIP3    H240262   0.677   6.076   8.226
 6235TIP3   OH240263   5.476   2.930   1.396
 6235TIP3    H140264   5.423   3.008   1.381
 6235TIP3    H240265   5.559   2.948   1.351
 6236TIP3   OH240266   3.281   2.532   2.226
 6236TIP3    H140267   3.297   2.439   2.245
 6236TIP3    H240268   3.361   2.576   2.255
 6237TIP3   OH240269   1.972   5.671   7.299
 6237TIP3    H140270   2.040   5.661   7.233
 6237TIP3    H240271   1.922   5.589   7.294
 6238TIP3   OH240272   4.889   6.688   1.675
 6238TIP3    H140273   4.899   6.779   1.704
 6238TIP3    H240274   4.874   6.639   1.756
 6239TIP3   OH240275   0.303   1.901   7.327
 6239TIP3    H140276   0.326   1.954   7.250
 6239TIP3    H240277   0.368   1.924   7.393
 6240TIP3   OH240278   0.646   6.903   1.230
 6240TIP3    H140279   0.589   0.060   1.193
 6240TIP3    H240280   0.655   6.837   1.161
 6241TIP3   OH240281   5.758   0.086   1.235
 6241TIP3    H140282   5.828   0.032   1.197
 6241TIP3    H240283   5.775   0.085   1.329
 6242TIP3   OH240284   5.868   4.238   0.480
 6242TIP3    H140285   5.789   4.230   0.533
 6242TIP3    H240286   5.940   4.231   0.544
 6243TIP3   OH240287   4.271   0.851   1.184
 6243TIP3    H140288   4.235   0.936   1.210
 6243TIP3    H240289   4.248   0.843   1.092
 6244TIP3   OH240290   1.766   5.356   2.424
 6244TIP3    H140291   1.690   5.353   2.481
 6244TIP3    H240292   1.733   5.387   2.340
 6245TIP3   OH240293   1.476   0.597   6.987
 6245TIP3    H140294   1.409   0.599   6.919
 6245TIP3    H240295   1.460   0.676   7.039
 6246TIP3   OH240296   3.303   1.642   8.159
 6246TIP3    H140297   3.275   1.590   8.234
 6246TIP3    H240298   3.281   1.588   8.083
 6247TIP3   OH240299   6.853   0.880   1.859
 6247TIP3    H140300   6.763   0.889   1.828
 6247TIP3    H240301   6.849   0.812   1.927
 6248TIP3   OH240302   0.002   6.398   6.743
 6248TIP3    H140303   0.024   6.360   6.658
 6248TIP3    H240304   0.055   6.478   6.749
 6249TIP3   OH240305   1.223   3.152   1.832
 6249TIP3    H140306   1.151   3.122   1.888
 6249TIP3    H240307   1.289   3.084   1.838
 6250TIP3   OH240308   5.626   4.586   6.773
 6250TIP3    H140309   5.675   4.533   6.711
 6250TIP3    H240310   5.562   4.633   6.720
 6251TIP3   OH240311   0.405   1.120   8.237
 6251TIP3    H140312   0.391   1.199   8.185
 6251TIP3    H240313   0.331   1.063   8.215
 6252TIP3   OH240314   0.768   3.341   7.410
 6252TIP3    H140315   0.740   3.391   7.333
 6252TIP3    H240316   0.759   3.402   7.483
 6253TIP3   OH240317   1.907   1.729   6.837
 6253TIP3    H140318   1.953   1.774   6.765
 6253TIP3    H240319   1.821   1.770   6.839
 6254TIP3   OH240320   6.075   1.244   6.503
 6254TIP3    H140321   6.066   1.276   6.593
 6254TIP3    H240322   6.168   1.225   6.493
 6255TIP3   OH240323   3.431   2.993   0.224
 6255TIP3    H140324   3.337   3.002   0.209
 6255TIP3    H240325   3.437   2.945   0.307
 6256TIP3   OH240326   0.714   3.731   0.747
 6256TIP3    H140327   0.780   3.686   0.694
 6256TIP3    H240328   0.652   3.766   0.682
 6257TIP3   OH240329   3.301   0.283   7.708
 6257TIP3    H140330   3.244   0.284   7.785
 6257TIP3    H240331   3.376   0.336   7.733
 6258TIP3   OH240332   0.936   6.212   8.243
 6258TIP3    H140333   0.882   6.211   8.322
 6258TIP3    H240334   1.007   6.150   8.262
 6259TIP3   OH240335   4.543   2.829   7.759
 6259TIP3    H140336   4.634   2.858   7.766
 6259TIP3    H240337   4.523   2.791   7.844
 6260TIP3   OH240338   2.121   6.584   6.910
 6260TIP3    H140339   2.133   6.495   6.877
 6260TIP3    H240340   2.114   6.638   6.831
 6261TIP3   OH240341   6.248   1.335   0.108
 6261TIP3    H140342   6.293   1.255   0.136
 6261TIP3    H240343   6.316   1.402   0.108
 6262TIP3   OH240344   6.867   0.150   0.750
 6262TIP3    H140345   0.016   0.117   0.819
 6262TIP3    H240346   0.010   0.217   0.705
 6263TIP3   OH240347   5.915   6.348   0.416
 6263TIP3    H140348   6.007   6.322   0.407
 6263TIP3    H240349   5.887   6.306   0.498
 6264TIP3   OH240350   1.618   3.363   1.790
 6264TIP3    H140351   1.700   3.345   1.838
 6264TIP3    H240352   1.645   3.416   1.715
 6265TIP3   OH240353   5.686   0.511   1.022
 6265TIP3    H140354   5.660   0.572   1.091
 6265TIP3    H240355   5.679   0.562   0.941
 6266TIP3   OH240356   2.656   3.631   8.042
 6266TIP3    H140357   2.626   3.669   7.960
 6266TIP3    H240358   2.585   3.571   8.068
 6267TIP3   OH240359   5.699   4.372   1.130
 6267TIP3    H140360   5.635   4.325   1.183
 6267TIP3    H240361   5.647   4.417   1.063
 6268TIP3   OH240362   0.060   2.852   7.976
 6268TIP3    H140363   0.121   2.902   8.030
 6268TIP3    H240364   0.093   2.862   7.887
 6269TIP3   OH240365   1.897   0.402   0.790
 6269TIP3    H140366   1.805   0.376   0.782
 6269TIP3    H240367   1.938   0.330   0.838
 6270TIP3   OH240368   3.878   6.174   1.455
 6270TIP3    H140369   3.841   6.253   1.415
 6270TIP3    H240370   3.970   6.176   1.431
 6271TIP3   OH240371   3.787   1.688   1.084
 6271TIP3    H140372   3.751   1.599   1.089
 6271TIP3    H240373   3.715   1.744   1.113
 6272TIP3   OH240374   1.460   0.687   1.112
 6272TIP3    H140375   1.451   0.783   1.106
 6272TIP3    H240376   1.546   0.674   1.153
 6273TIP3   OH240377   4.668   1.339   1.339
 6273TIP3    H140378   4.633   1.301   1.419
 6273TIP3    H240379   4.745   1.389   1.367
 6274TIP3   OH240380   3.569   5.655   6.513
 6274TIP3    H140381   3.660   5.636   6.490
 6274TIP3    H240382   3.519   5.631   6.435
 6275TIP3   OH240383   3.336   4.913   1.258
 6275TIP3    H140384   3.347   4.872   1.173
 6275TIP3    H240385   3.310   5.003   1.238
 6276TIP3   OH240386   5.314   1.010   6.815
 6276TIP3    H140387   5.335   1.038   6.726
 6276TIP3    H240388   5.265   1.084   6.852
 6277TIP3   OH240389   4.402   0.162   1.197
 6277TIP3    H140390   4.344   0.201   1.131
 6277TIP3    H240391   4.489   0.189   1.170
 6278TIP3   OH240392   3.620   5.784   2.278
 6278TIP3    H140393   3.682   5.732   2.329
 6278TIP3    H240394   3.566   5.719   2.232
 6279TIP3   OH240395   3.667   0.361   2.238
 6279TIP3    H140396   3.629   0.386   2.154
 6279TIP3    H240397   3.651   0.436   2.295
 6280TIP3   OH240398   4.055   2.727   7.490
 6280TIP3    H140399   4.100   2.791   7.545
 6280TIP3    H240400   3.963   2.755   7.490
 6281TIP3   OH240401   6.323   4.683   8.267
 6281TIP3    H140402   6.358   4.677   8.179
 6281TIP3    H240403   6.291   4.773   8.275
 6282TIP3   OH240404   4.959   4.673   0.173
 6282TIP3    H140405   4.998   4.629   0.248
 6282TIP3    H240406   4.996   4.628   0.097
 6283TIP3   OH240407   5.623   5.148   0.258
 6283TIP3    H140408   5.564   5.221   0.273
 6283TIP3    H240409   5.662   5.166   0.172
 6284TIP3   OH240410   4.155   4.906   6.120
 6284TIP3    H140411   4.155   4.980   6.182
 6284TIP3    H240412   4.064   4.895   6.095
 6285TIP3   OH240413   0.363   3.595   2.348
 6285TIP3    H140414   0.439   3.593   2.291
 6285TIP3    H240415   0.397   3.575   2.435
 6286TIP3   OH240416   5.346   5.519   7.920
 6286TIP3    H140417   5.291   5.446   7.890
 6286TIP3    H240418   5.284   5.581   7.959
 6287TIP3   OH240419   3.784   2.450   2.247
 6287TIP3    H140420   3.877   2.437   2.268
 6287TIP3    H240421   3.764   2.384   2.182
 6288TIP3   OH240422   1.078   3.467   0.071
 6288TIP3    H140423   1.117   3.499   0.152
 6288TIP3    H240424   1.152   3.456   0.011
 6289TIP3   OH240425   4.075   0.607   1.249
 6289TIP3    H140426   4.072   0.662   1.327
 6289TIP3    H240427   3.989   0.565   1.246
 6290TIP3   OH240428   4.791   4.215   0.853
 6290TIP3    H140429   4.736   4.137   0.841
 6290TIP3    H240430   4.880   4.183   0.842
 6291TIP3   OH240431   2.544   0.051   6.888
 6291TIP3    H140432   2.621   0.067   6.943
 6291TIP3    H240433   2.540   6.865   6.880
 6292TIP3   OH240434   2.303   6.842   7.898
 6292TIP3    H140435   2.394   6.812   7.896
 6292TIP3    H240436   2.298   6.896   7.977
 6293TIP3   OH240437   2.957   4.616   7.343
 6293TIP3    H140438   2.933   4.538   7.394
 6293TIP3    H240439   2.879   4.635   7.291
 6294TIP3   OH240440   3.699   5.641   1.510
 6294TIP3    H140441   3.762   5.568   1.511
 6294TIP3    H240442   3.614   5.599   1.515
 6295TIP3   OH240443   3.624   0.634   0.358
 6295TIP3    H140444   3.587   0.551   0.327
 6295TIP3    H240445   3.569   0.658   0.433
 6296TIP3   OH240446   2.615   2.198   7.697
 6296TIP3    H140447   2.707   2.198   7.670
 6296TIP3    H240448   2.588   2.290   7.689
 6297TIP3   OH240449   2.497   3.507   8.514
 6297TIP3    H140450   2.525   3.578   8.456
 6297TIP3    H240451   2.471   3.552   0.028
 6298TIP3   OH240452   1.451   0.528   6.463
 6298TIP3    H140453   1.377   0.570   6.418
 6298TIP3    H240454   1.479   0.592   6.528
 6299TIP3   OH240455   1.622   3.008   7.147
 6299TIP3    H140456   1.554   2.949   7.116
 6299TIP3    H240457   1.581   3.095   7.146
 6300TIP3   OH240458   3.252   4.531   8.388
 6300TIP3    H140459   3.346   4.544   8.388
 6300TIP3    H240460   3.222   4.572   8.307
 6301TIP3   OH240461   0.415   2.640   0.423
 6301TIP3    H140462   0.340   2.686   0.386
 6301TIP3    H240463   0.425   2.675   0.511
 6302TIP3   OH240464   0.099   1.909   0.378
 6302TIP3    H140465   0.035   1.960   0.427
 6302TIP3    H240466   0.156   1.871   0.445
 6303TIP3   OH240467   0.415   1.088   1.255
 6303TIP3    H140468   0.412   1.109   1.162
 6303TIP3    H240469   0.329   1.051   1.274
 6304TIP3   OH240470   4.575   0.250   0.231
 6304TIP3    H140471   4.513   0.287   0.168
 6304TIP3    H240472   4.519   0.219   0.303
 6305TIP3   OH240473   1.738   2.561   2.180
 6305TIP3    H140474   1.669   2.531   2.120
 6305TIP3    H240475   1.728   2.656   2.182
 6306TIP3   OH240476   1.167   5.985   8.303
 6306TIP3    H140477   1.167   5.996   8.398
 6306TIP3    H240478   1.228   6.052   8.272
 6307TIP3   OH240479   1.353   0.529   7.519
 6307TIP3    H140480   1.293   0.559   7.586
 6307TIP3    H240481   1.353   0.433   7.527
 6308TIP3   OH240482   6.406   0.360   8.087
 6308TIP3    H140483   6.329   0.394   8.133
 6308TIP3    H240484   6.405   0.407   8.003
 6309TIP3   OH240485   4.042   6.341   6.687
 6309TIP3    H140486   4.027   6.353   6.593
 6309TIP3    H240487   3.956   6.356   6.726
 6310TIP3   OH240488   0.824   1.723   1.027
 6310TIP3    H140489   0.899   1.690   1.076
 6310TIP3    H240490   0.749   1.677   1.064
 6311TIP3   OH240491   1.147   3.262   7.180
 6311TIP3    H140492   1.122   3.353   7.198
 6311TIP3    H240493   1.079   3.210   7.223
 6312TIP3   OH240494   3.877   4.607   0.719
 6312TIP3    H140495   3.816   4.551   0.671
 6312TIP3    H240496   3.894   4.681   0.661
 6313TIP3   OH240497   3.933   3.232   0.814
 6313TIP3    H140498   4.025   3.248   0.836
 6313TIP3    H240499   3.933   3.145   0.773
 6314TIP3   OH240500   0.278   2.736   0.107
 6314TIP3    H140501   0.367   2.704   0.094
 6314TIP3    H240502   0.224   2.656   0.107
 6315TIP3   OH240503   4.200   1.327   0.296
 6315TIP3    H140504   4.157   1.326   0.211
 6315TIP3    H240505   4.199   1.419   0.323
 6316TIP3   OH240506   2.564   2.967   7.196
 6316TIP3    H140507   2.525   2.930   7.117
 6316TIP3    H240508   2.658   2.965   7.179
 6317TIP3   OH240509   5.382   2.112   0.139
 6317TIP3    H140510   5.330   2.187   0.108
 6317TIP3    H240511   5.437   2.148   0.208
 6318TIP3   OH240512   5.565   3.538   6.590
 6318TIP3    H140513   5.611   3.529   6.506
 6318TIP3    H240514   5.571   3.451   6.630
 6319TIP3   OH240515   2.116   4.700   0.216
 6319TIP3    H140516   2.095   4.775   0.160
 6319TIP3    H240517   2.056   4.631   0.187
 6320TIP3   OH240518   6.060   2.954   7.074
 6320TIP3    H140519   6.031   2.892   7.007
 6320TIP3    H240520   6.145   2.921   7.103
 6321TIP3   OH240521   1.753   5.128   0.400
 6321TIP3    H140522   1.681   5.135   0.337
 6321TIP3    H240523   1.779   5.036   0.395
 6322TIP3   OH240524   3.703   4.030   1.066
 6322TIP3    H140525   3.763   3.958   1.084
 6322TIP3    H240526   3.759   4.106   1.051
 6323TIP3   OH240527   5.627   5.155   0.838
 6323TIP3    H140528   5.606   5.068   0.871
 6323TIP3    H240529   5.703   5.142   0.780
 6324TIP3   OH240530   6.183   0.115   7.266
 6324TIP3    H140531   6.222   0.028   7.257
 6324TIP3    H240532   6.112   0.102   7.329
 6325TIP3   OH240533   2.798   0.135   6.475
 6325TIP3    H140534   2.795   0.187   6.394
 6325TIP3    H240535   2.708   0.139   6.509
 6326TIP3   OH240536   6.165   0.824   7.487
 6326TIP3    H140537   6.156   0.760   7.417
 6326TIP3    H240538   6.250   0.806   7.526
 6327TIP3   OH240539   5.740   5.214   7.508
 6327TIP3    H140540   5.806   5.151   7.533
 6327TIP3    H240541   5.682   5.167   7.448
 6328TIP3   OH240542   0.965   3.000   2.277
 6328TIP3    H140543   0.901   2.942   2.317
 6328TIP3    H240544   1.043   2.992   2.332
 6329TIP3   OH240545   0.388   0.291   6.758
 6329TIP3    H140546   0.311   0.345   6.742
 6329TIP3    H240547   0.399   0.240   6.678
 6330TIP3   OH240548   4.326   6.237   1.073
 6330TIP3    H140549   4.387   6.305   1.046
 6330TIP3    H240550   4.382   6.167   1.107
 6331TIP3   OH240551   5.345   5.004   0.588
 6331TIP3    H140552   5.440   5.011   0.577
 6331TIP3    H240553   5.328   4.910   0.596
 6332TIP3   OH240554   3.765   5.156   7.389
 6332TIP3    H140555   3.707   5.144   7.465
 6332TIP3    H240556   3.741   5.086   7.329
 6333TIP3   OH240557   0.954   2.014   0.321
 6333TIP3    H140558   0.892   2.076   0.284
 6333TIP3    H240559   0.901   1.940   0.349
 6334TIP3   OH240560   6.450   0.756   1.450
 6334TIP3    H140561   6.514   0.824   1.428
 6334TIP3    H240562   6.447   0.700   1.373
 6335TIP3   OH240563   2.304   0.932   0.399
 6335TIP3    H140564   2.344   0.874   0.334
 6335TIP3    H240565   2.364   1.006   0.404
 6336TIP3   OH240566   2.122   6.233   2.036
 6336TIP3    H140567   2.061   6.225   2.110
 6336TIP3    H240568   2.184   6.161   2.049
 6337TIP3   OH240569   0.616   5.398   0.495
 6337TIP3    H140570   0.617   5.345   0.415
 6337TIP3    H240571   0.527   5.431   0.502
 6338TIP3   OH240572   1.202   5.455   0.968
 6338TIP3    H140573   1.243   5.430   1.051
 6338TIP3    H240574   1.175   5.371   0.929
 6339TIP3   OH240575   0.115   4.606   6.889
 6339TIP3    H140576   0.061   4.685   6.888
 6339TIP3    H240577   0.075   4.549   6.824
 6340TIP3   OH240578   0.311   6.112   6.456
 6340TIP3    H140579   0.351   6.196   6.434
 6340TIP3    H240580   0.374   6.047   6.423
 6341TIP3   OH240581   2.614   3.053   0.410
 6341TIP3    H140582   2.606   3.032   0.503
 6341TIP3    H240583   2.529   3.090   0.386
 6342TIP3   OH240584   6.226   2.708   1.847
 6342TIP3    H140585   6.291   2.639   1.859
 6342TIP3    H240586   6.157   2.668   1.794
 6343TIP3   OH240587   4.687   0.083   7.884
 6343TIP3    H140588   4.733   0.007   7.848
 6343TIP3    H240589   4.717   0.089   7.975
 6344TIP3   OH240590   5.283   0.702   7.398
 6344TIP3    H140591   5.361   0.757   7.393
 6344TIP3    H240592   5.311   0.616   7.368
 6345TIP3   OH240593   6.199   2.150   8.421
 6345TIP3    H140594   6.236   2.222   8.370
 6345TIP3    H240595   6.253   2.075   8.400
 6346TIP3   OH240596   6.861   1.467   6.654
 6346TIP3    H140597   6.774   1.503   6.670
 6346TIP3    H240598   6.883   1.496   6.565
 6347TIP3   OH240599   3.593   6.033   6.684
 6347TIP3    H140600   3.503   6.067   6.679
 6347TIP3    H240601   3.624   6.034   6.593
 6348TIP3   OH240602   0.122   2.076   1.073
 6348TIP3    H140603   0.050   2.013   1.065
 6348TIP3    H240604   0.080   2.161   1.060
 6349TIP3   OH240605   0.183   2.748   2.250
 6349TIP3    H140606   0.238   2.814   2.293
 6349TIP3    H240607   0.096   2.787   2.248
 6350TIP3   OH240608   0.759   0.776   8.214
 6350TIP3    H140609   0.850   0.798   8.195
 6350TIP3    H240610   0.725   0.742   8.132
 6351TIP3   OH240611   0.337   1.165   0.073
 6351TIP3    H140612   0.386   1.223   0.014
 6351TIP3    H240613   0.396   1.151   0.147
 6352TIP3   OH240614   3.439   1.699   7.387
 6352TIP3    H140615   3.347   1.722   7.374
 6352TIP3    H240616   3.452   1.703   7.482
 6353TIP3   OH240617   2.378   6.361   0.378
 6353TIP3    H140618   2.384   6.336   0.471
 6353TIP3    H240619   2.457   6.412   0.362
 6354TIP3   OH240620   2.325   2.689   6.836
 6354TIP3    H140621   2.257   2.625   6.815
 6354TIP3    H240622   2.397   2.668   6.776
 6355TIP3   OH240623   3.141   5.729   6.329
 6355TIP3    H140624   3.151   5.811   6.280
 6355TIP3    H240625   3.049   5.705   6.316
 6356TIP3   OH240626   5.440   5.131   8.039
 6356TIP3    H140627   5.413   5.217   8.007
 6356TIP3    H240628   5.484   5.090   7.965
 6357TIP3   OH240629   4.209   1.155   8.170
 6357TIP3    H140630   4.203   1.248   8.147
 6357TIP3    H240631   4.152   1.111   8.107
 6358TIP3   OH240632   2.528   4.181   0.510
 6358TIP3    H140633   2.502   4.234   0.434
 6358TIP3    H240634   2.595   4.233   0.554
 6359TIP3   OH240635   2.513   6.776   1.375
 6359TIP3    H140636   2.494   6.853   1.429
 6359TIP3    H240637   2.568   6.809   1.304
 6360TIP3   OH240638   4.067   5.145   7.395
 6360TIP3    H140639   3.973   5.139   7.377
 6360TIP3    H240640   4.083   5.076   7.459
 6361TIP3   OH240641   5.864   1.201   0.264
 6361TIP3    H140642   5.914   1.248   0.330
 6361TIP3    H240643   5.874   1.253   0.184
 6362TIP3   OH240644   3.078   4.085   0.532
 6362TIP3    H140645   3.039   4.020   0.590
 6362TIP3    H240646   3.157   4.043   0.498
 6363TIP3   OH240647   5.765   1.476   7.252
 6363TIP3    H140648   5.691   1.515   7.299
 6363TIP3    H240649   5.816   1.433   7.320
 6364TIP3   OH240650   6.282   5.566   7.619
 6364TIP3    H140651   6.369   5.533   7.594
 6364TIP3    H240652   6.300   5.640   7.677
 6365TIP3   OH240653   0.284   0.707   8.056
 6365TIP3    H140654   0.282   0.619   8.095
 6365TIP3    H240655   0.275   0.691   7.962
 6366TIP3   OH240656   3.294   3.312   8.317
 6366TIP3    H140657   3.340   3.230   8.335
 6366TIP3    H240658   3.275   3.309   8.223
 6367TIP3   OH240659   3.331   6.018   2.300
 6367TIP3    H140660   3.417   6.021   2.259
 6367TIP3    H240661   3.345   6.054   2.387
 6368TIP3   OH240662   2.161   6.302   6.846
 6368TIP3    H140663   2.243   6.257   6.862
 6368TIP3    H240664   2.176   6.353   6.767
 6369TIP3   OH240665   3.486   4.169   5.957
 6369TIP3    H140666   3.510   4.208   5.874
 6369TIP3    H240667   3.491   4.074   5.941
 6370TIP3   OH240668   0.107   2.168   1.974
 6370TIP3    H140669   0.148   2.250   1.947
 6370TIP3    H240670   0.127   2.107   1.903
 6371TIP3   OH240671   3.221   4.029   0.976
 6371TIP3    H140672   3.296   3.969   0.978
 6371TIP3    H240673   3.190   4.032   1.067
 6372TIP3   OH240674   4.838   1.208   6.931
 6372TIP3    H140675   4.875   1.123   6.956
 6372TIP3    H240676   4.750   1.187   6.898
 6373TIP3   OH240677   4.034   5.530   0.786
 6373TIP3    H140678   4.112   5.545   0.733
 6373TIP3    H240679   3.972   5.598   0.758
 6374TIP3   OH240680   6.402   6.835   1.573
 6374TIP3    H140681   6.441   0.007   1.603
 6374TIP3    H240682   6.376   6.853   1.482
 6375TIP3   OH240683   3.071   4.720   1.025
 6375TIP3    H140684   3.149   4.769   1.051
 6375TIP3    H240685   3.077   4.638   1.074
 6376TIP3   OH240686   6.098   4.334   6.686
 6376TIP3    H140687   6.137   4.421   6.674
 6376TIP3    H240688   6.130   4.283   6.612
 6377TIP3   OH240689   4.891   2.017   8.407
 6377TIP3    H140690   4.976   2.042   8.372
 6377TIP3    H240691   4.834   2.011   8.330
 6378TIP3   OH240692   5.765   0.925   7.525
 6378TIP3    H140693   5.821   0.881   7.588
 6378TIP3    H240694   5.825   0.975   7.470
 6379TIP3   OH240695   6.149   5.102   2.013
 6379TIP3    H140696   6.141   5.050   2.094
 6379TIP3    H240697   6.195   5.181   2.040
 6380TIP3   OH240698   6.269   6.659   0.021
 6380TIP3    H140699   6.191   6.680   8.537
 6380TIP3    H240700   6.312   6.589   8.539
 6381TIP3   OH240701   3.974   6.805   8.417
 6381TIP3    H140702   4.006   6.717   8.397
 6381TIP3    H240703   3.960   6.845   8.331
 6382TIP3   OH240704   5.650   5.016   6.438
 6382TIP3    H140705   5.706   5.075   6.387
 6382TIP3    H240706   5.704   4.990   6.512
 6383TIP3   OH240707   0.153   4.341   1.285
 6383TIP3    H140708   0.151   4.399   1.361
 6383TIP3    H240709   0.209   4.268   1.312
 6384TIP3   OH240710   0.980   2.889   8.097
 6384TIP3    H140711   0.913   2.845   8.044
 6384TIP3    H240712   0.941   2.973   8.121
 6385TIP3   OH240713   3.408   4.214   1.108
 6385TIP3    H140714   3.479   4.276   1.090
 6385TIP3    H240715   3.389   4.174   1.023
 6386TIP3   OH240716   0.038   6.870   8.321
 6386TIP3    H140717   0.078   0.047   8.308
 6386TIP3    H240718   6.882   6.883   8.389
 6387TIP3   OH240719   1.763   6.430   6.182
 6387TIP3    H140720   1.733   6.340   6.192
 6387TIP3    H240721   1.813   6.430   6.101
 6388TIP3   OH240722   4.662   0.855   2.088
 6388TIP3    H140723   4.680   0.948   2.098
 6388TIP3    H240724   4.745   0.812   2.105
 6389TIP3   OH240725   5.928   2.307   7.485
 6389TIP3    H140726   5.876   2.388   7.491
 6389TIP3    H240727   5.996   2.327   7.421
 6390TIP3   OH240728   6.168   0.456   6.290
 6390TIP3    H140729   6.108   0.388   6.321
 6390TIP3    H240730   6.222   0.477   6.367
 6391TIP3   OH240731   1.311   3.594   6.652
 6391TIP3    H140732   1.403   3.580   6.630
 6391TIP3    H240733   1.299   3.689   6.644
 6392TIP3   OH240734   4.791   2.404   7.766
 6392TIP3    H140735   4.884   2.426   7.765
 6392TIP3    H240736   4.748   2.478   7.723
 6393TIP3   OH240737   4.803   3.998   6.286
 6393TIP3    H140738   4.857   4.014   6.364
 6393TIP3    H240739   4.737   3.936   6.315
 6394TIP3   OH240740   3.753   2.640   0.453
 6394TIP3    H140741   3.740   2.568   0.391
 6394TIP3    H240742   3.762   2.718   0.398
 6395TIP3   OH240743   4.377   2.248   7.228
 6395TIP3    H140744   4.318   2.318   7.257
 6395TIP3    H240745   4.405   2.205   7.309
 6396TIP3   OH240746   4.405   2.059   0.422
 6396TIP3    H140747   4.475   2.011   0.378
 6396TIP3    H240748   4.382   2.005   0.498
 6397TIP3   OH240749   6.874   0.649   0.416
 6397TIP3    H140750   6.902   0.690   0.498
 6397TIP3    H240751   0.044   0.644   0.363
 6398TIP3   OH240752   2.836   1.342   7.574
 6398TIP3    H140753   2.846   1.273   7.640
 6398TIP3    H240754   2.812   1.419   7.625
 6399TIP3   OH240755   3.176   2.971   0.483
 6399TIP3    H140756   3.163   2.996   0.391
 6399TIP3    H240757   3.271   2.967   0.494
 6400TIP3   OH240758   2.699   5.740   0.424
 6400TIP3    H140759   2.736   5.787   0.498
 6400TIP3    H240760   2.737   5.782   0.347
 6401TIP3   OH240761   0.954   2.922   7.689
 6401TIP3    H140762   0.974   2.875   7.608
 6401TIP3    H240763   1.028   2.901   7.747
 6402TIP3   OH240764   0.702   5.765   8.290
 6402TIP3    H140765   0.732   5.785   8.379
 6402TIP3    H240766   0.782   5.770   8.237
 6403TIP3   OH240767   3.492   5.861   0.744
 6403TIP3    H140768   3.548   5.794   0.784
 6403TIP3    H240769   3.441   5.897   0.816
 6404TIP3   OH240770   4.188   0.441   6.640
 6404TIP3    H140771   4.154   0.395   6.716
 6404TIP3    H240772   4.272   0.400   6.622
 6405TIP3   OH240773   0.226   4.954   0.721
 6405TIP3    H140774   0.192   4.883   0.666
 6405TIP3    H240775   0.175   5.031   0.694
 6406TIP3   OH240776   6.678   4.268   1.556
 6406TIP3    H140777   6.669   4.172   1.556
 6406TIP3    H240778   6.750   4.286   1.615
 6407TIP3   OH240779   5.895   3.468   8.377
 6407TIP3    H140780   5.857   3.441   8.293
 6407TIP3    H240781   5.985   3.492   8.356
 6408TIP3   OH240782   3.147   0.897   7.493
 6408TIP3    H140783   3.129   0.967   7.430
 6408TIP3    H240784   3.072   0.838   7.486
 6409TIP3   OH240785   3.651   5.098   8.432
 6409TIP3    H140786   3.744   5.120   8.441
 6409TIP3    H240787   3.642   5.014   8.477
 6410TIP3   OH240788   6.581   2.815   7.838
 6410TIP3    H140789   6.636   2.844   7.765
 6410TIP3    H240790   6.534   2.894   7.865
 6411TIP3   OH240791   5.495   2.963   7.497
 6411TIP3    H140792   5.409   3.003   7.484
 6411TIP3    H240793   5.514   2.976   7.590
 6412TIP3   OH240794   5.648   3.466   1.807
 6412TIP3    H140795   5.641   3.560   1.825
 6412TIP3    H240796   5.614   3.424   1.887
 6413TIP3   OH240797   1.484   0.405   6.146
 6413TIP3    H140798   1.437   0.322   6.158
 6413TIP3    H240799   1.434   0.451   6.079
 6414TIP3   OH240800   4.234   2.129   1.272
 6414TIP3    H140801   4.248   2.036   1.287
 6414TIP3    H240802   4.273   2.145   1.186
 6415TIP3   OH240803   4.578   0.788   6.528
 6415TIP3    H140804   4.494   0.743   6.518
 6415TIP3    H240805   4.626   0.768   6.447
 6416TIP3   OH240806   5.132   5.600   1.300
 6416TIP3    H140807   5.115   5.657   1.375
 6416TIP3    H240808   5.224   5.614   1.280
 6417TIP3   OH240809   5.027   6.795   7.753
 6417TIP3    H140810   4.987   6.843   7.680
 6417TIP3    H240811   5.110   6.841   7.768
 6418TIP3   OH240812   3.673   6.506   7.586
 6418TIP3    H140813   3.653   6.598   7.566
 6418TIP3    H240814   3.609   6.481   7.652
 6419TIP3   OH240815   1.388   5.017   7.410
 6419TIP3    H140816   1.428   4.960   7.345
 6419TIP3    H240817   1.412   5.105   7.383
 6420TIP3   OH240818   5.311   5.472   2.058
 6420TIP3    H140819   5.259   5.498   1.981
 6420TIP3    H240820   5.390   5.526   2.053
 6421TIP3   OH240821   2.374   3.345   0.637
 6421TIP3    H140822   2.321   3.266   0.638
 6421TIP3    H240823   2.334   3.401   0.570
 6422TIP3   OH240824   4.521   5.804   7.426
 6422TIP3    H140825   4.481   5.886   7.455
 6422TIP3    H240826   4.467   5.736   7.465
 6423TIP3   OH240827   0.012   3.309   0.369
 6423TIP3    H140828   0.055   3.262   0.440
 6423TIP3    H240829   0.083   3.336   0.311
 6424TIP3   OH240830   6.824   5.999   1.407
 6424TIP3    H140831   6.768   6.058   1.457
 6424TIP3    H240832   6.865   5.943   1.472
 6425TIP3   OH240833   2.357   4.211   7.601
 6425TIP3    H140834   2.264   4.229   7.605
 6425TIP3    H240835   2.371   4.140   7.663
 6426TIP3   OH240836   1.264   3.962   1.716
 6426TIP3    H140837   1.223   3.888   1.760
 6426TIP3    H240838   1.197   3.992   1.654
 6427TIP3   OH240839   2.191   3.879   7.586
 6427TIP3    H140840   2.259   3.846   7.644
 6427TIP3    H240841   2.120   3.906   7.644
 6428TIP3   OH240842   2.133   2.182   6.788
 6428TIP3    H140843   2.198   2.152   6.852
 6428TIP3    H240844   2.090   2.102   6.758
 6429TIP3   OH240845   2.175   0.947   2.239
 6429TIP3    H140846   2.137   1.025   2.278
 6429TIP3    H240847   2.267   0.970   2.225
 6430TIP3   OH240848   6.855   5.263   8.108
 6430TIP3    H140849   6.858   5.312   8.190
 6430TIP3    H240850   6.761   5.257   8.088
 6431TIP3   OH240851   2.641   3.145   6.631
 6431TIP3    H140852   2.662   3.086   6.558
 6431TIP3    H240853   2.722   3.193   6.646
 6432TIP3   OH240854   5.221   0.260   7.127
 6432TIP3    H140855   5.231   0.165   7.127
 6432TIP3    H240856   5.151   0.276   7.190
 6433TIP3   OH240857   3.818   3.012   7.265
 6433TIP3    H140858   3.888   3.063   7.306
 6433TIP3    H240859   3.803   2.939   7.326
 6434TIP3   OH240860   5.048   0.691   6.683
 6434TIP3    H140861   4.995   0.613   6.665
 6434TIP3    H240862   4.997   0.764   6.650
 6435TIP3   OH240863   4.055   2.039   7.914
 6435TIP3    H140864   4.092   2.074   7.832
 6435TIP3    H240865   4.067   1.945   7.907
 6436TIP3   OH240866   2.740   0.197   1.307
 6436TIP3    H140867   2.812   0.138   1.329
 6436TIP3    H240868   2.774   0.248   1.233
 6437TIP3   OH240869   2.744   6.305   8.146
 6437TIP3    H140870   2.689   6.375   8.110
 6437TIP3    H240871   2.683   6.248   8.193
 6438TIP3   OH240872   6.254   2.402   8.250
 6438TIP3    H140873   6.349   2.390   8.259
 6438TIP3    H240874   6.230   2.456   8.326
 6439TIP3   OH240875   6.441   4.109   6.809
 6439TIP3    H140876   6.359   4.066   6.833
 6439TIP3    H240877   6.449   4.095   6.714
 6440TIP3   OH240878   2.301   2.696   7.148
 6440TIP3    H140879   2.248   2.776   7.153
 6440TIP3    H240880   2.332   2.693   7.057
 6441TIP3   OH240881   6.357   0.568   0.884
 6441TIP3    H140882   6.408   0.501   0.929
 6441TIP3    H240883   6.269   0.531   0.878
 6442TIP3   OH240884   4.758   0.113   0.949
 6442TIP3    H140885   4.718   0.107   1.036
 6442TIP3    H240886   4.833   0.170   0.961
 6443TIP3   OH240887   6.570   1.326   8.393
 6443TIP3    H140888   6.534   1.244   8.360
 6443TIP3    H240889   6.652   1.302   8.436
 6444TIP3   OH240890   5.444   2.290   1.630
 6444TIP3    H140891   5.381   2.231   1.672
 6444TIP3    H240892   5.527   2.242   1.632
 6445TIP3   OH240893   5.848   5.750   0.016
 6445TIP3    H140894   5.833   5.804   0.093
 6445TIP3    H240895   5.906   5.802   8.528
 6446TIP3   OH240896   0.365   2.989   0.849
 6446TIP3    H140897   0.301   2.919   0.834
 6446TIP3    H240898   0.313   3.069   0.843
 6447TIP3   OH240899   6.480   5.799   7.157
 6447TIP3    H140900   6.555   5.781   7.100
 6447TIP3    H240901   6.414   5.836   7.099
 6448TIP3   OH240902   3.965   0.577   6.629
 6448TIP3    H140903   3.980   0.626   6.548
 6448TIP3    H240904   4.042   0.520   6.638
 6449TIP3   OH240905   5.338   4.463   0.211
 6449TIP3    H140906   5.383   4.391   0.255
 6449TIP3    H240907   5.386   4.541   0.239
 6450TIP3   OH240908   1.894   1.145   0.936
 6450TIP3    H140909   1.842   1.179   0.863
 6450TIP3    H240910   1.903   1.052   0.917
 6451TIP3   OH240911   6.661   0.816   1.085
 6451TIP3    H140912   6.724   0.820   1.157
 6451TIP3    H240913   6.581   0.781   1.124
 6452TIP3   OH240914   1.279   2.583   0.444
 6452TIP3    H140915   1.260   2.630   0.364
 6452TIP3    H240916   1.343   2.637   0.490
 6453TIP3   OH240917   6.270   3.265   8.402
 6453TIP3    H140918   6.298   3.174   8.390
 6453TIP3    H240919   6.348   3.309   8.438
 6454TIP3   OH240920   2.743   5.131   0.860
 6454TIP3    H140921   2.698   5.114   0.777
 6454TIP3    H240922   2.677   5.111   0.927
 6455TIP3   OH240923   1.260   2.499   8.489
 6455TIP3    H140924   1.279   2.410   8.459
 6455TIP3    H240925   1.345   2.540   8.499
 6456TIP3   OH240926   2.272   5.613   1.241
 6456TIP3    H140927   2.336   5.543   1.227
 6456TIP3    H240928   2.230   5.590   1.324
 6457TIP3   OH240929   0.106   3.730   6.193
 6457TIP3    H140930   0.163   3.654   6.184
 6457TIP3    H240931   0.152   3.789   6.252
 6458TIP3   OH240932   5.084   6.464   0.425
 6458TIP3    H140933   5.076   6.441   0.332
 6458TIP3    H240934   5.094   6.560   0.425
 6459TIP3   OH240935   6.346   2.530   6.678
 6459TIP3    H140936   6.268   2.499   6.724
 6459TIP3    H240937   6.329   2.512   6.586
 6460TIP3   OH240938   5.243   5.841   2.098
 6460TIP3    H140939   5.303   5.816   2.168
 6460TIP3    H240940   5.157   5.813   2.129
 6461TIP3   OH240941   0.728   0.149   7.291
 6461TIP3    H140942   0.768   0.235   7.295
 6461TIP3    H240943   0.802   0.088   7.291
 6462TIP3   OH240944   0.813   4.893   0.272
 6462TIP3    H140945   0.869   4.953   0.223
 6462TIP3    H240946   0.731   4.891   0.222
 6463TIP3   OH240947   3.672   4.345   7.311
 6463TIP3    H140948   3.737   4.343   7.381
 6463TIP3    H240949   3.597   4.392   7.348
 6464TIP3   OH240950   5.257   6.890   8.507
 6464TIP3    H140951   5.207   6.848   0.010
 6464TIP3    H240952   5.303   6.817   8.464
 6465TIP3   OH240953   5.956   5.307   8.056
 6465TIP3    H140954   5.876   5.356   8.037
 6465TIP3    H240955   5.972   5.256   7.976
 6466TIP3   OH240956   2.888   1.665   7.308
 6466TIP3    H140957   2.931   1.621   7.381
 6466TIP3    H240958   2.871   1.595   7.245
 6467TIP3   OH240959   1.537   4.816   0.877
 6467TIP3    H140960   1.456   4.828   0.827
 6467TIP3    H240961   1.508   4.794   0.965
 6468TIP3   OH240962   1.584   0.024   0.257
 6468TIP3    H140963   1.491   0.020   0.237
 6468TIP3    H240964   1.627   0.005   0.174
 6469TIP3   OH240965   0.960   4.025   6.728
 6469TIP3    H140966   0.955   4.060   6.817
 6469TIP3    H240967   0.869   4.016   6.700
 6470TIP3   OH240968   1.000   2.061   7.532
 6470TIP3    H140969   1.033   2.129   7.590
 6470TIP3    H240970   0.969   2.108   7.454
 6471TIP3   OH240971   6.163   4.011   6.638
 6471TIP3    H140972   6.138   3.920   6.621
 6471TIP3    H240973   6.095   4.043   6.697
 6472TIP3   OH240974   5.547   5.868   1.024
 6472TIP3    H140975   5.544   5.821   0.940
 6472TIP3    H240976   5.455   5.882   1.047
 6473TIP3   OH240977   1.715   0.512   6.884
 6473TIP3    H140978   1.739   0.464   6.804
 6473TIP3    H240979   1.624   0.539   6.869
 6474TIP3   OH240980   5.007   5.660   0.529
 6474TIP3    H140981   4.938   5.693   0.472
 6474TIP3    H240982   5.040   5.583   0.484
 6475TIP3   OH240983   3.953   0.986   2.479
 6475TIP3    H140984   3.923   0.901   2.510
 6475TIP3    H240985   4.005   1.021   2.551
 6476TIP3   OH240986   6.092   0.515   6.040
 6476TIP3    H140987   6.031   0.446   6.015
 6476TIP3    H240988   6.125   0.488   6.126
 6477TIP3   OH240989   0.825   3.631   7.920
 6477TIP3    H140990   0.750   3.634   7.979
 6477TIP3    H240991   0.863   3.544   7.935
 6478TIP3   OH240992   4.774   3.794   1.355
 6478TIP3    H140993   4.724   3.843   1.420
 6478TIP3    H240994   4.864   3.794   1.388
 6479TIP3   OH240995   0.866   3.063   1.450
 6479TIP3    H140996   0.899   3.137   1.400
 6479TIP3    H240997   0.944   3.019   1.482
 6480TIP3   OH240998   3.023   6.661   2.208
 6480TIP3    H140999   2.956   6.604   2.246
 6480TIP3    H241000   2.979   6.746   2.199
 6481TIP3   OH241001   5.449   6.159   0.628
 6481TIP3    H141002   5.489   6.246   0.619
 6481TIP3    H241003   5.377   6.171   0.690
 6482TIP3   OH241004   5.294   6.537   0.851
 6482TIP3    H141005   5.382   6.563   0.823
 6482TIP3    H241006   5.262   6.480   0.782
 6483TIP3   OH241007   0.682   1.060   7.233
 6483TIP3    H141008   0.618   1.020   7.174
 6483TIP3    H241009   0.766   1.020   7.208
 6484TIP3   OH241010   6.601   5.342   8.228
 6484TIP3    H141011   6.516   5.384   8.240
 6484TIP3    H241012   6.655   5.376   8.299
 6485TIP3   OH241013   5.749   6.140   7.538
 6485TIP3    H141014   5.812   6.074   7.508
 6485TIP3    H241015   5.719   6.182   7.458
 6486TIP3   OH241016   5.806   4.145   7.298
 6486TIP3    H141017   5.797   4.202   7.374
 6486TIP3    H241018   5.899   4.121   7.296
 6487TIP3   OH241019   2.970   2.408   1.141
 6487TIP3    H141020   2.984   2.499   1.114
 6487TIP3    H241021   2.986   2.357   1.061
 6488TIP3   OH241022   3.012   0.234   1.754
 6488TIP3    H141023   3.030   0.325   1.731
 6488TIP3    H241024   2.921   0.221   1.728
 6489TIP3   OH241025   1.721   6.016   6.824
 6489TIP3    H141026   1.634   6.056   6.815
 6489TIP3    H241027   1.761   6.062   6.898
 6490TIP3   OH241028   5.559   6.534   0.804
 6490TIP3    H141029   5.528   6.478   0.733
 6490TIP3    H241030   5.624   6.481   0.849
 6491TIP3   OH241031   2.278   4.767   0.727
 6491TIP3    H141032   2.285   4.820   0.648
 6491TIP3    H241033   2.275   4.677   0.695
 6492TIP3   OH241034   0.326   4.113   6.078
 6492TIP3    H141035   0.321   4.031   6.127
 6492TIP3    H241036   0.406   4.155   6.109
 6493TIP3   OH241037   2.780   2.030   0.256
 6493TIP3    H141038   2.755   2.041   0.347
 6493TIP3    H241039   2.719   1.965   0.221
 6494TIP3   OH241040   0.870   3.561   7.591
 6494TIP3    H141041   0.948   3.615   7.586
 6494TIP3    H241042   0.854   3.548   7.684
 6495TIP3   OH241043   1.916   4.842   8.101
 6495TIP3    H141044   1.995   4.848   8.155
 6495TIP3    H241045   1.845   4.868   8.159
 6496TIP3   OH241046   2.533   0.098   7.855
 6496TIP3    H141047   2.444   0.104   7.820
 6496TIP3    H241048   2.582   0.050   7.789
 6497TIP3   OH241049   5.410   0.331   8.077
 6497TIP3    H141050   5.443   0.270   8.010
 6497TIP3    H241051   5.479   0.333   8.143
 6498TIP3   OH241052   1.750   2.333   7.626
 6498TIP3    H141053   1.803   2.308   7.701
 6498TIP3    H241054   1.772   2.425   7.611
 6499TIP3   OH241055   1.618   5.840   6.542
 6499TIP3    H141056   1.557   5.812   6.473
 6499TIP3    H241057   1.630   5.934   6.526
 6500TIP3   OH241058   2.336   4.206   6.597
 6500TIP3    H141059   2.314   4.279   6.539
 6500TIP3    H241060   2.318   4.238   6.685
 6501TIP3   OH241061   1.173   0.696   1.143
 6501TIP3    H141062   1.248   0.674   1.198
 6501TIP3    H241063   1.198   0.778   1.101
 6502TIP3   OH241064   6.325   3.270   7.196
 6502TIP3    H141065   6.313   3.305   7.108
 6502TIP3    H241066   6.268   3.323   7.251
 6503TIP3   OH241067   4.240   1.964   0.783
 6503TIP3    H141068   4.332   1.971   0.756
 6503TIP3    H241069   4.190   1.976   0.702
 6504TIP3   OH241070   2.371   6.079   0.841
 6504TIP3    H141071   2.299   6.016   0.850
 6504TIP3    H241072   2.446   6.034   0.881
 6505TIP3   OH241073   3.103   0.284   2.042
 6505TIP3    H141074   3.052   0.296   1.962
 6505TIP3    H241075   3.134   0.371   2.065
 6506TIP3   OH241076   1.646   6.513   1.948
 6506TIP3    H141077   1.686   6.431   1.977
 6506TIP3    H241078   1.566   6.486   1.904
 6507TIP3   OH241079   0.340   1.343   0.354
 6507TIP3    H141080   0.423   1.316   0.391
 6507TIP3    H241081   0.279   1.272   0.375
 6508TIP3   OH241082   6.360   0.457   2.411
 6508TIP3    H141083   6.375   0.552   2.419
 6508TIP3    H241084   6.269   0.450   2.381
 6509TIP3   OH241085   5.039   5.989   0.802
 6509TIP3    H141086   4.945   5.995   0.785
 6509TIP3    H241087   5.047   5.992   0.897
 6510TIP3   OH241088   3.346   5.469   1.029
 6510TIP3    H141089   3.427   5.520   1.026
 6510TIP3    H241090   3.300   5.492   0.949
 6511TIP3   OH241091   2.279   0.575   0.508
 6511TIP3    H141092   2.328   0.536   0.435
 6511TIP3    H241093   2.334   0.647   0.538
 6512TIP3   OH241094   2.631   3.780   7.807
 6512TIP3    H141095   2.726   3.768   7.809
 6512TIP3    H241096   2.619   3.872   7.785
 6513TIP3   OH241097   0.771   1.819   8.395
 6513TIP3    H141098   0.776   1.725   8.412
 6513TIP3    H241099   0.681   1.842   8.413
 6514TIP3   OH241100   0.992   3.629   8.303
 6514TIP3    H141101   0.977   3.543   8.262
 6514TIP3    H241102   1.069   3.616   8.358
 6515TIP3   OH241103   6.226   3.750   7.249
 6515TIP3    H141104   6.311   3.792   7.259
 6515TIP3    H241105   6.163   3.812   7.286
 6516TIP3   OH241106   4.787   0.596   6.626
 6516TIP3    H141107   4.718   0.660   6.607
 6516TIP3    H241108   4.779   0.531   6.557
 6517TIP3   OH241109   0.842   3.576   2.152
 6517TIP3    H141110   0.882   3.496   2.118
 6517TIP3    H241111   0.857   3.573   2.246
 6518TIP3   OH241112   5.737   5.390   0.491
 6518TIP3    H141113   5.709   5.418   0.578
 6518TIP3    H241114   5.697   5.453   0.431
 6519TIP3   OH241115   1.560   3.918   6.175
 6519TIP3    H141116   1.494   3.849   6.177
 6519TIP3    H241117   1.537   3.975   6.249
 6520TIP3   OH241118   0.495   4.265   1.093
 6520TIP3    H141119   0.553   4.320   1.041
 6520TIP3    H241120   0.407   4.299   1.075
 6521TIP3   OH241121   4.190   0.707   0.534
 6521TIP3    H141122   4.190   0.798   0.563
 6521TIP3    H241123   4.157   0.658   0.610
 6522TIP3   OH241124   3.559   4.683   0.389
 6522TIP3    H141125   3.479   4.689   0.443
 6522TIP3    H241126   3.629   4.666   0.452
 6523TIP3   OH241127   2.402   4.029   0.308
 6523TIP3    H141128   2.475   4.055   0.364
 6523TIP3    H241129   2.331   4.011   0.369
 6524TIP3   OH241130   6.677   1.881   1.153
 6524TIP3    H141131   6.673   1.917   1.065
 6524TIP3    H241132   6.585   1.866   1.177
 6525TIP3   OH241133   6.131   3.826   8.489
 6525TIP3    H141134   6.080   3.835   0.003
 6525TIP3    H241135   6.215   3.791   8.518
 6526TIP3   OH241136   3.006   2.494   1.403
 6526TIP3    H141137   2.980   2.511   1.313
 6526TIP3    H241138   2.975   2.571   1.452
 6527TIP3   OH241139   3.801   5.456   0.536
 6527TIP3    H141140   3.853   5.531   0.564
 6527TIP3    H241141   3.712   5.477   0.564
 6528TIP3   OH241142   6.638   4.068   7.762
 6528TIP3    H141143   6.592   3.986   7.784
 6528TIP3    H241144   6.569   4.126   7.729
 6529TIP3   OH241145   1.917   2.364   6.902
 6529TIP3    H141146   1.991   2.321   6.858
 6529TIP3    H241147   1.866   2.402   6.831
 6530TIP3   OH241148   0.785   6.325   6.936
 6530TIP3    H141149   0.787   6.343   6.842
 6530TIP3    H241150   0.854   6.381   6.972
 6531TIP3   OH241151   4.441   4.849   0.270
 6531TIP3    H141152   4.424   4.937   0.237
 6531TIP3    H241153   4.420   4.790   0.197
 6532TIP3   OH241154   4.958   0.588   7.300
 6532TIP3    H141155   4.922   0.499   7.304
 6532TIP3    H241156   5.003   0.599   7.384
 6533TIP3   OH241157   1.849   4.794   7.848
 6533TIP3    H141158   1.868   4.808   7.941
 6533TIP3    H241159   1.921   4.836   7.802
 6534TIP3   OH241160   0.298   1.028   7.994
 6534TIP3    H141161   0.306   1.030   7.899
 6534TIP3    H241162   0.261   0.942   8.014
 6535TIP3   OH241163   2.959   6.090   0.787
 6535TIP3    H141164   3.045   6.082   0.745
 6535TIP3    H241165   2.938   6.184   0.780
 6536TIP3   OH241166   6.259   2.674   1.279
 6536TIP3    H141167   6.237   2.587   1.247
 6536TIP3    H241168   6.204   2.686   1.357
 6537TIP3   OH241169   1.029   6.151   0.963
 6537TIP3    H141170   1.107   6.101   0.986
 6537TIP3    H241171   1.062   6.230   0.921
 6538TIP3   OH241172   0.545   6.393   7.065
 6538TIP3    H141173   0.609   6.374   7.134
 6538TIP3    H241174   0.579   6.347   6.988
 6539TIP3   OH241175   3.077   1.023   7.259
 6539TIP3    H141176   3.083   1.118   7.246
 6539TIP3    H241177   3.004   0.996   7.204
 6540TIP3   OH241178   2.758   5.904   0.635
 6540TIP3    H141179   2.827   5.941   0.691
 6540TIP3    H241180   2.701   5.857   0.695
 6541TIP3   OH241181   3.428   2.303   0.943
 6541TIP3    H141182   3.509   2.298   0.892
 6541TIP3    H241183   3.448   2.364   1.014
 6542TIP3   OH241184   4.720   0.228   6.926
 6542TIP3    H141185   4.657   0.200   6.860
 6542TIP3    H241186   4.758   0.147   6.959
 6543TIP3   OH241187   5.970   5.816   0.250
 6543TIP3    H141188   6.062   5.792   0.238
 6543TIP3    H241189   5.949   5.784   0.338
 6544TIP3   OH241190   3.812   1.448   0.557
 6544TIP3    H141191   3.718   1.450   0.574
 6544TIP3    H241192   3.844   1.532   0.590
 6545TIP3   OH241193   0.317   3.837   7.225
 6545TIP3    H141194   0.366   3.846   7.143
 6545TIP3    H241195   0.233   3.800   7.198
 6546TIP3   OH241196   2.988   6.353   8.031
 6546TIP3    H141197   2.975   6.271   7.984
 6546TIP3    H241198   2.901   6.373   8.068
 6547TIP3   OH241199   4.809   0.490   1.075
 6547TIP3    H141200   4.790   0.475   0.982
 6547TIP3    H241201   4.904   0.481   1.081
 6548TIP3   OH241202   1.995   1.936   0.890
 6548TIP3    H141203   2.031   1.889   0.965
 6548TIP3    H241204   2.073   1.964   0.841
 6549TIP3   OH241205   2.183   2.482   1.558
 6549TIP3    H141206   2.096   2.446   1.538
 6549TIP3    H241207   2.167   2.553   1.619
 6550TIP3   OH241208   1.782   1.949   7.325
 6550TIP3    H141209   1.787   1.865   7.371
 6550TIP3    H241210   1.756   2.012   7.392
 6551TIP3   OH241211   5.975   2.858   0.595
 6551TIP3    H141212   6.019   2.881   0.514
 6551TIP3    H241213   5.980   2.938   0.648
 6552TIP3   OH241214   2.704   2.637   7.475
 6552TIP3    H141215   2.765   2.707   7.451
 6552TIP3    H241216   2.621   2.662   7.435
 6553TIP3   OH241217   4.806   4.945   7.544
 6553TIP3    H141218   4.893   4.907   7.558
 6553TIP3    H241219   4.763   4.938   7.630
 6554TIP3   OH241220   3.926   6.196   0.881
 6554TIP3    H141221   3.896   6.121   0.934
 6554TIP3    H241222   4.018   6.206   0.906
 6555TIP3   OH241223   4.030   1.487   2.203
 6555TIP3    H141224   4.010   1.579   2.223
 6555TIP3    H241225   4.002   1.439   2.282
 6556TIP3   OH241226   3.890   4.444   8.178
 6556TIP3    H141227   3.919   4.356   8.154
 6556TIP3    H241228   3.917   4.454   8.270
 6557TIP3   OH241229   3.331   0.723   6.175
 6557TIP3    H141230   3.408   0.666   6.175
 6557TIP3    H241231   3.337   0.772   6.257
 6558TIP3   OH241232   0.808   1.963   1.204
 6558TIP3    H141233   0.867   2.036   1.222
 6558TIP3    H241234   0.861   1.885   1.220
 6559TIP3   OH241235   3.743   5.708   1.994
 6559TIP3    H141236   3.672   5.647   2.009
 6559TIP3    H241237   3.789   5.714   2.078
 6560TIP3   OH241238   2.956   4.912   1.808
 6560TIP3    H141239   2.873   4.880   1.773
 6560TIP3    H241240   2.995   4.963   1.737
 6561TIP3   OH241241   2.573   6.549   7.900
 6561TIP3    H141242   2.525   6.556   7.817
 6561TIP3    H241243   2.518   6.491   7.953
 6562TIP3   OH241244   4.848   3.694   8.031
 6562TIP3    H141245   4.924   3.715   7.976
 6562TIP3    H241246   4.789   3.768   8.020
 6563TIP3   OH241247   0.783   3.127   0.386
 6563TIP3    H141248   0.765   3.128   0.291
 6563TIP3    H241249   0.765   3.037   0.412
 6564TIP3   OH241250   6.115   2.069   2.184
 6564TIP3    H141251   6.139   2.090   2.275
 6564TIP3    H241252   6.179   2.003   2.157
 6565TIP3   OH241253   2.476   6.285   6.571
 6565TIP3    H141254   2.563   6.247   6.567
 6565TIP3    H241255   2.490   6.378   6.591
 6566TIP3   OH241256   2.227   5.037   8.159
 6566TIP3    H141257   2.278   4.967   8.116
 6566TIP3    H241258   2.290   5.080   8.217
 6567TIP3   OH241259   2.439   1.554   6.973
 6567TIP3    H141260   2.416   1.556   7.066
 6567TIP3    H241261   2.364   1.594   6.929
 6568TIP3   OH241262   5.425   0.954   7.041
 6568TIP3    H141263   5.391   0.958   6.952
 6568TIP3    H241264   5.353   0.984   7.096
 6569TIP3   OH241265   2.092   1.504   8.151
 6569TIP3    H141266   2.176   1.498   8.196
 6569TIP3    H241267   2.073   1.415   8.124
 6570TIP3   OH241268   4.161   4.154   5.920
 6570TIP3    H141269   4.135   4.221   5.856
 6570TIP3    H241270   4.080   4.110   5.943
 6571TIP3   OH241271   1.394   5.424   8.525
 6571TIP3    H141272   1.433   5.503   8.486
 6571TIP3    H241273   1.371   5.451   0.047
 6572TIP3   OH241274   3.422   1.478   1.695
 6572TIP3    H141275   3.424   1.437   1.782
 6572TIP3    H241276   3.446   1.408   1.635
 6573TIP3   OH241277   0.712   1.854   1.415
 6573TIP3    H141278   0.686   1.893   1.332
 6573TIP3    H241279   0.636   1.801   1.442
 6574TIP3   OH241280   3.877   6.262   8.470
 6574TIP3    H141281   3.873   6.176   8.428
 6574TIP3    H241282   3.954   6.258   8.527
 6575TIP3   OH241283   6.496   1.515   0.597
 6575TIP3    H141284   6.508   1.441   0.657
 6575TIP3    H241285   6.561   1.500   0.527
 6576TIP3   OH241286   0.584   5.131   0.708
 6576TIP3    H141287   0.629   5.198   0.656
 6576TIP3    H241288   0.506   5.175   0.742
 6577TIP3   OH241289   1.964   5.416   0.636
 6577TIP3    H141290   2.051   5.427   0.676
 6577TIP3    H241291   1.938   5.328   0.661
 6578TIP3   OH241292   3.599   2.154   8.161
 6578TIP3    H141293   3.565   2.241   8.143
 6578TIP3    H241294   3.680   2.150   8.110
 6579TIP3   OH241295   0.913   0.962   7.132
 6579TIP3    H141296   1.001   0.927   7.143
 6579TIP3    H241297   0.865   0.893   7.086
 6580TIP3   OH241298   5.067   4.173   6.874
 6580TIP3    H141299   5.138   4.232   6.847
 6580TIP3    H241300   5.033   4.137   6.792
 6581TIP3   OH241301   6.883   5.046   0.074
 6581TIP3    H141302   0.026   5.124   0.056
 6581TIP3    H241303   0.021   5.001   0.145
 6582TIP3   OH241304   3.094   6.857   1.367
 6582TIP3    H141305   2.999   6.850   1.366
 6582TIP3    H241306   3.113   0.007   1.440
 6583TIP3   OH241307   3.228   5.801   0.113
 6583TIP3    H141308   3.232   5.871   0.179
 6583TIP3    H241309   3.320   5.780   0.096
 6584TIP3   OH241310   4.847   5.683   0.776
 6584TIP3    H141311   4.812   5.771   0.762
 6584TIP3    H241312   4.912   5.672   0.706
 6585TIP3   OH241313   3.496   1.554   0.538
 6585TIP3    H141314   3.544   1.562   0.620
 6585TIP3    H241315   3.410   1.519   0.564
 6586TIP3   OH241316   5.070   2.040   1.943
 6586TIP3    H141317   5.094   2.132   1.950
 6586TIP3    H241318   5.117   2.008   1.866
 6587TIP3   OH241319   1.897   3.358   0.347
 6587TIP3    H141320   1.826   3.368   0.283
 6587TIP3    H241321   1.953   3.289   0.310
 6588TIP3   OH241322   2.573   6.154   7.698
 6588TIP3    H141323   2.606   6.180   7.611
 6588TIP3    H241324   2.619   6.072   7.717
 6589TIP3   OH241325   3.499   0.882   0.007
 6589TIP3    H141326   3.426   0.886   0.069
 6589TIP3    H241327   3.473   0.939   8.502
 6590TIP3   OH241328   4.290   0.899   1.912
 6590TIP3    H141329   4.300   0.975   1.969
 6590TIP3    H241330   4.306   0.824   1.969
 6591TIP3   OH241331   4.811   4.566   0.665
 6591TIP3    H141332   4.790   4.580   0.573
 6591TIP3    H241333   4.881   4.501   0.664
 6592TIP3   OH241334   5.075   1.288   8.023
 6592TIP3    H141335   5.103   1.363   7.970
 6592TIP3    H241336   5.120   1.213   7.985
 6593TIP3   OH241337   5.008   4.518   7.856
 6593TIP3    H141338   4.969   4.542   7.940
 6593TIP3    H241339   4.935   4.480   7.806
 6594TIP3   OH241340   6.637   2.099   1.456
 6594TIP3    H141341   6.699   2.028   1.435
 6594TIP3    H241342   6.565   2.055   1.501
 6595TIP3   OH241343   4.457   2.213   1.708
 6595TIP3    H141344   4.468   2.172   1.622
 6595TIP3    H241345   4.393   2.159   1.753
 6596TIP3   OH241346   3.785   5.747   8.324
 6596TIP3    H141347   3.703   5.709   8.291
 6596TIP3    H241348   3.849   5.731   8.255
 6597TIP3   OH241349   5.199   4.133   8.072
 6597TIP3    H141350   5.194   4.202   8.006
 6597TIP3    H241351   5.110   4.126   8.107
 6598TIP3   OH241352   0.400   5.850   1.107
 6598TIP3    H141353   0.345   5.920   1.071
 6598TIP3    H241354   0.367   5.837   1.196
 6599TIP3   OH241355   2.556   4.206   8.010
 6599TIP3    H141356   2.538   4.286   8.059
 6599TIP3    H241357   2.485   4.146   8.034
 6600TIP3   OH241358   5.314   3.571   8.294
 6600TIP3    H141359   5.252   3.636   8.258
 6600TIP3    H241360   5.341   3.608   8.378
 6601TIP3   OH241361   1.452   0.346   7.116
 6601TIP3    H141362   1.495   0.365   7.199
 6601TIP3    H241363   1.461   0.427   7.066
 6602TIP3   OH241364   3.108   4.368   0.971
 6602TIP3    H141365   3.072   4.399   1.054
 6602TIP3    H241366   3.169   4.298   0.995
 6603TIP3   OH241367   2.697   2.905   1.592
 6603TIP3    H141368   2.719   2.946   1.675
 6603TIP3    H241369   2.659   2.821   1.616
 6604TIP3   OH241370   2.920   5.614   6.940
 6604TIP3    H141371   2.901   5.612   6.846
 6604TIP3    H241372   2.899   5.703   6.967
 6605TIP3   OH241373   3.270   0.234   2.402
 6605TIP3    H141374   3.329   0.309   2.395
 6605TIP3    H241375   3.327   0.157   2.395
 6606TIP3   OH241376   6.337   3.505   0.154
 6606TIP3    H141377   6.334   3.423   0.203
 6606TIP3    H241378   6.378   3.481   0.071
 6607TIP3   OH241379   5.419   3.641   6.307
 6607TIP3    H141380   5.374   3.724   6.321
 6607TIP3    H241381   5.353   3.574   6.327
 6608TIP3   OH241382   2.065   5.463   8.099
 6608TIP3    H141383   2.086   5.491   8.189
 6608TIP3    H241384   2.011   5.533   8.064
 6609TIP3   OH241385   5.961   2.696   0.810
 6609TIP3    H141386   5.960   2.784   0.773
 6609TIP3    H241387   6.048   2.686   0.848
 6610TIP3   OH241388   3.645   0.206   7.711
 6610TIP3    H141389   3.609   0.295   7.720
 6610TIP3    H241390   3.735   0.220   7.684
 6611TIP3   OH241391   1.529   3.808   6.980
 6611TIP3    H141392   1.502   3.716   6.977
 6611TIP3    H241393   1.494   3.841   7.063
 6612TIP3   OH241394   3.505   3.764   8.003
 6612TIP3    H141395   3.508   3.734   7.912
 6612TIP3    H241396   3.453   3.697   8.048
 6613TIP3   OH241397   2.056   6.813   8.176
 6613TIP3    H141398   2.110   6.891   8.171
 6613TIP3    H241399   1.970   6.840   8.144
 6614TIP3   OH241400   6.839   1.255   6.246
 6614TIP3    H141401   6.904   1.200   6.204
 6614TIP3    H241402   6.886   1.299   6.317
 6615TIP3   OH241403   1.297   6.647   0.334
 6615TIP3    H141404   1.215   6.622   0.289
 6615TIP3    H241405   1.277   6.730   0.375
 6616TIP3   OH241406   6.682   3.291   1.225
 6616TIP3    H141407   6.594   3.254   1.215
 6616TIP3    H241408   6.699   3.286   1.320
 6617TIP3   OH241409   2.875   4.089   1.234
 6617TIP3    H141410   2.964   4.115   1.259
 6617TIP3    H241411   2.880   4.074   1.140
 6618TIP3   OH241412   1.347   3.846   0.087
 6618TIP3    H141413   1.421   3.868   0.031
 6618TIP3    H241414   1.381   3.779   0.147
 6619TIP3   OH241415   3.510   1.992   0.466
 6619TIP3    H141416   3.537   1.900   0.464
 6619TIP3    H241417   3.453   2.002   0.390
 6620TIP3   OH241418   6.444   5.734   0.480
 6620TIP3    H141419   6.395   5.781   0.547
 6620TIP3    H241420   6.377   5.702   0.420
 6621TIP3   OH241421   3.976   3.013   6.853
 6621TIP3    H141422   3.920   3.091   6.851
 6621TIP3    H241423   4.038   3.031   6.925
 6622TIP3   OH241424   4.180   3.830   8.445
 6622TIP3    H141425   4.268   3.796   8.460
 6622TIP3    H241426   4.125   3.752   8.439
 6623TIP3   OH241427   6.134   0.751   7.073
 6623TIP3    H141428   6.051   0.702   7.073
 6623TIP3    H241429   6.112   0.835   7.034
 6624TIP3   OH241430   3.685   2.939   7.741
 6624TIP3    H141431   3.730   2.971   7.819
 6624TIP3    H241432   3.637   2.861   7.771
 6625TIP3   OH241433   1.144   2.622   6.634
 6625TIP3    H141434   1.191   2.600   6.714
 6625TIP3    H241435   1.120   2.714   6.644
 6626TIP3   OH241436   1.280   1.391   1.027
 6626TIP3    H141437   1.302   1.425   1.114
 6626TIP3    H241438   1.333   1.443   0.967
 6627TIP3   OH241439   5.183   1.206   8.289
 6627TIP3    H141440   5.236   1.281   8.315
 6627TIP3    H241441   5.130   1.239   8.215
 6628TIP3   OH241442   4.641   5.783   2.251
 6628TIP3    H141443   4.727   5.817   2.277
 6628TIP3    H241444   4.606   5.743   2.330
 6629TIP3   OH241445   1.465   2.527   7.204
 6629TIP3    H141446   1.477   2.571   7.288
 6629TIP3    H241447   1.384   2.564   7.168
 6630TIP3   OH241448   0.689   1.805   6.917
 6630TIP3    H141449   0.749   1.779   6.846
 6630TIP3    H241450   0.728   1.885   6.952
 6631TIP3   OH241451   0.978   5.144   1.297
 6631TIP3    H141452   0.896   5.124   1.251
 6631TIP3    H241453   0.951   5.168   1.385
 6632TIP3   OH241454   2.980   0.925   6.920
 6632TIP3    H141455   2.936   0.989   6.977
 6632TIP3    H241456   2.984   0.967   6.835
 6633TIP3   OH241457   1.477   2.291   7.328
 6633TIP3    H141458   1.568   2.260   7.322
 6633TIP3    H241459   1.477   2.375   7.283
 6634TIP3   OH241460   2.164   0.814   1.996
 6634TIP3    H141461   2.070   0.827   1.984
 6634TIP3    H241462   2.192   0.889   2.047
 6635TIP3   OH241463   1.483   5.521   8.193
 6635TIP3    H141464   1.547   5.592   8.197
 6635TIP3    H241465   1.401   5.560   8.224
 6636TIP3   OH241466   1.212   6.482   7.416
 6636TIP3    H141467   1.176   6.562   7.453
 6636TIP3    H241468   1.228   6.504   7.324
 6637TIP3   OH241469   3.613   1.454   7.925
 6637TIP3    H141470   3.558   1.406   7.986
 6637TIP3    H241471   3.617   1.543   7.961
 6638TIP3   OH241472   5.065   4.910   1.160
 6638TIP3    H141473   4.991   4.964   1.187
 6638TIP3    H241474   5.142   4.957   1.193
 6639TIP3   OH241475   0.251   5.899   7.583
 6639TIP3    H141476   0.195   5.971   7.554
 6639TIP3    H241477   0.261   5.912   7.677
 6640TIP3   OH241478   6.089   5.230   0.905
 6640TIP3    H141479   6.035   5.176   0.963
 6640TIP3    H241480   6.168   5.248   0.956
 6641TIP3   OH241481   1.566   0.634   6.680
 6641TIP3    H141482   1.659   0.646   6.658
 6641TIP3    H241483   1.554   0.689   6.757
 6642TIP3   OH241484   0.760   2.425   0.931
 6642TIP3    H141485   0.695   2.413   1.000
 6642TIP3    H241486   0.761   2.342   0.884
 6643TIP3   OH241487   4.932   3.578   0.509
 6643TIP3    H141488   5.010   3.551   0.557
 6643TIP3    H241489   4.946   3.671   0.492
 6644TIP3   OH241490   0.092   0.219   8.435
 6644TIP3    H141491   0.034   0.169   8.492
 6644TIP3    H241492   0.148   0.267   8.495
 6645TIP3   OH241493   6.703   2.978   1.669
 6645TIP3    H141494   6.659   2.896   1.645
 6645TIP3    H241495   6.751   2.956   1.750
 6646TIP3   OH241496   4.511   0.569   7.557
 6646TIP3    H141497   4.430   0.620   7.560
 6646TIP3    H241498   4.508   0.522   7.474
 6647TIP3   OH241499   2.751   2.523   7.200
 6647TIP3    H141500   2.684   2.582   7.233
 6647TIP3    H241501   2.703   2.460   7.147
 6648TIP3   OH241502   4.041   0.799   0.239
 6648TIP3    H141503   3.985   0.849   0.299
 6648TIP3    H241504   4.057   0.857   0.166
 6649TIP3   OH241505   3.587   3.672   6.615
 6649TIP3    H141506   3.592   3.584   6.576
 6649TIP3    H241507   3.532   3.721   6.554
 6650TIP3   OH241508   5.060   6.523   8.352
 6650TIP3    H141509   5.043   6.502   8.260
 6650TIP3    H241510   5.154   6.510   8.363
 6651TIP3   OH241511   2.691   3.969   1.411
 6651TIP3    H141512   2.739   3.930   1.483
 6651TIP3    H241513   2.753   4.032   1.372
 6652TIP3   OH241514   3.439   5.773   7.756
 6652TIP3    H141515   3.495   5.799   7.683
 6652TIP3    H241516   3.500   5.740   7.823
 6653TIP3   OH241517   6.072   1.504   6.352
 6653TIP3    H141518   6.083   1.482   6.259
 6653TIP3    H241519   6.063   1.420   6.396
 6654TIP3   OH241520   6.525   3.949   7.029
 6654TIP3    H141521   6.506   4.024   6.973
 6654TIP3    H241522   6.620   3.937   7.022
 6655TIP3   OH241523   2.152   0.765   1.107
 6655TIP3    H141524   2.113   0.721   1.031
 6655TIP3    H241525   2.103   0.730   1.181
 6656TIP3   OH241526   2.444   0.615   1.077
 6656TIP3    H141527   2.397   0.606   0.994
 6656TIP3    H241528   2.407   0.548   1.133
 6657TIP3   OH241529   3.884   6.301   7.916
 6657TIP3    H141530   3.923   6.273   7.998
 6657TIP3    H241531   3.928   6.384   7.895
 6658TIP3   OH241532   2.291   2.168   7.493
 6658TIP3    H141533   2.227   2.237   7.514
 6658TIP3    H241534   2.316   2.133   7.579
 6659TIP3   OH241535   4.495   1.377   2.017
 6659TIP3    H141536   4.542   1.458   2.035
 6659TIP3    H241537   4.559   1.308   2.038
 6660TIP3   OH241538   3.293   3.588   1.368
 6660TIP3    H141539   3.342   3.634   1.300
 6660TIP3    H241540   3.226   3.539   1.321
 6661TIP3   OH241541   3.018   2.509   0.069
 6661TIP3    H141542   3.023   2.573   8.565
 6661TIP3    H241543   3.055   2.429   0.031
 6662TIP3   OH241544   0.395   6.324   1.171
 6662TIP3    H141545   0.387   6.344   1.078
 6662TIP3    H241546   0.325   6.375   1.213
 6663TIP3   OH241547   1.771   5.673   7.935
 6663TIP3    H141548   1.733   5.620   7.864
 6663TIP3    H241549   1.864   5.680   7.913
 6664TIP3   OH241550   6.267   4.959   8.102
 6664TIP3    H141551   6.213   4.885   8.072
 6664TIP3    H241552   6.345   4.956   8.046
 6665TIP3   OH241553   2.304   2.240   1.586
 6665TIP3    H141554   2.268   2.328   1.582
 6665TIP3    H241555   2.382   2.248   1.641
 6666TIP3   OH241556   2.126   1.121   0.632
 6666TIP3    H141557   2.033   1.126   0.656
 6666TIP3    H241558   2.150   1.211   0.610
 6667TIP3   OH241559   5.066   2.546   8.000
 6667TIP3    H141560   5.043   2.528   7.909
 6667TIP3    H241561   5.069   2.459   8.041
 6668TIP3   OH241562   6.326   3.351   0.853
 6668TIP3    H141563   6.257   3.307   0.803
 6668TIP3    H241564   6.363   3.283   0.909
 6669TIP3   OH241565   0.091   5.570   0.771
 6669TIP3    H141566   0.179   5.586   0.805
 6669TIP3    H241567   0.047   5.520   0.840
 6670TIP3   OH241568   3.913   4.067   1.603
 6670TIP3    H141569   3.858   3.992   1.585
 6670TIP3    H241570   3.993   4.030   1.640
 6671TIP3   OH241571   5.489   2.572   0.727
 6671TIP3    H141572   5.555   2.618   0.675
 6671TIP3    H241573   5.510   2.594   0.818
 6672TIP3   OH241574   0.138   1.224   6.584
 6672TIP3    H141575   0.198   1.254   6.515
 6672TIP3    H241576   0.068   1.289   6.585
 6673TIP3   OH241577   4.287   3.554   1.071
 6673TIP3    H141578   4.328   3.561   0.985
 6673TIP3    H241579   4.357   3.521   1.128
 6674TIP3   OH241580   4.011   4.650   7.637
 6674TIP3    H141581   4.062   4.595   7.578
 6674TIP3    H241582   3.924   4.610   7.638
 6675TIP3   OH241583   4.089   1.436   7.882
 6675TIP3    H141584   4.031   1.378   7.931
 6675TIP3    H241585   4.165   1.381   7.859
 6676TIP3   OH241586   5.710   5.217   6.689
 6676TIP3    H141587   5.627   5.170   6.695
 6676TIP3    H241588   5.710   5.254   6.601
 6677TIP3   OH241589   4.601   4.180   0.527
 6677TIP3    H141590   4.580   4.260   0.575
 6677TIP3    H241591   4.602   4.206   0.435
 6678TIP3   OH241592   1.044   6.243   7.940
 6678TIP3    H141593   1.016   6.152   7.927
 6678TIP3    H241594   1.041   6.255   8.035
 6679TIP3   OH241595   5.923   6.847   2.511
 6679TIP3    H141596   6.017   6.836   2.497
 6679TIP3    H241597   5.901   0.018   2.464
 6680TIP3   OH241598   0.182   1.434   0.129
 6680TIP3    H141599   0.233   1.405   0.205
 6680TIP3    H241600   0.239   1.418   0.054
 6681TIP3   OH241601   3.506   6.481   1.049
 6681TIP3    H141602   3.439   6.531   1.002
 6681TIP3    H241603   3.589   6.519   1.020
 6682TIP3   OH241604   3.466   5.610   2.122
 6682TIP3    H141605   3.382   5.655   2.132
 6682TIP3    H241606   3.447   5.535   2.066
 6683TIP3   OH241607   6.463   4.423   7.988
 6683TIP3    H141608   6.387   4.410   7.931
 6683TIP3    H241609   6.473   4.518   7.993
 6684TIP3   OH241610   2.930   3.163   2.474
 6684TIP3    H141611   3.013   3.174   2.520
 6684TIP3    H241612   2.954   3.150   2.383
 6685TIP3   OH241613   6.788   5.768   6.179
 6685TIP3    H141614   6.863   5.720   6.214
 6685TIP3    H241615   6.713   5.735   6.229
 6686TIP3   OH241616   2.286   5.384   7.563
 6686TIP3    H141617   2.304   5.305   7.513
 6686TIP3    H241618   2.284   5.354   7.654
 6687TIP3   OH241619   3.485   5.215   8.023
 6687TIP3    H141620   3.549   5.218   8.094
 6687TIP3    H241621   3.506   5.292   7.969
 6688TIP3   OH241622   3.762   1.833   7.953
 6688TIP3    H141623   3.811   1.759   7.917
 6688TIP3    H241624   3.676   1.798   7.972
 6689TIP3   OH241625   3.733   1.698   1.930
 6689TIP3    H141626   3.745   1.680   2.023
 6689TIP3    H241627   3.768   1.621   1.885
 6690TIP3   OH241628   2.092   4.278   7.617
 6690TIP3    H141629   2.004   4.270   7.655
 6690TIP3    H241630   2.078   4.274   7.523
 6691TIP3   OH241631   3.317   2.131   2.024
 6691TIP3    H141632   3.343   2.045   1.990
 6691TIP3    H241633   3.392   2.187   2.006
 6692TIP3   OH241634   2.837   3.507   1.079
 6692TIP3    H141635   2.869   3.473   0.995
 6692TIP3    H241636   2.742   3.514   1.066
 6693TIP3   OH241637   6.809   1.589   1.401
 6693TIP3    H141638   6.850   1.620   1.320
 6693TIP3    H241639   6.857   1.510   1.423
 6694TIP3   OH241640   2.475   6.098   0.245
 6694TIP3    H141641   2.438   6.184   0.228
 6694TIP3    H241642   2.467   6.087   0.340
 6695TIP3   OH241643   6.356   4.737   1.357
 6695TIP3    H141644   6.378   4.785   1.436
 6695TIP3    H241645   6.304   4.798   1.305
 6696TIP3   OH241646   2.048   0.624   8.300
 6696TIP3    H141647   1.996   0.582   8.233
 6696TIP3    H241648   2.010   0.711   8.309
 6697TIP3   OH241649   3.247   2.760   6.826
 6697TIP3    H141650   3.326   2.748   6.773
 6697TIP3    H241651   3.221   2.672   6.851
 6698TIP3   OH241652   0.428   3.566   6.947
 6698TIP3    H141653   0.391   3.652   6.969
 6698TIP3    H241654   0.498   3.586   6.884
 6699TIP3   OH241655   3.122   4.070   7.360
 6699TIP3    H141656   3.037   4.080   7.401
 6699TIP3    H241657   3.103   4.067   7.266
 6700TIP3   OH241658   2.847   5.550   1.225
 6700TIP3    H141659   2.828   5.602   1.147
 6700TIP3    H241660   2.864   5.615   1.293
 6701TIP3   OH241661   3.177   0.289   6.988
 6701TIP3    H141662   3.171   0.267   7.081
 6701TIP3    H241663   3.268   0.318   6.977
 6702TIP3   OH241664   0.170   0.340   8.182
 6702TIP3    H141665   0.185   0.301   8.268
 6702TIP3    H241666   0.086   0.304   8.153
 6703TIP3   OH241667   3.529   5.935   1.479
 6703TIP3    H141668   3.470   5.889   1.539
 6703TIP3    H241669   3.602   5.964   1.533
 6704TIP3   OH241670   5.624   1.793   8.104
 6704TIP3    H141671   5.702   1.757   8.062
 6704TIP3    H241672   5.646   1.796   8.197
 6705TIP3   OH241673   4.089   3.269   7.884
 6705TIP3    H141674   4.058   3.188   7.924
 6705TIP3    H241675   4.010   3.321   7.871
 6706TIP3   OH241676   2.618   0.389   7.702
 6706TIP3    H141677   2.633   0.409   7.610
 6706TIP3    H241678   2.550   0.322   7.701
 6707TIP3   OH241679   0.413   6.358   6.446
 6707TIP3    H141680   0.498   6.389   6.477
 6707TIP3    H241681   0.382   6.428   6.388
 6708TIP3   OH241682   4.694   5.849   8.216
 6708TIP3    H141683   4.664   5.836   8.126
 6708TIP3    H241684   4.614   5.856   8.267
 6709TIP3   OH241685   0.384   4.867   8.192
 6709TIP3    H141686   0.336   4.947   8.169
 6709TIP3    H241687   0.435   4.847   8.114
 6710TIP3   OH241688   5.560   0.379   7.146
 6710TIP3    H141689   5.647   0.417   7.159
 6710TIP3    H241690   5.510   0.449   7.103
 6711TIP3   OH241691   0.640   5.274   7.793
 6711TIP3    H141692   0.673   5.295   7.880
 6711TIP3    H241693   0.709   5.303   7.733
 6712TIP3   OH241694   2.073   1.895   0.293
 6712TIP3    H141695   2.009   1.890   0.221
 6712TIP3    H241696   2.158   1.888   0.250
 6713TIP3   OH241697   2.052   6.435   0.280
 6713TIP3    H141698   1.993   6.426   0.355
 6713TIP3    H241699   2.071   6.345   0.254
 6714TIP3   OH241700   2.724   4.406   7.777
 6714TIP3    H141701   2.694   4.338   7.716
 6714TIP3    H241702   2.651   4.418   7.838
 6715TIP3   OH241703   5.434   4.262   6.375
 6715TIP3    H141704   5.380   4.331   6.413
 6715TIP3    H241705   5.492   4.234   6.446
 6716TIP3   OH241706   4.320   3.422   6.433
 6716TIP3    H141707   4.398   3.475   6.420
 6716TIP3    H241708   4.276   3.462   6.508
 6717TIP3   OH241709   4.251   3.658   8.182
 6717TIP3    H141710   4.284   3.748   8.186
 6717TIP3    H241711   4.220   3.640   8.271
 6718TIP3   OH241712   3.876   5.095   1.277
 6718TIP3    H141713   3.794   5.141   1.295
 6718TIP3    H241714   3.868   5.070   1.185
 6719TIP3   OH241715   1.918   6.603   0.099
 6719TIP3    H141716   1.983   6.543   0.136
 6719TIP3    H241717   1.889   6.655   0.173
 6720TIP3   OH241718   4.967   2.066   0.750
 6720TIP3    H141719   5.057   2.034   0.754
 6720TIP3    H241720   4.914   1.986   0.744
 6721TIP3   OH241721   5.845   3.771   0.792
 6721TIP3    H141722   5.872   3.767   0.700
 6721TIP3    H241723   5.886   3.694   0.832
 6722TIP3   OH241724   1.002   2.190   0.648
 6722TIP3    H141725   0.917   2.152   0.624
 6722TIP3    H241726   0.995   2.281   0.621
 6723TIP3   OH241727   5.118   1.551   2.210
 6723TIP3    H141728   5.169   1.518   2.284
 6723TIP3    H241729   5.181   1.600   2.156
 6724TIP3   OH241730   3.424   1.112   6.553
 6724TIP3    H141731   3.455   1.202   6.563
 6724TIP3    H241732   3.344   1.120   6.501
 6725TIP3   OH241733   1.583   4.265   6.662
 6725TIP3    H141734   1.550   4.246   6.750
 6725TIP3    H241735   1.519   4.328   6.626
 6726TIP3   OH241736   3.915   0.800   6.901
 6726TIP3    H141737   3.857   0.864   6.860
 6726TIP3    H241738   4.003   0.825   6.873
 6727TIP3   OH241739   5.247   6.880   1.866
 6727TIP3    H141740   5.319   6.851   1.810
 6727TIP3    H241741   5.266   6.842   1.952
 6728TIP3   OH241742   2.346   1.406   8.213
 6728TIP3    H141743   2.381   1.393   8.125
 6728TIP3    H241744   2.423   1.409   8.269
 6729TIP3   OH241745   6.786   3.835   7.101
 6729TIP3    H141746   6.755   3.773   7.167
 6729TIP3    H241747   6.882   3.827   7.105
 6730TIP3   OH241748   5.235   6.838   6.246
 6730TIP3    H141749   5.156   6.877   6.207
 6730TIP3    H241750   5.207   6.750   6.272
 6731TIP3   OH241751   1.927   6.297   1.289
 6731TIP3    H141752   1.944   6.286   1.383
 6731TIP3    H241753   2.013   6.313   1.251
 6732TIP3   OH241754   5.612   5.277   7.118
 6732TIP3    H141755   5.677   5.214   7.088
 6732TIP3    H241756   5.635   5.359   7.074
 6733TIP3   OH241757   2.780   5.902   7.724
 6733TIP3    H141758   2.770   5.807   7.734
 6733TIP3    H241759   2.777   5.916   7.629
 6734TIP3   OH241760   2.213   5.983   7.079
 6734TIP3    H141761   2.248   5.904   7.040
 6734TIP3    H241762   2.290   6.035   7.103
 6735TIP3   OH241763   6.228   5.043   6.187
 6735TIP3    H141764   6.133   5.039   6.176
 6735TIP3    H241765   6.255   4.951   6.191
 6736TIP3   OH241766   3.869   4.752   7.442
 6736TIP3    H141767   3.937   4.740   7.509
 6736TIP3    H241768   3.797   4.696   7.471
 6737TIP3   OH241769   1.454   1.022   1.508
 6737TIP3    H141770   1.470   0.931   1.534
 6737TIP3    H241771   1.542   1.059   1.499
 6738TIP3   OH241772   5.152   1.039   7.928
 6738TIP3    H141773   5.223   1.023   7.990
 6738TIP3    H241774   5.142   0.956   7.881
 6739TIP3   OH241775   2.534   5.421   6.618
 6739TIP3    H141776   2.454   5.368   6.612
 6739TIP3    H241777   2.605   5.360   6.599
 6740TIP3   OH241778   4.279   6.389   0.394
 6740TIP3    H141779   4.363   6.423   0.424
 6740TIP3    H241780   4.267   6.428   0.307
 6741TIP3   OH241781   4.374   6.089   0.060
 6741TIP3    H141782   4.359   6.085   0.155
 6741TIP3    H241783   4.461   6.129   0.051
 6742TIP3   OH241784   1.681   1.464   0.946
 6742TIP3    H141785   1.632   1.515   1.011
 6742TIP3    H241786   1.639   1.379   0.946
 6743TIP3   OH241787   6.837   1.332   7.314
 6743TIP3    H141788   6.745   1.327   7.341
 6743TIP3    H241789   6.848   1.258   7.254
 6744TIP3   OH241790   2.719   2.602   0.028
 6744TIP3    H141791   2.776   2.530   0.053
 6744TIP3    H241792   2.769   2.650   8.528
 6745TIP3   OH241793   0.157   3.450   0.181
 6745TIP3    H141794   0.151   3.378   0.119
 6745TIP3    H241795   0.248   3.451   0.209
 6746TIP3   OH241796   0.397   2.676   7.524
 6746TIP3    H141797   0.380   2.583   7.533
 6746TIP3    H241798   0.492   2.685   7.531
 6747TIP3   OH241799   3.758   2.122   7.507
 6747TIP3    H141800   3.726   2.210   7.527
 6747TIP3    H241801   3.701   2.064   7.556
 6748TIP3   OH241802   5.676   5.618   7.394
 6748TIP3    H141803   5.663   5.681   7.465
 6748TIP3    H241804   5.595   5.566   7.394
 6749TIP3   OH241805   5.591   3.455   1.525
 6749TIP3    H141806   5.622   3.378   1.478
 6749TIP3    H241807   5.605   3.434   1.617
 6750TIP3   OH241808   0.772   0.244   1.613
 6750TIP3    H141809   0.725   0.306   1.669
 6750TIP3    H241810   0.797   0.173   1.673
 6751TIP3   OH241811   6.657   3.832   7.941
 6751TIP3    H141812   6.737   3.882   7.956
 6751TIP3    H241813   6.687   3.744   7.919
 6752TIP3   OH241814   4.746   6.414   0.656
 6752TIP3    H141815   4.699   6.439   0.736
 6752TIP3    H241816   4.783   6.496   0.623
 6753TIP3   OH241817   2.612   0.930   0.473
 6753TIP3    H141818   2.691   0.930   0.419
 6753TIP3    H241819   2.577   1.019   0.465
 6754TIP3   OH241820   0.190   2.777   0.868
 6754TIP3    H141821   0.185   2.772   0.963
 6754TIP3    H241822   0.108   2.738   0.837
 6755TIP3   OH241823   5.756   6.120   7.920
 6755TIP3    H141824   5.702   6.185   7.874
 6755TIP3    H241825   5.796   6.169   7.992
 6756TIP3   OH241826   2.003   6.361   7.306
 6756TIP3    H141827   2.051   6.290   7.349
 6756TIP3    H241828   2.002   6.336   7.214
 6757TIP3   OH241829   0.837   2.589   7.700
 6757TIP3    H141830   0.830   2.527   7.628
 6757TIP3    H241831   0.793   2.668   7.668
 6758TIP3   OH241832   5.962   2.503   6.423
 6758TIP3    H141833   5.904   2.433   6.395
 6758TIP3    H241834   5.910   2.583   6.411
 6759TIP3   OH241835   6.084   6.759   0.257
 6759TIP3    H141836   6.149   6.722   0.198
 6759TIP3    H241837   6.003   6.711   0.237
 6760TIP3   OH241838   6.737   2.826   0.358
 6760TIP3    H141839   6.749   2.870   0.443
 6760TIP3    H241840   6.816   2.772   0.349
 6761TIP3   OH241841   1.121   4.949   6.788
 6761TIP3    H141842   1.133   4.887   6.716
 6761TIP3    H241843   1.057   5.012   6.754
 6762TIP3   OH241844   3.999   2.354   7.104
 6762TIP3    H141845   3.985   2.265   7.072
 6762TIP3    H241846   3.913   2.381   7.138
 6763TIP3   OH241847   2.650   0.265   8.036
 6763TIP3    H141848   2.712   0.217   8.091
 6763TIP3    H241849   2.635   0.207   7.961
 6764TIP3   OH241850   4.480   0.192   2.469
 6764TIP3    H141851   4.560   0.208   2.419
 6764TIP3    H241852   4.478   0.263   2.534
 6765TIP3   OH241853   4.933   0.726   0.361
 6765TIP3    H141854   4.863   0.785   0.335
 6765TIP3    H241855   4.891   0.641   0.369
 6766TIP3   OH241856   2.223   3.122   0.564
 6766TIP3    H141857   2.237   3.039   0.518
 6766TIP3    H241858   2.216   3.186   0.493
 6767TIP3   OH241859   0.546   0.911   8.371
 6767TIP3    H141860   0.545   1.000   8.336
 6767TIP3    H241861   0.597   0.861   8.307
 6768TIP3   OH241862   1.106   0.431   6.991
 6768TIP3    H141863   1.075   0.369   7.057
 6768TIP3    H241864   1.116   0.378   6.911
 6769TIP3   OH241865   4.782   3.612   1.618
 6769TIP3    H141866   4.857   3.660   1.583
 6769TIP3    H241867   4.725   3.679   1.655
 6770TIP3   OH241868   4.072   6.232   0.079
 6770TIP3    H141869   4.048   6.252   0.169
 6770TIP3    H241870   4.143   6.168   0.086
 6771TIP3   OH241871   2.437   6.350   8.059
 6771TIP3    H141872   2.342   6.360   8.048
 6771TIP3    H241873   2.456   6.393   8.143
 6772TIP3   OH241874   1.376   2.059   7.586
 6772TIP3    H141875   1.291   2.101   7.593
 6772TIP3    H241876   1.439   2.126   7.612
 6773TIP3   OH241877   4.762   1.928   7.910
 6773TIP3    H141878   4.776   1.927   7.815
 6773TIP3    H241879   4.846   1.954   7.946
 6774TIP3   OH241880   3.327   4.221   6.185
 6774TIP3    H141881   3.385   4.203   6.110
 6774TIP3    H241882   3.385   4.255   6.253
 6775TIP3   OH241883   2.655   0.541   6.862
 6775TIP3    H141884   2.729   0.570   6.914
 6775TIP3    H241885   2.610   0.621   6.836
 6776TIP3   OH241886   2.896   2.585   0.310
 6776TIP3    H141887   2.816   2.628   0.279
 6776TIP3    H241888   2.945   2.565   0.230
 6777TIP3   OH241889   5.204   4.253   5.963
 6777TIP3    H141890   5.293   4.241   5.996
 6777TIP3    H241891   5.185   4.346   5.980
 6778TIP3   OH241892   2.210   2.219   0.320
 6778TIP3    H141893   2.125   2.234   0.362
 6778TIP3    H241894   2.259   2.300   0.334
 6779TIP3   OH241895   5.228   6.875   7.119
 6779TIP3    H141896   5.323   6.891   7.116
 6779TIP3    H241897   5.211   6.822   7.041
 6780TIP3   OH241898   6.117   1.541   7.781
 6780TIP3    H141899   6.109   1.613   7.719
 6780TIP3    H241900   6.076   1.574   7.861
 6781TIP3   OH241901   6.213   5.985   1.393
 6781TIP3    H141902   6.199   5.971   1.300
 6781TIP3    H241903   6.138   5.943   1.435
 6782TIP3   OH241904   3.654   4.877   1.840
 6782TIP3    H141905   3.736   4.827   1.837
 6782TIP3    H241906   3.590   4.819   1.799
 6783TIP3   OH241907   5.935   2.373   8.064
 6783TIP3    H141908   5.874   2.302   8.046
 6783TIP3    H241909   5.970   2.396   7.977
 6784TIP3   OH241910   5.159   6.437   7.944
 6784TIP3    H141911   5.141   6.345   7.958
 6784TIP3    H241912   5.191   6.442   7.854
 6785TIP3   OH241913   6.136   4.415   7.502
 6785TIP3    H141914   6.077   4.416   7.577
 6785TIP3    H241915   6.115   4.494   7.453
 6786TIP3   OH241916   5.029   4.377   0.659
 6786TIP3    H141917   5.123   4.379   0.643
 6786TIP3    H241918   5.015   4.301   0.716
 6787TIP3   OH241919   1.174   0.362   7.755
 6787TIP3    H141920   1.084   0.334   7.769
 6787TIP3    H241921   1.167   0.443   7.705
 6788TIP3   OH241922   1.658   6.688   1.710
 6788TIP3    H141923   1.564   6.680   1.722
 6788TIP3    H241924   1.686   6.600   1.683
 6789TIP3   OH241925   2.357   3.713   7.735
 6789TIP3    H141926   2.358   3.625   7.696
 6789TIP3    H241927   2.448   3.729   7.758
 6790TIP3   OH241928   1.494   1.126   7.111
 6790TIP3    H141929   1.503   1.034   7.086
 6790TIP3    H241930   1.413   1.154   7.069
 6791TIP3   OH241931   4.337   4.758   7.471
 6791TIP3    H141932   4.431   4.764   7.451
 6791TIP3    H241933   4.302   4.698   7.405
 6792TIP3   OH241934   4.751   5.615   2.736
 6792TIP3    H141935   4.805   5.574   2.669
 6792TIP3    H241936   4.802   5.607   2.816
 6793TIP3   OH241937   1.288   1.284   1.709
 6793TIP3    H141938   1.310   1.362   1.659
 6793TIP3    H241939   1.221   1.240   1.657
 6794TIP3   OH241940   1.569   3.521   8.298
 6794TIP3    H141941   1.581   3.512   8.392
 6794TIP3    H241942   1.613   3.603   8.276
 6795TIP3   OH241943   2.344   2.285   8.156
 6795TIP3    H141944   2.248   2.278   8.154
 6795TIP3    H241945   2.370   2.287   8.064
 6796TIP3   OH241946   0.881   3.224   7.064
 6796TIP3    H141947   0.791   3.225   7.030
 6796TIP3    H241948   0.915   3.311   7.042
 6797TIP3   OH241949   1.991   2.662   6.873
 6797TIP3    H141950   2.003   2.570   6.899
 6797TIP3    H241951   2.013   2.664   6.780
 6798TIP3   OH241952   1.913   5.537   1.560
 6798TIP3    H141953   1.853   5.478   1.514
 6798TIP3    H241954   1.859   5.612   1.584
 6799TIP3   OH241955   4.068   4.349   5.734
 6799TIP3    H141956   4.046   4.434   5.770
 6799TIP3    H241957   3.997   4.331   5.672
 6800TIP3   OH241958   0.493   0.693   6.967
 6800TIP3    H141959   0.522   0.626   6.906
 6800TIP3    H241960   0.398   0.683   6.970
 6801TIP3   OH241961   3.083   3.201   6.912
 6801TIP3    H141962   3.068   3.248   6.994
 6801TIP3    H241963   3.143   3.130   6.936
 6802TIP3   OH241964   1.952   1.750   0.059
 6802TIP3    H141965   1.955   1.670   0.112
 6802TIP3    H241966   1.928   1.720   8.539
 6803TIP3   OH241967   2.748   4.921   6.396
 6803TIP3    H141968   2.730   4.833   6.427
 6803TIP3    H241969   2.753   4.975   6.475
 6804TIP3   OH241970   6.788   4.351   7.955
 6804TIP3    H141971   6.841   4.310   7.886
 6804TIP3    H241972   6.748   4.426   7.912
 6805TIP3   OH241973   2.452   2.045   7.057
 6805TIP3    H141974   2.385   2.089   7.109
 6805TIP3    H241975   2.404   1.983   7.002
 6806TIP3   OH241976   0.264   6.086   1.501
 6806TIP3    H141977   0.199   6.122   1.561
 6806TIP3    H241978   0.216   6.024   1.447
 6807TIP3   OH241979   6.411   2.100   2.035
 6807TIP3    H141980   6.440   2.150   2.111
 6807TIP3    H241981   6.349   2.036   2.071
 6808TIP3   OH241982   0.026   2.901   2.520
 6808TIP3    H141983   0.096   2.909   2.584
 6808TIP3    H241984   6.859   2.876   2.572
 6809TIP3   OH241985   4.024   4.603   5.853
 6809TIP3    H141986   4.069   4.674   5.898
 6809TIP3    H241987   3.932   4.628   5.853
 6810TIP3   OH241988   3.133   6.561   6.688
 6810TIP3    H141989   3.121   6.567   6.783
 6810TIP3    H241990   3.194   6.633   6.668
 6811TIP3   OH241991   3.686   0.821   8.186
 6811TIP3    H141992   3.779   0.809   8.164
 6811TIP3    H241993   3.684   0.906   8.231
 6812TIP3   OH241994   5.527   0.873   0.800
 6812TIP3    H141995   5.593   0.889   0.867
 6812TIP3    H241996   5.577   0.869   0.718
 6813TIP3   OH241997   4.119   1.949   0.529
 6813TIP3    H141998   4.134   1.945   0.435
 6813TIP3    H241999   4.087   1.861   0.552
 6814TIP3   OH242000   6.362   4.598   0.636
 6814TIP3    H142001   6.365   4.689   0.608
 6814TIP3    H242002   6.426   4.592   0.707
 6815TIP3   OH242003   4.180   4.093   7.142
 6815TIP3    H142004   4.117   4.049   7.086
 6815TIP3    H242005   4.253   4.114   7.084
 6816TIP3   OH242006   6.064   3.324   0.722
 6816TIP3    H142007   5.977   3.293   0.698
 6816TIP3    H242008   6.117   3.311   0.643
 6817TIP3   OH242009   3.547   2.242   0.149
 6817TIP3    H142010   3.512   2.257   0.061
 6817TIP3    H242011   3.543   2.147   0.160
 6818TIP3   OH242012   5.940   3.546   1.458
 6818TIP3    H142013   5.916   3.515   1.545
 6818TIP3    H242014   6.028   3.583   1.470
 6819TIP3   OH242015   3.269   0.332   7.436
 6819TIP3    H142016   3.250   0.426   7.427
 6819TIP3    H242017   3.317   0.325   7.518
 6820TIP3   OH242018   3.888   5.446   7.915
 6820TIP3    H142019   3.885   5.363   7.963
 6820TIP3    H242020   3.801   5.484   7.929
 6821TIP3   OH242021   3.300   1.217   7.077
 6821TIP3    H142022   3.232   1.246   7.137
 6821TIP3    H242023   3.287   1.270   6.998
 6822TIP3   OH242024   0.579   1.637   8.224
 6822TIP3    H142025   0.644   1.706   8.216
 6822TIP3    H242026   0.607   1.586   8.300
 6823TIP3   OH242027   1.564   6.333   1.420
 6823TIP3    H142028   1.625   6.355   1.490
 6823TIP3    H242029   1.478   6.353   1.456
 6824TIP3   OH242030   2.111   4.805   8.280
 6824TIP3    H142031   2.187   4.864   8.282
 6824TIP3    H242032   2.080   4.804   8.371
 6825TIP3   OH242033   0.279   4.948   6.604
 6825TIP3    H142034   0.268   5.037   6.637
 6825TIP3    H242035   0.346   4.909   6.660
 6826TIP3   OH242036   5.740   2.158   2.034
 6826TIP3    H142037   5.833   2.181   2.031
 6826TIP3    H242038   5.728   2.117   2.119
 6827TIP3   OH242039   0.833   5.462   8.270
 6827TIP3    H142040   0.816   5.491   8.359
 6827TIP3    H242041   0.928   5.468   8.260
 6828TIP3   OH242042   3.123   0.189   7.248
 6828TIP3    H142043   3.170   0.219   7.326
 6828TIP3    H242044   3.031   0.207   7.267
 6829TIP3   OH242045   6.475   4.708   8.025
 6829TIP3    H142046   6.569   4.714   8.040
 6829TIP3    H242047   6.459   4.760   7.946
 6830TIP3   OH242048   5.927   6.411   6.381
 6830TIP3    H142049   5.911   6.350   6.309
 6830TIP3    H242050   5.936   6.496   6.339
 6831TIP3   OH242051   0.161   3.784   0.510
 6831TIP3    H142052   0.240   3.757   0.462
 6831TIP3    H242053   0.173   3.877   0.526
 6832TIP3   OH242054   0.841   2.686   0.054
 6832TIP3    H142055   0.873   2.661   0.141
 6832TIP3    H242056   0.756   2.726   0.070
 6833TIP3   OH242057   1.644   3.371   0.229
 6833TIP3    H142058   1.625   3.280   0.251
 6833TIP3    H242059   1.598   3.421   0.297
 6834TIP3   OH242060   0.240   1.550   7.997
 6834TIP3    H142061   0.250   1.615   7.927
 6834TIP3    H242062   0.215   1.469   7.952
 6835TIP3   OH242063   4.960   5.882   8.137
 6835TIP3    H142064   4.896   5.826   8.181
 6835TIP3    H242065   4.914   5.965   8.124
 6836TIP3   OH242066   6.360   2.645   2.552
 6836TIP3    H142067   6.439   2.701   2.555
 6836TIP3    H242068   6.342   2.624   2.643
 6837TIP3   OH242069   5.130   5.509   1.872
 6837TIP3    H142070   5.090   5.577   1.818
 6837TIP3    H242071   5.130   5.431   1.816
 6838TIP3   OH242072   3.277   2.586   1.320
 6838TIP3    H142073   3.301   2.583   1.413
 6838TIP3    H242074   3.203   2.526   1.312
 6839TIP3   OH242075   4.414   3.046   6.094
 6839TIP3    H142076   4.326   3.024   6.124
 6839TIP3    H242077   4.412   3.141   6.080
 6840TIP3   OH242078   4.454   3.756   8.461
 6840TIP3    H142079   4.522   3.762   8.394
 6840TIP3    H242080   4.417   3.668   8.450
 6841TIP3   OH242081   0.362   5.042   0.131
 6841TIP3    H142082   0.286   5.036   0.188
 6841TIP3    H242083   0.335   5.102   0.061
 6842TIP3   OH242084   1.776   2.773   0.946
 6842TIP3    H142085   1.779   2.785   1.041
 6842TIP3    H242086   1.830   2.695   0.930
 6843TIP3   OH242087   2.417   4.479   0.846
 6843TIP3    H142088   2.413   4.385   0.859
 6843TIP3    H242089   2.335   4.502   0.802
 6844TIP3   OH242090   4.623   5.090   1.520
 6844TIP3    H142091   4.643   5.057   1.608
 6844TIP3    H242092   4.704   5.076   1.471
 6845TIP3   OH242093   1.839   0.001   1.865
 6845TIP3    H142094   1.933   0.011   1.852
 6845TIP3    H242095   1.804   0.089   1.852
 6846TIP3   OH242096   3.891   6.632   8.120
 6846TIP3    H142097   3.940   6.589   8.050
 6846TIP3    H242098   3.950   6.628   8.196
 6847TIP3   OH242099   2.836   0.532   8.210
 6847TIP3    H142100   2.903   0.545   8.143
 6847TIP3    H242101   2.772   0.474   8.169
 6848TIP3   OH242102   4.137   4.946   7.009
 6848TIP3    H142103   4.224   4.941   7.047
 6848TIP3    H242104   4.083   4.888   7.062
 6849TIP3   OH242105   0.122   0.011   1.629
 6849TIP3    H142106   0.185   6.862   1.588
 6849TIP3    H242107   0.170   0.052   1.701
 6850TIP3   OH242108   4.874   2.720   1.464
 6850TIP3    H142109   4.836   2.637   1.433
 6850TIP3    H242110   4.863   2.717   1.559
 6851TIP3   OH242111   5.442   3.777   7.786
 6851TIP3    H142112   5.468   3.690   7.815
 6851TIP3    H242113   5.396   3.815   7.860
 6852TIP3   OH242114   3.250   1.920   1.657
 6852TIP3    H142115   3.162   1.885   1.644
 6852TIP3    H242116   3.263   1.918   1.752
 6853TIP3   OH242117   6.438   3.040   7.831
 6853TIP3    H142118   6.375   3.063   7.762
 6853TIP3    H242119   6.504   3.109   7.828
 6854TIP3   OH242120   4.782   5.879   7.335
 6854TIP3    H142121   4.817   5.967   7.351
 6854TIP3    H242122   4.694   5.881   7.374
 6855TIP3   OH242123   0.350   1.113   0.971
 6855TIP3    H142124   0.327   1.085   0.883
 6855TIP3    H242125   0.422   1.175   0.958
 6856TIP3   OH242126   0.229   6.668   1.814
 6856TIP3    H142127   0.302   6.721   1.780
 6856TIP3    H242128   0.174   6.730   1.860
 6857TIP3   OH242129   5.334   5.746   6.844
 6857TIP3    H142130   5.416   5.731   6.796
 6857TIP3    H242131   5.350   5.710   6.931
 6858TIP3   OH242132   1.150   5.061   7.103
 6858TIP3    H142133   1.199   5.129   7.149
 6858TIP3    H242134   1.060   5.095   7.098
 6859TIP3   OH242135   5.200   2.023   8.349
 6859TIP3    H142136   5.243   1.941   8.374
 6859TIP3    H242137   5.239   2.046   8.265
 6860TIP3   OH242138   2.145   3.730   7.894
 6860TIP3    H142139   2.075   3.737   7.829
 6860TIP3    H242140   2.226   3.724   7.843
 6861TIP3   OH242141   2.189   6.909   1.297
 6861TIP3    H142142   2.267   0.035   1.339
 6861TIP3    H242143   2.132   0.075   1.283
 6862TIP3   OH242144   2.704   5.288   1.125
 6862TIP3    H142145   2.730   5.368   1.170
 6862TIP3    H242146   2.719   5.219   1.190
 6863TIP3   OH242147   5.343   0.732   5.704
 6863TIP3    H142148   5.305   0.644   5.703
 6863TIP3    H242149   5.274   0.788   5.740
 6864TIP3   OH242150   3.550   4.422   0.299
 6864TIP3    H142151   3.623   4.412   0.361
 6864TIP3    H242152   3.541   4.517   0.288
 6865TIP3   OH242153   0.982   1.562   8.043
 6865TIP3    H142154   0.888   1.579   8.047
 6865TIP3    H242155   1.021   1.636   8.090
 6866TIP3   OH242156   6.326   3.851   7.694
 6866TIP3    H142157   6.325   3.947   7.691
 6866TIP3    H242158   6.263   3.829   7.762
 6867TIP3   OH242159   4.681   5.817   1.171
 6867TIP3    H142160   4.659   5.891   1.114
 6867TIP3    H242161   4.768   5.838   1.204
 6868TIP3   OH242162   4.547   0.837   6.898
 6868TIP3    H142163   4.463   0.811   6.860
 6868TIP3    H242164   4.591   0.887   6.829
 6869TIP3   OH242165   4.268   6.380   8.420
 6869TIP3    H142166   4.337   6.446   8.418
 6869TIP3    H242167   4.247   6.370   8.513
 6870TIP3   OH242168   5.202   3.835   6.375
 6870TIP3    H142169   5.220   3.897   6.305
 6870TIP3    H242170   5.118   3.862   6.411
 6871TIP3   OH242171   5.058   3.499   6.793
 6871TIP3    H142172   5.150   3.475   6.807
 6871TIP3    H242173   5.051   3.514   6.699
 6872TIP3   OH242174   1.909   5.113   0.907
 6872TIP3    H142175   1.860   5.151   0.833
 6872TIP3    H242176   1.938   5.028   0.874
 6873TIP3   OH242177   1.656   2.881   7.391
 6873TIP3    H142178   1.635   2.930   7.311
 6873TIP3    H242179   1.749   2.863   7.384
 6874TIP3   OH242180   0.087   6.176   1.684
 6874TIP3    H142181   0.096   6.241   1.753
 6874TIP3    H242182   0.029   6.109   1.720
 6875TIP3   OH242183   3.153   6.444   0.965
 6875TIP3    H142184   3.096   6.402   1.030
 6875TIP3    H242185   3.222   6.379   0.949
 6876TIP3   OH242186   2.971   5.076   6.464
 6876TIP3    H142187   2.936   5.026   6.390
 6876TIP3    H242188   2.927   5.160   6.460
 6877TIP3   OH242189   0.970   5.253   7.257
 6877TIP3    H142190   0.907   5.326   7.254
 6877TIP3    H242191   0.950   5.207   7.338
 6878TIP3   OH242192   5.476   6.747   1.000
 6878TIP3    H142193   5.475   6.686   0.927
 6878TIP3    H242194   5.562   6.788   0.995
 6879TIP3   OH242195   2.000   3.718   1.804
 6879TIP3    H142196   1.962   3.634   1.780
 6879TIP3    H242197   2.002   3.718   1.900
 6880TIP3   OH242198   1.478   5.267   7.316
 6880TIP3    H142199   1.572   5.287   7.319
 6880TIP3    H242200   1.441   5.338   7.262
 6881TIP3   OH242201   4.870   5.905   7.603
 6881TIP3    H142202   4.878   5.882   7.510
 6881TIP3    H242203   4.868   6.001   7.603
 6882TIP3   OH242204   5.580   1.993   1.068
 6882TIP3    H142205   5.516   2.001   0.998
 6882TIP3    H242206   5.657   2.039   1.036
 6883TIP3   OH242207   0.558   0.579   1.641
 6883TIP3    H142208   0.542   0.523   1.565
 6883TIP3    H242209   0.474   0.623   1.657
 6884TIP3   OH242210   4.104   1.648   1.785
 6884TIP3    H142211   4.170   1.670   1.850
 6884TIP3    H242212   4.139   1.572   1.739
 6885TIP3   OH242213   6.245   1.533   8.086
 6885TIP3    H142214   6.192   1.456   8.106
 6885TIP3    H242215   6.311   1.535   8.155
 6886TIP3   OH242216   3.106   2.335   2.038
 6886TIP3    H142217   3.042   2.271   2.070
 6886TIP3    H242218   3.191   2.294   2.051
 6887TIP3   OH242219   2.248   0.303   6.904
 6887TIP3    H142220   2.240   0.344   6.818
 6887TIP3    H242221   2.341   0.310   6.925
 6888TIP3   OH242222   6.646   2.575   1.048
 6888TIP3    H142223   6.569   2.564   0.992
 6888TIP3    H242224   6.610   2.583   1.136
 6889TIP3   OH242225   4.022   6.522   7.908
 6889TIP3    H142226   4.007   6.600   7.854
 6889TIP3    H242227   4.102   6.543   7.957
 6890TIP3   OH242228   1.649   5.621   6.263
 6890TIP3    H142229   1.706   5.544   6.270
 6890TIP3    H242230   1.703   5.693   6.295
 6891TIP3   OH242231   3.594   2.883   8.467
 6891TIP3    H142232   3.614   2.872   8.560
 6891TIP3    H242233   3.655   2.951   8.438
 6892TIP3   OH242234   0.724   1.991   7.260
 6892TIP3    H142235   0.750   1.948   7.178
 6892TIP3    H242236   0.806   2.028   7.294
 6893TIP3   OH242237   3.879   0.511   1.569
 6893TIP3    H142238   3.794   0.546   1.542
 6893TIP3    H242239   3.858   0.427   1.610
 6894TIP3   OH242240   4.740   6.131   0.254
 6894TIP3    H142241   4.753   6.190   0.328
 6894TIP3    H242242   4.768   6.045   0.287
 6895TIP3   OH242243   6.322   2.862   0.578
 6895TIP3    H142244   6.247   2.895   0.529
 6895TIP3    H242245   6.283   2.813   0.651
 6896TIP3   OH242246   0.337   5.003   7.432
 6896TIP3    H142247   0.297   5.088   7.419
 6896TIP3    H242248   0.387   5.012   7.514
 6897TIP3   OH242249   6.104   3.361   1.040
 6897TIP3    H142250   6.136   3.401   0.959
 6897TIP3    H242251   6.012   3.343   1.022
 6898TIP3   OH242252   6.093   2.389   1.618
 6898TIP3    H142253   6.046   2.401   1.535
 6898TIP3    H242254   6.049   2.449   1.679
 6899TIP3   OH242255   1.112   4.436   6.914
 6899TIP3    H142256   1.106   4.420   7.008
 6899TIP3    H242257   1.206   4.442   6.896
 6900TIP3   OH242258   1.991   5.212   2.355
 6900TIP3    H142259   1.974   5.207   2.261
 6900TIP3    H242260   1.913   5.254   2.391
 6901TIP3   OH242261   6.275   4.240   7.336
 6901TIP3    H142262   6.310   4.286   7.260
 6901TIP3    H242263   6.201   4.293   7.365
 6902TIP3   OH242264   3.745   5.545   2.451
 6902TIP3    H142265   3.828   5.499   2.435
 6902TIP3    H242266   3.748   5.568   2.543
 6903TIP3   OH242267   1.521   5.292   2.041
 6903TIP3    H142268   1.495   5.216   2.092
 6903TIP3    H242269   1.439   5.335   2.017
 6904TIP3   OH242270   3.060   2.034   1.901
 6904TIP3    H142271   3.017   1.997   1.978
 6904TIP3    H242272   3.137   2.080   1.936
 6905TIP3   OH242273   5.302   3.467   1.942
 6905TIP3    H142274   5.389   3.438   1.970
 6905TIP3    H242275   5.246   3.452   2.019
 6906TIP3   OH242276   2.737   4.034   2.108
 6906TIP3    H142277   2.818   3.983   2.108
 6906TIP3    H242278   2.734   4.073   2.021
 6907TIP3   OH242279   0.758   3.331   1.872
 6907TIP3    H142280   0.824   3.353   1.937
 6907TIP3    H242281   0.687   3.392   1.888
 6908TIP3   OH242282   1.860   5.280   7.851
 6908TIP3    H142283   1.930   5.227   7.889
 6908TIP3    H242284   1.811   5.312   7.927
 6909TIP3   OH242285   0.584   6.460   0.824
 6909TIP3    H142286   0.614   6.550   0.838
 6909TIP3    H242287   0.652   6.421   0.769
 6910TIP3   OH242288   5.607   6.491   6.409
 6910TIP3    H142289   5.641   6.549   6.341
 6910TIP3    H242290   5.520   6.526   6.429
 6911TIP3   OH242291   3.053   0.791   0.333
 6911TIP3    H142292   3.110   0.715   0.350
 6911TIP3    H242293   2.969   0.767   0.373
 6912TIP3   OH242294   2.039   4.614   7.326
 6912TIP3    H142295   2.114   4.640   7.380
 6912TIP3    H242296   1.967   4.603   7.389
 6913TIP3   OH242297   6.576   4.789   7.185
 6913TIP3    H142298   6.595   4.782   7.278
 6913TIP3    H242299   6.579   4.699   7.153
 6914TIP3   OH242300   1.202   0.888   6.835
 6914TIP3    H142301   1.134   0.901   6.769
 6914TIP3    H242302   1.259   0.964   6.826
 6915TIP3   OH242303   3.450   2.466   6.589
 6915TIP3    H142304   3.520   2.426   6.538
 6915TIP3    H242305   3.430   2.401   6.657
 6916TIP3   OH242306   6.323   1.036   7.786
 6916TIP3    H142307   6.256   0.991   7.838
 6916TIP3    H242308   6.391   1.059   7.849
 6917TIP3   OH242309   2.309   5.804   8.373
 6917TIP3    H142310   2.386   5.836   8.326
 6917TIP3    H242311   2.334   5.805   8.465
 6918TIP3   OH242312   2.227   0.967   6.700
 6918TIP3    H142313   2.305   0.913   6.708
 6918TIP3    H242314   2.261   1.054   6.675
 6919TIP3   OH242315   5.826   6.149   1.849
 6919TIP3    H142316   5.863   6.117   1.931
 6919TIP3    H242317   5.887   6.119   1.782
 6920TIP3   OH242318   4.722   1.676   8.282
 6920TIP3    H142319   4.774   1.684   8.202
 6920TIP3    H242320   4.785   1.690   8.352
 6921TIP3   OH242321   2.121   3.750   0.463
 6921TIP3    H142322   2.063   3.752   0.539
 6921TIP3    H242323   2.184   3.820   0.479
 6922TIP3   OH242324   1.493   6.481   8.275
 6922TIP3    H142325   1.577   6.501   8.232
 6922TIP3    H242326   1.451   6.418   8.216
 6923TIP3   OH242327   0.882   1.437   7.133
 6923TIP3    H142328   0.890   1.520   7.181
 6923TIP3    H242329   0.802   1.447   7.082
 6924TIP3   OH242330   4.796   0.460   7.980
 6924TIP3    H142331   4.852   0.388   7.952
 6924TIP3    H242332   4.719   0.454   7.923
 6925TIP3   OH242333   4.200   3.737   0.214
 6925TIP3    H142334   4.146   3.732   0.293
 6925TIP3    H242335   4.290   3.730   0.245
 6926TIP3   OH242336   2.616   4.287   7.567
 6926TIP3    H142337   2.528   4.249   7.568
 6926TIP3    H242338   2.662   4.239   7.499
 6927TIP3   OH242339   5.677   0.709   0.191
 6927TIP3    H142340   5.620   0.785   0.193
 6927TIP3    H242341   5.719   0.711   0.105
 6928TIP3   OH242342   3.673   3.150   7.965
 6928TIP3    H142343   3.662   3.203   7.886
 6928TIP3    H242344   3.767   3.134   7.971
 6929TIP3   OH242345   5.942   0.686   8.306
 6929TIP3    H142346   6.010   0.699   8.373
 6929TIP3    H242347   5.891   0.612   8.339
 6930TIP3   OH242348   2.087   5.315   0.988
 6930TIP3    H142349   2.014   5.282   0.937
 6930TIP3    H242350   2.125   5.238   1.029
 6931TIP3   OH242351   2.325   2.000   0.507
 6931TIP3    H142352   2.296   2.057   0.436
 6931TIP3    H242353   2.398   1.951   0.470
 6932TIP3   OH242354   4.879   1.595   2.000
 6932TIP3    H142355   4.966   1.635   2.003
 6932TIP3    H242356   4.870   1.565   1.910
 6933TIP3   OH242357   1.718   4.379   7.990
 6933TIP3    H142358   1.665   4.403   8.065
 6933TIP3    H242359   1.806   4.410   8.011
 6934TIP3   OH242360   6.895   0.822   0.912
 6934TIP3    H142361   6.828   0.798   0.976
 6934TIP3    H242362   0.067   0.828   0.962
 6935TIP3   OH242363   1.252   4.760   7.436
 6935TIP3    H142364   1.281   4.752   7.527
 6935TIP3    H242365   1.313   4.822   7.396
 6936TIP3   OH242366   4.766   6.397   8.392
 6936TIP3    H142367   4.806   6.463   8.334
 6936TIP3    H242368   4.780   6.314   8.347
 6937TIP3   OH242369   3.874   4.298   1.480
 6937TIP3    H142370   3.784   4.326   1.465
 6937TIP3    H242371   3.866   4.209   1.515
 6938TIP3   OH242372   3.087   0.160   6.732
 6938TIP3    H142373   3.173   0.166   6.692
 6938TIP3    H242374   3.095   0.206   6.815
 6939TIP3   OH242375   1.688   3.864   1.578
 6939TIP3    H142376   1.697   3.789   1.637
 6939TIP3    H242377   1.626   3.922   1.621
 6940TIP3   OH242378   5.520   0.891   8.216
 6940TIP3    H142379   5.443   0.882   8.161
 6940TIP3    H242380   5.541   0.801   8.242
 6941TIP3   OH242381   2.951   3.208   6.296
 6941TIP3    H142382   2.973   3.290   6.339
 6941TIP3    H242383   3.034   3.162   6.288
 6942TIP3   OH242384   6.697   5.121   0.594
 6942TIP3    H142385   6.713   5.027   0.595
 6942TIP3    H242386   6.724   5.149   0.506
 6943TIP3   OH242387   1.524   2.128   8.488
 6943TIP3    H142388   1.615   2.128   8.518
 6943TIP3    H242389   1.481   2.062   8.542
 6944TIP3   OH242390   5.626   4.681   8.227
 6944TIP3    H142391   5.646   4.617   8.295
 6944TIP3    H242392   5.568   4.635   8.166
 6945TIP3   OH242393   6.244   2.306   0.581
 6945TIP3    H142394   6.297   2.233   0.549
 6945TIP3    H242395   6.195   2.269   0.655
 6946TIP3   OH242396   0.176   2.069   7.607
 6946TIP3    H142397   0.097   2.019   7.585
 6946TIP3    H242398   0.181   2.136   7.538
 6947TIP3   OH242399   1.195   4.026   2.510
 6947TIP3    H142400   1.234   3.939   2.511
 6947TIP3    H242401   1.223   4.064   2.427
 6948TIP3   OH242402   3.564   5.226   1.647
 6948TIP3    H142403   3.522   5.141   1.637
 6948TIP3    H242404   3.529   5.260   1.730
 6949TIP3   OH242405   4.986   0.423   0.228
 6949TIP3    H142406   4.973   0.428   0.322
 6949TIP3    H242407   5.042   0.497   0.207
 6950TIP3   OH242408   3.282   4.705   7.981
 6950TIP3    H142409   3.375   4.696   8.001
 6950TIP3    H242410   3.240   4.707   8.067
 6951TIP3   OH242411   4.082   5.644   8.207
 6951TIP3    H142412   4.169   5.608   8.191
 6951TIP3    H242413   4.058   5.688   8.125
 6952TIP3   OH242414   1.001   6.462   7.018
 6952TIP3    H142415   1.046   6.460   7.103
 6952TIP3    H242416   1.022   6.548   6.982
 6953TIP3   OH242417   1.017   6.684   1.766
 6953TIP3    H142418   1.102   6.670   1.807
 6953TIP3    H242419   1.013   6.620   1.695
 6954TIP3   OH242420   1.080   3.963   0.043
 6954TIP3    H142421   1.169   3.930   0.053
 6954TIP3    H242422   1.045   3.963   0.132
 6955TIP3   OH242423   2.073   1.512   7.554
 6955TIP3    H142424   2.105   1.495   7.465
 6955TIP3    H242425   2.071   1.608   7.561
 6956TIP3   OH242426   3.640   5.243   1.292
 6956TIP3    H142427   3.575   5.177   1.314
 6956TIP3    H242428   3.636   5.305   1.364
 6957TIP3   OH242429   3.069   6.376   7.535
 6957TIP3    H142430   3.068   6.298   7.590
 6957TIP3    H242431   3.138   6.432   7.572
 6958TIP3   OH242432   6.682   0.039   0.581
 6958TIP3    H142433   6.591   0.068   0.582
 6958TIP3    H242434   6.729   0.107   0.631
 6959TIP3   OH242435   3.973   2.931   1.196
 6959TIP3    H142436   3.885   2.900   1.219
 6959TIP3    H242437   4.033   2.870   1.238
 6960TIP3   OH242438   1.297   0.197   0.546
 6960TIP3    H142439   1.260   0.155   0.623
 6960TIP3    H242440   1.379   0.149   0.530
 6961TIP3   OH242441   4.677   2.941   8.166
 6961TIP3    H142442   4.623   2.902   8.235
 6961TIP3    H242443   4.713   2.866   8.119
 6962TIP3   OH242444   5.810   5.738   0.488
 6962TIP3    H142445   5.873   5.667   0.498
 6962TIP3    H242446   5.757   5.713   0.412
 6963TIP3   OH242447   2.167   1.568   1.989
 6963TIP3    H142448   2.091   1.510   2.002
 6963TIP3    H242449   2.133   1.656   2.004
 6964TIP3   OH242450   6.339   5.082   1.383
 6964TIP3    H142451   6.314   5.020   1.452
 6964TIP3    H242452   6.431   5.102   1.401
 6965TIP3   OH242453   4.764   1.073   2.736
 6965TIP3    H142454   4.855   1.100   2.724
 6965TIP3    H242455   4.760   0.986   2.698
 6966TIP3   OH242456   6.011   4.298   1.532
 6966TIP3    H142457   5.957   4.375   1.511
 6966TIP3    H242458   6.067   4.287   1.456
 6967TIP3   OH242459   0.868   0.128   0.246
 6967TIP3    H142460   0.909   0.151   0.162
 6967TIP3    H242461   0.849   0.035   0.238
 6968TIP3   OH242462   4.521   5.006   0.944
 6968TIP3    H142463   4.526   5.077   1.009
 6968TIP3    H242464   4.612   4.982   0.929
 6969TIP3   OH242465   0.554   6.669   6.730
 6969TIP3    H142466   0.610   6.610   6.680
 6969TIP3    H242467   0.614   6.716   6.788
 6970TIP3   OH242468   1.933   2.829   7.426
 6970TIP3    H142469   1.952   2.785   7.344
 6970TIP3    H242470   1.981   2.779   7.492
 6971TIP3   OH242471   5.123   1.991   0.170
 6971TIP3    H142472   5.124   1.989   0.265
 6971TIP3    H242473   5.212   2.016   0.145
 6972TIP3   OH242474   0.410   1.438   0.673
 6972TIP3    H142475   0.316   1.428   0.661
 6972TIP3    H242476   0.447   1.358   0.638
 6973TIP3   OH242477   4.266   0.614   0.298
 6973TIP3    H142478   4.196   0.658   0.250
 6973TIP3    H242479   4.245   0.628   0.390
 6974TIP3   OH242480   4.905   5.244   7.738
 6974TIP3    H142481   4.955   5.181   7.687
 6974TIP3    H242482   4.816   5.238   7.704
 6975TIP3   OH242483   0.058   5.849   1.617
 6975TIP3    H142484   0.126   5.829   1.681
 6975TIP3    H242485   6.885   5.838   1.664
 6976TIP3   OH242486   0.903   4.613   1.498
 6976TIP3    H142487   0.936   4.702   1.506
 6976TIP3    H242488   0.890   4.583   1.588
 6977TIP3   OH242489   1.570   0.872   7.139
 6977TIP3    H142490   1.661   0.891   7.162
 6977TIP3    H242491   1.550   0.790   7.185
 6978TIP3   OH242492   0.295   2.923   7.473
 6978TIP3    H142493   0.365   2.978   7.508
 6978TIP3    H242494   0.329   2.834   7.477
 6979TIP3   OH242495   5.910   0.155   8.288
 6979TIP3    H142496   5.924   0.071   8.332
 6979TIP3    H242497   5.903   0.219   8.359
 6980TIP3   OH242498   0.325   0.215   1.849
 6980TIP3    H142499   0.328   0.266   1.768
 6980TIP3    H242500   0.410   0.172   1.853
 6981TIP3   OH242501   4.260   3.177   7.292
 6981TIP3    H142502   4.267   3.268   7.320
 6981TIP3    H242503   4.171   3.151   7.316
 6982TIP3   OH242504   6.246   3.280   6.278
 6982TIP3    H142505   6.207   3.224   6.211
 6982TIP3    H242506   6.307   3.223   6.324
 6983TIP3   OH242507   1.276   3.374   8.155
 6983TIP3    H142508   1.316   3.405   8.237
 6983TIP3    H242509   1.349   3.368   8.093
 6984TIP3   OH242510   3.521   5.511   7.121
 6984TIP3    H142511   3.580   5.469   7.185
 6984TIP3    H242512   3.465   5.568   7.174
 6985TIP3   OH242513   5.075   1.501   0.753
 6985TIP3    H142514   5.160   1.461   0.733
 6985TIP3    H242515   5.054   1.469   0.841
 6986TIP3   OH242516   4.247   2.532   0.070
 6986TIP3    H142517   4.288   2.498   0.150
 6986TIP3    H242518   4.321   2.555   0.014
 6987TIP3   OH242519   0.847   2.259   8.209
 6987TIP3    H142520   0.857   2.347   8.172
 6987TIP3    H242521   0.897   2.262   8.291
 6988TIP3   OH242522   1.909   0.485   1.411
 6988TIP3    H142523   1.949   0.399   1.400
 6988TIP3    H242524   1.982   0.547   1.405
 6989TIP3   OH242525   3.303   0.313   6.673
 6989TIP3    H142526   3.350   0.362   6.741
 6989TIP3    H242527   3.348   0.334   6.592
 6990TIP3   OH242528   3.336   1.149   0.381
 6990TIP3    H142529   3.368   1.230   0.343
 6990TIP3    H242530   3.379   1.143   0.466
 6991TIP3   OH242531   6.101   0.400   1.139
 6991TIP3    H142532   6.175   0.449   1.104
 6991TIP3    H242533   6.044   0.386   1.063
 6992TIP3   OH242534   4.730   0.088   0.032
 6992TIP3    H142535   4.808   0.142   0.025
 6992TIP3    H242536   4.669   0.139   0.085
 6993TIP3   OH242537   2.213   4.647   7.973
 6993TIP3    H142538   2.227   4.712   7.904
 6993TIP3    H242539   2.122   4.661   8.000
 6994TIP3   OH242540   1.516   4.048   8.398
 6994TIP3    H142541   1.551   4.128   8.437
 6994TIP3    H242542   1.574   4.032   8.323
 6995TIP3   OH242543   2.841   1.856   7.132
 6995TIP3    H142544   2.777   1.824   7.068
 6995TIP3    H242545   2.853   1.783   7.193
 6996TIP3   OH242546   6.756   1.735   8.448
 6996TIP3    H142547   6.793   1.817   8.415
 6996TIP3    H242548   6.830   1.675   8.453
 6997TIP3   OH242549   6.500   3.055   7.188
 6997TIP3    H142550   6.429   3.106   7.228
 6997TIP3    H242551   6.580   3.091   7.226
 6998TIP3   OH242552   5.902   3.536   2.108
 6998TIP3    H142553   5.861   3.619   2.130
 6998TIP3    H242554   5.848   3.470   2.152
 6999TIP3   OH242555   2.009   1.991   8.505
 6999TIP3    H142556   1.922   2.027   8.487
 6999TIP3    H242557   1.994   1.920   0.000
 7000TIP3   OH242558   1.956   0.517   0.262
 7000TIP3    H142559   1.876   0.493   0.215
 7000TIP3    H242560   2.023   0.459   0.227
 7001TIP3   OH242561   0.979   0.893   7.571
 7001TIP3    H142562   1.043   0.906   7.501
 7001TIP3    H242563   0.998   0.805   7.605
 7002TIP3   OH242564   6.755   3.308   1.479
 7002TIP3    H142565   6.697   3.383   1.469
 7002TIP3    H242566   6.837   3.345   1.511
 7003TIP3   OH242567   6.023   4.527   0.458
 7003TIP3    H142568   6.014   4.434   0.435
 7003TIP3    H242569   6.038   4.526   0.553
 7004TIP3   OH242570   0.283   0.630   1.717
 7004TIP3    H142571   0.210   0.572   1.696
 7004TIP3    H242572   0.245   0.695   1.776
 7005TIP3   OH242573   5.080   0.778   0.774
 7005TIP3    H142574   5.149   0.807   0.714
 7005TIP3    H242575   5.049   0.859   0.816
 7006TIP3   OH242576   3.944   0.205   6.597
 7006TIP3    H142577   3.906   0.117   6.598
 7006TIP3    H242578   3.916   0.244   6.679
 7007TIP3   OH242579   5.011   1.428   7.018
 7007TIP3    H142580   4.950   1.359   6.991
 7007TIP3    H242581   5.065   1.388   7.086
 7008TIP3   OH242582   5.268   0.265   6.583
 7008TIP3    H142583   5.249   0.314   6.503
 7008TIP3    H242584   5.224   0.181   6.572
 7009TIP3   OH242585   0.367   5.622   7.116
 7009TIP3    H142586   0.409   5.668   7.190
 7009TIP3    H242587   0.401   5.533   7.121
 7010TIP3   OH242588   6.605   6.814   8.349
 7010TIP3    H142589   6.572   6.895   8.389
 7010TIP3    H242590   6.607   6.833   8.255
 7011TIP3   OH242591   3.699   2.311   7.844
 7011TIP3    H142592   3.648   2.369   7.900
 7011TIP3    H242593   3.681   2.343   7.755
 7012TIP3   OH242594   4.076   3.074   2.369
 7012TIP3    H142595   4.164   3.036   2.373
 7012TIP3    H242596   4.082   3.144   2.304
 7013TIP3   OH242597   5.208   2.767   7.705
 7013TIP3    H142598   5.208   2.695   7.643
 7013TIP3    H242599   5.283   2.750   7.762
 7014TIP3   OH242600   5.812   5.768   0.966
 7014TIP3    H142601   5.821   5.847   1.020
 7014TIP3    H242602   5.718   5.753   0.961
 7015TIP3   OH242603   5.759   4.317   7.981
 7015TIP3    H142604   5.706   4.314   8.060
 7015TIP3    H242605   5.708   4.371   7.920
 7016TIP3   OH242606   3.622   4.001   7.419
 7016TIP3    H142607   3.541   3.982   7.371
 7016TIP3    H242608   3.593   4.016   7.509
 7017TIP3   OH242609   1.287   1.522   0.276
 7017TIP3    H142610   1.279   1.590   0.210
 7017TIP3    H242611   1.198   1.487   0.285
 7018TIP3   OH242612   3.290   3.235   1.427
 7018TIP3    H142613   3.327   3.180   1.496
 7018TIP3    H242614   3.223   3.180   1.387
 7019TIP3   OH242615   1.526   1.273   6.428
 7019TIP3    H142616   1.441   1.235   6.451
 7019TIP3    H242617   1.528   1.273   6.333
 7020TIP3   OH242618   1.155   3.300   2.324
 7020TIP3    H142619   1.146   3.384   2.279
 7020TIP3    H242620   1.068   3.262   2.324
 7021TIP3   OH242621   2.093   1.660   1.060
 7021TIP3    H142622   2.067   1.725   1.125
 7021TIP3    H242623   2.131   1.589   1.112
 7022TIP3   OH242624   0.316   3.585   7.954
 7022TIP3    H142625   0.395   3.553   7.997
 7022TIP3    H242626   0.318   3.544   7.867
 7023TIP3   OH242627   5.592   6.225   7.741
 7023TIP3    H142628   5.504   6.202   7.709
 7023TIP3    H242629   5.649   6.210   7.666
 7024TIP3   OH242630   0.534   0.958   0.554
 7024TIP3    H142631   0.529   0.923   0.642
 7024TIP3    H242632   0.610   0.915   0.515
 7025TIP3   OH242633   0.835   0.552   1.657
 7025TIP3    H142634   0.880   0.548   1.572
 7025TIP3    H242635   0.742   0.559   1.634
 7026TIP3   OH242636   5.949   0.783   0.054
 7026TIP3    H142637   5.925   0.847   8.554
 7026TIP3    H242638   6.019   0.826   0.103
 7027TIP3   OH242639   6.340   3.400   7.629
 7027TIP3    H142640   6.392   3.445   7.696
 7027TIP3    H242641   6.400   3.387   7.556
 7028TIP3   OH242642   1.060   0.522   6.644
 7028TIP3    H142643   1.071   0.445   6.587
 7028TIP3    H242644   1.039   0.593   6.583
 7029TIP3   OH242645   0.086   4.842   1.127
 7029TIP3    H142646   0.095   4.923   1.076
 7029TIP3    H242647   0.007   4.801   1.093
 7030TIP3   OH242648   4.069   1.638   0.204
 7030TIP3    H142649   4.031   1.700   0.142
 7030TIP3    H242650   4.161   1.662   0.209
 7031TIP3   OH242651   6.845   5.851   1.996
 7031TIP3    H142652   0.000   5.799   1.949
 7031TIP3    H242653   6.820   5.797   2.071
 7032TIP3   OH242654   6.696   0.770   6.384
 7032TIP3    H142655   6.736   0.857   6.376
 7032TIP3    H242656   6.641   0.762   6.307
 7033TIP3   OH242657   1.827   0.849   7.215
 7033TIP3    H142658   1.814   0.755   7.224
 7033TIP3    H242659   1.874   0.874   7.295
 7034TIP3   OH242660   1.374   2.353   6.244
 7034TIP3    H142661   1.312   2.377   6.176
 7034TIP3    H242662   1.356   2.414   6.316
 7035TIP3   OH242663   3.561   4.422   7.910
 7035TIP3    H142664   3.648   4.457   7.926
 7035TIP3    H242665   3.520   4.485   7.851
 7036TIP3   OH242666   4.521   4.101   7.279
 7036TIP3    H142667   4.553   4.136   7.195
 7036TIP3    H242668   4.460   4.031   7.253
 7037TIP3   OH242669   0.932   4.659   1.755
 7037TIP3    H142670   0.890   4.625   1.834
 7037TIP3    H242671   0.966   4.745   1.781
 7038TIP3   OH242672   0.111   1.541   6.987
 7038TIP3    H142673   0.093   1.550   7.080
 7038TIP3    H242674   0.054   1.606   6.945
 7039TIP3   OH242675   2.320   6.713   1.168
 7039TIP3    H142676   2.249   6.775   1.184
 7039TIP3    H242677   2.348   6.685   1.255
 7040TIP3   OH242678   3.232   5.267   2.010
 7040TIP3    H142679   3.158   5.264   2.071
 7040TIP3    H242680   3.307   5.238   2.063
 7041TIP3   OH242681   4.378   6.293   8.140
 7041TIP3    H142682   4.408   6.363   8.198
 7041TIP3    H242683   4.355   6.221   8.198
 7042TIP3   OH242684   5.827   1.843   1.471
 7042TIP3    H142685   5.913   1.871   1.501
 7042TIP3    H242686   5.784   1.810   1.550
 7043TIP3   OH242687   0.481   5.677   7.629
 7043TIP3    H142688   0.543   5.748   7.645
 7043TIP3    H242689   0.457   5.646   7.717
 7044TIP3   OH242690   5.152   4.275   0.243
 7044TIP3    H142691   5.153   4.221   0.164
 7044TIP3    H242692   5.187   4.359   0.215
 7045TIP3   OH242693   1.291   6.776   0.020
 7045TIP3    H142694   1.284   6.865   8.554
 7045TIP3    H242695   1.299   6.786   0.115
 7046TIP3   OH242696   3.795   0.732   7.136
 7046TIP3    H142697   3.729   0.670   7.104
 7046TIP3    H242698   3.839   0.762   7.057
 7047TIP3   OH242699   5.912   1.883   0.897
 7047TIP3    H142700   5.853   1.931   0.838
 7047TIP3    H242701   5.969   1.833   0.838
 7048TIP3   OH242702   4.459   5.879   7.114
 7048TIP3    H142703   4.497   5.967   7.115
 7048TIP3    H242704   4.430   5.864   7.204
 7049TIP3   OH242705   0.607   2.267   8.442
 7049TIP3    H142706   0.698   2.289   8.465
 7049TIP3    H242707   0.610   2.175   8.417
 7050TIP3   OH242708   4.302   0.507   1.126
 7050TIP3    H142709   4.281   0.424   1.084
 7050TIP3    H242710   4.217   0.543   1.151
 7051TIP3   OH242711   4.538   6.388   6.759
 7051TIP3    H142712   4.614   6.444   6.772
 7051TIP3    H242713   4.526   6.386   6.664
 7052TIP3   OH242714   2.392   5.088   0.813
 7052TIP3    H142715   2.398   5.011   0.869
 7052TIP3    H242716   2.408   5.162   0.873
 7053TIP3   OH242717   3.271   1.461   0.301
 7053TIP3    H142718   3.365   1.461   0.320
 7053TIP3    H242719   3.232   1.515   0.370
 7054TIP3   OH242720   0.558   5.103   1.805
 7054TIP3    H142721   0.573   5.175   1.743
 7054TIP3    H242722   0.505   5.142   1.874
 7055TIP3   OH242723   6.838   5.579   8.007
 7055TIP3    H142724   0.004   5.538   7.965
 7055TIP3    H242725   6.868   5.599   8.096
 7056TIP3   OH242726   5.493   2.087   1.935
 7056TIP3    H142727   5.575   2.131   1.955
 7056TIP3    H242728   5.433   2.112   2.005
 7057TIP3   OH242729   0.000   5.185   0.866
 7057TIP3    H142730   6.853   5.182   0.788
 7057TIP3    H242731   6.878   5.260   0.916
 7058TIP3   OH242732   1.087   0.278   6.507
 7058TIP3    H142733   1.064   0.313   6.421
 7058TIP3    H242734   1.144   0.204   6.488
 7059TIP3   OH242735   5.728   5.508   2.096
 7059TIP3    H142736   5.765   5.446   2.159
 7059TIP3    H242737   5.637   5.520   2.124
 7060TIP3   OH242738   5.510   0.902   7.445
 7060TIP3    H142739   5.458   0.876   7.521
 7060TIP3    H242740   5.598   0.917   7.480
 7061TIP3   OH242741   1.863   1.527   1.760
 7061TIP3    H142742   1.795   1.518   1.826
 7061TIP3    H242743   1.891   1.438   1.741
 7062TIP3   OH242744   5.173   4.845   6.923
 7062TIP3    H142745   5.151   4.794   7.001
 7062TIP3    H242746   5.099   4.832   6.864
 7063TIP3   OH242747   6.822   5.260   7.283
 7063TIP3    H142748   6.831   5.355   7.279
 7063TIP3    H242749   6.730   5.245   7.301
 7064TIP3   OH242750   3.884   3.776   0.232
 7064TIP3    H142751   3.937   3.812   0.303
 7064TIP3    H242752   3.838   3.851   0.195
 7065TIP3   OH242753   4.303   2.859   0.327
 7065TIP3    H142754   4.211   2.842   0.308
 7065TIP3    H242755   4.308   2.954   0.338
 7066TIP3   OH242756   6.115   5.701   7.448
 7066TIP3    H142757   6.066   5.620   7.436
 7066TIP3    H242758   6.184   5.679   7.511
 7067TIP3   OH242759   1.671   0.942   7.566
 7067TIP3    H142760   1.608   0.870   7.567
 7067TIP3    H242761   1.754   0.901   7.542
 7068TIP3   OH242762   5.060   0.632   1.646
 7068TIP3    H142763   4.991   0.576   1.613
 7068TIP3    H242764   5.136   0.613   1.591
 7069TIP3   OH242765   3.066   5.816   0.632
 7069TIP3    H142766   3.159   5.825   0.613
 7069TIP3    H242767   3.023   5.873   0.568
 7070TIP3   OH242768   3.623   3.960   0.700
 7070TIP3    H142769   3.712   3.990   0.719
 7070TIP3    H242770   3.633   3.900   0.626
 7071TIP3   OH242771   1.948   0.136   7.797
 7071TIP3    H142772   1.859   0.143   7.762
 7071TIP3    H242773   2.004   0.138   7.720
 7072LIG      O42774   3.898   6.529   2.020
 7072LIG     C142775   3.950   6.645   2.074
 7072LIG     C242776   3.892   6.761   1.995
 7072LIG     C342777   3.911   6.646   2.221
 7072LIG     H142778   4.061   6.641   2.068
 7072LIG     H242779   3.781   6.769   2.002
 7072LIG     H342780   3.919   6.742   1.889
 7072LIG     H442781   3.950   6.844   2.040
 7072LIG     H542782   3.957   6.732   2.274
 7072LIG     H642783   3.950   6.559   2.278
 7072LIG     H742784   3.800   6.656   2.232
 7072LIG     H842785   3.813   6.538   2.063
   6.90932   6.90932   8.56701
