Title t= 5600.00000 step= 2800000
42785
    1SAPS     N    1   4.232   2.959   6.884
    1SAPS   HN1    2   4.134   2.946   6.852
    1SAPS   HN2    3   4.279   2.969   6.792
    1SAPS   HN3    4   4.264   2.871   6.929
    1SAPS   C12    5   4.231   3.076   6.975
    1SAPS  H12A    6   4.167   3.039   7.053
    1SAPS   C13    7   4.372   3.108   7.032
    1SAPS  O13A    8   4.475   3.059   6.968
    1SAPS  O13B    9   4.377   3.210   7.109
    1SAPS   C11   10   4.175   3.206   6.912
    1SAPS  H11A   11   4.245   3.244   6.835
    1SAPS  H11B   12   4.167   3.276   6.998
    1SAPS     P   13   3.967   3.308   6.805
    1SAPS   O13   14   3.840   3.249   6.752
    1SAPS   O14   15   3.961   3.399   6.919
    1SAPS   O12   16   4.049   3.184   6.854
    1SAPS   O11   17   4.053   3.386   6.698
    1SAPS    C1   18   4.123   3.310   6.596
    1SAPS    HA   19   4.231   3.303   6.623
    1SAPS    HB   20   4.088   3.205   6.587
    1SAPS    C2   21   4.115   3.374   6.460
    1SAPS    HS   22   4.180   3.323   6.386
    1SAPS   O21   23   4.160   3.507   6.468
    1SAPS   C21   24   4.287   3.523   6.496
    1SAPS   O22   25   4.375   3.442   6.497
    1SAPS   C22   26   4.317   3.675   6.513
    1SAPS   H2R   27   4.226   3.734   6.489
    1SAPS   H2S   28   4.329   3.683   6.623
    1SAPS    C3   29   3.971   3.364   6.390
    1SAPS    HX   30   3.892   3.400   6.459
    1SAPS    HY   31   3.948   3.257   6.372
    1SAPS   O31   32   3.954   3.453   6.270
    1SAPS   C31   33   4.004   3.399   6.165
    1SAPS   O32   34   4.051   3.288   6.151
    1SAPS   C32   35   3.987   3.492   6.054
    1SAPS   H2X   36   4.064   3.571   6.055
    1SAPS   H2Y   37   3.893   3.548   6.071
    1SAPS   C23   38   4.434   3.737   6.437
    1SAPS   H3R   39   4.531   3.682   6.445
    1SAPS   H3S   40   4.445   3.839   6.479
    1SAPS   C24   41   4.398   3.762   6.296
    1SAPS   H4R   42   4.461   3.843   6.252
    1SAPS   H4S   43   4.291   3.791   6.286
    1SAPS   C25   44   4.416   3.635   6.213
    1SAPS   H5R   45   4.432   3.547   6.277
    1SAPS   C26   46   4.439   3.618   6.085
    1SAPS   H6R   47   4.460   3.515   6.053
    1SAPS   C27   48   4.436   3.719   5.975
    1SAPS   H7R   49   4.526   3.731   5.911
    1SAPS   H7S   50   4.415   3.815   6.028
    1SAPS   C28   51   4.313   3.698   5.880
    1SAPS   H8R   52   4.218   3.712   5.934
    1SAPS   C29   53   4.318   3.685   5.747
    1SAPS   H9R   54   4.224   3.692   5.690
    1SAPS  C210   55   4.446   3.695   5.665
    1SAPS  H10R   56   4.521   3.616   5.689
    1SAPS  H10S   57   4.493   3.795   5.672
    1SAPS  C211   58   4.411   3.681   5.516
    1SAPS  H11R   59   4.332   3.607   5.499
    1SAPS  C212   60   4.464   3.753   5.411
    1SAPS  H12R   61   4.430   3.730   5.309
    1SAPS  C213   62   4.570   3.858   5.410
    1SAPS  H13R   63   4.667   3.809   5.434
    1SAPS  H13S   64   4.539   3.922   5.495
    1SAPS  C214   65   4.574   3.930   5.280
    1SAPS  H14R   66   4.482   3.983   5.248
    1SAPS  C215   67   4.672   3.931   5.189
    1SAPS  H15R   68   4.662   3.987   5.095
    1SAPS  C216   69   4.797   3.846   5.196
    1SAPS  H16R   70   4.784   3.762   5.267
    1SAPS  H16S   71   4.885   3.903   5.233
    1SAPS  C217   72   4.827   3.777   5.060
    1SAPS  H17R   73   4.936   3.756   5.068
    1SAPS  H17S   74   4.816   3.847   4.975
    1SAPS  C218   75   4.740   3.652   5.025
    1SAPS  H18R   76   4.638   3.657   5.070
    1SAPS  H18S   77   4.785   3.568   5.082
    1SAPS  C219   78   4.730   3.613   4.875
    1SAPS  H19R   79   4.834   3.605   4.836
    1SAPS  H19S   80   4.688   3.701   4.822
    1SAPS  C220   81   4.663   3.474   4.852
    1SAPS  H20R   82   4.705   3.389   4.909
    1SAPS  H20S   83   4.666   3.436   4.747
    1SAPS  H20T   84   4.557   3.497   4.872
    1SAPS   C33   85   3.994   3.430   5.914
    1SAPS   H3X   86   3.957   3.325   5.912
    1SAPS   H3Y   87   4.100   3.426   5.882
    1SAPS   C34   88   3.932   3.521   5.815
    1SAPS   H4X   89   3.977   3.622   5.829
    1SAPS   H4Y   90   3.825   3.516   5.844
    1SAPS   C35   91   3.955   3.454   5.677
    1SAPS   H5X   92   3.936   3.345   5.687
    1SAPS   H5Y   93   4.060   3.476   5.651
    1SAPS   C36   94   3.863   3.511   5.555
    1SAPS   H6X   95   3.870   3.622   5.558
    1SAPS   H6Y   96   3.760   3.473   5.568
    1SAPS   C37   97   3.926   3.462   5.421
    1SAPS   H7X   98   3.857   3.485   5.337
    1SAPS   H7Y   99   3.935   3.351   5.416
    1SAPS   C38  100   4.057   3.524   5.380
    1SAPS   H8X  101   4.137   3.473   5.437
    1SAPS   H8Y  102   4.064   3.631   5.410
    1SAPS   C39  103   4.075   3.523   5.230
    1SAPS   H9X  104   3.991   3.578   5.183
    1SAPS   H9Y  105   4.077   3.421   5.185
    1SAPS  C310  106   4.209   3.585   5.186
    1SAPS  H10X  107   4.302   3.546   5.231
    1SAPS  H10Y  108   4.189   3.689   5.218
    1SAPS  C311  109   4.234   3.563   5.039
    1SAPS  H11X  110   4.144   3.564   4.973
    1SAPS  H11Y  111   4.286   3.465   5.029
    1SAPS  C312  112   4.327   3.669   4.968
    1SAPS  H12X  113   4.387   3.623   4.886
    1SAPS  H12Y  114   4.409   3.707   5.032
    1SAPS  C313  115   4.257   3.791   4.912
    1SAPS  H13X  116   4.178   3.816   4.985
    1SAPS  H13Y  117   4.207   3.764   4.816
    1SAPS  C314  118   4.343   3.917   4.895
    1SAPS  H14X  119   4.358   3.966   4.994
    1SAPS  H14Y  120   4.284   3.986   4.832
    1SAPS  C315  121   4.481   3.893   4.828
    1SAPS  H15X  122   4.469   3.831   4.737
    1SAPS  H15Y  123   4.526   3.833   4.910
    1SAPS  C316  124   4.558   4.019   4.786
    1SAPS  H16X  125   4.578   4.093   4.866
    1SAPS  H16Y  126   4.494   4.064   4.707
    1SAPS  C317  127   4.684   3.987   4.709
    1SAPS  H17X  128   4.645   3.909   4.640
    1SAPS  H17Y  129   4.763   3.944   4.774
    1SAPS  C318  130   4.744   4.101   4.636
    1SAPS  H18X  131   4.846   4.082   4.596
    1SAPS  H18Y  132   4.761   4.194   4.695
    1SAPS  H18Z  133   4.669   4.122   4.557
    2SAPS     N  134   4.152   5.915   7.006
    2SAPS   HN1  135   4.082   5.847   7.042
    2SAPS   HN2  136   4.236   5.856   6.994
    2SAPS   HN3  137   4.168   5.989   7.078
    2SAPS   C12  138   4.110   5.967   6.878
    2SAPS  H12A  139   4.087   5.882   6.815
    2SAPS   C13  140   3.981   6.052   6.875
    2SAPS  O13A  141   3.921   6.074   6.980
    2SAPS  O13B  142   3.945   6.103   6.767
    2SAPS   C11  143   4.228   6.055   6.826
    2SAPS  H11A  144   4.264   6.131   6.899
    2SAPS  H11B  145   4.188   6.107   6.737
    2SAPS     P  146   4.355   5.915   6.633
    2SAPS   O13  147   4.491   5.949   6.586
    2SAPS   O14  148   4.308   5.768   6.634
    2SAPS   O12  149   4.334   5.974   6.782
    2SAPS   O11  150   4.255   6.002   6.542
    2SAPS    C1  151   4.138   5.938   6.492
    2SAPS    HA  152   4.075   5.887   6.568
    2SAPS    HB  153   4.070   6.020   6.459
    2SAPS    C2  154   4.188   5.853   6.365
    2SAPS    HS  155   4.242   5.763   6.401
    2SAPS   O21  156   4.272   5.942   6.286
    2SAPS   C21  157   4.339   5.888   6.192
    2SAPS   O22  158   4.359   5.763   6.180
    2SAPS   C22  159   4.407   5.994   6.107
    2SAPS   H2R  160   4.356   6.092   6.105
    2SAPS   H2S  161   4.504   6.018   6.155
    2SAPS    C3  162   4.059   5.795   6.292
    2SAPS    HX  163   4.007   5.732   6.368
    2SAPS    HY  164   4.110   5.735   6.214
    2SAPS   O31  165   3.978   5.896   6.240
    2SAPS   C31  166   3.972   5.907   6.108
    2SAPS   O32  167   4.028   5.835   6.033
    2SAPS   C32  168   3.868   6.007   6.064
    2SAPS   H2X  169   3.855   6.071   6.153
    2SAPS   H2Y  170   3.777   5.949   6.038
    2SAPS   C23  171   4.431   5.964   5.954
    2SAPS   H3R  172   4.443   5.854   5.947
    2SAPS   H3S  173   4.532   6.003   5.927
    2SAPS   C24  174   4.311   6.004   5.864
    2SAPS   H4R  175   4.293   6.112   5.879
    2SAPS   H4S  176   4.219   5.962   5.910
    2SAPS   C25  177   4.336   5.972   5.723
    2SAPS   H5R  178   4.291   5.874   5.699
    2SAPS   C26  179   4.405   6.045   5.628
    2SAPS   H6R  180   4.426   5.993   5.534
    2SAPS   C27  181   4.483   6.173   5.645
    2SAPS   H7R  182   4.566   6.176   5.572
    2SAPS   H7S  183   4.531   6.186   5.744
    2SAPS   C28  184   4.402   6.301   5.618
    2SAPS   H8R  185   4.334   6.329   5.699
    2SAPS   C29  186   4.374   6.357   5.498
    2SAPS   H9R  187   4.326   6.455   5.507
    2SAPS  C210  188   4.425   6.322   5.358
    2SAPS  H10R  189   4.535   6.304   5.366
    2SAPS  H10S  190   4.420   6.416   5.299
    2SAPS  C211  191   4.360   6.213   5.283
    2SAPS  H11R  192   4.265   6.182   5.331
    2SAPS  C212  193   4.397   6.173   5.163
    2SAPS  H12R  194   4.342   6.087   5.122
    2SAPS  C213  195   4.516   6.219   5.085
    2SAPS  H13R  196   4.567   6.303   5.137
    2SAPS  H13S  197   4.487   6.262   4.987
    2SAPS  C214  198   4.610   6.105   5.064
    2SAPS  H14R  199   4.701   6.100   5.126
    2SAPS  C215  200   4.581   6.010   4.966
    2SAPS  H15R  201   4.641   5.917   4.967
    2SAPS  C216  202   4.483   6.015   4.846
    2SAPS  H16R  203   4.551   6.046   4.764
    2SAPS  H16S  204   4.413   6.101   4.853
    2SAPS  C217  205   4.405   5.884   4.814
    2SAPS  H17R  206   4.473   5.800   4.785
    2SAPS  H17S  207   4.355   5.895   4.715
    2SAPS  C218  208   4.312   5.843   4.931
    2SAPS  H18R  209   4.257   5.926   4.980
    2SAPS  H18S  210   4.376   5.804   5.013
    2SAPS  C219  211   4.213   5.749   4.889
    2SAPS  H19R  212   4.157   5.795   4.804
    2SAPS  H19S  213   4.136   5.723   4.965
    2SAPS  C220  214   4.274   5.612   4.843
    2SAPS  H20R  215   4.304   5.615   4.736
    2SAPS  H20S  216   4.196   5.533   4.840
    2SAPS  H20T  217   4.364   5.593   4.905
    2SAPS   C33  218   3.930   6.077   5.941
    2SAPS   H3X  219   4.032   6.118   5.962
    2SAPS   H3Y  220   3.867   6.169   5.941
    2SAPS   C34  221   3.901   6.015   5.807
    2SAPS   H4X  222   3.795   5.999   5.780
    2SAPS   H4Y  223   3.958   5.919   5.807
    2SAPS   C35  224   3.960   6.088   5.691
    2SAPS   H5X  225   4.070   6.103   5.695
    2SAPS   H5Y  226   3.924   6.192   5.700
    2SAPS   C36  227   3.930   6.014   5.552
    2SAPS   H6X  228   3.819   6.014   5.538
    2SAPS   H6Y  229   3.962   5.909   5.571
    2SAPS   C37  230   4.012   6.072   5.433
    2SAPS   H7X  231   4.118   6.077   5.466
    2SAPS   H7Y  232   3.987   6.179   5.420
    2SAPS   C38  233   3.981   5.978   5.314
    2SAPS   H8X  234   3.871   5.966   5.319
    2SAPS   H8Y  235   4.022   5.874   5.315
    2SAPS   C39  236   4.011   6.049   5.176
    2SAPS   H9X  237   4.119   6.074   5.175
    2SAPS   H9Y  238   3.974   6.154   5.181
    2SAPS  C310  239   3.968   5.969   5.053
    2SAPS  H10X  240   3.985   5.867   5.092
    2SAPS  H10Y  241   4.035   6.004   4.971
    2SAPS  C311  242   3.821   5.996   5.013
    2SAPS  H11X  243   3.815   6.105   4.998
    2SAPS  H11Y  244   3.748   5.967   5.090
    2SAPS  C312  245   3.787   5.923   4.881
    2SAPS  H12X  246   3.831   5.821   4.884
    2SAPS  H12Y  247   3.833   5.977   4.795
    2SAPS  C313  248   3.641   5.923   4.847
    2SAPS  H13X  249   3.629   6.030   4.817
    2SAPS  H13Y  250   3.576   5.903   4.935
    2SAPS  C314  251   3.600   5.837   4.723
    2SAPS  H14X  252   3.491   5.849   4.708
    2SAPS  H14Y  253   3.610   5.732   4.756
    2SAPS  C315  254   3.687   5.852   4.598
    2SAPS  H15X  255   3.657   5.771   4.527
    2SAPS  H15Y  256   3.793   5.822   4.608
    2SAPS  C316  257   3.674   5.991   4.530
    2SAPS  H16X  258   3.678   6.071   4.606
    2SAPS  H16Y  259   3.572   5.992   4.487
    2SAPS  C317  260   3.767   6.033   4.409
    2SAPS  H17X  261   3.729   6.131   4.372
    2SAPS  H17Y  262   3.772   5.961   4.325
    2SAPS  C318  263   3.910   6.069   4.457
    2SAPS  H18X  264   3.973   5.979   4.476
    2SAPS  H18Y  265   3.907   6.129   4.551
    2SAPS  H18Z  266   3.963   6.136   4.386
    3SAPS     N  267   4.440   3.993   6.945
    3SAPS   HN1  268   4.420   4.001   7.046
    3SAPS   HN2  269   4.538   3.963   6.923
    3SAPS   HN3  270   4.431   4.087   6.902
    3SAPS   C12  271   4.331   3.913   6.892
    3SAPS  H12A  272   4.358   3.809   6.893
    3SAPS   C13  273   4.197   3.933   6.962
    3SAPS  O13A  274   4.203   3.996   7.068
    3SAPS  O13B  275   4.095   3.857   6.936
    3SAPS   C11  276   4.314   3.952   6.736
    3SAPS  H11A  277   4.221   3.904   6.698
    3SAPS  H11B  278   4.395   3.906   6.676
    3SAPS     P  279   4.275   4.177   6.600
    3SAPS   O13  280   4.132   4.154   6.566
    3SAPS   O14  281   4.322   4.313   6.608
    3SAPS   O12  282   4.315   4.098   6.725
    3SAPS   O11  283   4.365   4.109   6.480
    3SAPS    C1  284   4.508   4.130   6.487
    3SAPS    HA  285   4.547   4.176   6.580
    3SAPS    HB  286   4.545   4.026   6.485
    3SAPS    C2  287   4.551   4.211   6.362
    3SAPS    HS  288   4.472   4.286   6.338
    3SAPS   O21  289   4.571   4.112   6.261
    3SAPS   C21  290   4.530   4.150   6.140
    3SAPS   O22  291   4.468   4.249   6.110
    3SAPS   C22  292   4.599   4.049   6.043
    3SAPS   H2R  293   4.706   4.050   6.071
    3SAPS   H2S  294   4.568   3.945   6.067
    3SAPS    C3  295   4.685   4.283   6.385
    3SAPS    HX  296   4.762   4.213   6.424
    3SAPS    HY  297   4.679   4.364   6.461
    3SAPS   O31  298   4.737   4.346   6.265
    3SAPS   C31  299   4.688   4.468   6.234
    3SAPS   O32  300   4.620   4.536   6.314
    3SAPS   C32  301   4.728   4.508   6.094
    3SAPS   H2X  302   4.656   4.471   6.018
    3SAPS   H2Y  303   4.822   4.457   6.065
    3SAPS   C23  304   4.570   4.068   5.898
    3SAPS   H3R  305   4.564   4.175   5.871
    3SAPS   H3S  306   4.473   4.021   5.868
    3SAPS   C24  307   4.675   4.004   5.795
    3SAPS   H4R  308   4.619   3.988   5.701
    3SAPS   H4S  309   4.718   3.908   5.830
    3SAPS   C25  310   4.800   4.090   5.784
    3SAPS   H5R  311   4.851   4.111   5.880
    3SAPS   C26  312   4.845   4.159   5.673
    3SAPS   H6R  313   4.931   4.227   5.674
    3SAPS   C27  314   4.784   4.141   5.532
    3SAPS   H7R  315   4.699   4.213   5.534
    3SAPS   H7S  316   4.750   4.037   5.511
    3SAPS   C28  317   4.884   4.173   5.427
    3SAPS   H8R  318   4.952   4.087   5.415
    3SAPS   C29  319   4.900   4.281   5.344
    3SAPS   H9R  320   4.989   4.284   5.279
    3SAPS  C210  321   4.817   4.405   5.337
    3SAPS  H10R  322   4.881   4.494   5.358
    3SAPS  H10S  323   4.745   4.413   5.421
    3SAPS  C211  324   4.751   4.427   5.206
    3SAPS  H11R  325   4.642   4.415   5.203
    3SAPS  C212  326   4.810   4.462   5.090
    3SAPS  H12R  327   4.742   4.484   5.007
    3SAPS  C213  328   4.953   4.501   5.064
    3SAPS  H13R  329   5.026   4.478   5.144
    3SAPS  H13S  330   4.945   4.612   5.053
    3SAPS  C214  331   5.007   4.444   4.936
    3SAPS  H14R  332   4.968   4.348   4.901
    3SAPS  C215  333   5.106   4.497   4.862
    3SAPS  H15R  334   5.151   4.444   4.777
    3SAPS  C216  335   5.176   4.633   4.893
    3SAPS  H16R  336   5.283   4.640   4.866
    3SAPS  H16S  337   5.179   4.657   5.001
    3SAPS  C217  338   5.120   4.756   4.820
    3SAPS  H17R  339   5.170   4.848   4.858
    3SAPS  H17S  340   5.011   4.760   4.840
    3SAPS  C218  341   5.147   4.758   4.669
    3SAPS  H18R  342   5.076   4.684   4.628
    3SAPS  H18S  343   5.250   4.726   4.642
    3SAPS  C219  344   5.130   4.901   4.611
    3SAPS  H19R  345   5.024   4.934   4.602
    3SAPS  H19S  346   5.182   4.974   4.676
    3SAPS  C220  347   5.192   4.910   4.474
    3SAPS  H20R  348   5.186   5.012   4.430
    3SAPS  H20S  349   5.135   4.844   4.406
    3SAPS  H20T  350   5.295   4.870   4.486
    3SAPS   C33  351   4.735   4.662   6.085
    3SAPS   H3X  352   4.803   4.707   6.160
    3SAPS   H3Y  353   4.635   4.704   6.110
    3SAPS   C34  354   4.758   4.715   5.936
    3SAPS   H4X  355   4.862   4.683   5.913
    3SAPS   H4Y  356   4.771   4.825   5.940
    3SAPS   C35  357   4.662   4.665   5.831
    3SAPS   H5X  358   4.679   4.556   5.824
    3SAPS   H5Y  359   4.556   4.687   5.857
    3SAPS   C36  360   4.666   4.727   5.687
    3SAPS   H6X  361   4.646   4.837   5.690
    3SAPS   H6Y  362   4.582   4.685   5.629
    3SAPS   C37  363   4.797   4.695   5.613
    3SAPS   H7X  364   4.796   4.587   5.588
    3SAPS   H7Y  365   4.877   4.714   5.687
    3SAPS   C38  366   4.812   4.780   5.487
    3SAPS   H8X  367   4.909   4.735   5.454
    3SAPS   H8Y  368   4.816   4.888   5.513
    3SAPS   C39  369   4.708   4.759   5.378
    3SAPS   H9X  370   4.608   4.792   5.412
    3SAPS   H9Y  371   4.707   4.650   5.356
    3SAPS  C310  372   4.750   4.829   5.253
    3SAPS  H10X  373   4.852   4.794   5.227
    3SAPS  H10Y  374   4.759   4.936   5.283
    3SAPS  C311  375   4.660   4.802   5.132
    3SAPS  H11X  376   4.563   4.847   5.162
    3SAPS  H11Y  377   4.659   4.695   5.104
    3SAPS  C312  378   4.716   4.871   5.010
    3SAPS  H12X  379   4.825   4.851   5.002
    3SAPS  H12Y  380   4.697   4.980   5.022
    3SAPS  C313  381   4.638   4.832   4.882
    3SAPS  H13X  382   4.531   4.852   4.904
    3SAPS  H13Y  383   4.640   4.721   4.886
    3SAPS  C314  384   4.686   4.891   4.747
    3SAPS  H14X  385   4.797   4.889   4.753
    3SAPS  H14Y  386   4.649   4.996   4.748
    3SAPS  C315  387   4.640   4.833   4.613
    3SAPS  H15X  388   4.687   4.732   4.605
    3SAPS  H15Y  389   4.669   4.908   4.537
    3SAPS  C316  390   4.484   4.812   4.611
    3SAPS  H16X  391   4.445   4.907   4.653
    3SAPS  H16Y  392   4.453   4.729   4.678
    3SAPS  C317  393   4.429   4.779   4.470
    3SAPS  H17X  394   4.486   4.692   4.431
    3SAPS  H17Y  395   4.437   4.865   4.400
    3SAPS  C318  396   4.283   4.743   4.474
    3SAPS  H18X  397   4.258   4.667   4.551
    3SAPS  H18Y  398   4.244   4.723   4.372
    3SAPS  H18Z  399   4.226   4.832   4.508
    4SAPS     N  400   1.520   2.066   6.764
    4SAPS   HN1  401   1.466   2.002   6.703
    4SAPS   HN2  402   1.580   2.128   6.706
    4SAPS   HN3  403   1.570   2.004   6.831
    4SAPS   C12  404   1.430   2.166   6.829
    4SAPS  H12A  405   1.367   2.116   6.900
    4SAPS   C13  406   1.503   2.284   6.911
    4SAPS  O13A  407   1.624   2.264   6.945
    4SAPS  O13B  408   1.428   2.366   6.964
    4SAPS   C11  409   1.345   2.247   6.725
    4SAPS  H11A  410   1.407   2.320   6.668
    4SAPS  H11B  411   1.262   2.294   6.783
    4SAPS     P  412   1.193   2.196   6.528
    4SAPS   O13  413   1.109   2.088   6.480
    4SAPS   O14  414   1.124   2.319   6.555
    4SAPS   O12  415   1.281   2.149   6.644
    4SAPS   O11  416   1.300   2.231   6.415
    4SAPS    C1  417   1.398   2.132   6.386
    4SAPS    HA  418   1.501   2.168   6.411
    4SAPS    HB  419   1.373   2.033   6.428
    4SAPS    C2  420   1.403   2.113   6.226
    4SAPS    HS  421   1.434   2.008   6.205
    4SAPS   O21  422   1.500   2.201   6.163
    4SAPS   C21  423   1.634   2.156   6.175
    4SAPS   O22  424   1.664   2.051   6.233
    4SAPS   C22  425   1.724   2.260   6.123
    4SAPS   H2R  426   1.720   2.353   6.184
    4SAPS   H2S  427   1.824   2.212   6.126
    4SAPS    C3  428   1.263   2.131   6.160
    4SAPS    HX  429   1.220   2.229   6.189
    4SAPS    HY  430   1.188   2.070   6.215
    4SAPS   O31  431   1.264   2.101   6.016
    4SAPS   C31  432   1.218   2.199   5.934
    4SAPS   O32  433   1.178   2.307   5.975
    4SAPS   C32  434   1.237   2.155   5.794
    4SAPS   H2X  435   1.201   2.236   5.727
    4SAPS   H2Y  436   1.165   2.071   5.783
    4SAPS   C23  437   1.700   2.297   5.974
    4SAPS   H3R  438   1.645   2.393   5.979
    4SAPS   H3S  439   1.644   2.212   5.928
    4SAPS   C24  440   1.834   2.312   5.905
    4SAPS   H4R  441   1.907   2.228   5.900
    4SAPS   H4S  442   1.893   2.389   5.958
    4SAPS   C25  443   1.814   2.333   5.756
    4SAPS   H5R  444   1.845   2.248   5.693
    4SAPS   C26  445   1.768   2.443   5.692
    4SAPS   H6R  446   1.750   2.451   5.583
    4SAPS   C27  447   1.724   2.569   5.763
    4SAPS   H7R  448   1.801   2.648   5.751
    4SAPS   H7S  449   1.711   2.555   5.873
    4SAPS   C28  450   1.592   2.623   5.725
    4SAPS   H8R  451   1.514   2.613   5.802
    4SAPS   C29  452   1.568   2.670   5.602
    4SAPS   H9R  453   1.467   2.710   5.583
    4SAPS  C210  454   1.671   2.691   5.489
    4SAPS  H10R  455   1.659   2.618   5.406
    4SAPS  H10S  456   1.773   2.673   5.530
    4SAPS  C211  457   1.669   2.827   5.428
    4SAPS  H11R  458   1.704   2.910   5.491
    4SAPS  C212  459   1.634   2.865   5.303
    4SAPS  H12R  460   1.641   2.971   5.277
    4SAPS  C213  461   1.586   2.784   5.186
    4SAPS  H13R  462   1.477   2.799   5.170
    4SAPS  H13S  463   1.586   2.677   5.214
    4SAPS  C214  464   1.670   2.812   5.060
    4SAPS  H14R  465   1.755   2.746   5.081
    4SAPS  C215  466   1.653   2.901   4.958
    4SAPS  H15R  467   1.718   2.897   4.870
    4SAPS  C216  468   1.543   2.999   4.944
    4SAPS  H16R  469   1.576   3.076   4.871
    4SAPS  H16S  470   1.517   3.034   5.046
    4SAPS  C217  471   1.408   2.957   4.876
    4SAPS  H17R  472   1.340   3.027   4.928
    4SAPS  H17S  473   1.385   2.852   4.904
    4SAPS  C218  474   1.406   2.993   4.724
    4SAPS  H18R  475   1.458   3.089   4.705
    4SAPS  H18S  476   1.301   2.989   4.688
    4SAPS  C219  477   1.478   2.885   4.645
    4SAPS  H19R  478   1.415   2.797   4.624
    4SAPS  H19S  479   1.562   2.839   4.700
    4SAPS  C220  480   1.522   2.933   4.505
    4SAPS  H20R  481   1.618   2.989   4.505
    4SAPS  H20S  482   1.436   2.996   4.473
    4SAPS  H20T  483   1.536   2.849   4.434
    4SAPS   C33  484   1.383   2.120   5.761
    4SAPS   H3X  485   1.390   2.021   5.711
    4SAPS   H3Y  486   1.439   2.083   5.849
    4SAPS   C34  487   1.463   2.213   5.669
    4SAPS   H4X  488   1.570   2.186   5.669
    4SAPS   H4Y  489   1.447   2.318   5.701
    4SAPS   C35  490   1.409   2.212   5.523
    4SAPS   H5X  491   1.316   2.272   5.525
    4SAPS   H5Y  492   1.374   2.109   5.502
    4SAPS   C36  493   1.498   2.266   5.417
    4SAPS   H6X  494   1.596   2.219   5.440
    4SAPS   H6Y  495   1.500   2.375   5.436
    4SAPS   C37  496   1.451   2.243   5.274
    4SAPS   H7X  497   1.340   2.235   5.274
    4SAPS   H7Y  498   1.469   2.139   5.240
    4SAPS   C38  499   1.502   2.342   5.169
    4SAPS   H8X  500   1.605   2.307   5.146
    4SAPS   H8Y  501   1.499   2.446   5.208
    4SAPS   C39  502   1.418   2.321   5.040
    4SAPS   H9X  503   1.314   2.312   5.077
    4SAPS   H9Y  504   1.450   2.222   5.001
    4SAPS  C310  505   1.430   2.428   4.933
    4SAPS  H10X  506   1.408   2.526   4.980
    4SAPS  H10Y  507   1.353   2.412   4.854
    4SAPS  C311  508   1.569   2.441   4.861
    4SAPS  H11X  509   1.589   2.356   4.792
    4SAPS  H11Y  510   1.653   2.450   4.933
    4SAPS  C312  511   1.575   2.558   4.760
    4SAPS  H12X  512   1.549   2.655   4.807
    4SAPS  H12Y  513   1.493   2.547   4.687
    4SAPS  C313  514   1.712   2.568   4.693
    4SAPS  H13X  515   1.709   2.657   4.627
    4SAPS  H13Y  516   1.741   2.473   4.643
    4SAPS  C314  517   1.843   2.588   4.776
    4SAPS  H14X  518   1.878   2.495   4.825
    4SAPS  H14Y  519   1.802   2.654   4.856
    4SAPS  C315  520   1.948   2.658   4.693
    4SAPS  H15X  521   2.049   2.670   4.737
    4SAPS  H15Y  522   1.908   2.761   4.675
    4SAPS  C316  523   1.975   2.606   4.551
    4SAPS  H16X  524   1.875   2.620   4.504
    4SAPS  H16Y  525   1.987   2.499   4.576
    4SAPS  C317  526   2.085   2.658   4.471
    4SAPS  H17X  527   2.071   2.767   4.451
    4SAPS  H17Y  528   2.080   2.604   4.374
    4SAPS  C318  529   2.224   2.646   4.539
    4SAPS  H18X  530   2.242   2.540   4.569
    4SAPS  H18Y  531   2.250   2.718   4.619
    4SAPS  H18Z  532   2.306   2.666   4.466
    5SAPS     N  533   4.981   4.831   7.252
    5SAPS   HN1  534   4.965   4.861   7.350
    5SAPS   HN2  535   5.045   4.749   7.258
    5SAPS   HN3  536   5.028   4.904   7.196
    5SAPS   C12  537   4.844   4.791   7.183
    5SAPS  H12A  538   4.786   4.741   7.259
    5SAPS   C13  539   4.760   4.910   7.139
    5SAPS  O13A  540   4.801   5.027   7.150
    5SAPS  O13B  541   4.660   4.886   7.069
    5SAPS   C11  542   4.886   4.706   7.058
    5SAPS  H11A  543   4.911   4.780   6.979
    5SAPS  H11B  544   4.796   4.644   7.037
    5SAPS     P  545   5.024   4.485   7.010
    5SAPS   O13  546   5.173   4.468   6.995
    5SAPS   O14  547   4.956   4.373   7.076
    5SAPS   O12  548   4.991   4.613   7.091
    5SAPS   O11  549   4.963   4.505   6.865
    5SAPS    C1  550   4.853   4.425   6.828
    5SAPS    HA  551   4.783   4.399   6.910
    5SAPS    HB  552   4.779   4.473   6.759
    5SAPS    C2  553   4.909   4.295   6.759
    5SAPS    HS  554   5.007   4.259   6.796
    5SAPS   O21  555   4.928   4.317   6.618
    5SAPS   C21  556   5.038   4.385   6.580
    5SAPS   O22  557   5.131   4.417   6.653
    5SAPS   C22  558   5.024   4.444   6.439
    5SAPS   H2R  559   4.967   4.375   6.373
    5SAPS   H2S  560   4.967   4.536   6.463
    5SAPS    C3  561   4.807   4.172   6.789
    5SAPS    HX  562   4.709   4.217   6.763
    5SAPS    HY  563   4.807   4.141   6.896
    5SAPS   O31  564   4.838   4.066   6.688
    5SAPS   C31  565   4.768   3.956   6.699
    5SAPS   O32  566   4.687   3.934   6.788
    5SAPS   C32  567   4.797   3.860   6.588
    5SAPS   H2X  568   4.702   3.843   6.532
    5SAPS   H2Y  569   4.824   3.762   6.631
    5SAPS   C23  570   5.158   4.472   6.356
    5SAPS   H3R  571   5.217   4.552   6.406
    5SAPS   H3S  572   5.129   4.504   6.254
    5SAPS   C24  573   5.237   4.340   6.320
    5SAPS   H4R  574   5.174   4.266   6.267
    5SAPS   H4S  575   5.271   4.287   6.412
    5SAPS   C25  576   5.364   4.366   6.239
    5SAPS   H5R  577   5.463   4.355   6.285
    5SAPS   C26  578   5.359   4.374   6.106
    5SAPS   H6R  579   5.451   4.389   6.047
    5SAPS   C27  580   5.233   4.363   6.012
    5SAPS   H7R  581   5.145   4.320   6.066
    5SAPS   H7S  582   5.264   4.293   5.932
    5SAPS   C28  583   5.196   4.499   5.968
    5SAPS   H8R  584   5.200   4.574   6.048
    5SAPS   C29  585   5.182   4.528   5.836
    5SAPS   H9R  586   5.146   4.629   5.812
    5SAPS  C210  587   5.202   4.429   5.715
    5SAPS  H10R  588   5.136   4.341   5.728
    5SAPS  H10S  589   5.307   4.393   5.716
    5SAPS  C211  590   5.156   4.488   5.587
    5SAPS  H11R  591   5.053   4.527   5.588
    5SAPS  C212  592   5.221   4.531   5.474
    5SAPS  H12R  593   5.165   4.570   5.388
    5SAPS  C213  594   5.371   4.511   5.450
    5SAPS  H13R  595   5.378   4.463   5.350
    5SAPS  H13S  596   5.407   4.442   5.529
    5SAPS  C214  597   5.462   4.637   5.440
    5SAPS  H14R  598   5.470   4.683   5.341
    5SAPS  C215  599   5.537   4.696   5.542
    5SAPS  H15R  600   5.607   4.779   5.525
    5SAPS  C216  601   5.539   4.649   5.691
    5SAPS  H16R  602   5.635   4.595   5.697
    5SAPS  H16S  603   5.455   4.577   5.702
    5SAPS  C217  604   5.523   4.747   5.802
    5SAPS  H17R  605   5.441   4.818   5.779
    5SAPS  H17S  606   5.614   4.810   5.788
    5SAPS  C218  607   5.521   4.674   5.941
    5SAPS  H18R  608   5.616   4.616   5.946
    5SAPS  H18S  609   5.439   4.599   5.950
    5SAPS  C219  610   5.500   4.777   6.056
    5SAPS  H19R  611   5.405   4.833   6.041
    5SAPS  H19S  612   5.582   4.851   6.041
    5SAPS  C220  613   5.513   4.719   6.189
    5SAPS  H20R  614   5.424   4.656   6.213
    5SAPS  H20S  615   5.507   4.791   6.273
    5SAPS  H20T  616   5.607   4.661   6.203
    5SAPS   C33  617   4.907   3.912   6.497
    5SAPS   H3X  618   5.003   3.926   6.552
    5SAPS   H3Y  619   4.881   4.015   6.464
    5SAPS   C34  620   4.932   3.814   6.385
    5SAPS   H4X  621   4.840   3.795   6.325
    5SAPS   H4Y  622   4.949   3.715   6.433
    5SAPS   C35  623   5.052   3.867   6.302
    5SAPS   H5X  624   5.089   3.791   6.230
    5SAPS   H5Y  625   5.134   3.891   6.373
    5SAPS   C36  626   5.014   3.984   6.221
    5SAPS   H6X  627   4.990   4.071   6.286
    5SAPS   H6Y  628   4.923   3.958   6.162
    5SAPS   C37  629   5.128   4.020   6.119
    5SAPS   H7X  630   5.231   4.012   6.160
    5SAPS   H7Y  631   5.118   4.124   6.079
    5SAPS   C38  632   5.123   3.921   6.002
    5SAPS   H8X  633   5.020   3.885   5.981
    5SAPS   H8Y  634   5.159   3.826   6.047
    5SAPS   C39  635   5.208   3.957   5.879
    5SAPS   H9X  636   5.302   4.002   5.917
    5SAPS   H9Y  637   5.172   4.038   5.812
    5SAPS  C310  638   5.255   3.844   5.791
    5SAPS  H10X  639   5.336   3.790   5.845
    5SAPS  H10Y  640   5.304   3.900   5.709
    5SAPS  C311  641   5.143   3.751   5.741
    5SAPS  H11X  642   5.103   3.687   5.822
    5SAPS  H11Y  643   5.199   3.681   5.674
    5SAPS  C312  644   5.044   3.829   5.660
    5SAPS  H12X  645   5.094   3.913   5.607
    5SAPS  H12Y  646   4.966   3.867   5.728
    5SAPS  C313  647   4.965   3.741   5.548
    5SAPS  H13X  648   5.050   3.700   5.490
    5SAPS  H13Y  649   4.917   3.821   5.488
    5SAPS  C314  650   4.891   3.613   5.583
    5SAPS  H14X  651   4.797   3.632   5.637
    5SAPS  H14Y  652   4.952   3.555   5.655
    5SAPS  C315  653   4.839   3.535   5.461
    5SAPS  H15X  654   4.838   3.602   5.373
    5SAPS  H15Y  655   4.736   3.496   5.478
    5SAPS  C316  656   4.928   3.412   5.432
    5SAPS  H16X  657   4.903   3.343   5.515
    5SAPS  H16Y  658   5.036   3.435   5.440
    5SAPS  C317  659   4.909   3.349   5.293
    5SAPS  H17X  660   4.965   3.253   5.284
    5SAPS  H17Y  661   4.978   3.401   5.223
    5SAPS  C318  662   4.764   3.331   5.239
    5SAPS  H18X  663   4.722   3.255   5.309
    5SAPS  H18Y  664   4.764   3.289   5.136
    5SAPS  H18Z  665   4.709   3.427   5.240
    6SAPS     N  666   2.467   4.134   6.804
    6SAPS   HN1  667   2.478   4.234   6.775
    6SAPS   HN2  668   2.417   4.088   6.726
    6SAPS   HN3  669   2.402   4.121   6.884
    6SAPS   C12  670   2.592   4.074   6.841
    6SAPS  H12A  671   2.650   4.103   6.755
    6SAPS   C13  672   2.656   4.127   6.972
    6SAPS  O13A  673   2.600   4.213   7.041
    6SAPS  O13B  674   2.772   4.084   6.995
    6SAPS   C11  675   2.595   3.913   6.846
    6SAPS  H11A  676   2.546   3.888   6.942
    6SAPS  H11B  677   2.696   3.868   6.841
    6SAPS     P  678   2.488   3.717   6.715
    6SAPS   O13  679   2.553   3.640   6.820
    6SAPS   O14  680   2.341   3.697   6.696
    6SAPS   O12  681   2.516   3.871   6.734
    6SAPS   O11  682   2.570   3.687   6.584
    6SAPS    C1  683   2.714   3.679   6.599
    6SAPS    HA  684   2.756   3.707   6.698
    6SAPS    HB  685   2.745   3.573   6.586
    6SAPS    C2  686   2.786   3.746   6.491
    6SAPS    HS  687   2.893   3.720   6.507
    6SAPS   O21  688   2.764   3.886   6.489
    6SAPS   C21  689   2.852   3.948   6.555
    6SAPS   O22  690   2.946   3.893   6.620
    6SAPS   C22  691   2.831   4.098   6.565
    6SAPS   H2R  692   2.843   4.121   6.673
    6SAPS   H2S  693   2.918   4.142   6.512
    6SAPS    C3  694   2.753   3.688   6.341
    6SAPS    HX  695   2.642   3.691   6.332
    6SAPS    HY  696   2.777   3.580   6.330
    6SAPS   O31  697   2.815   3.772   6.242
    6SAPS   C31  698   2.944   3.747   6.244
    6SAPS   O32  699   2.998   3.642   6.287
    6SAPS   C32  700   3.010   3.865   6.171
    6SAPS   H2X  701   3.119   3.854   6.190
    6SAPS   H2Y  702   2.983   3.957   6.228
    6SAPS   C23  703   2.696   4.146   6.507
    6SAPS   H3R  704   2.613   4.097   6.560
    6SAPS   H3S  705   2.693   4.106   6.403
    6SAPS   C24  706   2.687   4.296   6.511
    6SAPS   H4R  707   2.769   4.324   6.441
    6SAPS   H4S  708   2.722   4.342   6.606
    6SAPS   C25  709   2.547   4.337   6.479
    6SAPS   H5R  710   2.490   4.361   6.570
    6SAPS   C26  711   2.505   4.398   6.369
    6SAPS   H6R  712   2.398   4.417   6.352
    6SAPS   C27  713   2.596   4.415   6.251
    6SAPS   H7R  714   2.544   4.398   6.154
    6SAPS   H7S  715   2.683   4.345   6.247
    6SAPS   C28  716   2.663   4.559   6.246
    6SAPS   H8R  717   2.680   4.606   6.344
    6SAPS   C29  718   2.700   4.627   6.132
    6SAPS   H9R  719   2.755   4.721   6.136
    6SAPS  C210  720   2.677   4.587   5.986
    6SAPS  H10R  721   2.716   4.484   5.970
    6SAPS  H10S  722   2.748   4.638   5.917
    6SAPS  C211  723   2.533   4.598   5.931
    6SAPS  H11R  724   2.452   4.607   6.006
    6SAPS  C212  725   2.507   4.601   5.800
    6SAPS  H12R  726   2.402   4.600   5.767
    6SAPS  C213  727   2.607   4.602   5.689
    6SAPS  H13R  728   2.602   4.511   5.625
    6SAPS  H13S  729   2.713   4.598   5.723
    6SAPS  C214  730   2.598   4.719   5.587
    6SAPS  H14R  731   2.530   4.801   5.615
    6SAPS  C215  732   2.658   4.717   5.469
    6SAPS  H15R  733   2.639   4.794   5.392
    6SAPS  C216  734   2.754   4.614   5.419
    6SAPS  H16R  735   2.794   4.553   5.503
    6SAPS  H16S  736   2.835   4.650   5.354
    6SAPS  C217  737   2.662   4.512   5.343
    6SAPS  H17R  738   2.584   4.480   5.416
    6SAPS  H17S  739   2.715   4.421   5.307
    6SAPS  C218  740   2.592   4.566   5.221
    6SAPS  H18R  741   2.529   4.650   5.257
    6SAPS  H18S  742   2.538   4.478   5.181
    6SAPS  C219  743   2.691   4.611   5.113
    6SAPS  H19R  744   2.768   4.533   5.095
    6SAPS  H19S  745   2.749   4.700   5.145
    6SAPS  C220  746   2.619   4.650   4.979
    6SAPS  H20R  747   2.562   4.566   4.934
    6SAPS  H20S  748   2.690   4.686   4.901
    6SAPS  H20T  749   2.537   4.724   4.995
    6SAPS   C33  750   2.988   3.877   6.015
    6SAPS   H3X  751   3.044   3.968   5.988
    6SAPS   H3Y  752   2.880   3.897   5.999
    6SAPS   C34  753   3.029   3.751   5.936
    6SAPS   H4X  754   2.958   3.666   5.947
    6SAPS   H4Y  755   3.122   3.704   5.977
    6SAPS   C35  756   3.056   3.797   5.787
    6SAPS   H5X  757   3.079   3.696   5.747
    6SAPS   H5Y  758   3.135   3.874   5.778
    6SAPS   C36  759   2.931   3.859   5.719
    6SAPS   H6X  760   2.906   3.951   5.776
    6SAPS   H6Y  761   2.846   3.789   5.733
    6SAPS   C37  762   2.950   3.902   5.567
    6SAPS   H7X  763   3.038   3.970   5.565
    6SAPS   H7Y  764   2.855   3.952   5.539
    6SAPS   C38  765   2.972   3.778   5.473
    6SAPS   H8X  766   2.899   3.697   5.496
    6SAPS   H8Y  767   3.076   3.750   5.496
    6SAPS   C39  768   2.973   3.827   5.327
    6SAPS   H9X  769   2.873   3.875   5.312
    6SAPS   H9Y  770   2.971   3.740   5.258
    6SAPS  C310  771   3.082   3.928   5.290
    6SAPS  H10X  772   3.179   3.874   5.294
    6SAPS  H10Y  773   3.088   4.005   5.370
    6SAPS  C311  774   3.062   3.996   5.157
    6SAPS  H11X  775   3.077   3.923   5.076
    6SAPS  H11Y  776   3.142   4.072   5.145
    6SAPS  C312  777   2.926   4.071   5.123
    6SAPS  H12X  778   2.914   4.156   5.194
    6SAPS  H12Y  779   2.836   4.013   5.150
    6SAPS  C313  780   2.932   4.125   4.977
    6SAPS  H13X  781   2.935   4.035   4.912
    6SAPS  H13Y  782   3.022   4.187   4.957
    6SAPS  C314  783   2.816   4.222   4.949
    6SAPS  H14X  784   2.819   4.307   5.021
    6SAPS  H14Y  785   2.725   4.162   4.970
    6SAPS  C315  786   2.813   4.269   4.800
    6SAPS  H15X  787   2.710   4.311   4.792
    6SAPS  H15Y  788   2.838   4.180   4.738
    6SAPS  C316  789   2.915   4.385   4.778
    6SAPS  H16X  790   3.017   4.369   4.820
    6SAPS  H16Y  791   2.875   4.478   4.824
    6SAPS  C317  792   2.930   4.425   4.624
    6SAPS  H17X  793   2.834   4.412   4.569
    6SAPS  H17Y  794   2.993   4.341   4.585
    6SAPS  C318  795   2.995   4.557   4.592
    6SAPS  H18X  796   2.948   4.633   4.658
    6SAPS  H18Y  797   2.974   4.598   4.491
    6SAPS  H18Z  798   3.103   4.554   4.618
    7SAPS     N  799   2.391   0.253   6.835
    7SAPS   HN1  800   2.473   0.318   6.838
    7SAPS   HN2  801   2.367   0.245   6.735
    7SAPS   HN3  802   2.311   0.290   6.890
    7SAPS   C12  803   2.429   0.118   6.881
    7SAPS  H12A  804   2.488   0.147   6.967
    7SAPS   C13  805   2.311   0.026   6.919
    7SAPS  O13A  806   2.197   0.076   6.918
    7SAPS  O13B  807   2.330   6.720   6.984
    7SAPS   C11  808   2.519   0.045   6.768
    7SAPS  H11A  809   2.444   0.030   6.687
    7SAPS  H11B  810   2.552   6.739   6.793
    7SAPS     P  811   2.696   0.063   6.592
    7SAPS   O13  812   2.813   0.147   6.568
    7SAPS   O14  813   2.725   6.713   6.610
    7SAPS   O12  814   2.632   0.118   6.723
    7SAPS   O11  815   2.571   0.077   6.490
    7SAPS    C1  816   2.537   6.761   6.412
    7SAPS    HA  817   2.524   6.673   6.479
    7SAPS    HB  818   2.453   6.780   6.341
    7SAPS    C2  819   2.650   6.733   6.310
    7SAPS    HS  820   2.742   6.691   6.356
    7SAPS   O21  821   2.677   0.056   6.241
    7SAPS   C21  822   2.793   0.059   6.174
    7SAPS   O22  823   2.882   6.772   6.182
    7SAPS   C22  824   2.813   0.186   6.080
    7SAPS   H2R  825   2.727   0.192   6.010
    7SAPS   H2S  826   2.803   0.277   6.144
    7SAPS    C3  827   2.606   6.624   6.199
    7SAPS    HX  828   2.608   6.525   6.250
    7SAPS    HY  829   2.679   6.627   6.115
    7SAPS   O31  830   2.477   6.649   6.139
    7SAPS   C31  831   2.472   6.735   6.041
    7SAPS   O32  832   2.565   6.786   5.986
    7SAPS   C32  833   2.324   6.743   6.004
    7SAPS   H2X  834   2.265   6.722   6.096
    7SAPS   H2Y  835   2.320   6.655   5.937
    7SAPS   C23  836   2.946   0.187   6.006
    7SAPS   H3R  837   3.033   0.174   6.074
    7SAPS   H3S  838   2.951   0.287   5.958
    7SAPS   C24  839   2.941   0.079   5.887
    7SAPS   H4R  840   2.844   0.089   5.834
    7SAPS   H4S  841   2.927   6.773   5.929
    7SAPS   C25  842   3.061   0.078   5.794
    7SAPS   H5R  843   3.162   0.069   5.837
    7SAPS   C26  844   3.058   0.126   5.664
    7SAPS   H6R  845   3.152   0.143   5.609
    7SAPS   C27  846   2.923   0.165   5.606
    7SAPS   H7R  847   2.868   0.228   5.679
    7SAPS   H7S  848   2.862   0.074   5.584
    7SAPS   C28  849   2.941   0.249   5.478
    7SAPS   H8R  850   3.028   0.316   5.485
    7SAPS   C29  851   2.854   0.250   5.377
    7SAPS   H9R  852   2.865   0.324   5.297
    7SAPS  C210  853   2.725   0.174   5.364
    7SAPS  H10R  854   2.641   0.227   5.415
    7SAPS  H10S  855   2.738   0.077   5.416
    7SAPS  C211  856   2.695   0.156   5.215
    7SAPS  H11R  857   2.621   0.228   5.177
    7SAPS  C212  858   2.760   0.069   5.130
    7SAPS  H12R  859   2.718   0.070   5.029
    7SAPS  C213  860   2.873   6.764   5.155
    7SAPS  H13R  861   2.867   6.698   5.067
    7SAPS  H13S  862   2.838   6.705   5.242
    7SAPS  C214  863   3.014   0.006   5.180
    7SAPS  H14R  864   3.021   0.069   5.270
    7SAPS  C215  865   3.126   6.765   5.127
    7SAPS  H15R  866   3.216   0.005   5.179
    7SAPS  C216  867   3.135   6.685   5.004
    7SAPS  H16R  868   3.042   6.632   4.975
    7SAPS  H16S  869   3.215   6.608   5.013
    7SAPS  C217  870   3.185   6.765   4.877
    7SAPS  H17R  871   3.268   0.038   4.902
    7SAPS  H17S  872   3.106   0.035   4.836
    7SAPS  C218  873   3.242   6.682   4.764
    7SAPS  H18R  874   3.171   6.599   4.742
    7SAPS  H18S  875   3.340   6.637   4.788
    7SAPS  C219  876   3.243   6.766   4.638
    7SAPS  H19R  877   3.287   0.070   4.657
    7SAPS  H19S  878   3.143   6.782   4.592
    7SAPS  C220  879   3.341   6.696   4.546
    7SAPS  H20R  880   3.303   6.596   4.516
    7SAPS  H20S  881   3.430   6.673   4.608
    7SAPS  H20T  882   3.379   6.755   4.460
    7SAPS   C33  883   2.269   0.059   5.908
    7SAPS   H3X  884   2.282   0.158   5.956
    7SAPS   H3Y  885   2.158   0.053   5.903
    7SAPS   C34  886   2.327   0.075   5.762
    7SAPS   H4X  887   2.328   6.766   5.727
    7SAPS   H4Y  888   2.437   0.093   5.753
    7SAPS   C35  889   2.238   0.163   5.670
    7SAPS   H5X  890   2.249   0.266   5.712
    7SAPS   H5Y  891   2.137   0.126   5.697
    7SAPS   C36  892   2.277   0.164   5.526
    7SAPS   H6X  893   2.228   0.089   5.459
    7SAPS   H6Y  894   2.386   0.142   5.515
    7SAPS   C37  895   2.252   0.296   5.459
    7SAPS   H7X  896   2.298   0.379   5.515
    7SAPS   H7Y  897   2.142   0.315   5.464
    7SAPS   C38  898   2.310   0.280   5.315
    7SAPS   H8X  899   2.263   0.203   5.250
    7SAPS   H8Y  900   2.420   0.273   5.328
    7SAPS   C39  901   2.304   0.418   5.250
    7SAPS   H9X  902   2.341   0.492   5.324
    7SAPS   H9Y  903   2.196   0.439   5.236
    7SAPS  C310  904   2.382   0.423   5.120
    7SAPS  H10X  905   2.489   0.393   5.131
    7SAPS  H10Y  906   2.381   0.529   5.088
    7SAPS  C311  907   2.308   0.345   5.008
    7SAPS  H11X  908   2.203   0.381   4.999
    7SAPS  H11Y  909   2.308   0.237   5.032
    7SAPS  C312  910   2.386   0.346   4.870
    7SAPS  H12X  911   2.493   0.325   4.892
    7SAPS  H12Y  912   2.393   0.451   4.834
    7SAPS  C313  913   2.319   0.254   4.770
    7SAPS  H13X  914   2.231   0.306   4.725
    7SAPS  H13Y  915   2.284   0.165   4.826
    7SAPS  C314  916   2.406   0.208   4.658
    7SAPS  H14X  917   2.509   0.190   4.697
    7SAPS  H14Y  918   2.416   0.291   4.584
    7SAPS  C315  919   2.362   0.072   4.611
    7SAPS  H15X  920   2.274   0.093   4.547
    7SAPS  H15Y  921   2.323   6.793   4.683
    7SAPS  C316  922   2.472   0.007   4.527
    7SAPS  H16X  923   2.425   6.721   4.469
    7SAPS  H16Y  924   2.546   6.749   4.589
    7SAPS  C317  925   2.543   0.098   4.427
    7SAPS  H17X  926   2.646   0.071   4.395
    7SAPS  H17Y  927   2.555   0.204   4.458
    7SAPS  C318  928   2.475   0.105   4.289
    7SAPS  H18X  929   2.491   0.008   4.236
    7SAPS  H18Y  930   2.518   0.186   4.227
    7SAPS  H18Z  931   2.366   0.123   4.305
    8SAPS     N  932   1.458   1.066   6.591
    8SAPS   HN1  933   1.516   0.979   6.590
    8SAPS   HN2  934   1.358   1.040   6.581
    8SAPS   HN3  935   1.493   1.123   6.512
    8SAPS   C12  936   1.494   1.142   6.717
    8SAPS  H12A  937   1.443   1.237   6.723
    8SAPS   C13  938   1.457   1.067   6.844
    8SAPS  O13A  939   1.400   0.953   6.833
    8SAPS  O13B  940   1.470   1.119   6.957
    8SAPS   C11  941   1.644   1.177   6.717
    8SAPS  H11A  942   1.696   1.081   6.699
    8SAPS  H11B  943   1.666   1.217   6.818
    8SAPS     P  944   1.789   1.321   6.560
    8SAPS   O13  945   1.789   1.333   6.415
    8SAPS   O14  946   1.832   1.440   6.638
    8SAPS   O12  947   1.656   1.264   6.610
    8SAPS   O11  948   1.882   1.196   6.599
    8SAPS    C1  949   1.926   1.113   6.489
    8SAPS    HA  950   1.923   1.004   6.514
    8SAPS    HB  951   1.875   1.132   6.392
    8SAPS    C2  952   2.073   1.164   6.448
    8SAPS    HS  953   2.060   1.270   6.416
    8SAPS   O21  954   2.148   1.089   6.353
    8SAPS   C21  955   2.086   1.051   6.244
    8SAPS   O22  956   1.992   1.111   6.195
    8SAPS   C22  957   2.163   0.944   6.178
    8SAPS   H2R  958   2.264   0.980   6.152
    8SAPS   H2S  959   2.176   0.857   6.246
    8SAPS    C3  960   2.158   1.188   6.575
    8SAPS    HX  961   2.158   1.093   6.633
    8SAPS    HY  962   2.113   1.260   6.646
    8SAPS   O31  963   2.301   1.218   6.552
    8SAPS   C31  964   2.316   1.346   6.523
    8SAPS   O32  965   2.231   1.434   6.523
    8SAPS   C32  966   2.455   1.374   6.477
    8SAPS   H2X  967   2.523   1.354   6.562
    8SAPS   H2Y  968   2.466   1.484   6.464
    8SAPS   C23  969   2.107   0.904   6.039
    8SAPS   H3R  970   2.095   0.995   5.977
    8SAPS   H3S  971   2.007   0.859   6.058
    8SAPS   C24  972   2.179   0.790   5.965
    8SAPS   H4R  973   2.129   0.773   5.868
    8SAPS   H4S  974   2.164   0.690   6.013
    8SAPS   C25  975   2.326   0.815   5.948
    8SAPS   H5R  976   2.388   0.798   6.038
    8SAPS   C26  977   2.396   0.852   5.838
    8SAPS   H6R  978   2.506   0.851   5.842
    8SAPS   C27  979   2.341   0.885   5.700
    8SAPS   H7R  980   2.416   0.958   5.662
    8SAPS   H7S  981   2.247   0.944   5.710
    8SAPS   C28  982   2.337   0.769   5.598
    8SAPS   H8R  983   2.333   0.675   5.656
    8SAPS   C29  984   2.314   0.778   5.463
    8SAPS   H9R  985   2.318   0.685   5.405
    8SAPS  C210  986   2.329   0.904   5.384
    8SAPS  H10R  987   2.434   0.928   5.360
    8SAPS  H10S  988   2.302   0.994   5.444
    8SAPS  C211  989   2.250   0.875   5.266
    8SAPS  H11R  990   2.144   0.898   5.285
    8SAPS  C212  991   2.291   0.837   5.141
    8SAPS  H12R  992   2.223   0.801   5.062
    8SAPS  C213  993   2.431   0.818   5.106
    8SAPS  H13R  994   2.436   0.724   5.048
    8SAPS  H13S  995   2.496   0.804   5.195
    8SAPS  C214  996   2.485   0.923   5.018
    8SAPS  H14R  997   2.527   1.007   5.076
    8SAPS  C215  998   2.491   0.917   4.881
    8SAPS  H15R  999   2.537   0.999   4.824
    8SAPS  C216 1000   2.458   0.799   4.790
    8SAPS  H16R 1001   2.353   0.797   4.754
    8SAPS  H16S 1002   2.474   0.707   4.850
    8SAPS  C217 1003   2.557   0.786   4.680
    8SAPS  H17R 1004   2.664   0.798   4.707
    8SAPS  H17S 1005   2.550   0.866   4.603
    8SAPS  C218 1006   2.547   0.659   4.596
    8SAPS  H18R 1007   2.444   0.618   4.601
    8SAPS  H18S 1008   2.613   0.580   4.637
    8SAPS  C219 1009   2.605   0.668   4.451
    8SAPS  H19R 1010   2.709   0.708   4.452
    8SAPS  H19S 1011   2.537   0.740   4.402
    8SAPS  C220 1012   2.606   0.527   4.393
    8SAPS  H20R 1013   2.624   0.532   4.283
    8SAPS  H20S 1014   2.518   0.464   4.419
    8SAPS  H20T 1015   2.688   0.469   4.439
    8SAPS   C33 1016   2.492   1.294   6.349
    8SAPS   H3X 1017   2.468   1.187   6.368
    8SAPS   H3Y 1018   2.599   1.313   6.328
    8SAPS   C34 1019   2.414   1.344   6.227
    8SAPS   H4X 1020   2.418   1.454   6.215
    8SAPS   H4Y 1021   2.305   1.325   6.240
    8SAPS   C35 1022   2.464   1.273   6.092
    8SAPS   H5X 1023   2.445   1.164   6.098
    8SAPS   H5Y 1024   2.574   1.290   6.095
    8SAPS   C36 1025   2.391   1.327   5.970
    8SAPS   H6X 1026   2.449   1.377   5.890
    8SAPS   H6Y 1027   2.320   1.402   6.011
    8SAPS   C37 1028   2.301   1.217   5.908
    8SAPS   H7X 1029   2.249   1.166   5.992
    8SAPS   H7Y 1030   2.365   1.138   5.862
    8SAPS   C38 1031   2.199   1.260   5.805
    8SAPS   H8X 1032   2.149   1.350   5.846
    8SAPS   H8Y 1033   2.124   1.178   5.798
    8SAPS   C39 1034   2.252   1.299   5.669
    8SAPS   H9X 1035   2.297   1.207   5.627
    8SAPS   H9Y 1036   2.334   1.375   5.670
    8SAPS  C310 1037   2.144   1.352   5.581
    8SAPS  H10X 1038   2.136   1.460   5.603
    8SAPS  H10Y 1039   2.046   1.306   5.605
    8SAPS  C311 1040   2.161   1.321   5.429
    8SAPS  H11X 1041   2.080   1.372   5.373
    8SAPS  H11Y 1042   2.143   1.213   5.413
    8SAPS  C312 1043   2.290   1.369   5.372
    8SAPS  H12X 1044   2.373   1.309   5.415
    8SAPS  H12Y 1045   2.306   1.477   5.392
    8SAPS  C313 1046   2.290   1.350   5.217
    8SAPS  H13X 1047   2.251   1.249   5.191
    8SAPS  H13Y 1048   2.394   1.358   5.178
    8SAPS  C314 1049   2.218   1.463   5.146
    8SAPS  H14X 1050   2.246   1.562   5.188
    8SAPS  H14Y 1051   2.107   1.454   5.151
    8SAPS  C315 1052   2.265   1.460   5.000
    8SAPS  H15X 1053   2.238   1.370   4.941
    8SAPS  H15Y 1054   2.375   1.465   5.010
    8SAPS  C316 1055   2.230   1.587   4.924
    8SAPS  H16X 1056   2.282   1.581   4.826
    8SAPS  H16Y 1057   2.274   1.669   4.984
    8SAPS  C317 1058   2.078   1.608   4.908
    8SAPS  H17X 1059   2.021   1.614   5.003
    8SAPS  H17Y 1060   2.039   1.525   4.845
    8SAPS  C318 1061   2.057   1.727   4.822
    8SAPS  H18X 1062   2.112   1.725   4.725
    8SAPS  H18Y 1063   2.071   1.826   4.871
    8SAPS  H18Z 1064   1.951   1.717   4.790
    9SAPS     N 1065   1.072   4.889   7.210
    9SAPS   HN1 1066   1.112   4.953   7.282
    9SAPS   HN2 1067   0.981   4.923   7.174
    9SAPS   HN3 1068   1.059   4.795   7.252
    9SAPS   C12 1069   1.165   4.875   7.093
    9SAPS  H12A 1070   1.187   4.971   7.046
    9SAPS   C13 1071   1.303   4.815   7.132
    9SAPS  O13A 1072   1.320   4.744   7.238
    9SAPS  O13B 1073   1.395   4.823   7.046
    9SAPS   C11 1074   1.096   4.772   7.003
    9SAPS  H11A 1075   1.091   4.680   7.066
    9SAPS  H11B 1076   1.162   4.757   6.915
    9SAPS     P 1077   0.914   4.861   6.838
    9SAPS   O13 1078   0.786   4.806   6.791
    9SAPS   O14 1079   0.914   5.008   6.857
    9SAPS   O12 1080   0.956   4.796   6.970
    9SAPS   O11 1081   1.028   4.815   6.744
    9SAPS    C1 1082   1.018   4.688   6.682
    9SAPS    HA 1083   1.037   4.608   6.756
    9SAPS    HB 1084   0.915   4.670   6.642
    9SAPS    C2 1085   1.118   4.672   6.568
    9SAPS    HS 1086   1.224   4.657   6.599
    9SAPS   O21 1087   1.109   4.774   6.468
    9SAPS   C21 1088   1.220   4.810   6.403
    9SAPS   O22 1089   1.335   4.769   6.427
    9SAPS   C22 1090   1.184   4.921   6.304
    9SAPS   H2R 1091   1.081   4.955   6.327
    9SAPS   H2S 1092   1.265   4.996   6.315
    9SAPS    C3 1093   1.077   4.540   6.498
    9SAPS    HX 1094   0.978   4.554   6.451
    9SAPS    HY 1095   1.066   4.459   6.574
    9SAPS   O31 1096   1.182   4.499   6.405
    9SAPS   C31 1097   1.274   4.410   6.441
    9SAPS   O32 1098   1.276   4.357   6.548
    9SAPS   C32 1099   1.365   4.389   6.319
    9SAPS   H2X 1100   1.332   4.301   6.261
    9SAPS   H2Y 1101   1.467   4.364   6.356
    9SAPS   C23 1102   1.178   4.866   6.158
    9SAPS   H3R 1103   1.118   4.773   6.164
    9SAPS   H3S 1104   1.283   4.835   6.136
    9SAPS   C24 1105   1.119   4.962   6.049
    9SAPS   H4R 1106   1.018   4.999   6.075
    9SAPS   H4S 1107   1.123   4.913   5.949
    9SAPS   C25 1108   1.221   5.076   6.055
    9SAPS   H5R 1109   1.250   5.117   6.154
    9SAPS   C26 1110   1.286   5.131   5.952
    9SAPS   H6R 1111   1.359   5.209   5.979
    9SAPS   C27 1112   1.253   5.100   5.806
    9SAPS   H7R 1113   1.148   5.131   5.786
    9SAPS   H7S 1114   1.247   4.992   5.781
    9SAPS   C28 1115   1.351   5.170   5.714
    9SAPS   H8R 1116   1.411   5.248   5.764
    9SAPS   C29 1117   1.377   5.138   5.586
    9SAPS   H9R 1118   1.451   5.196   5.528
    9SAPS  C210 1119   1.299   5.039   5.506
    9SAPS  H10R 1120   1.225   5.101   5.452
    9SAPS  H10S 1121   1.249   4.957   5.561
    9SAPS  C211 1122   1.405   4.966   5.427
    9SAPS  H11R 1123   1.461   4.890   5.484
    9SAPS  C212 1124   1.431   4.973   5.293
    9SAPS  H12R 1125   1.510   4.906   5.256
    9SAPS  C213 1126   1.370   5.069   5.190
    9SAPS  H13R 1127   1.261   5.079   5.209
    9SAPS  H13S 1128   1.375   5.035   5.084
    9SAPS  C214 1129   1.438   5.196   5.196
    9SAPS  H14R 1130   1.387   5.261   5.269
    9SAPS  C215 1131   1.553   5.226   5.131
    9SAPS  H15R 1132   1.605   5.321   5.149
    9SAPS  C216 1133   1.632   5.144   5.034
    9SAPS  H16R 1134   1.574   5.071   4.974
    9SAPS  H16S 1135   1.714   5.086   5.080
    9SAPS  C217 1136   1.685   5.247   4.924
    9SAPS  H17R 1137   1.732   5.337   4.969
    9SAPS  H17S 1138   1.596   5.288   4.872
    9SAPS  C218 1139   1.779   5.178   4.826
    9SAPS  H18R 1140   1.710   5.116   4.764
    9SAPS  H18S 1141   1.848   5.104   4.872
    9SAPS  C219 1142   1.846   5.271   4.724
    9SAPS  H19R 1143   1.871   5.226   4.626
    9SAPS  H19S 1144   1.949   5.293   4.758
    9SAPS  C220 1145   1.771   5.397   4.688
    9SAPS  H20R 1146   1.668   5.366   4.659
    9SAPS  H20S 1147   1.821   5.445   4.601
    9SAPS  H20T 1148   1.770   5.466   4.775
    9SAPS   C33 1149   1.380   4.513   6.221
    9SAPS   H3X 1150   1.443   4.591   6.270
    9SAPS   H3Y 1151   1.283   4.564   6.205
    9SAPS   C34 1152   1.441   4.468   6.090
    9SAPS   H4X 1153   1.405   4.372   6.047
    9SAPS   H4Y 1154   1.546   4.439   6.113
    9SAPS   C35 1155   1.447   4.589   5.989
    9SAPS   H5X 1156   1.492   4.674   6.044
    9SAPS   H5Y 1157   1.344   4.617   5.957
    9SAPS   C36 1158   1.509   4.562   5.856
    9SAPS   H6X 1159   1.474   4.635   5.779
    9SAPS   H6Y 1160   1.470   4.468   5.810
    9SAPS   C37 1161   1.662   4.552   5.855
    9SAPS   H7X 1162   1.700   4.477   5.927
    9SAPS   H7Y 1163   1.705   4.654   5.865
    9SAPS   C38 1164   1.717   4.509   5.710
    9SAPS   H8X 1165   1.699   4.400   5.696
    9SAPS   H8Y 1166   1.826   4.525   5.714
    9SAPS   C39 1167   1.651   4.583   5.595
    9SAPS   H9X 1168   1.670   4.693   5.604
    9SAPS   H9Y 1169   1.543   4.559   5.598
    9SAPS  C310 1170   1.707   4.540   5.454
    9SAPS  H10X 1171   1.690   4.431   5.443
    9SAPS  H10Y 1172   1.815   4.563   5.446
    9SAPS  C311 1173   1.642   4.620   5.341
    9SAPS  H11X 1174   1.668   4.727   5.355
    9SAPS  H11Y 1175   1.533   4.602   5.351
    9SAPS  C312 1176   1.696   4.572   5.201
    9SAPS  H12X 1177   1.629   4.487   5.177
    9SAPS  H12Y 1178   1.799   4.545   5.235
    9SAPS  C313 1179   1.725   4.660   5.079
    9SAPS  H13X 1180   1.642   4.733   5.066
    9SAPS  H13Y 1181   1.716   4.600   4.986
    9SAPS  C314 1182   1.851   4.746   5.099
    9SAPS  H14X 1183   1.927   4.667   5.119
    9SAPS  H14Y 1184   1.846   4.813   5.188
    9SAPS  C315 1185   1.890   4.828   4.974
    9SAPS  H15X 1186   1.811   4.903   4.950
    9SAPS  H15Y 1187   1.882   4.760   4.887
    9SAPS  C316 1188   2.028   4.905   4.987
    9SAPS  H16X 1189   2.043   4.959   5.083
    9SAPS  H16Y 1190   2.035   4.982   4.907
    9SAPS  C317 1191   2.154   4.810   4.975
    9SAPS  H17X 1192   2.137   4.751   4.883
    9SAPS  H17Y 1193   2.143   4.742   5.062
    9SAPS  C318 1194   2.290   4.883   4.960
    9SAPS  H18X 1195   2.331   4.918   5.057
    9SAPS  H18Y 1196   2.279   4.961   4.882
    9SAPS  H18Z 1197   2.368   4.820   4.911
   10SAPS     N 1198   2.140   3.838   6.826
   10SAPS   HN1 1199   2.081   3.839   6.741
   10SAPS   HN2 1200   2.172   3.934   6.846
   10SAPS   HN3 1201   2.226   3.781   6.814
   10SAPS   C12 1202   2.052   3.789   6.940
   10SAPS  H12A 1203   2.004   3.699   6.904
   10SAPS   C13 1204   2.129   3.767   7.075
   10SAPS  O13A 1205   2.246   3.802   7.082
   10SAPS  O13B 1206   2.069   3.720   7.170
   10SAPS   C11 1207   1.936   3.895   6.965
   10SAPS  H11A 1208   1.987   3.990   6.993
   10SAPS  H11B 1209   1.880   3.859   7.053
   10SAPS     P 1210   1.853   4.041   6.777
   10SAPS   O13 1211   1.780   4.034   6.651
   10SAPS   O14 1212   1.802   4.143   6.875
   10SAPS   O12 1213   1.855   3.897   6.848
   10SAPS   O11 1214   2.007   4.065   6.754
   10SAPS    C1 1215   2.055   4.188   6.714
   10SAPS    HA 1216   2.006   4.277   6.759
   10SAPS    HB 1217   2.160   4.188   6.751
   10SAPS    C2 1218   2.056   4.200   6.558
   10SAPS    HS 1219   1.948   4.216   6.534
   10SAPS   O21 1220   2.101   4.081   6.493
   10SAPS   C21 1221   2.225   4.042   6.522
   10SAPS   O22 1222   2.303   4.102   6.592
   10SAPS   C22 1223   2.252   3.908   6.440
   10SAPS   H2R 1224   2.243   3.823   6.511
   10SAPS   H2S 1225   2.174   3.898   6.361
   10SAPS    C3 1226   2.130   4.330   6.506
   10SAPS    HX 1227   2.227   4.325   6.559
   10SAPS    HY 1228   2.092   4.419   6.560
   10SAPS   O31 1229   2.151   4.338   6.363
   10SAPS   C31 1230   2.052   4.386   6.291
   10SAPS   O32 1231   1.939   4.408   6.334
   10SAPS   C32 1232   2.104   4.425   6.157
   10SAPS   H2X 1233   2.207   4.463   6.175
   10SAPS   H2Y 1234   2.028   4.491   6.111
   10SAPS   C23 1235   2.387   3.900   6.369
   10SAPS   H3R 1236   2.401   3.793   6.345
   10SAPS   H3S 1237   2.475   3.936   6.427
   10SAPS   C24 1238   2.381   3.974   6.235
   10SAPS   H4R 1239   2.342   4.078   6.246
   10SAPS   H4S 1240   2.306   3.920   6.175
   10SAPS   C25 1241   2.526   3.973   6.182
   10SAPS   H5R 1242   2.604   3.941   6.252
   10SAPS   C26 1243   2.575   4.006   6.064
   10SAPS   H6R 1244   2.679   3.976   6.046
   10SAPS   C27 1245   2.498   4.069   5.946
   10SAPS   H7R 1246   2.408   4.124   5.982
   10SAPS   H7S 1247   2.469   3.996   5.868
   10SAPS   C28 1248   2.584   4.175   5.878
   10SAPS   H8R 1249   2.664   4.221   5.938
   10SAPS   C29 1250   2.572   4.225   5.752
   10SAPS   H9R 1251   2.642   4.308   5.732
   10SAPS  C210 1252   2.478   4.187   5.639
   10SAPS  H10R 1253   2.439   4.269   5.575
   10SAPS  H10S 1254   2.384   4.140   5.675
   10SAPS  C211 1255   2.566   4.091   5.561
   10SAPS  H11R 1256   2.632   4.027   5.621
   10SAPS  C212 1257   2.574   4.068   5.427
   10SAPS  H12R 1258   2.632   3.983   5.388
   10SAPS  C213 1259   2.500   4.144   5.319
   10SAPS  H13R 1260   2.572   4.162   5.236
   10SAPS  H13S 1261   2.464   4.243   5.356
   10SAPS  C214 1262   2.379   4.067   5.269
   10SAPS  H14R 1263   2.327   4.028   5.358
   10SAPS  C215 1264   2.348   4.019   5.143
   10SAPS  H15R 1265   2.261   3.952   5.134
   10SAPS  C216 1266   2.420   4.069   5.018
   10SAPS  H16R 1267   2.499   3.995   4.995
   10SAPS  H16S 1268   2.462   4.171   5.037
   10SAPS  C217 1269   2.304   4.086   4.911
   10SAPS  H17R 1270   2.215   4.143   4.945
   10SAPS  H17S 1271   2.269   3.989   4.870
   10SAPS  C218 1272   2.362   4.151   4.775
   10SAPS  H18R 1273   2.424   4.237   4.808
   10SAPS  H18S 1274   2.273   4.187   4.719
   10SAPS  C219 1275   2.442   4.055   4.695
   10SAPS  H19R 1276   2.389   3.960   4.676
   10SAPS  H19S 1277   2.529   4.030   4.760
   10SAPS  C220 1278   2.490   4.106   4.554
   10SAPS  H20R 1279   2.399   4.139   4.501
   10SAPS  H20S 1280   2.557   4.035   4.501
   10SAPS  H20T 1281   2.563   4.189   4.565
   10SAPS   C33 1282   2.120   4.301   6.067
   10SAPS   H3X 1283   2.018   4.258   6.060
   10SAPS   H3Y 1284   2.186   4.229   6.121
   10SAPS   C34 1285   2.189   4.296   5.929
   10SAPS   H4X 1286   2.224   4.196   5.896
   10SAPS   H4Y 1287   2.286   4.350   5.934
   10SAPS   C35 1288   2.111   4.388   5.838
   10SAPS   H5X 1289   2.107   4.487   5.887
   10SAPS   H5Y 1290   2.009   4.348   5.820
   10SAPS   C36 1291   2.173   4.405   5.692
   10SAPS   H6X 1292   2.136   4.322   5.629
   10SAPS   H6Y 1293   2.281   4.380   5.703
   10SAPS   C37 1294   2.152   4.542   5.625
   10SAPS   H7X 1295   2.204   4.621   5.684
   10SAPS   H7Y 1296   2.043   4.557   5.612
   10SAPS   C38 1297   2.210   4.537   5.476
   10SAPS   H8X 1298   2.316   4.505   5.466
   10SAPS   H8Y 1299   2.219   4.640   5.437
   10SAPS   C39 1300   2.136   4.448   5.384
   10SAPS   H9X 1301   2.028   4.464   5.403
   10SAPS   H9Y 1302   2.140   4.344   5.423
   10SAPS  C310 1303   2.175   4.459   5.238
   10SAPS  H10X 1304   2.279   4.421   5.222
   10SAPS  H10Y 1305   2.185   4.568   5.217
   10SAPS  C311 1306   2.069   4.392   5.144
   10SAPS  H11X 1307   1.967   4.414   5.182
   10SAPS  H11Y 1308   2.077   4.281   5.147
   10SAPS  C312 1309   2.069   4.440   4.998
   10SAPS  H12X 1310   2.166   4.430   4.945
   10SAPS  H12Y 1311   2.056   4.551   4.994
   10SAPS  C313 1312   1.962   4.374   4.911
   10SAPS  H13X 1313   1.869   4.364   4.971
   10SAPS  H13Y 1314   1.983   4.267   4.888
   10SAPS  C314 1315   1.942   4.453   4.786
   10SAPS  H14X 1316   2.045   4.481   4.754
   10SAPS  H14Y 1317   1.887   4.547   4.806
   10SAPS  C315 1318   1.862   4.380   4.678
   10SAPS  H15X 1319   1.791   4.308   4.725
   10SAPS  H15Y 1320   1.935   4.319   4.620
   10SAPS  C316 1321   1.790   4.466   4.570
   10SAPS  H16X 1322   1.705   4.525   4.610
   10SAPS  H16Y 1323   1.749   4.395   4.495
   10SAPS  C317 1324   1.874   4.578   4.513
   10SAPS  H17X 1325   1.922   4.645   4.587
   10SAPS  H17Y 1326   1.804   4.653   4.469
   10SAPS  C318 1327   1.965   4.542   4.404
   10SAPS  H18X 1328   2.006   4.629   4.348
   10SAPS  H18Y 1329   1.922   4.485   4.319
   10SAPS  H18Z 1330   2.056   4.486   4.434
   11SAPS     N 1331   3.216   2.487   1.826
   11SAPS   HN1 1332   3.230   2.461   1.726
   11SAPS   HN2 1333   3.163   2.412   1.875
   11SAPS   HN3 1334   3.159   2.574   1.830
   11SAPS   C12 1335   3.358   2.508   1.895
   11SAPS  H12A 1336   3.415   2.416   1.888
   11SAPS   C13 1337   3.442   2.618   1.822
   11SAPS  O13A 1338   3.390   2.677   1.721
   11SAPS  O13B 1339   3.557   2.646   1.865
   11SAPS   C11 1340   3.333   2.550   2.042
   11SAPS  H11A 1341   3.283   2.649   2.038
   11SAPS  H11B 1342   3.432   2.561   2.090
   11SAPS     P 1343   3.291   2.361   2.221
   11SAPS   O13 1344   3.183   2.260   2.234
   11SAPS   O14 1345   3.421   2.303   2.178
   11SAPS   O12 1346   3.242   2.463   2.111
   11SAPS   O11 1347   3.311   2.444   2.357
   11SAPS    C1 1348   3.381   2.374   2.460
   11SAPS    HA 1349   3.326   2.287   2.501
   11SAPS    HB 1350   3.478   2.336   2.422
   11SAPS    C2 1351   3.420   2.472   2.577
   11SAPS    HS 1352   3.325   2.514   2.617
   11SAPS   O21 1353   3.518   2.570   2.531
   11SAPS   C21 1354   3.527   2.677   2.606
   11SAPS   O22 1355   3.466   2.708   2.706
   11SAPS   C22 1356   3.624   2.771   2.539
   11SAPS   H2R 1357   3.725   2.732   2.566
   11SAPS   H2S 1358   3.594   2.776   2.433
   11SAPS    C3 1359   3.480   2.389   2.692
   11SAPS    HX 1360   3.501   2.446   2.785
   11SAPS    HY 1361   3.582   2.353   2.666
   11SAPS   O31 1362   3.402   2.268   2.713
   11SAPS   C31 1363   3.318   2.290   2.816
   11SAPS   O32 1364   3.302   2.391   2.881
   11SAPS   C32 1365   3.252   2.162   2.856
   11SAPS   H2X 1366   3.285   2.079   2.790
   11SAPS   H2Y 1367   3.144   2.173   2.828
   11SAPS   C23 1368   3.615   2.913   2.598
   11SAPS   H3R 1369   3.561   2.921   2.694
   11SAPS   H3S 1370   3.558   2.976   2.526
   11SAPS   C24 1371   3.748   2.978   2.610
   11SAPS   H4R 1372   3.725   3.086   2.627
   11SAPS   H4S 1373   3.794   2.958   2.511
   11SAPS   C25 1374   3.838   2.916   2.719
   11SAPS   H5R 1375   3.907   2.835   2.691
   11SAPS   C26 1376   3.840   2.973   2.838
   11SAPS   H6R 1377   3.906   2.936   2.919
   11SAPS   C27 1378   3.769   3.089   2.892
   11SAPS   H7R 1379   3.756   3.088   3.002
   11SAPS   H7S 1380   3.664   3.099   2.857
   11SAPS   C28 1381   3.849   3.215   2.864
   11SAPS   H8R 1382   3.816   3.267   2.773
   11SAPS   C29 1383   3.942   3.273   2.947
   11SAPS   H9R 1384   3.995   3.362   2.911
   11SAPS  C210 1385   3.988   3.222   3.081
   11SAPS  H10R 1386   4.095   3.202   3.060
   11SAPS  H10S 1387   3.931   3.131   3.110
   11SAPS  C211 1388   3.968   3.337   3.175
   11SAPS  H11R 1389   3.899   3.416   3.143
   11SAPS  C212 1390   3.997   3.335   3.308
   11SAPS  H12R 1391   3.959   3.412   3.375
   11SAPS  C213 1392   4.068   3.218   3.370
   11SAPS  H13R 1393   4.159   3.261   3.417
   11SAPS  H13S 1394   4.106   3.142   3.298
   11SAPS  C214 1395   3.988   3.148   3.477
   11SAPS  H14R 1396   3.902   3.092   3.438
   11SAPS  C215 1397   3.996   3.170   3.610
   11SAPS  H15R 1398   3.933   3.098   3.664
   11SAPS  C216 1399   4.105   3.244   3.685
   11SAPS  H16R 1400   4.084   3.351   3.662
   11SAPS  H16S 1401   4.200   3.213   3.637
   11SAPS  C217 1402   4.116   3.211   3.837
   11SAPS  H17R 1403   4.061   3.117   3.854
   11SAPS  H17S 1404   4.046   3.281   3.887
   11SAPS  C218 1405   4.255   3.213   3.901
   11SAPS  H18R 1406   4.303   3.308   3.871
   11SAPS  H18S 1407   4.310   3.128   3.855
   11SAPS  C219 1408   4.257   3.204   4.054
   11SAPS  H19R 1409   4.212   3.106   4.079
   11SAPS  H19S 1410   4.189   3.283   4.093
   11SAPS  C220 1411   4.395   3.217   4.123
   11SAPS  H20R 1412   4.395   3.204   4.234
   11SAPS  H20S 1413   4.443   3.316   4.109
   11SAPS  H20T 1414   4.462   3.147   4.069
   11SAPS   C33 1415   3.254   2.124   3.001
   11SAPS   H3X 1416   3.205   2.203   3.061
   11SAPS   H3Y 1417   3.351   2.095   3.047
   11SAPS   C34 1418   3.166   1.996   3.019
   11SAPS   H4X 1419   3.216   1.912   2.965
   11SAPS   H4Y 1420   3.069   2.021   2.970
   11SAPS   C35 1421   3.144   1.963   3.163
   11SAPS   H5X 1422   3.066   1.884   3.159
   11SAPS   H5Y 1423   3.103   2.047   3.224
   11SAPS   C36 1424   3.253   1.895   3.241
   11SAPS   H6X 1425   3.353   1.942   3.230
   11SAPS   H6Y 1426   3.250   1.789   3.209
   11SAPS   C37 1427   3.221   1.898   3.392
   11SAPS   H7X 1428   3.114   1.879   3.414
   11SAPS   H7Y 1429   3.231   2.002   3.428
   11SAPS   C38 1430   3.312   1.804   3.476
   11SAPS   H8X 1431   3.415   1.846   3.467
   11SAPS   H8Y 1432   3.323   1.705   3.426
   11SAPS   C39 1433   3.271   1.781   3.622
   11SAPS   H9X 1434   3.251   1.884   3.659
   11SAPS   H9Y 1435   3.364   1.746   3.673
   11SAPS  C310 1436   3.156   1.688   3.638
   11SAPS  H10X 1437   3.190   1.582   3.644
   11SAPS  H10Y 1438   3.088   1.694   3.551
   11SAPS  C311 1439   3.059   1.713   3.756
   11SAPS  H11X 1440   2.959   1.735   3.714
   11SAPS  H11Y 1441   3.075   1.809   3.810
   11SAPS  C312 1442   3.057   1.590   3.840
   11SAPS  H12X 1443   3.158   1.561   3.875
   11SAPS  H12Y 1444   3.026   1.507   3.774
   11SAPS  C313 1445   2.970   1.606   3.967
   11SAPS  H13X 1446   2.874   1.655   3.939
   11SAPS  H13Y 1447   3.014   1.669   4.047
   11SAPS  C314 1448   2.921   1.474   4.032
   11SAPS  H14X 1449   2.978   1.388   3.990
   11SAPS  H14Y 1450   2.816   1.447   4.005
   11SAPS  C315 1451   2.916   1.477   4.180
   11SAPS  H15X 1452   2.835   1.546   4.214
   11SAPS  H15Y 1453   3.010   1.509   4.229
   11SAPS  C316 1454   2.893   1.337   4.241
   11SAPS  H16X 1455   2.977   1.289   4.186
   11SAPS  H16Y 1456   2.802   1.292   4.195
   11SAPS  C317 1457   2.898   1.347   4.393
   11SAPS  H17X 1458   2.817   1.418   4.421
   11SAPS  H17Y 1459   2.994   1.397   4.416
   11SAPS  C318 1460   2.881   1.221   4.471
   11SAPS  H18X 1461   2.932   1.240   4.568
   11SAPS  H18Y 1462   2.929   1.131   4.428
   11SAPS  H18Z 1463   2.777   1.195   4.501
   12SAPS     N 1464   2.995   2.080   2.150
   12SAPS   HN1 1465   2.931   2.064   2.231
   12SAPS   HN2 1466   3.073   2.144   2.172
   12SAPS   HN3 1467   2.940   2.116   2.070
   12SAPS   C12 1468   3.059   1.946   2.113
   12SAPS  H12A 1469   2.973   1.882   2.101
   12SAPS   C13 1470   3.136   1.944   1.978
   12SAPS  O13A 1471   3.125   2.049   1.910
   12SAPS  O13B 1472   3.176   1.829   1.936
   12SAPS   C11 1473   3.150   1.896   2.225
   12SAPS  H11A 1474   3.243   1.956   2.225
   12SAPS  H11B 1475   3.201   1.802   2.196
   12SAPS     P 1476   3.002   1.760   2.397
   12SAPS   O13 1477   2.879   1.744   2.310
   12SAPS   O14 1478   3.086   1.640   2.397
   12SAPS   O12 1479   3.086   1.884   2.348
   12SAPS   O11 1480   2.954   1.800   2.538
   12SAPS    C1 1481   2.868   1.901   2.563
   12SAPS    HA 1482   2.926   1.985   2.607
   12SAPS    HB 1483   2.817   1.949   2.477
   12SAPS    C2 1484   2.750   1.856   2.654
   12SAPS    HS 1485   2.713   1.948   2.705
   12SAPS   O21 1486   2.788   1.756   2.744
   12SAPS   C21 1487   2.845   1.807   2.858
   12SAPS   O22 1488   2.862   1.926   2.874
   12SAPS   C22 1489   2.878   1.696   2.949
   12SAPS   H2R 1490   2.928   1.614   2.894
   12SAPS   H2S 1491   2.945   1.718   3.035
   12SAPS    C3 1492   2.645   1.797   2.561
   12SAPS    HX 1493   2.694   1.705   2.522
   12SAPS    HY 1494   2.638   1.869   2.476
   12SAPS   O31 1495   2.525   1.785   2.643
   12SAPS   C31 1496   2.445   1.689   2.604
   12SAPS   O32 1497   2.457   1.617   2.508
   12SAPS   C32 1498   2.326   1.669   2.706
   12SAPS   H2X 1499   2.259   1.590   2.665
   12SAPS   H2Y 1500   2.277   1.768   2.689
   12SAPS   C23 1501   2.756   1.649   3.024
   12SAPS   H3R 1502   2.787   1.564   3.088
   12SAPS   H3S 1503   2.688   1.602   2.950
   12SAPS   C24 1504   2.684   1.759   3.099
   12SAPS   H4R 1505   2.586   1.719   3.133
   12SAPS   H4S 1506   2.650   1.841   3.033
   12SAPS   C25 1507   2.758   1.832   3.205
   12SAPS   H5R 1508   2.822   1.915   3.170
   12SAPS   C26 1509   2.746   1.814   3.339
   12SAPS   H6R 1510   2.799   1.879   3.411
   12SAPS   C27 1511   2.647   1.715   3.405
   12SAPS   H7R 1512   2.571   1.672   3.336
   12SAPS   H7S 1513   2.578   1.768   3.473
   12SAPS   C28 1514   2.716   1.608   3.481
   12SAPS   H8R 1515   2.793   1.552   3.426
   12SAPS   C29 1516   2.693   1.564   3.608
   12SAPS   H9R 1517   2.764   1.486   3.640
   12SAPS  C210 1518   2.601   1.627   3.709
   12SAPS  H10R 1519   2.606   1.738   3.702
   12SAPS  H10S 1520   2.649   1.616   3.808
   12SAPS  C211 1521   2.464   1.565   3.711
   12SAPS  H11R 1522   2.428   1.552   3.608
   12SAPS  C212 1523   2.389   1.534   3.821
   12SAPS  H12R 1524   2.287   1.501   3.798
   12SAPS  C213 1525   2.440   1.548   3.967
   12SAPS  H13R 1526   2.499   1.642   3.979
   12SAPS  H13S 1527   2.515   1.467   3.975
   12SAPS  C214 1528   2.340   1.550   4.078
   12SAPS  H14R 1529   2.253   1.618   4.084
   12SAPS  C215 1530   2.356   1.485   4.195
   12SAPS  H15R 1531   2.285   1.503   4.276
   12SAPS  C216 1532   2.470   1.396   4.238
   12SAPS  H16R 1533   2.478   1.402   4.349
   12SAPS  H16S 1534   2.569   1.424   4.196
   12SAPS  C217 1535   2.437   1.249   4.184
   12SAPS  H17R 1536   2.453   1.249   4.074
   12SAPS  H17S 1537   2.333   1.223   4.213
   12SAPS  C218 1538   2.536   1.145   4.239
   12SAPS  H18R 1539   2.516   1.136   4.347
   12SAPS  H18S 1540   2.637   1.192   4.237
   12SAPS  C219 1541   2.537   1.005   4.172
   12SAPS  H19R 1542   2.518   1.012   4.063
   12SAPS  H19S 1543   2.451   0.942   4.201
   12SAPS  C220 1544   2.671   0.930   4.214
   12SAPS  H20R 1545   2.669   0.912   4.324
   12SAPS  H20S 1546   2.754   0.990   4.172
   12SAPS  H20T 1547   2.674   0.830   4.166
   12SAPS   C33 1548   2.370   1.653   2.852
   12SAPS   H3X 1549   2.435   1.740   2.873
   12SAPS   H3Y 1550   2.420   1.554   2.854
   12SAPS   C34 1551   2.251   1.651   2.954
   12SAPS   H4X 1552   2.178   1.572   2.927
   12SAPS   H4Y 1553   2.202   1.750   2.943
   12SAPS   C35 1554   2.300   1.650   3.103
   12SAPS   H5X 1555   2.366   1.733   3.134
   12SAPS   H5Y 1556   2.364   1.560   3.112
   12SAPS   C36 1557   2.183   1.628   3.204
   12SAPS   H6X 1558   2.181   1.518   3.216
   12SAPS   H6Y 1559   2.083   1.654   3.163
   12SAPS   C37 1560   2.199   1.701   3.341
   12SAPS   H7X 1561   2.170   1.804   3.312
   12SAPS   H7Y 1562   2.303   1.718   3.376
   12SAPS   C38 1563   2.099   1.640   3.444
   12SAPS   H8X 1564   2.107   1.529   3.449
   12SAPS   H8Y 1565   1.997   1.657   3.404
   12SAPS   C39 1566   2.116   1.700   3.586
   12SAPS   H9X 1567   2.099   1.809   3.574
   12SAPS   H9Y 1568   2.221   1.690   3.621
   12SAPS  C310 1569   2.025   1.632   3.687
   12SAPS  H10X 1570   2.056   1.526   3.699
   12SAPS  H10Y 1571   1.923   1.620   3.643
   12SAPS  C311 1572   2.019   1.694   3.825
   12SAPS  H11X 1573   1.986   1.799   3.810
   12SAPS  H11Y 1574   2.118   1.708   3.873
   12SAPS  C312 1575   1.932   1.615   3.922
   12SAPS  H12X 1576   1.970   1.512   3.937
   12SAPS  H12Y 1577   1.827   1.604   3.886
   12SAPS  C313 1578   1.936   1.667   4.071
   12SAPS  H13X 1579   1.887   1.766   4.070
   12SAPS  H13Y 1580   2.042   1.684   4.098
   12SAPS  C314 1581   1.868   1.582   4.180
   12SAPS  H14X 1582   1.761   1.560   4.159
   12SAPS  H14Y 1583   1.887   1.648   4.268
   12SAPS  C315 1584   1.953   1.459   4.218
   12SAPS  H15X 1585   2.060   1.487   4.205
   12SAPS  H15Y 1586   1.926   1.388   4.137
   12SAPS  C316 1587   1.923   1.401   4.351
   12SAPS  H16X 1588   1.928   1.481   4.427
   12SAPS  H16Y 1589   2.013   1.338   4.365
   12SAPS  C317 1590   1.792   1.309   4.383
   12SAPS  H17X 1591   1.784   1.233   4.303
   12SAPS  H17Y 1592   1.699   1.369   4.376
   12SAPS  C318 1593   1.798   1.243   4.524
   12SAPS  H18X 1594   1.890   1.181   4.533
   12SAPS  H18Y 1595   1.715   1.170   4.512
   12SAPS  H18Z 1596   1.760   1.314   4.600
   13SAPS     N 1597   4.935   1.505   2.071
   13SAPS   HN1 1598   4.853   1.441   2.071
   13SAPS   HN2 1599   4.962   1.513   2.171
   13SAPS   HN3 1600   4.922   1.602   2.036
   13SAPS   C12 1601   5.053   1.447   1.996
   13SAPS  H12A 1602   5.020   1.419   1.898
   13SAPS   C13 1603   5.175   1.547   1.980
   13SAPS  O13A 1604   5.161   1.669   2.008
   13SAPS  O13B 1605   5.278   1.503   1.930
   13SAPS   C11 1606   5.098   1.323   2.076
   13SAPS  H11A 1607   5.135   1.358   2.175
   13SAPS  H11B 1608   5.184   1.275   2.025
   13SAPS     P 1609   5.004   1.092   2.147
   13SAPS   O13 1610   4.954   1.003   2.042
   13SAPS   O14 1611   5.151   1.075   2.174
   13SAPS   O12 1612   4.987   1.240   2.099
   13SAPS   O11 1613   4.918   1.072   2.279
   13SAPS    C1 1614   4.923   1.167   2.380
   13SAPS    HA 1615   4.993   1.252   2.365
   13SAPS    HB 1616   4.822   1.211   2.389
   13SAPS    C2 1617   4.945   1.096   2.515
   13SAPS    HS 1618   5.043   1.044   2.513
   13SAPS   O21 1619   4.830   1.006   2.545
   13SAPS   C21 1620   4.855   0.878   2.523
   13SAPS   O22 1621   4.959   0.829   2.479
   13SAPS   C22 1622   4.740   0.793   2.572
   13SAPS   H2R 1623   4.647   0.847   2.543
   13SAPS   H2S 1624   4.745   0.702   2.509
   13SAPS    C3 1625   4.948   1.195   2.630
   13SAPS    HX 1626   4.851   1.247   2.620
   13SAPS    HY 1627   5.036   1.261   2.613
   13SAPS   O31 1628   4.949   1.131   2.756
   13SAPS   C31 1629   5.079   1.088   2.787
   13SAPS   O32 1630   5.176   1.120   2.725
   13SAPS   C32 1631   5.076   1.010   2.915
   13SAPS   H2X 1632   4.979   0.956   2.918
   13SAPS   H2Y 1633   5.071   1.081   3.000
   13SAPS   C23 1634   4.738   0.733   2.712
   13SAPS   H3R 1635   4.824   0.742   2.782
   13SAPS   H3S 1636   4.708   0.626   2.701
   13SAPS   C24 1637   4.615   0.793   2.782
   13SAPS   H4R 1638   4.608   0.736   2.877
   13SAPS   H4S 1639   4.525   0.778   2.718
   13SAPS   C25 1640   4.629   0.941   2.824
   13SAPS   H5R 1641   4.644   1.013   2.742
   13SAPS   C26 1642   4.618   1.000   2.945
   13SAPS   H6R 1643   4.614   1.110   2.946
   13SAPS   C27 1644   4.607   0.939   3.086
   13SAPS   H7R 1645   4.545   0.848   3.084
   13SAPS   H7S 1646   4.555   1.001   3.162
   13SAPS   C28 1647   4.738   0.902   3.145
   13SAPS   H8R 1648   4.826   0.929   3.085
   13SAPS   C29 1649   4.763   0.828   3.255
   13SAPS   H9R 1650   4.865   0.823   3.295
   13SAPS  C210 1651   4.670   0.760   3.359
   13SAPS  H10R 1652   4.691   0.653   3.338
   13SAPS  H10S 1653   4.562   0.766   3.337
   13SAPS  C211 1654   4.676   0.815   3.503
   13SAPS  H11R 1655   4.646   0.920   3.518
   13SAPS  C212 1656   4.741   0.759   3.608
   13SAPS  H12R 1657   4.730   0.799   3.710
   13SAPS  C213 1658   4.798   0.616   3.601
   13SAPS  H13R 1659   4.821   0.591   3.495
   13SAPS  H13S 1660   4.720   0.543   3.629
   13SAPS  C214 1661   4.921   0.602   3.686
   13SAPS  H14R 1662   5.022   0.602   3.643
   13SAPS  C215 1663   4.918   0.607   3.820
   13SAPS  H15R 1664   5.014   0.607   3.875
   13SAPS  C216 1665   4.793   0.587   3.903
   13SAPS  H16R 1666   4.706   0.561   3.839
   13SAPS  H16S 1667   4.771   0.681   3.957
   13SAPS  C217 1668   4.799   0.485   4.026
   13SAPS  H17R 1669   4.847   0.393   3.985
   13SAPS  H17S 1670   4.697   0.458   4.062
   13SAPS  C218 1671   4.891   0.532   4.145
   13SAPS  H18R 1672   4.837   0.614   4.197
   13SAPS  H18S 1673   4.994   0.561   4.115
   13SAPS  C219 1674   4.927   0.416   4.243
   13SAPS  H19R 1675   4.826   0.372   4.258
   13SAPS  H19S 1676   4.959   0.451   4.344
   13SAPS  C220 1677   5.019   0.300   4.194
   13SAPS  H20R 1678   5.123   0.334   4.181
   13SAPS  H20S 1679   4.980   0.258   4.099
   13SAPS  H20T 1680   5.017   0.211   4.262
   13SAPS   C33 1681   5.192   0.902   2.948
   13SAPS   H3X 1682   5.295   0.944   2.941
   13SAPS   H3Y 1683   5.201   0.829   2.864
   13SAPS   C34 1684   5.162   0.835   3.084
   13SAPS   H4X 1685   5.185   0.727   3.098
   13SAPS   H4Y 1686   5.051   0.844   3.087
   13SAPS   C35 1687   5.223   0.912   3.203
   13SAPS   H5X 1688   5.203   1.022   3.199
   13SAPS   H5Y 1689   5.332   0.891   3.200
   13SAPS   C36 1690   5.167   0.866   3.342
   13SAPS   H6X 1691   5.148   0.756   3.335
   13SAPS   H6Y 1692   5.070   0.916   3.361
   13SAPS   C37 1693   5.252   0.909   3.457
   13SAPS   H7X 1694   5.258   1.019   3.472
   13SAPS   H7Y 1695   5.356   0.874   3.446
   13SAPS   C38 1696   5.206   0.839   3.587
   13SAPS   H8X 1697   5.251   0.738   3.595
   13SAPS   H8Y 1698   5.100   0.808   3.581
   13SAPS   C39 1699   5.258   0.923   3.709
   13SAPS   H9X 1700   5.222   1.027   3.700
   13SAPS   H9Y 1701   5.369   0.932   3.709
   13SAPS  C310 1702   5.200   0.849   3.837
   13SAPS  H10X 1703   5.239   0.747   3.857
   13SAPS  H10Y 1704   5.096   0.825   3.809
   13SAPS  C311 1705   5.196   0.940   3.968
   13SAPS  H11X 1706   5.151   1.036   3.936
   13SAPS  H11Y 1707   5.299   0.969   3.997
   13SAPS  C312 1708   5.129   0.873   4.085
   13SAPS  H12X 1709   5.190   0.780   4.095
   13SAPS  H12Y 1710   5.023   0.839   4.076
   13SAPS  C313 1711   5.147   0.958   4.215
   13SAPS  H13X 1712   5.098   1.056   4.197
   13SAPS  H13Y 1713   5.257   0.972   4.224
   13SAPS  C314 1714   5.106   0.890   4.348
   13SAPS  H14X 1715   5.014   0.830   4.332
   13SAPS  H14Y 1716   5.079   0.980   4.407
   13SAPS  C315 1717   5.217   0.806   4.415
   13SAPS  H15X 1718   5.307   0.865   4.387
   13SAPS  H15Y 1719   5.223   0.705   4.370
   13SAPS  C316 1720   5.190   0.794   4.565
   13SAPS  H16X 1721   5.160   0.895   4.601
   13SAPS  H16Y 1722   5.276   0.765   4.629
   13SAPS  C317 1723   5.075   0.695   4.594
   13SAPS  H17X 1724   5.108   0.605   4.537
   13SAPS  H17Y 1725   4.983   0.728   4.542
   13SAPS  C318 1726   5.050   0.674   4.741
   13SAPS  H18X 1727   5.139   0.652   4.804
   13SAPS  H18Y 1728   4.970   0.599   4.758
   13SAPS  H18Z 1729   5.004   0.766   4.784
   14SAPS     N 1730   5.710   2.862   2.067
   14SAPS   HN1 1731   5.627   2.918   2.094
   14SAPS   HN2 1732   5.740   2.907   1.979
   14SAPS   HN3 1733   5.686   2.761   2.059
   14SAPS   C12 1734   5.804   2.884   2.178
   14SAPS  H12A 1735   5.775   2.811   2.252
   14SAPS   C13 1736   5.950   2.854   2.142
   14SAPS  O13A 1737   5.993   2.814   2.029
   14SAPS  O13B 1738   6.034   2.873   2.236
   14SAPS   C11 1739   5.802   3.032   2.206
   14SAPS  H11A 1740   5.811   3.091   2.113
   14SAPS  H11B 1741   5.879   3.073   2.275
   14SAPS     P 1742   5.636   3.212   2.297
   14SAPS   O13 1743   5.697   3.294   2.184
   14SAPS   O14 1744   5.487   3.217   2.319
   14SAPS   O12 1745   5.677   3.064   2.267
   14SAPS   O11 1746   5.713   3.244   2.428
   14SAPS    C1 1747   5.730   3.163   2.545
   14SAPS    HA 1748   5.680   3.066   2.523
   14SAPS    HB 1749   5.836   3.133   2.558
   14SAPS    C2 1750   5.674   3.225   2.679
   14SAPS    HS 1751   5.662   3.141   2.751
   14SAPS   O21 1752   5.554   3.297   2.656
   14SAPS   C21 1753   5.449   3.215   2.643
   14SAPS   O22 1754   5.445   3.094   2.654
   14SAPS   C22 1755   5.324   3.295   2.619
   14SAPS   H2R 1756   5.332   3.399   2.657
   14SAPS   H2S 1757   5.318   3.293   2.508
   14SAPS    C3 1758   5.774   3.322   2.745
   14SAPS    HX 1759   5.789   3.413   2.683
   14SAPS    HY 1760   5.877   3.284   2.731
   14SAPS   O31 1761   5.730   3.366   2.875
   14SAPS   C31 1762   5.827   3.384   2.964
   14SAPS   O32 1763   5.942   3.392   2.942
   14SAPS   C32 1764   5.756   3.415   3.099
   14SAPS   H2X 1765   5.647   3.417   3.083
   14SAPS   H2Y 1766   5.800   3.514   3.124
   14SAPS   C23 1767   5.202   3.223   2.685
   14SAPS   H3R 1768   5.222   3.198   2.791
   14SAPS   H3S 1769   5.176   3.137   2.620
   14SAPS   C24 1770   5.077   3.312   2.676
   14SAPS   H4R 1771   4.997   3.239   2.701
   14SAPS   H4S 1772   5.053   3.342   2.572
   14SAPS   C25 1773   5.072   3.429   2.766
   14SAPS   H5R 1774   5.149   3.505   2.750
   14SAPS   C26 1775   4.986   3.448   2.864
   14SAPS   H6R 1776   4.988   3.542   2.921
   14SAPS   C27 1777   4.872   3.361   2.905
   14SAPS   H7R 1778   4.890   3.256   2.871
   14SAPS   H7S 1779   4.783   3.393   2.847
   14SAPS   C28 1780   4.842   3.367   3.052
   14SAPS   H8R 1781   4.811   3.469   3.081
   14SAPS   C29 1782   4.829   3.263   3.138
   14SAPS   H9R 1783   4.818   3.292   3.244
   14SAPS  C210 1784   4.851   3.119   3.117
   14SAPS  H10R 1785   4.941   3.074   3.164
   14SAPS  H10S 1786   4.873   3.100   3.010
   14SAPS  C211 1787   4.726   3.049   3.161
   14SAPS  H11R 1788   4.654   3.027   3.081
   14SAPS  C212 1789   4.678   2.999   3.276
   14SAPS  H12R 1790   4.576   2.957   3.277
   14SAPS  C213 1791   4.742   3.016   3.414
   14SAPS  H13R 1792   4.675   3.072   3.482
   14SAPS  H13S 1793   4.827   3.087   3.400
   14SAPS  C214 1794   4.790   2.888   3.474
   14SAPS  H14R 1795   4.852   2.837   3.399
   14SAPS  C215 1796   4.747   2.824   3.586
   14SAPS  H15R 1797   4.798   2.733   3.620
   14SAPS  C216 1798   4.656   2.899   3.686
   14SAPS  H16R 1799   4.606   2.826   3.752
   14SAPS  H16S 1800   4.577   2.957   3.632
   14SAPS  C217 1801   4.727   2.983   3.797
   14SAPS  H17R 1802   4.643   3.033   3.850
   14SAPS  H17S 1803   4.781   3.066   3.746
   14SAPS  C218 1804   4.818   2.890   3.877
   14SAPS  H18R 1805   4.880   2.824   3.812
   14SAPS  H18S 1806   4.748   2.823   3.931
   14SAPS  C219 1807   4.911   2.958   3.971
   14SAPS  H19R 1808   4.980   3.025   3.916
   14SAPS  H19S 1809   4.981   2.880   4.008
   14SAPS  C220 1810   4.849   3.020   4.100
   14SAPS  H20R 1811   4.774   3.094   4.064
   14SAPS  H20S 1812   4.917   3.070   4.172
   14SAPS  H20T 1813   4.787   2.948   4.157
   14SAPS   C33 1814   5.775   3.324   3.220
   14SAPS   H3X 1815   5.873   3.335   3.272
   14SAPS   H3Y 1816   5.773   3.216   3.195
   14SAPS   C34 1817   5.673   3.351   3.335
   14SAPS   H4X 1818   5.573   3.331   3.292
   14SAPS   H4Y 1819   5.678   3.459   3.364
   14SAPS   C35 1820   5.681   3.266   3.461
   14SAPS   H5X 1821   5.771   3.282   3.525
   14SAPS   H5Y 1822   5.662   3.163   3.425
   14SAPS   C36 1823   5.565   3.302   3.557
   14SAPS   H6X 1824   5.471   3.271   3.508
   14SAPS   H6Y 1825   5.551   3.412   3.547
   14SAPS   C37 1826   5.586   3.253   3.701
   14SAPS   H7X 1827   5.669   3.314   3.745
   14SAPS   H7Y 1828   5.623   3.148   3.697
   14SAPS   C38 1829   5.455   3.276   3.775
   14SAPS   H8X 1830   5.383   3.236   3.700
   14SAPS   H8Y 1831   5.436   3.383   3.799
   14SAPS   C39 1832   5.446   3.182   3.895
   14SAPS   H9X 1833   5.505   3.206   3.986
   14SAPS   H9Y 1834   5.499   3.097   3.848
   14SAPS  C310 1835   5.308   3.147   3.942
   14SAPS  H10X 1836   5.271   3.094   3.851
   14SAPS  H10Y 1837   5.245   3.232   3.977
   14SAPS  C311 1838   5.300   3.040   4.055
   14SAPS  H11X 1839   5.195   3.008   4.074
   14SAPS  H11Y 1840   5.321   3.097   4.147
   14SAPS  C312 1841   5.394   2.920   4.042
   14SAPS  H12X 1842   5.498   2.955   4.027
   14SAPS  H12Y 1843   5.372   2.855   3.954
   14SAPS  C313 1844   5.387   2.827   4.166
   14SAPS  H13X 1845   5.282   2.794   4.149
   14SAPS  H13Y 1846   5.385   2.880   4.264
   14SAPS  C314 1847   5.503   2.725   4.163
   14SAPS  H14X 1848   5.597   2.783   4.166
   14SAPS  H14Y 1849   5.493   2.668   4.068
   14SAPS  C315 1850   5.484   2.630   4.285
   14SAPS  H15X 1851   5.518   2.527   4.263
   14SAPS  H15Y 1852   5.374   2.619   4.301
   14SAPS  C316 1853   5.543   2.683   4.415
   14SAPS  H16X 1854   5.542   2.794   4.411
   14SAPS  H16Y 1855   5.645   2.639   4.409
   14SAPS  C317 1856   5.476   2.646   4.548
   14SAPS  H17X 1857   5.378   2.600   4.525
   14SAPS  H17Y 1858   5.445   2.735   4.607
   14SAPS  C318 1859   5.558   2.543   4.627
   14SAPS  H18X 1860   5.515   2.531   4.729
   14SAPS  H18Y 1861   5.664   2.574   4.637
   14SAPS  H18Z 1862   5.567   2.452   4.563
   15SAPS     N 1863   4.047   3.539   1.891
   15SAPS   HN1 1864   4.116   3.485   1.947
   15SAPS   HN2 1865   4.087   3.586   1.807
   15SAPS   HN3 1866   3.997   3.606   1.953
   15SAPS   C12 1867   3.949   3.432   1.850
   15SAPS  H12A 1868   3.854   3.465   1.811
   15SAPS   C13 1869   4.015   3.329   1.759
   15SAPS  O13A 1870   4.137   3.339   1.748
   15SAPS  O13B 1871   3.956   3.222   1.719
   15SAPS   C11 1872   3.910   3.361   1.983
   15SAPS  H11A 1873   3.995   3.307   2.029
   15SAPS  H11B 1874   3.839   3.282   1.950
   15SAPS     P 1875   3.748   3.414   2.185
   15SAPS   O13 1876   3.673   3.535   2.226
   15SAPS   O14 1877   3.667   3.306   2.117
   15SAPS   O12 1878   3.846   3.456   2.072
   15SAPS   O11 1879   3.844   3.356   2.303
   15SAPS    C1 1880   3.969   3.420   2.339
   15SAPS    HA 1881   4.064   3.376   2.300
   15SAPS    HB 1882   3.963   3.529   2.319
   15SAPS    C2 1883   3.976   3.414   2.500
   15SAPS    HS 1884   4.040   3.491   2.548
   15SAPS   O21 1885   4.003   3.283   2.549
   15SAPS   C21 1886   4.134   3.254   2.540
   15SAPS   O22 1887   4.219   3.319   2.481
   15SAPS   C22 1888   4.156   3.115   2.603
   15SAPS   H2R 1889   4.154   3.127   2.714
   15SAPS   H2S 1890   4.088   3.031   2.579
   15SAPS    C3 1891   3.838   3.463   2.552
   15SAPS    HX 1892   3.763   3.390   2.516
   15SAPS    HY 1893   3.809   3.555   2.497
   15SAPS   O31 1894   3.835   3.483   2.694
   15SAPS   C31 1895   3.719   3.541   2.734
   15SAPS   O32 1896   3.620   3.563   2.670
   15SAPS   C32 1897   3.728   3.600   2.876
   15SAPS   H2X 1898   3.766   3.532   2.955
   15SAPS   H2Y 1899   3.621   3.616   2.903
   15SAPS   C23 1900   4.306   3.064   2.587
   15SAPS   H3R 1901   4.370   3.152   2.564
   15SAPS   H3S 1902   4.307   2.994   2.500
   15SAPS   C24 1903   4.348   3.003   2.719
   15SAPS   H4R 1904   4.343   3.085   2.794
   15SAPS   H4S 1905   4.457   2.978   2.717
   15SAPS   C25 1906   4.271   2.880   2.745
   15SAPS   H5R 1907   4.260   2.826   2.650
   15SAPS   C26 1908   4.223   2.824   2.862
   15SAPS   H6R 1909   4.160   2.735   2.850
   15SAPS   C27 1910   4.252   2.871   3.004
   15SAPS   H7R 1911   4.298   2.972   3.007
   15SAPS   H7S 1912   4.324   2.804   3.055
   15SAPS   C28 1913   4.126   2.894   3.083
   15SAPS   H8R 1914   4.048   2.954   3.035
   15SAPS   C29 1915   4.113   2.848   3.207
   15SAPS   H9R 1916   4.013   2.868   3.249
   15SAPS  C210 1917   4.203   2.753   3.279
   15SAPS  H10R 1918   4.261   2.682   3.216
   15SAPS  H10S 1919   4.131   2.683   3.329
   15SAPS  C211 1920   4.294   2.833   3.375
   15SAPS  H11R 1921   4.354   2.911   3.326
   15SAPS  C212 1922   4.294   2.826   3.510
   15SAPS  H12R 1923   4.369   2.889   3.560
   15SAPS  C213 1924   4.219   2.736   3.604
   15SAPS  H13R 1925   4.289   2.657   3.638
   15SAPS  H13S 1926   4.133   2.683   3.560
   15SAPS  C214 1927   4.171   2.826   3.721
   15SAPS  H14R 1928   4.105   2.907   3.686
   15SAPS  C215 1929   4.201   2.813   3.851
   15SAPS  H15R 1930   4.143   2.872   3.924
   15SAPS  C216 1931   4.296   2.711   3.910
   15SAPS  H16R 1932   4.358   2.652   3.839
   15SAPS  H16S 1933   4.238   2.629   3.957
   15SAPS  C217 1934   4.375   2.782   4.022
   15SAPS  H17R 1935   4.306   2.846   4.081
   15SAPS  H17S 1936   4.451   2.857   3.990
   15SAPS  C218 1937   4.436   2.678   4.117
   15SAPS  H18R 1938   4.476   2.598   4.051
   15SAPS  H18S 1939   4.356   2.642   4.184
   15SAPS  C219 1940   4.543   2.727   4.210
   15SAPS  H19R 1941   4.493   2.813   4.260
   15SAPS  H19S 1942   4.633   2.769   4.161
   15SAPS  C220 1943   4.578   2.630   4.318
   15SAPS  H20R 1944   4.519   2.641   4.411
   15SAPS  H20S 1945   4.684   2.632   4.351
   15SAPS  H20T 1946   4.546   2.529   4.285
   15SAPS   C33 1947   3.811   3.730   2.879
   15SAPS   H3X 1948   3.773   3.796   2.797
   15SAPS   H3Y 1949   3.915   3.705   2.850
   15SAPS   C34 1950   3.826   3.803   3.013
   15SAPS   H4X 1951   3.727   3.833   3.052
   15SAPS   H4Y 1952   3.882   3.897   2.992
   15SAPS   C35 1953   3.908   3.723   3.115
   15SAPS   H5X 1954   4.013   3.720   3.080
   15SAPS   H5Y 1955   3.870   3.619   3.124
   15SAPS   C36 1956   3.925   3.794   3.247
   15SAPS   H6X 1957   3.825   3.834   3.273
   15SAPS   H6Y 1958   3.990   3.884   3.237
   15SAPS   C37 1959   3.956   3.699   3.369
   15SAPS   H7X 1960   4.055   3.653   3.349
   15SAPS   H7Y 1961   3.860   3.643   3.367
   15SAPS   C38 1962   3.955   3.764   3.505
   15SAPS   H8X 1963   3.863   3.822   3.528
   15SAPS   H8Y 1964   4.036   3.840   3.495
   15SAPS   C39 1965   3.991   3.667   3.613
   15SAPS   H9X 1966   4.089   3.621   3.589
   15SAPS   H9Y 1967   3.930   3.575   3.620
   15SAPS  C310 1968   4.003   3.739   3.745
   15SAPS  H10X 1969   3.902   3.780   3.769
   15SAPS  H10Y 1970   4.066   3.827   3.721
   15SAPS  C311 1971   4.080   3.657   3.851
   15SAPS  H11X 1972   4.187   3.680   3.833
   15SAPS  H11Y 1973   4.069   3.547   3.856
   15SAPS  C312 1974   4.056   3.710   3.992
   15SAPS  H12X 1975   3.969   3.655   4.033
   15SAPS  H12Y 1976   4.020   3.815   3.995
   15SAPS  C313 1977   4.175   3.692   4.095
   15SAPS  H13X 1978   4.259   3.755   4.059
   15SAPS  H13Y 1979   4.203   3.584   4.100
   15SAPS  C314 1980   4.121   3.735   4.238
   15SAPS  H14X 1981   4.020   3.693   4.261
   15SAPS  H14Y 1982   4.104   3.844   4.227
   15SAPS  C315 1983   4.220   3.682   4.347
   15SAPS  H15X 1984   4.222   3.757   4.428
   15SAPS  H15Y 1985   4.317   3.642   4.311
   15SAPS  C316 1986   4.159   3.556   4.418
   15SAPS  H16X 1987   4.150   3.465   4.355
   15SAPS  H16Y 1988   4.063   3.589   4.462
   15SAPS  C317 1989   4.244   3.523   4.538
   15SAPS  H17X 1990   4.195   3.467   4.621
   15SAPS  H17Y 1991   4.271   3.621   4.584
   15SAPS  C318 1992   4.370   3.451   4.498
   15SAPS  H18X 1993   4.428   3.429   4.590
   15SAPS  H18Y 1994   4.429   3.511   4.424
   15SAPS  H18Z 1995   4.331   3.360   4.448
   16SAPS     N 1996   5.752   4.315   2.209
   16SAPS   HN1 1997   5.748   4.295   2.311
   16SAPS   HN2 1998   5.854   4.320   2.190
   16SAPS   HN3 1999   5.708   4.403   2.177
   16SAPS   C12 2000   5.696   4.202   2.126
   16SAPS  H12A 2001   5.588   4.216   2.131
   16SAPS   C13 2002   5.739   4.220   1.977
   16SAPS  O13A 2003   5.828   4.309   1.950
   16SAPS  O13B 2004   5.722   4.122   1.892
   16SAPS   C11 2005   5.740   4.053   2.165
   16SAPS  H11A 2006   5.840   4.033   2.120
   16SAPS  H11B 2007   5.676   3.979   2.111
   16SAPS     P 2008   5.821   3.902   2.368
   16SAPS   O13 2009   5.744   3.780   2.357
   16SAPS   O14 2010   5.957   3.894   2.324
   16SAPS   O12 2011   5.741   4.030   2.303
   16SAPS   O11 2012   5.815   3.928   2.516
   16SAPS    C1 2013   5.833   4.063   2.578
   16SAPS    HA 2014   5.943   4.068   2.593
   16SAPS    HB 2015   5.796   4.139   2.506
   16SAPS    C2 2016   5.771   4.073   2.713
   16SAPS    HS 2017   5.818   4.155   2.770
   16SAPS   O21 2018   5.787   3.945   2.789
   16SAPS   C21 2019   5.901   3.923   2.840
   16SAPS   O22 2020   6.003   3.990   2.829
   16SAPS   C22 2021   5.891   3.782   2.897
   16SAPS   H2R 2022   5.786   3.760   2.927
   16SAPS   H2S 2023   5.918   3.720   2.808
   16SAPS    C3 2024   5.621   4.106   2.703
   16SAPS    HX 2025   5.554   4.022   2.675
   16SAPS    HY 2026   5.614   4.178   2.619
   16SAPS   O31 2027   5.581   4.157   2.832
   16SAPS   C31 2028   5.556   4.292   2.836
   16SAPS   O32 2029   5.578   4.371   2.746
   16SAPS   C32 2030   5.507   4.333   2.973
   16SAPS   H2X 2031   5.397   4.328   2.962
   16SAPS   H2Y 2032   5.527   4.442   2.989
   16SAPS   C23 2033   5.998   3.761   3.001
   16SAPS   H3R 2034   6.095   3.794   2.958
   16SAPS   H3S 2035   6.000   3.657   3.042
   16SAPS   C24 2036   5.981   3.844   3.132
   16SAPS   H4R 2037   5.965   3.950   3.102
   16SAPS   H4S 2038   6.076   3.836   3.189
   16SAPS   C25 2039   5.868   3.807   3.227
   16SAPS   H5R 2040   5.768   3.850   3.209
   16SAPS   C26 2041   5.881   3.707   3.323
   16SAPS   H6R 2042   5.792   3.676   3.380
   16SAPS   C27 2043   6.005   3.630   3.367
   16SAPS   H7R 2044   6.096   3.655   3.309
   16SAPS   H7S 2045   5.996   3.521   3.348
   16SAPS   C28 2046   6.034   3.665   3.517
   16SAPS   H8R 2047   6.028   3.770   3.550
   16SAPS   C29 2048   6.038   3.571   3.619
   16SAPS   H9R 2049   6.067   3.597   3.722
   16SAPS  C210 2050   6.014   3.424   3.600
   16SAPS  H10R 2051   6.005   3.401   3.491
   16SAPS  H10S 2052   5.913   3.401   3.639
   16SAPS  C211 2053   6.112   3.339   3.674
   16SAPS  H11R 2054   6.201   3.315   3.614
   16SAPS  C212 2055   6.103   3.295   3.804
   16SAPS  H12R 2056   6.188   3.236   3.841
   16SAPS  C213 2057   5.996   3.323   3.905
   16SAPS  H13R 2058   5.960   3.428   3.906
   16SAPS  H13S 2059   6.052   3.319   4.001
   16SAPS  C214 2060   5.880   3.226   3.914
   16SAPS  H14R 2061   5.846   3.203   3.812
   16SAPS  C215 2062   5.819   3.163   4.015
   16SAPS  H15R 2063   5.742   3.086   3.997
   16SAPS  C216 2064   5.858   3.179   4.162
   16SAPS  H16R 2065   5.955   3.234   4.160
   16SAPS  H16S 2066   5.893   3.081   4.199
   16SAPS  C217 2067   5.753   3.231   4.261
   16SAPS  H17R 2068   5.650   3.189   4.254
   16SAPS  H17S 2069   5.745   3.338   4.233
   16SAPS  C218 2070   5.805   3.219   4.410
   16SAPS  H18R 2071   5.764   3.305   4.467
   16SAPS  H18S 2072   5.915   3.230   4.426
   16SAPS  C219 2073   5.761   3.087   4.481
   16SAPS  H19R 2074   5.652   3.081   4.460
   16SAPS  H19S 2075   5.785   3.080   4.589
   16SAPS  C220 2076   5.824   2.966   4.419
   16SAPS  H20R 2077   5.782   2.962   4.316
   16SAPS  H20S 2078   5.791   2.872   4.468
   16SAPS  H20T 2079   5.935   2.968   4.425
   16SAPS   C33 2080   5.565   4.246   3.090
   16SAPS   H3X 2081   5.675   4.255   3.098
   16SAPS   H3Y 2082   5.536   4.142   3.062
   16SAPS   C34 2083   5.502   4.283   3.229
   16SAPS   H4X 2084   5.393   4.305   3.227
   16SAPS   H4Y 2085   5.553   4.377   3.259
   16SAPS   C35 2086   5.536   4.190   3.344
   16SAPS   H5X 2087   5.634   4.145   3.316
   16SAPS   H5Y 2088   5.457   4.114   3.360
   16SAPS   C36 2089   5.543   4.274   3.475
   16SAPS   H6X 2090   5.442   4.320   3.477
   16SAPS   H6Y 2091   5.618   4.355   3.460
   16SAPS   C37 2092   5.561   4.185   3.598
   16SAPS   H7X 2093   5.662   4.139   3.595
   16SAPS   H7Y 2094   5.492   4.099   3.584
   16SAPS   C38 2095   5.524   4.246   3.734
   16SAPS   H8X 2096   5.419   4.280   3.724
   16SAPS   H8Y 2097   5.584   4.338   3.751
   16SAPS   C39 2098   5.541   4.158   3.855
   16SAPS   H9X 2099   5.549   4.227   3.942
   16SAPS   H9Y 2100   5.633   4.096   3.849
   16SAPS  C310 2101   5.415   4.079   3.886
   16SAPS  H10X 2102   5.406   3.999   3.810
   16SAPS  H10Y 2103   5.324   4.140   3.872
   16SAPS  C311 2104   5.400   4.015   4.025
   16SAPS  H11X 2105   5.322   3.936   4.013
   16SAPS  H11Y 2106   5.343   4.090   4.084
   16SAPS  C312 2107   5.528   3.962   4.093
   16SAPS  H12X 2108   5.595   4.048   4.114
   16SAPS  H12Y 2109   5.587   3.902   4.020
   16SAPS  C313 2110   5.508   3.880   4.215
   16SAPS  H13X 2111   5.608   3.846   4.251
   16SAPS  H13Y 2112   5.453   3.786   4.192
   16SAPS  C314 2113   5.444   3.955   4.339
   16SAPS  H14X 2114   5.338   3.971   4.310
   16SAPS  H14Y 2115   5.499   4.051   4.353
   16SAPS  C315 2116   5.427   3.871   4.470
   16SAPS  H15X 2117   5.528   3.846   4.509
   16SAPS  H15Y 2118   5.375   3.776   4.445
   16SAPS  C316 2119   5.343   3.942   4.580
   16SAPS  H16X 2120   5.378   4.046   4.595
   16SAPS  H16Y 2121   5.374   3.885   4.670
   16SAPS  C317 2122   5.192   3.936   4.563
   16SAPS  H17X 2123   5.168   3.997   4.473
   16SAPS  H17Y 2124   5.148   3.983   4.653
   16SAPS  C318 2125   5.124   3.798   4.574
   16SAPS  H18X 2126   5.146   3.749   4.671
   16SAPS  H18Y 2127   5.156   3.738   4.487
   16SAPS  H18Z 2128   5.013   3.806   4.575
   17SAPS     N 2129   1.804   1.931   1.786
   17SAPS   HN1 2130   1.894   1.893   1.821
   17SAPS   HN2 2131   1.829   2.029   1.761
   17SAPS   HN3 2132   1.742   1.934   1.869
   17SAPS   C12 2133   1.735   1.856   1.666
   17SAPS  H12A 2134   1.637   1.900   1.670
   17SAPS   C13 2135   1.788   1.893   1.524
   17SAPS  O13A 2136   1.894   1.950   1.503
   17SAPS  O13B 2137   1.718   1.852   1.425
   17SAPS   C11 2138   1.747   1.701   1.690
   17SAPS  H11A 2139   1.853   1.676   1.711
   17SAPS  H11B 2140   1.726   1.648   1.595
   17SAPS     P 2141   1.503   1.640   1.780
   17SAPS   O13 2142   1.455   1.767   1.721
   17SAPS   O14 2143   1.479   1.513   1.707
   17SAPS   O12 2144   1.656   1.655   1.793
   17SAPS   O11 2145   1.466   1.623   1.931
   17SAPS    C1 2146   1.509   1.721   2.029
   17SAPS    HA 2147   1.619   1.708   2.036
   17SAPS    HB 2148   1.489   1.825   1.997
   17SAPS    C2 2149   1.466   1.701   2.178
   17SAPS    HS 2150   1.512   1.789   2.228
   17SAPS   O21 2151   1.504   1.575   2.238
   17SAPS   C21 2152   1.627   1.572   2.288
   17SAPS   O22 2153   1.702   1.667   2.293
   17SAPS   C22 2154   1.658   1.434   2.355
   17SAPS   H2R 2155   1.579   1.416   2.432
   17SAPS   H2S 2156   1.641   1.385   2.256
   17SAPS    C3 2157   1.313   1.720   2.189
   17SAPS    HX 2158   1.271   1.648   2.116
   17SAPS    HY 2159   1.293   1.824   2.155
   17SAPS   O31 2160   1.259   1.712   2.325
   17SAPS   C31 2161   1.222   1.595   2.357
   17SAPS   O32 2162   1.223   1.498   2.281
   17SAPS   C32 2163   1.165   1.583   2.496
   17SAPS   H2X 2164   1.076   1.649   2.493
   17SAPS   H2Y 2165   1.230   1.620   2.578
   17SAPS   C23 2166   1.797   1.422   2.411
   17SAPS   H3R 2167   1.869   1.474   2.344
   17SAPS   H3S 2168   1.825   1.315   2.411
   17SAPS   C24 2169   1.808   1.464   2.557
   17SAPS   H4R 2170   1.729   1.409   2.613
   17SAPS   H4S 2171   1.798   1.574   2.571
   17SAPS   C25 2172   1.944   1.444   2.614
   17SAPS   H5R 2173   2.028   1.472   2.549
   17SAPS   C26 2174   1.976   1.371   2.723
   17SAPS   H6R 2175   2.081   1.372   2.753
   17SAPS   C27 2176   1.874   1.306   2.810
   17SAPS   H7R 2177   1.776   1.357   2.799
   17SAPS   H7S 2178   1.887   1.328   2.918
   17SAPS   C28 2179   1.866   1.159   2.798
   17SAPS   H8R 2180   1.916   1.120   2.707
   17SAPS   C29 2181   1.813   1.079   2.884
   17SAPS   H9R 2182   1.828   0.970   2.881
   17SAPS  C210 2183   1.734   1.113   3.009
   17SAPS  H10R 2184   1.633   1.067   3.002
   17SAPS  H10S 2185   1.714   1.222   3.011
   17SAPS  C211 2186   1.798   1.061   3.133
   17SAPS  H11R 2187   1.862   0.973   3.117
   17SAPS  C212 2188   1.780   1.102   3.262
   17SAPS  H12R 2189   1.825   1.051   3.348
   17SAPS  C213 2190   1.710   1.230   3.303
   17SAPS  H13R 2191   1.611   1.207   3.348
   17SAPS  H13S 2192   1.686   1.301   3.222
   17SAPS  C214 2193   1.800   1.315   3.394
   17SAPS  H14R 2194   1.847   1.404   3.352
   17SAPS  C215 2195   1.796   1.303   3.528
   17SAPS  H15R 2196   1.865   1.368   3.583
   17SAPS  C216 2197   1.703   1.207   3.610
   17SAPS  H16R 2198   1.757   1.185   3.705
   17SAPS  H16S 2199   1.693   1.107   3.563
   17SAPS  C217 2200   1.565   1.255   3.641
   17SAPS  H17R 2201   1.496   1.170   3.663
   17SAPS  H17S 2202   1.525   1.295   3.545
   17SAPS  C218 2203   1.559   1.355   3.752
   17SAPS  H18R 2204   1.452   1.365   3.779
   17SAPS  H18S 2205   1.601   1.455   3.729
   17SAPS  C219 2206   1.619   1.305   3.879
   17SAPS  H19R 2207   1.595   1.381   3.956
   17SAPS  H19S 2208   1.731   1.304   3.878
   17SAPS  C220 2209   1.565   1.169   3.922
   17SAPS  H20R 2210   1.609   1.098   3.848
   17SAPS  H20S 2211   1.455   1.163   3.914
   17SAPS  H20T 2212   1.598   1.154   4.027
   17SAPS   C33 2213   1.121   1.437   2.539
   17SAPS   H3X 2214   1.216   1.386   2.562
   17SAPS   H3Y 2215   1.075   1.394   2.447
   17SAPS   C34 2216   1.029   1.429   2.658
   17SAPS   H4X 2217   0.934   1.481   2.633
   17SAPS   H4Y 2218   1.077   1.463   2.753
   17SAPS   C35 2219   0.995   1.285   2.698
   17SAPS   H5X 2220   1.090   1.238   2.730
   17SAPS   H5Y 2221   0.970   1.231   2.604
   17SAPS   C36 2222   0.880   1.281   2.796
   17SAPS   H6X 2223   0.870   1.176   2.831
   17SAPS   H6Y 2224   0.780   1.305   2.755
   17SAPS   C37 2225   0.892   1.369   2.923
   17SAPS   H7X 2226   0.880   1.478   2.906
   17SAPS   H7Y 2227   0.987   1.356   2.980
   17SAPS   C38 2228   0.786   1.325   3.017
   17SAPS   H8X 2229   0.782   1.219   3.048
   17SAPS   H8Y 2230   0.686   1.353   2.978
   17SAPS   C39 2231   0.787   1.402   3.162
   17SAPS   H9X 2232   0.800   1.511   3.145
   17SAPS   H9Y 2233   0.875   1.378   3.227
   17SAPS  C310 2234   0.666   1.356   3.244
   17SAPS  H10X 2235   0.671   1.245   3.257
   17SAPS  H10Y 2236   0.582   1.386   3.177
   17SAPS  C311 2237   0.644   1.432   3.375
   17SAPS  H11X 2238   0.538   1.433   3.407
   17SAPS  H11Y 2239   0.687   1.534   3.366
   17SAPS  C312 2240   0.722   1.361   3.490
   17SAPS  H12X 2241   0.832   1.373   3.481
   17SAPS  H12Y 2242   0.698   1.252   3.484
   17SAPS  C313 2243   0.678   1.406   3.632
   17SAPS  H13X 2244   0.743   1.357   3.707
   17SAPS  H13Y 2245   0.584   1.364   3.672
   17SAPS  C314 2246   0.697   1.559   3.655
   17SAPS  H14X 2247   0.617   1.602   3.591
   17SAPS  H14Y 2248   0.796   1.593   3.617
   17SAPS  C315 2249   0.680   1.601   3.805
   17SAPS  H15X 2250   0.707   1.709   3.803
   17SAPS  H15Y 2251   0.757   1.558   3.872
   17SAPS  C316 2252   0.544   1.589   3.874
   17SAPS  H16X 2253   0.496   1.491   3.850
   17SAPS  H16Y 2254   0.485   1.671   3.829
   17SAPS  C317 2255   0.556   1.594   4.029
   17SAPS  H17X 2256   0.592   1.693   4.066
   17SAPS  H17Y 2257   0.641   1.529   4.059
   17SAPS  C318 2258   0.424   1.554   4.097
   17SAPS  H18X 2259   0.395   1.454   4.060
   17SAPS  H18Y 2260   0.345   1.622   4.057
   17SAPS  H18Z 2261   0.430   1.546   4.208
   18SAPS     N 2262   4.780   2.651   2.122
   18SAPS   HN1 2263   4.825   2.657   2.029
   18SAPS   HN2 2264   4.846   2.698   2.187
   18SAPS   HN3 2265   4.748   2.555   2.150
   18SAPS   C12 2266   4.656   2.730   2.119
   18SAPS  H12A 2267   4.645   2.760   2.222
   18SAPS   C13 2268   4.653   2.854   2.034
   18SAPS  O13A 2269   4.764   2.890   1.977
   18SAPS  O13B 2270   4.548   2.929   2.045
   18SAPS   C11 2271   4.530   2.642   2.091
   18SAPS  H11A 2272   4.549   2.570   2.008
   18SAPS  H11B 2273   4.436   2.691   2.058
   18SAPS     P 2274   4.407   2.600   2.329
   18SAPS   O13 2275   4.331   2.724   2.291
   18SAPS   O14 2276   4.322   2.485   2.368
   18SAPS   O12 2277   4.503   2.551   2.203
   18SAPS   O11 2278   4.506   2.638   2.450
   18SAPS    C1 2279   4.619   2.557   2.477
   18SAPS    HA 2280   4.619   2.473   2.405
   18SAPS    HB 2281   4.713   2.616   2.465
   18SAPS    C2 2282   4.624   2.507   2.632
   18SAPS    HS 2283   4.731   2.494   2.658
   18SAPS   O21 2284   4.546   2.383   2.642
   18SAPS   C21 2285   4.614   2.272   2.634
   18SAPS   O22 2286   4.732   2.261   2.608
   18SAPS   C22 2287   4.523   2.151   2.655
   18SAPS   H2R 2288   4.425   2.175   2.607
   18SAPS   H2S 2289   4.567   2.063   2.604
   18SAPS    C3 2290   4.574   2.618   2.734
   18SAPS    HX 2291   4.485   2.661   2.682
   18SAPS    HY 2292   4.657   2.692   2.736
   18SAPS   O31 2293   4.543   2.554   2.859
   18SAPS   C31 2294   4.646   2.511   2.924
   18SAPS   O32 2295   4.764   2.509   2.890
   18SAPS   C32 2296   4.599   2.434   3.054
   18SAPS   H2X 2297   4.678   2.360   3.080
   18SAPS   H2Y 2298   4.507   2.381   3.023
   18SAPS   C23 2299   4.507   2.103   2.798
   18SAPS   H3R 2300   4.484   2.189   2.865
   18SAPS   H3S 2301   4.605   2.059   2.826
   18SAPS   C24 2302   4.394   1.996   2.819
   18SAPS   H4R 2303   4.402   1.922   2.737
   18SAPS   H4S 2304   4.298   2.053   2.818
   18SAPS   C25 2305   4.422   1.922   2.942
   18SAPS   H5R 2306   4.514   1.862   2.937
   18SAPS   C26 2307   4.358   1.930   3.059
   18SAPS   H6R 2308   4.395   1.859   3.134
   18SAPS   C27 2309   4.235   2.008   3.097
   18SAPS   H7R 2310   4.185   2.038   3.002
   18SAPS   H7S 2311   4.266   2.106   3.138
   18SAPS   C28 2312   4.135   1.943   3.190
   18SAPS   H8R 2313   4.063   1.893   3.124
   18SAPS   C29 2314   4.126   1.939   3.323
   18SAPS   H9R 2315   4.053   1.883   3.382
   18SAPS  C210 2316   4.224   2.013   3.416
   18SAPS  H10R 2317   4.158   2.029   3.504
   18SAPS  H10S 2318   4.257   2.116   3.392
   18SAPS  C211 2319   4.348   1.933   3.454
   18SAPS  H11R 2320   4.423   1.940   3.374
   18SAPS  C212 2321   4.382   1.888   3.583
   18SAPS  H12R 2322   4.478   1.836   3.598
   18SAPS  C213 2323   4.295   1.881   3.707
   18SAPS  H13R 2324   4.290   1.988   3.736
   18SAPS  H13S 2325   4.339   1.815   3.785
   18SAPS  C214 2326   4.155   1.830   3.700
   18SAPS  H14R 2327   4.128   1.786   3.603
   18SAPS  C215 2328   4.081   1.823   3.810
   18SAPS  H15R 2329   3.975   1.800   3.791
   18SAPS  C216 2330   4.112   1.857   3.951
   18SAPS  H16R 2331   4.131   1.966   3.950
   18SAPS  H16S 2332   4.208   1.824   3.997
   18SAPS  C217 2333   4.009   1.844   4.064
   18SAPS  H17R 2334   3.919   1.903   4.034
   18SAPS  H17S 2335   4.035   1.877   4.167
   18SAPS  C218 2336   3.955   1.700   4.084
   18SAPS  H18R 2337   4.031   1.623   4.112
   18SAPS  H18S 2338   3.917   1.666   3.985
   18SAPS  C219 2339   3.852   1.684   4.201
   18SAPS  H19R 2340   3.761   1.743   4.178
   18SAPS  H19S 2341   3.904   1.726   4.290
   18SAPS  C220 2342   3.816   1.538   4.231
   18SAPS  H20R 2343   3.908   1.483   4.260
   18SAPS  H20S 2344   3.781   1.491   4.137
   18SAPS  H20T 2345   3.741   1.526   4.312
   18SAPS   C33 2346   4.563   2.528   3.175
   18SAPS   H3X 2347   4.491   2.606   3.143
   18SAPS   H3Y 2348   4.653   2.577   3.218
   18SAPS   C34 2349   4.482   2.456   3.289
   18SAPS   H4X 2350   4.399   2.399   3.242
   18SAPS   H4Y 2351   4.427   2.531   3.351
   18SAPS   C35 2352   4.577   2.360   3.360
   18SAPS   H5X 2353   4.656   2.422   3.407
   18SAPS   H5Y 2354   4.641   2.303   3.289
   18SAPS   C36 2355   4.511   2.266   3.465
   18SAPS   H6X 2356   4.585   2.197   3.511
   18SAPS   H6Y 2357   4.438   2.202   3.412
   18SAPS   C37 2358   4.429   2.350   3.570
   18SAPS   H7X 2359   4.365   2.422   3.515
   18SAPS   H7Y 2360   4.504   2.408   3.628
   18SAPS   C38 2361   4.357   2.271   3.671
   18SAPS   H8X 2362   4.406   2.182   3.717
   18SAPS   H8Y 2363   4.267   2.231   3.620
   18SAPS   C39 2364   4.304   2.347   3.790
   18SAPS   H9X 2365   4.207   2.391   3.757
   18SAPS   H9Y 2366   4.366   2.436   3.810
   18SAPS  C310 2367   4.294   2.266   3.917
   18SAPS  H10X 2368   4.389   2.218   3.950
   18SAPS  H10Y 2369   4.220   2.184   3.900
   18SAPS  C311 2370   4.259   2.358   4.042
   18SAPS  H11X 2371   4.163   2.412   4.033
   18SAPS  H11Y 2372   4.344   2.430   4.048
   18SAPS  C312 2373   4.247   2.284   4.174
   18SAPS  H12X 2374   4.347   2.239   4.191
   18SAPS  H12Y 2375   4.183   2.196   4.152
   18SAPS  C313 2376   4.178   2.352   4.293
   18SAPS  H13X 2377   4.214   2.453   4.323
   18SAPS  H13Y 2378   4.209   2.285   4.377
   18SAPS  C314 2379   4.018   2.354   4.285
   18SAPS  H14X 2380   3.993   2.394   4.185
   18SAPS  H14Y 2381   3.981   2.430   4.357
   18SAPS  C315 2382   3.953   2.221   4.289
   18SAPS  H15X 2383   3.939   2.181   4.186
   18SAPS  H15Y 2384   3.851   2.248   4.323
   18SAPS  C316 2385   4.010   2.127   4.397
   18SAPS  H16X 2386   3.997   2.182   4.492
   18SAPS  H16Y 2387   4.109   2.091   4.360
   18SAPS  C317 2388   3.932   2.001   4.417
   18SAPS  H17X 2389   3.877   1.977   4.324
   18SAPS  H17Y 2390   3.850   2.031   4.486
   18SAPS  C318 2391   3.998   1.884   4.491
   18SAPS  H18X 2392   3.909   1.826   4.524
   18SAPS  H18Y 2393   4.064   1.912   4.575
   18SAPS  H18Z 2394   4.067   1.822   4.429
   19SAPS     N 2395   4.129   4.721   1.907
   19SAPS   HN1 2396   4.215   4.665   1.926
   19SAPS   HN2 2397   4.079   4.737   1.997
   19SAPS   HN3 2398   4.070   4.657   1.849
   19SAPS   C12 2399   4.170   4.849   1.850
   19SAPS  H12A 2400   4.213   4.827   1.753
   19SAPS   C13 2401   4.072   4.963   1.824
   19SAPS  O13A 2402   3.952   4.938   1.821
   19SAPS  O13B 2403   4.108   5.064   1.750
   19SAPS   C11 2404   4.292   4.903   1.942
   19SAPS  H11A 2405   4.260   4.944   2.040
   19SAPS  H11B 2406   4.339   4.983   1.880
   19SAPS     P 2407   4.477   4.806   2.101
   19SAPS   O13 2408   4.585   4.709   2.095
   19SAPS   O14 2409   4.509   4.945   2.138
   19SAPS   O12 2410   4.403   4.806   1.961
   19SAPS   O11 2411   4.363   4.746   2.185
   19SAPS    C1 2412   4.337   4.608   2.194
   19SAPS    HA 2413   4.228   4.593   2.178
   19SAPS    HB 2414   4.384   4.540   2.120
   19SAPS    C2 2415   4.354   4.553   2.336
   19SAPS    HS 2416   4.353   4.442   2.325
   19SAPS   O21 2417   4.253   4.591   2.437
   19SAPS   C21 2418   4.136   4.526   2.430
   19SAPS   O22 2419   4.115   4.434   2.356
   19SAPS   C22 2420   4.032   4.577   2.534
   19SAPS   H2R 2421   4.049   4.516   2.626
   19SAPS   H2S 2422   4.055   4.684   2.553
   19SAPS    C3 2423   4.491   4.597   2.394
   19SAPS    HX 2424   4.497   4.708   2.396
   19SAPS    HY 2425   4.574   4.573   2.324
   19SAPS   O31 2426   4.510   4.534   2.526
   19SAPS   C31 2427   4.567   4.416   2.519
   19SAPS   O32 2428   4.616   4.366   2.420
   19SAPS   C32 2429   4.549   4.336   2.654
   19SAPS   H2X 2430   4.564   4.227   2.641
   19SAPS   H2Y 2431   4.449   4.362   2.693
   19SAPS   C23 2432   3.895   4.556   2.472
   19SAPS   H3R 2433   3.884   4.450   2.442
   19SAPS   H3S 2434   3.885   4.617   2.379
   19SAPS   C24 2435   3.780   4.581   2.561
   19SAPS   H4R 2436   3.690   4.549   2.503
   19SAPS   H4S 2437   3.769   4.688   2.586
   19SAPS   C25 2438   3.792   4.498   2.688
   19SAPS   H5R 2439   3.778   4.389   2.689
   19SAPS   C26 2440   3.819   4.553   2.806
   19SAPS   H6R 2441   3.826   4.490   2.896
   19SAPS   C27 2442   3.842   4.701   2.842
   19SAPS   H7R 2443   3.743   4.732   2.881
   19SAPS   H7S 2444   3.856   4.769   2.756
   19SAPS   C28 2445   3.955   4.708   2.942
   19SAPS   H8R 2446   4.048   4.749   2.898
   19SAPS   C29 2447   3.947   4.688   3.077
   19SAPS   H9R 2448   4.037   4.697   3.139
   19SAPS  C210 2449   3.830   4.640   3.149
   19SAPS  H10R 2450   3.752   4.607   3.076
   19SAPS  H10S 2451   3.780   4.724   3.202
   19SAPS  C211 2452   3.873   4.522   3.228
   19SAPS  H11R 2453   3.917   4.443   3.165
   19SAPS  C212 2454   3.886   4.512   3.360
   19SAPS  H12R 2455   3.915   4.415   3.402
   19SAPS  C213 2456   3.860   4.616   3.464
   19SAPS  H13R 2457   3.762   4.607   3.517
   19SAPS  H13S 2458   3.843   4.708   3.402
   19SAPS  C214 2459   3.988   4.640   3.536
   19SAPS  H14R 2460   4.080   4.638   3.475
   19SAPS  C215 2461   3.997   4.681   3.667
   19SAPS  H15R 2462   4.098   4.681   3.711
   19SAPS  C216 2463   3.889   4.693   3.764
   19SAPS  H16R 2464   3.856   4.591   3.794
   19SAPS  H16S 2465   3.807   4.753   3.719
   19SAPS  C217 2466   3.935   4.763   3.893
   19SAPS  H17R 2467   3.963   4.864   3.854
   19SAPS  H17S 2468   4.023   4.721   3.946
   19SAPS  C218 2469   3.820   4.774   3.996
   19SAPS  H18R 2470   3.780   4.671   4.008
   19SAPS  H18S 2471   3.744   4.843   3.954
   19SAPS  C219 2472   3.869   4.840   4.127
   19SAPS  H19R 2473   3.786   4.888   4.184
   19SAPS  H19S 2474   3.939   4.926   4.121
   19SAPS  C220 2475   3.921   4.735   4.222
   19SAPS  H20R 2476   3.961   4.776   4.317
   19SAPS  H20S 2477   4.013   4.686   4.186
   19SAPS  H20T 2478   3.836   4.667   4.245
   19SAPS   C33 2479   4.655   4.402   2.745
   19SAPS   H3X 2480   4.649   4.512   2.735
   19SAPS   H3Y 2481   4.756   4.371   2.712
   19SAPS   C34 2482   4.628   4.357   2.893
   19SAPS   H4X 2483   4.626   4.246   2.894
   19SAPS   H4Y 2484   4.523   4.390   2.907
   19SAPS   C35 2485   4.721   4.428   2.999
   19SAPS   H5X 2486   4.706   4.534   2.972
   19SAPS   H5Y 2487   4.828   4.401   2.988
   19SAPS   C36 2488   4.683   4.386   3.143
   19SAPS   H6X 2489   4.702   4.277   3.159
   19SAPS   H6Y 2490   4.573   4.394   3.147
   19SAPS   C37 2491   4.753   4.476   3.242
   19SAPS   H7X 2492   4.727   4.581   3.217
   19SAPS   H7Y 2493   4.863   4.464   3.241
   19SAPS   C38 2494   4.716   4.446   3.388
   19SAPS   H8X 2495   4.696   4.337   3.391
   19SAPS   H8Y 2496   4.618   4.488   3.420
   19SAPS   C39 2497   4.828   4.488   3.482
   19SAPS   H9X 2498   4.839   4.598   3.492
   19SAPS   H9Y 2499   4.927   4.449   3.451
   19SAPS  C310 2500   4.808   4.422   3.626
   19SAPS  H10X 2501   4.897   4.423   3.691
   19SAPS  H10Y 2502   4.785   4.317   3.598
   19SAPS  C311 2503   4.697   4.488   3.695
   19SAPS  H11X 2504   4.614   4.473   3.623
   19SAPS  H11Y 2505   4.720   4.596   3.708
   19SAPS  C312 2506   4.642   4.423   3.826
   19SAPS  H12X 2507   4.627   4.314   3.812
   19SAPS  H12Y 2508   4.539   4.463   3.841
   19SAPS  C313 2509   4.731   4.447   3.951
   19SAPS  H13X 2510   4.755   4.556   3.961
   19SAPS  H13Y 2511   4.829   4.395   3.940
   19SAPS  C314 2512   4.662   4.401   4.080
   19SAPS  H14X 2513   4.673   4.291   4.088
   19SAPS  H14Y 2514   4.553   4.419   4.069
   19SAPS  C315 2515   4.720   4.455   4.211
   19SAPS  H15X 2516   4.697   4.562   4.229
   19SAPS  H15Y 2517   4.831   4.460   4.206
   19SAPS  C316 2518   4.677   4.384   4.343
   19SAPS  H16X 2519   4.719   4.283   4.361
   19SAPS  H16Y 2520   4.567   4.382   4.327
   19SAPS  C317 2521   4.717   4.458   4.471
   19SAPS  H17X 2522   4.662   4.416   4.559
   19SAPS  H17Y 2523   4.667   4.557   4.460
   19SAPS  C318 2524   4.865   4.470   4.511
   19SAPS  H18X 2525   4.929   4.500   4.426
   19SAPS  H18Y 2526   4.904   4.375   4.552
   19SAPS  H18Z 2527   4.877   4.550   4.588
   20SAPS     N 2528   5.220   5.611   1.991
   20SAPS   HN1 2529   5.192   5.650   1.898
   20SAPS   HN2 2530   5.298   5.544   1.985
   20SAPS   HN3 2531   5.132   5.573   2.031
   20SAPS   C12 2532   5.269   5.732   2.071
   20SAPS  H12A 2533   5.277   5.711   2.176
   20SAPS   C13 2534   5.413   5.782   2.026
   20SAPS  O13A 2535   5.475   5.705   1.949
   20SAPS  O13B 2536   5.464   5.891   2.065
   20SAPS   C11 2537   5.157   5.841   2.069
   20SAPS  H11A 2538   5.153   5.899   1.974
   20SAPS  H11B 2539   5.183   5.922   2.141
   20SAPS     P 2540   4.893   5.848   2.086
   20SAPS   O13 2541   4.901   5.928   1.960
   20SAPS   O14 2542   4.784   5.745   2.096
   20SAPS   O12 2543   5.032   5.772   2.103
   20SAPS   O11 2544   4.894   5.948   2.210
   20SAPS    C1 2545   4.927   5.904   2.344
   20SAPS    HA 2546   4.877   5.806   2.357
   20SAPS    HB 2547   5.037   5.903   2.356
   20SAPS    C2 2548   4.880   5.997   2.462
   20SAPS    HS 2549   4.934   6.093   2.447
   20SAPS   O21 2550   4.919   5.924   2.589
   20SAPS   C21 2551   4.906   5.984   2.707
   20SAPS   O22 2552   4.865   6.102   2.719
   20SAPS   C22 2553   4.936   5.894   2.828
   20SAPS   H2R 2554   4.844   5.834   2.849
   20SAPS   H2S 2555   5.009   5.816   2.798
   20SAPS    C3 2556   4.726   6.010   2.446
   20SAPS    HX 2557   4.698   6.048   2.346
   20SAPS    HY 2558   4.691   6.086   2.519
   20SAPS   O31 2559   4.653   5.889   2.453
   20SAPS   C31 2560   4.612   5.833   2.565
   20SAPS   O32 2561   4.620   5.884   2.675
   20SAPS   C32 2562   4.550   5.703   2.526
   20SAPS   H2X 2563   4.624   5.626   2.560
   20SAPS   H2Y 2564   4.523   5.707   2.419
   20SAPS   C23 2565   4.980   5.965   2.946
   20SAPS   H3R 2566   4.891   6.020   2.984
   20SAPS   H3S 2567   5.060   6.038   2.926
   20SAPS   C24 2568   5.032   5.876   3.057
   20SAPS   H4R 2569   5.090   5.947   3.120
   20SAPS   H4S 2570   5.096   5.801   3.006
   20SAPS   C25 2571   4.920   5.809   3.127
   20SAPS   H5R 2572   4.843   5.775   3.057
   20SAPS   C26 2573   4.892   5.823   3.256
   20SAPS   H6R 2574   4.803   5.768   3.289
   20SAPS   C27 2575   4.977   5.887   3.361
   20SAPS   H7R 2576   5.057   5.950   3.317
   20SAPS   H7S 2577   5.029   5.808   3.419
   20SAPS   C28 2578   4.886   5.977   3.450
   20SAPS   H8R 2579   4.842   6.061   3.395
   20SAPS   C29 2580   4.855   5.952   3.578
   20SAPS   H9R 2581   4.792   6.027   3.627
   20SAPS  C210 2582   4.906   5.833   3.664
   20SAPS  H10R 2583   4.983   5.769   3.617
   20SAPS  H10S 2584   4.824   5.764   3.692
   20SAPS  C211 2585   4.958   5.896   3.792
   20SAPS  H11R 2586   5.067   5.907   3.804
   20SAPS  C212 2587   4.894   5.932   3.904
   20SAPS  H12R 2588   4.960   5.974   3.981
   20SAPS  C213 2589   4.748   5.929   3.933
   20SAPS  H13R 2590   4.693   5.885   3.848
   20SAPS  H13S 2591   4.712   6.034   3.943
   20SAPS  C214 2592   4.738   5.840   4.052
   20SAPS  H14R 2593   4.815   5.763   4.066
   20SAPS  C215 2594   4.653   5.854   4.153
   20SAPS  H15R 2595   4.647   5.776   4.230
   20SAPS  C216 2596   4.549   5.960   4.179
   20SAPS  H16R 2597   4.460   5.927   4.121
   20SAPS  H16S 2598   4.580   6.059   4.138
   20SAPS  C217 2599   4.500   5.965   4.331
   20SAPS  H17R 2600   4.496   5.859   4.364
   20SAPS  H17S 2601   4.395   6.001   4.339
   20SAPS  C218 2602   4.582   6.031   4.434
   20SAPS  H18R 2603   4.690   6.008   4.416
   20SAPS  H18S 2604   4.543   5.990   4.529
   20SAPS  C219 2605   4.557   6.184   4.448
   20SAPS  H19R 2606   4.597   6.241   4.362
   20SAPS  H19S 2607   4.604   6.214   4.545
   20SAPS  C220 2608   4.410   6.220   4.468
   20SAPS  H20R 2609   4.397   6.328   4.490
   20SAPS  H20S 2610   4.355   6.155   4.540
   20SAPS  H20T 2611   4.360   6.214   4.368
   20SAPS   C33 2612   4.416   5.674   2.595
   20SAPS   H3X 2613   4.336   5.740   2.554
   20SAPS   H3Y 2614   4.418   5.697   2.704
   20SAPS   C34 2615   4.382   5.533   2.557
   20SAPS   H4X 2616   4.468   5.462   2.561
   20SAPS   H4Y 2617   4.350   5.523   2.450
   20SAPS   C35 2618   4.256   5.480   2.637
   20SAPS   H5X 2619   4.244   5.373   2.608
   20SAPS   H5Y 2620   4.164   5.539   2.615
   20SAPS   C36 2621   4.280   5.480   2.786
   20SAPS   H6X 2622   4.256   5.581   2.824
   20SAPS   H6Y 2623   4.387   5.461   2.809
   20SAPS   C37 2624   4.188   5.384   2.859
   20SAPS   H7X 2625   4.215   5.283   2.820
   20SAPS   H7Y 2626   4.078   5.391   2.842
   20SAPS   C38 2627   4.218   5.377   3.010
   20SAPS   H8X 2628   4.234   5.484   3.038
   20SAPS   H8Y 2629   4.307   5.317   3.037
   20SAPS   C39 2630   4.093   5.336   3.103
   20SAPS   H9X 2631   4.059   5.234   3.073
   20SAPS   H9Y 2632   4.022   5.420   3.090
   20SAPS  C310 2633   4.128   5.340   3.253
   20SAPS  H10X 2634   4.173   5.437   3.283
   20SAPS  H10Y 2635   4.205   5.262   3.271
   20SAPS  C311 2636   4.015   5.325   3.351
   20SAPS  H11X 2637   3.971   5.224   3.333
   20SAPS  H11Y 2638   3.929   5.394   3.344
   20SAPS  C312 2639   4.068   5.319   3.492
   20SAPS  H12X 2640   4.148   5.395   3.501
   20SAPS  H12Y 2641   4.121   5.222   3.506
   20SAPS  C313 2642   3.954   5.335   3.600
   20SAPS  H13X 2643   3.851   5.308   3.571
   20SAPS  H13Y 2644   3.961   5.444   3.620
   20SAPS  C314 2645   3.990   5.272   3.737
   20SAPS  H14X 2646   3.996   5.162   3.722
   20SAPS  H14Y 2647   3.905   5.288   3.807
   20SAPS  C315 2648   4.124   5.322   3.789
   20SAPS  H15X 2649   4.124   5.433   3.795
   20SAPS  H15Y 2650   4.206   5.291   3.720
   20SAPS  C316 2651   4.160   5.277   3.923
   20SAPS  H16X 2652   4.239   5.334   3.976
   20SAPS  H16Y 2653   4.196   5.172   3.924
   20SAPS  C317 2654   4.033   5.285   4.021
   20SAPS  H17X 2655   3.967   5.200   3.994
   20SAPS  H17Y 2656   3.972   5.377   4.004
   20SAPS  C318 2657   4.060   5.266   4.173
   20SAPS  H18X 2658   4.142   5.192   4.183
   20SAPS  H18Y 2659   3.973   5.223   4.227
   20SAPS  H18Z 2660   4.091   5.362   4.219
   21CHL1    C3 2661   1.367   3.907   5.842
   21CHL1    H3 2662   1.477   3.920   5.838
   21CHL1    O3 2663   1.320   3.872   5.970
   21CHL1   H3' 2664   1.260   3.802   5.946
   21CHL1    C4 2665   1.293   4.031   5.787
   21CHL1   H4A 2666   1.185   4.020   5.811
   21CHL1   H4B 2667   1.340   4.111   5.849
   21CHL1    C5 2668   1.312   4.060   5.637
   21CHL1    C6 2669   1.365   4.180   5.606
   21CHL1    H6 2670   1.388   4.246   5.691
   21CHL1    C7 2671   1.404   4.212   5.462
   21CHL1   H7A 2672   1.384   4.316   5.429
   21CHL1   H7B 2673   1.515   4.207   5.458
   21CHL1    C8 2674   1.347   4.117   5.361
   21CHL1    H8 2675   1.244   4.154   5.342
   21CHL1   C14 2676   1.418   4.137   5.222
   21CHL1   H14 2677   1.515   4.091   5.251
   21CHL1   C15 2678   1.453   4.277   5.169
   21CHL1  H15A 2679   1.366   4.343   5.191
   21CHL1  H15B 2680   1.542   4.321   5.221
   21CHL1   C16 2681   1.479   4.253   5.023
   21CHL1  H16A 2682   1.398   4.308   4.970
   21CHL1  H16B 2683   1.578   4.292   4.992
   21CHL1   C17 2684   1.459   4.099   4.998
   21CHL1   H17 2685   1.561   4.061   5.022
   21CHL1   C13 2686   1.364   4.056   5.105
   21CHL1   C18 2687   1.218   4.102   5.070
   21CHL1  H18A 2688   1.211   4.202   5.022
   21CHL1  H18B 2689   1.178   4.022   5.004
   21CHL1  H18C 2690   1.153   4.081   5.158
   21CHL1   C12 2691   1.376   3.907   5.155
   21CHL1  H12A 2692   1.315   3.845   5.086
   21CHL1  H12B 2693   1.482   3.873   5.144
   21CHL1   C11 2694   1.311   3.878   5.291
   21CHL1  H11A 2695   1.202   3.890   5.276
   21CHL1  H11B 2696   1.329   3.774   5.326
   21CHL1    C9 2697   1.358   3.980   5.406
   21CHL1    H9 2698   1.466   3.957   5.416
   21CHL1   C10 2699   1.288   3.947   5.537
   21CHL1   C19 2700   1.140   3.931   5.521
   21CHL1  H19A 2701   1.087   4.023   5.489
   21CHL1  H19B 2702   1.113   3.855   5.445
   21CHL1  H19C 2703   1.099   3.902   5.620
   21CHL1    C1 2704   1.357   3.824   5.596
   21CHL1   H1A 2705   1.321   3.740   5.534
   21CHL1   H1B 2706   1.467   3.837   5.586
   21CHL1    C2 2707   1.329   3.790   5.749
   21CHL1   H2A 2708   1.392   3.702   5.774
   21CHL1   H2B 2709   1.222   3.761   5.761
   21CHL1   C20 2710   1.435   4.061   4.845
   21CHL1   H20 2711   1.336   4.104   4.818
   21CHL1   C21 2712   1.431   3.904   4.840
   21CHL1  H21A 2713   1.459   3.871   4.738
   21CHL1  H21B 2714   1.327   3.877   4.867
   21CHL1  H21C 2715   1.504   3.862   4.912
   21CHL1   C22 2716   1.542   4.119   4.756
   21CHL1  H22A 2717   1.571   4.220   4.794
   21CHL1  H22B 2718   1.633   4.055   4.765
   21CHL1   C23 2719   1.494   4.124   4.606
   21CHL1  H23A 2720   1.442   4.028   4.588
   21CHL1  H23B 2721   1.419   4.206   4.597
   21CHL1   C24 2722   1.610   4.148   4.509
   21CHL1  H24A 2723   1.654   4.247   4.532
   21CHL1  H24B 2724   1.691   4.074   4.521
   21CHL1   C25 2725   1.561   4.145   4.355
   21CHL1   H25 2726   1.659   4.166   4.308
   21CHL1   C26 2727   1.494   4.014   4.311
   21CHL1  H26A 2728   1.402   3.988   4.368
   21CHL1  H26B 2729   1.470   4.020   4.202
   21CHL1  H26C 2730   1.566   3.932   4.327
   21CHL1   C27 2731   1.469   4.266   4.338
   21CHL1  H27A 2732   1.443   4.281   4.231
   21CHL1  H27B 2733   1.380   4.238   4.399
   21CHL1  H27C 2734   1.513   4.364   4.369
   22CHL1    C3 2735   1.910   1.555   6.165
   22CHL1    H3 2736   1.999   1.620   6.151
   22CHL1    O3 2737   1.926   1.508   6.298
   22CHL1   H3' 2738   1.862   1.437   6.310
   22CHL1    C4 2739   1.782   1.646   6.155
   22CHL1   H4A 2740   1.698   1.589   6.199
   22CHL1   H4B 2741   1.797   1.730   6.226
   22CHL1    C5 2742   1.757   1.683   6.011
   22CHL1    C6 2743   1.741   1.813   5.983
   22CHL1    H6 2744   1.730   1.883   6.066
   22CHL1    C7 2745   1.721   1.868   5.840
   22CHL1   H7A 2746   1.629   1.929   5.830
   22CHL1   H7B 2747   1.806   1.937   5.820
   22CHL1    C8 2748   1.695   1.761   5.733
   22CHL1    H8 2749   1.587   1.738   5.744
   22CHL1   C14 2750   1.735   1.806   5.588
   22CHL1   H14 2751   1.846   1.813   5.595
   22CHL1   C15 2752   1.676   1.933   5.541
   22CHL1  H15A 2753   1.566   1.932   5.556
   22CHL1  H15B 2754   1.715   2.018   5.602
   22CHL1   C16 2755   1.700   1.942   5.390
   22CHL1  H16A 2756   1.604   1.956   5.337
   22CHL1  H16B 2757   1.763   2.032   5.372
   22CHL1   C17 2758   1.773   1.809   5.356
   22CHL1   H17 2759   1.883   1.822   5.367
   22CHL1   C13 2760   1.727   1.713   5.470
   22CHL1   C18 2761   1.581   1.685   5.439
   22CHL1  H18A 2762   1.525   1.772   5.398
   22CHL1  H18B 2763   1.588   1.608   5.359
   22CHL1  H18C 2764   1.527   1.641   5.525
   22CHL1   C12 2765   1.822   1.592   5.508
   22CHL1  H12A 2766   1.823   1.514   5.429
   22CHL1  H12B 2767   1.926   1.630   5.517
   22CHL1   C11 2768   1.774   1.531   5.642
   22CHL1  H11A 2769   1.676   1.479   5.627
   22CHL1  H11B 2770   1.851   1.451   5.650
   22CHL1    C9 2771   1.778   1.630   5.756
   22CHL1    H9 2772   1.885   1.657   5.756
   22CHL1   C10 2773   1.769   1.572   5.902
   22CHL1   C19 2774   1.640   1.481   5.908
   22CHL1  H19A 2775   1.551   1.526   5.859
   22CHL1  H19B 2776   1.674   1.388   5.858
   22CHL1  H19C 2777   1.603   1.458   6.010
   22CHL1    C1 2778   1.888   1.481   5.929
   22CHL1   H1A 2779   1.897   1.392   5.863
   22CHL1   H1B 2780   1.982   1.534   5.903
   22CHL1    C2 2781   1.904   1.439   6.079
   22CHL1   H2A 2782   1.991   1.373   6.098
   22CHL1   H2B 2783   1.812   1.385   6.107
   22CHL1   C20 2784   1.743   1.766   5.206
   22CHL1   H20 2785   1.633   1.758   5.199
   22CHL1   C21 2786   1.809   1.626   5.180
   22CHL1  H21A 2787   1.907   1.618   5.230
   22CHL1  H21B 2788   1.834   1.606   5.073
   22CHL1  H21C 2789   1.742   1.546   5.219
   22CHL1   C22 2790   1.791   1.873   5.104
   22CHL1  H22A 2791   1.794   1.972   5.155
   22CHL1  H22B 2792   1.891   1.846   5.067
   22CHL1   C23 2793   1.684   1.889   5.004
   22CHL1  H23A 2794   1.653   1.788   4.968
   22CHL1  H23B 2795   1.599   1.945   5.048
   22CHL1   C24 2796   1.742   1.962   4.879
   22CHL1  H24A 2797   1.793   2.055   4.910
   22CHL1  H24B 2798   1.827   1.903   4.838
   22CHL1   C25 2799   1.642   1.984   4.763
   22CHL1   H25 2800   1.557   2.038   4.811
   22CHL1   C26 2801   1.702   2.067   4.652
   22CHL1  H26A 2802   1.778   2.001   4.604
   22CHL1  H26B 2803   1.627   2.096   4.576
   22CHL1  H26C 2804   1.741   2.163   4.690
   22CHL1   C27 2805   1.574   1.844   4.709
   22CHL1  H27A 2806   1.539   1.785   4.796
   22CHL1  H27B 2807   1.494   1.864   4.635
   22CHL1  H27C 2808   1.646   1.779   4.654
   23CHL1    C3 2809   0.517   3.623   5.978
   23CHL1    H3 2810   0.531   3.733   5.966
   23CHL1    O3 2811   0.451   3.610   6.108
   23CHL1   H3' 2812   0.471   3.518   6.128
   23CHL1    C4 2813   0.429   3.555   5.872
   23CHL1   H4A 2814   0.418   3.449   5.903
   23CHL1   H4B 2815   0.326   3.598   5.874
   23CHL1    C5 2816   0.478   3.579   5.730
   23CHL1    C6 2817   0.411   3.648   5.644
   23CHL1    H6 2818   0.319   3.699   5.676
   23CHL1    C7 2819   0.462   3.678   5.514
   23CHL1   H7A 2820   0.386   3.666   5.435
   23CHL1   H7B 2821   0.487   3.786   5.516
   23CHL1    C8 2822   0.590   3.607   5.460
   23CHL1    H8 2823   0.571   3.502   5.431
   23CHL1   C14 2824   0.658   3.687   5.346
   23CHL1   H14 2825   0.686   3.785   5.391
   23CHL1   C15 2826   0.567   3.720   5.232
   23CHL1  H15A 2827   0.506   3.634   5.199
   23CHL1  H15B 2828   0.492   3.799   5.252
   23CHL1   C16 2829   0.667   3.756   5.118
   23CHL1  H16A 2830   0.653   3.703   5.021
   23CHL1  H16B 2831   0.654   3.864   5.096
   23CHL1   C17 2832   0.811   3.726   5.165
   23CHL1   H17 2833   0.860   3.817   5.206
   23CHL1   C13 2834   0.783   3.624   5.283
   23CHL1   C18 2835   0.754   3.489   5.222
   23CHL1  H18A 2836   0.692   3.427   5.291
   23CHL1  H18B 2837   0.704   3.504   5.124
   23CHL1  H18C 2838   0.849   3.441   5.191
   23CHL1   C12 2839   0.886   3.620   5.400
   23CHL1  H12A 2840   0.973   3.564   5.359
   23CHL1  H12B 2841   0.908   3.722   5.439
   23CHL1   C11 2842   0.832   3.542   5.529
   23CHL1  H11A 2843   0.830   3.440   5.485
   23CHL1  H11B 2844   0.909   3.542   5.609
   23CHL1    C9 2845   0.692   3.598   5.576
   23CHL1    H9 2846   0.707   3.703   5.608
   23CHL1   C10 2847   0.626   3.537   5.702
   23CHL1   C19 2848   0.642   3.380   5.704
   23CHL1  H19A 2849   0.589   3.329   5.620
   23CHL1  H19B 2850   0.749   3.353   5.693
   23CHL1  H19C 2851   0.597   3.332   5.793
   23CHL1    C1 2852   0.710   3.587   5.821
   23CHL1   H1A 2853   0.807   3.532   5.821
   23CHL1   H1B 2854   0.739   3.694   5.817
   23CHL1    C2 2855   0.655   3.566   5.966
   23CHL1   H2A 2856   0.720   3.613   6.043
   23CHL1   H2B 2857   0.649   3.456   5.979
   23CHL1   C20 2858   0.908   3.679   5.056
   23CHL1   H20 2859   0.868   3.589   5.004
   23CHL1   C21 2860   1.053   3.647   5.118
   23CHL1  H21A 2861   1.125   3.689   5.045
   23CHL1  H21B 2862   1.062   3.536   5.128
   23CHL1  H21C 2863   1.068   3.690   5.220
   23CHL1   C22 2864   0.926   3.794   4.948
   23CHL1  H22A 2865   0.825   3.840   4.944
   23CHL1  H22B 2866   0.998   3.873   4.980
   23CHL1   C23 2867   0.947   3.750   4.806
   23CHL1  H23A 2868   1.004   3.655   4.817
   23CHL1  H23B 2869   0.846   3.722   4.767
   23CHL1   C24 2870   1.013   3.868   4.732
   23CHL1  H24A 2871   0.946   3.956   4.724
   23CHL1  H24B 2872   1.109   3.902   4.775
   23CHL1   C25 2873   1.043   3.831   4.588
   23CHL1   H25 2874   1.121   3.755   4.609
   23CHL1   C26 2875   0.925   3.778   4.512
   23CHL1  H26A 2876   0.855   3.865   4.510
   23CHL1  H26B 2877   0.943   3.758   4.405
   23CHL1  H26C 2878   0.881   3.693   4.569
   23CHL1   C27 2879   1.107   3.953   4.514
   23CHL1  H27A 2880   1.036   4.037   4.496
   23CHL1  H27B 2881   1.193   3.988   4.574
   23CHL1  H27C 2882   1.151   3.920   4.417
   24CHL1    C3 2883   3.040   4.415   6.341
   24CHL1    H3 2884   2.958   4.485   6.315
   24CHL1    O3 2885   3.025   4.395   6.484
   24CHL1   H3' 2886   3.010   4.485   6.513
   24CHL1    C4 2887   3.009   4.286   6.268
   24CHL1   H4A 2888   3.071   4.208   6.317
   24CHL1   H4B 2889   2.906   4.261   6.302
   24CHL1    C5 2890   3.034   4.295   6.119
   24CHL1    C6 2891   2.929   4.289   6.037
   24CHL1    H6 2892   2.826   4.276   6.071
   24CHL1    C7 2893   2.940   4.306   5.886
   24CHL1   H7A 2894   2.864   4.237   5.843
   24CHL1   H7B 2895   2.910   4.409   5.859
   24CHL1    C8 2896   3.086   4.288   5.835
   24CHL1    H8 2897   3.116   4.182   5.839
   24CHL1   C14 2898   3.103   4.342   5.689
   24CHL1   H14 2899   3.089   4.452   5.691
   24CHL1   C15 2900   2.993   4.292   5.593
   24CHL1  H15A 2901   2.973   4.183   5.597
   24CHL1  H15B 2902   2.898   4.344   5.617
   24CHL1   C16 2903   3.050   4.335   5.457
   24CHL1  H16A 2904   3.027   4.249   5.391
   24CHL1  H16B 2905   3.001   4.432   5.432
   24CHL1   C17 2906   3.203   4.360   5.483
   24CHL1   H17 2907   3.214   4.470   5.473
   24CHL1   C13 2908   3.242   4.319   5.631
   24CHL1   C18 2909   3.281   4.168   5.634
   24CHL1  H18A 2910   3.273   4.110   5.728
   24CHL1  H18B 2911   3.212   4.121   5.561
   24CHL1  H18C 2912   3.385   4.163   5.594
   24CHL1   C12 2913   3.342   4.405   5.716
   24CHL1  H12A 2914   3.449   4.392   5.687
   24CHL1  H12B 2915   3.322   4.513   5.702
   24CHL1   C11 2916   3.331   4.360   5.861
   24CHL1  H11A 2917   3.385   4.265   5.879
   24CHL1  H11B 2918   3.385   4.431   5.927
   24CHL1    C9 2919   3.185   4.359   5.923
   24CHL1    H9 2920   3.145   4.463   5.927
   24CHL1   C10 2921   3.180   4.329   6.079
   24CHL1   C19 2922   3.273   4.211   6.113
   24CHL1  H19A 2923   3.382   4.232   6.107
   24CHL1  H19B 2924   3.260   4.177   6.218
   24CHL1  H19C 2925   3.241   4.117   6.062
   24CHL1    C1 2926   3.222   4.451   6.159
   24CHL1   H1A 2927   3.328   4.485   6.153
   24CHL1   H1B 2928   3.157   4.534   6.124
   24CHL1    C2 2929   3.184   4.458   6.305
   24CHL1   H2A 2930   3.197   4.556   6.355
   24CHL1   H2B 2931   3.261   4.398   6.358
   24CHL1   C20 2932   3.296   4.303   5.371
   24CHL1   H20 2933   3.282   4.193   5.366
   24CHL1   C21 2934   3.442   4.344   5.401
   24CHL1  H21A 2935   3.446   4.451   5.429
   24CHL1  H21B 2936   3.515   4.330   5.318
   24CHL1  H21C 2937   3.499   4.291   5.480
   24CHL1   C22 2938   3.268   4.374   5.235
   24CHL1  H22A 2939   3.160   4.362   5.208
   24CHL1  H22B 2940   3.290   4.482   5.250
   24CHL1   C23 2941   3.325   4.308   5.109
   24CHL1  H23A 2942   3.434   4.326   5.121
   24CHL1  H23B 2943   3.300   4.200   5.114
   24CHL1   C24 2944   3.281   4.362   4.980
   24CHL1  H24A 2945   3.180   4.319   4.965
   24CHL1  H24B 2946   3.285   4.473   4.982
   24CHL1   C25 2947   3.372   4.309   4.867
   24CHL1   H25 2948   3.385   4.202   4.896
   24CHL1   C26 2949   3.293   4.286   4.733
   24CHL1  H26A 2950   3.367   4.248   4.659
   24CHL1  H26B 2951   3.210   4.212   4.741
   24CHL1  H26C 2952   3.259   4.385   4.696
   24CHL1   C27 2953   3.501   4.389   4.860
   24CHL1  H27A 2954   3.570   4.368   4.944
   24CHL1  H27B 2955   3.552   4.364   4.764
   24CHL1  H27C 2956   3.492   4.499   4.856
   25CHL1    C3 2957   6.014   5.647   6.301
   25CHL1    H3 2958   6.107   5.682   6.252
   25CHL1    O3 2959   6.015   5.609   6.434
   25CHL1   H3' 2960   5.981   5.679   6.491
   25CHL1    C4 2961   5.911   5.758   6.283
   25CHL1   H4A 2962   5.824   5.722   6.341
   25CHL1   H4B 2963   5.941   5.853   6.333
   25CHL1    C5 2964   5.865   5.788   6.140
   25CHL1    C6 2965   5.863   5.916   6.090
   25CHL1    H6 2966   5.890   6.005   6.148
   25CHL1    C7 2967   5.821   5.941   5.944
   25CHL1   H7A 2968   5.746   6.023   5.943
   25CHL1   H7B 2969   5.904   5.975   5.879
   25CHL1    C8 2970   5.764   5.822   5.868
   25CHL1    H8 2971   5.655   5.816   5.891
   25CHL1   C14 2972   5.783   5.840   5.720
   25CHL1   H14 2973   5.892   5.837   5.702
   25CHL1   C15 2974   5.736   5.976   5.662
   25CHL1  H15A 2975   5.641   6.014   5.705
   25CHL1  H15B 2976   5.807   6.061   5.676
   25CHL1   C16 2977   5.729   5.951   5.509
   25CHL1  H16A 2978   5.627   5.980   5.476
   25CHL1  H16B 2979   5.798   6.008   5.443
   25CHL1   C17 2980   5.764   5.800   5.487
   25CHL1   H17 2981   5.873   5.788   5.474
   25CHL1   C13 2982   5.728   5.734   5.630
   25CHL1   C18 2983   5.574   5.724   5.652
   25CHL1  H18A 2984   5.521   5.658   5.580
   25CHL1  H18B 2985   5.546   5.697   5.756
   25CHL1  H18C 2986   5.527   5.824   5.653
   25CHL1   C12 2987   5.793   5.604   5.668
   25CHL1  H12A 2988   5.753   5.523   5.603
   25CHL1  H12B 2989   5.901   5.609   5.643
   25CHL1   C11 2990   5.782   5.572   5.814
   25CHL1  H11A 2991   5.676   5.555   5.842
   25CHL1  H11B 2992   5.836   5.476   5.828
   25CHL1    C9 2993   5.833   5.694   5.903
   25CHL1    H9 2994   5.938   5.710   5.869
   25CHL1   C10 2995   5.842   5.667   6.055
   25CHL1   C19 2996   5.710   5.602   6.103
   25CHL1  H19A 2997   5.697   5.502   6.056
   25CHL1  H19B 2998   5.703   5.586   6.212
   25CHL1  H19C 2999   5.618   5.656   6.072
   25CHL1    C1 3000   5.944   5.560   6.079
   25CHL1   H1A 3001   5.916   5.467   6.025
   25CHL1   H1B 3002   6.037   5.594   6.030
   25CHL1    C2 3003   5.981   5.524   6.221
   25CHL1   H2A 3004   6.061   5.446   6.223
   25CHL1   H2B 3005   5.893   5.474   6.265
   25CHL1   C20 3006   5.691   5.733   5.369
   25CHL1   H20 3007   5.584   5.722   5.398
   25CHL1   C21 3008   5.746   5.589   5.340
   25CHL1  H21A 3009   5.701   5.525   5.419
   25CHL1  H21B 3010   5.856   5.584   5.353
   25CHL1  H21C 3011   5.718   5.554   5.239
   25CHL1   C22 3012   5.703   5.813   5.235
   25CHL1  H22A 3013   5.660   5.736   5.168
   25CHL1  H22B 3014   5.635   5.901   5.233
   25CHL1   C23 3015   5.848   5.855   5.194
   25CHL1  H23A 3016   5.897   5.930   5.259
   25CHL1  H23B 3017   5.910   5.763   5.204
   25CHL1   C24 3018   5.829   5.901   5.052
   25CHL1  H24A 3019   5.769   5.824   4.998
   25CHL1  H24B 3020   5.761   5.989   5.059
   25CHL1   C25 3021   5.950   5.958   4.977
   25CHL1   H25 3022   6.010   6.018   5.049
   25CHL1   C26 3023   6.034   5.841   4.930
   25CHL1  H26A 3024   6.125   5.883   4.882
   25CHL1  H26B 3025   6.071   5.778   5.014
   25CHL1  H26C 3026   5.974   5.777   4.862
   25CHL1   C27 3027   5.910   6.054   4.866
   25CHL1  H27A 3028   5.846   6.127   4.920
   25CHL1  H27B 3029   5.994   6.101   4.811
   25CHL1  H27C 3030   5.843   6.000   4.796
   26CHL1    C3 3031   3.930   2.812   6.181
   26CHL1    H3 3032   4.038   2.788   6.173
   26CHL1    O3 3033   3.888   2.822   6.316
   26CHL1   H3' 3034   3.807   2.872   6.301
   26CHL1    C4 3035   3.885   2.942   6.119
   26CHL1   H4A 3036   3.784   2.981   6.140
   26CHL1   H4B 3037   3.955   3.017   6.163
   26CHL1    C5 3038   3.904   2.937   5.963
   26CHL1    C6 3039   3.984   3.029   5.891
   26CHL1    H6 3040   4.036   3.104   5.951
   26CHL1    C7 3041   4.005   3.017   5.737
   26CHL1   H7A 3042   4.008   3.113   5.682
   26CHL1   H7B 3043   4.108   2.976   5.730
   26CHL1    C8 3044   3.908   2.922   5.669
   26CHL1    H8 3045   3.806   2.961   5.648
   26CHL1   C14 3046   3.970   2.888   5.537
   26CHL1   H14 3047   4.068   2.844   5.568
   26CHL1   C15 3048   4.002   2.994   5.434
   26CHL1  H15A 3049   3.917   3.065   5.420
   26CHL1  H15B 3050   4.097   3.049   5.446
   26CHL1   C16 3051   4.018   2.919   5.293
   26CHL1  H16A 3052   3.956   2.965   5.213
   26CHL1  H16B 3053   4.124   2.922   5.258
   26CHL1   C17 3054   3.984   2.776   5.331
   26CHL1   H17 3055   4.087   2.747   5.359
   26CHL1   C13 3056   3.899   2.783   5.449
   26CHL1   C18 3057   3.755   2.824   5.404
   26CHL1  H18A 3058   3.702   2.877   5.486
   26CHL1  H18B 3059   3.759   2.895   5.318
   26CHL1  H18C 3060   3.691   2.738   5.378
   26CHL1   C12 3061   3.882   2.656   5.528
   26CHL1  H12A 3062   3.822   2.581   5.471
   26CHL1  H12B 3063   3.983   2.617   5.550
   26CHL1   C11 3064   3.806   2.689   5.657
   26CHL1  H11A 3065   3.705   2.735   5.651
   26CHL1  H11B 3066   3.805   2.593   5.714
   26CHL1    C9 3067   3.886   2.791   5.750
   26CHL1    H9 3068   3.987   2.746   5.761
   26CHL1   C10 3069   3.836   2.817   5.894
   26CHL1   C19 3070   3.684   2.827   5.893
   26CHL1  H19A 3071   3.634   2.904   5.829
   26CHL1  H19B 3072   3.642   2.729   5.862
   26CHL1  H19C 3073   3.659   2.838   6.000
   26CHL1    C1 3074   3.876   2.683   5.968
   26CHL1   H1A 3075   3.820   2.599   5.922
   26CHL1   H1B 3076   3.987   2.680   5.954
   26CHL1    C2 3077   3.854   2.692   6.124
   26CHL1   H2A 3078   3.897   2.607   6.182
   26CHL1   H2B 3079   3.745   2.695   6.144
   26CHL1   C20 3080   3.952   2.671   5.218
   26CHL1   H20 3081   3.844   2.647   5.222
   26CHL1   C21 3082   4.040   2.550   5.256
   26CHL1  H21A 3083   4.148   2.576   5.247
   26CHL1  H21B 3084   4.022   2.463   5.190
   26CHL1  H21C 3085   4.024   2.517   5.361
   26CHL1   C22 3086   3.991   2.715   5.082
   26CHL1  H22A 3087   3.928   2.803   5.055
   26CHL1  H22B 3088   4.094   2.755   5.087
   26CHL1   C23 3089   3.965   2.619   4.961
   26CHL1  H23A 3090   4.060   2.563   4.945
   26CHL1  H23B 3091   3.889   2.552   5.008
   26CHL1   C24 3092   3.919   2.675   4.831
   26CHL1  H24A 3093   3.813   2.706   4.842
   26CHL1  H24B 3094   3.982   2.765   4.813
   26CHL1   C25 3095   3.943   2.606   4.699
   26CHL1   H25 3096   3.902   2.673   4.620
   26CHL1   C26 3097   4.089   2.584   4.669
   26CHL1  H26A 3098   4.138   2.527   4.751
   26CHL1  H26B 3099   4.088   2.525   4.575
   26CHL1  H26C 3100   4.143   2.678   4.647
   26CHL1   C27 3101   3.868   2.470   4.690
   26CHL1  H27A 3102   3.910   2.389   4.754
   26CHL1  H27B 3103   3.760   2.483   4.714
   26CHL1  H27C 3104   3.861   2.435   4.585
   27CHL1    C3 3105   0.052   2.159   5.947
   27CHL1    H3 3106   0.005   2.259   5.946
   27CHL1    O3 3107   6.793   2.094   6.059
   27CHL1   H3' 3108   0.061   2.031   6.091
   27CHL1    C4 3109   0.039   2.088   5.813
   27CHL1   H4A 3110   0.094   1.992   5.824
   27CHL1   H4B 3111   6.730   2.061   5.788
   27CHL1    C5 3112   0.102   2.161   5.697
   27CHL1    C6 3113   0.027   2.193   5.591
   27CHL1    H6 3114   6.720   2.159   5.576
   27CHL1    C7 3115   0.077   2.273   5.478
   27CHL1   H7A 3116   0.047   2.235   5.378
   27CHL1   H7B 3117   0.050   2.380   5.491
   27CHL1    C8 3118   0.226   2.281   5.476
   27CHL1    H8 3119   0.273   2.186   5.441
   27CHL1   C14 3120   0.268   2.388   5.369
   27CHL1   H14 3121   0.227   2.487   5.396
   27CHL1   C15 3122   0.215   2.362   5.225
   27CHL1  H15A 3123   0.238   2.259   5.193
   27CHL1  H15B 3124   0.105   2.382   5.223
   27CHL1   C16 3125   0.293   2.469   5.146
   27CHL1  H16A 3126   0.347   2.413   5.066
   27CHL1  H16B 3127   0.226   2.547   5.105
   27CHL1   C17 3128   0.403   2.524   5.240
   27CHL1   H17 3129   0.360   2.615   5.287
   27CHL1   C13 3130   0.413   2.422   5.356
   27CHL1   C18 3131   0.499   2.300   5.318
   27CHL1  H18A 3132   0.606   2.330   5.311
   27CHL1  H18B 3133   0.487   2.216   5.390
   27CHL1  H18C 3134   0.459   2.273   5.218
   27CHL1   C12 3135   0.456   2.470   5.505
   27CHL1  H12A 3136   0.567   2.472   5.507
   27CHL1  H12B 3137   0.416   2.574   5.515
   27CHL1   C11 3138   0.429   2.362   5.606
   27CHL1  H11A 3139   0.493   2.271   5.599
   27CHL1  H11B 3140   0.440   2.412   5.704
   27CHL1    C9 3141   0.280   2.325   5.608
   27CHL1    H9 3142   0.225   2.416   5.639
   27CHL1   C10 3143   0.247   2.212   5.719
   27CHL1   C19 3144   0.340   2.093   5.706
   27CHL1  H19A 3145   0.313   2.010   5.774
   27CHL1  H19B 3146   0.346   2.045   5.606
   27CHL1  H19C 3147   0.443   2.126   5.733
   27CHL1    C1 3148   0.255   2.268   5.858
   27CHL1   H1A 3149   0.363   2.287   5.877
   27CHL1   H1B 3150   0.203   2.367   5.859
   27CHL1    C2 3151   0.198   2.194   5.978
   27CHL1   H2A 3152   0.199   2.246   6.076
   27CHL1   H2B 3153   0.254   2.099   5.993
   27CHL1   C20 3154   0.535   2.562   5.173
   27CHL1   H20 3155   0.579   2.466   5.140
   27CHL1   C21 3156   0.643   2.609   5.269
   27CHL1  H21A 3157   0.735   2.645   5.216
   27CHL1  H21B 3158   0.672   2.528   5.339
   27CHL1  H21C 3159   0.612   2.698   5.329
   27CHL1   C22 3160   0.511   2.662   5.052
   27CHL1  H22A 3161   0.423   2.617   5.002
   27CHL1  H22B 3162   0.475   2.756   5.099
   27CHL1   C23 3163   0.631   2.669   4.962
   27CHL1  H23A 3164   0.717   2.629   5.019
   27CHL1  H23B 3165   0.622   2.599   4.877
   27CHL1   C24 3166   0.645   2.811   4.907
   27CHL1  H24A 3167   0.648   2.880   4.994
   27CHL1  H24B 3168   0.739   2.824   4.850
   27CHL1   C25 3169   0.532   2.852   4.807
   27CHL1   H25 3170   0.436   2.833   4.861
   27CHL1   C26 3171   0.545   2.998   4.777
   27CHL1  H26A 3172   0.644   3.020   4.730
   27CHL1  H26B 3173   0.458   3.031   4.717
   27CHL1  H26C 3174   0.548   3.056   4.872
   27CHL1   C27 3175   0.531   2.779   4.670
   27CHL1  H27A 3176   0.509   2.671   4.683
   27CHL1  H27B 3177   0.628   2.785   4.617
   27CHL1  H27C 3178   0.446   2.821   4.612
   28CHL1    C3 3179   5.054   1.829   6.348
   28CHL1    H3 3180   5.101   1.929   6.345
   28CHL1    O3 3181   5.047   1.791   6.481
   28CHL1   H3' 3182   4.981   1.721   6.482
   28CHL1    C4 3183   4.913   1.839   6.283
   28CHL1   H4A 3184   4.852   1.752   6.313
   28CHL1   H4B 3185   4.876   1.924   6.344
   28CHL1    C5 3186   4.918   1.860   6.136
   28CHL1    C6 3187   4.862   1.967   6.078
   28CHL1    H6 3188   4.804   2.035   6.142
   28CHL1    C7 3189   4.858   1.987   5.927
   28CHL1   H7A 3190   4.755   2.017   5.903
   28CHL1   H7B 3191   4.930   2.068   5.903
   28CHL1    C8 3192   4.901   1.860   5.852
   28CHL1    H8 3193   4.824   1.780   5.858
   28CHL1   C14 3194   4.929   1.895   5.706
   28CHL1   H14 3195   5.017   1.961   5.721
   28CHL1   C15 3196   4.832   1.982   5.626
   28CHL1  H15A 3197   4.730   1.943   5.648
   28CHL1  H15B 3198   4.849   2.085   5.663
   28CHL1   C16 3199   4.857   1.960   5.474
   28CHL1  H16A 3200   4.768   1.924   5.417
   28CHL1  H16B 3201   4.885   2.054   5.422
   28CHL1   C17 3202   4.970   1.850   5.469
   28CHL1   H17 3203   5.059   1.916   5.472
   28CHL1   C13 3204   4.975   1.784   5.613
   28CHL1   C18 3205   4.868   1.676   5.609
   28CHL1  H18A 3206   4.918   1.577   5.612
   28CHL1  H18B 3207   4.801   1.669   5.698
   28CHL1  H18C 3208   4.800   1.681   5.522
   28CHL1   C12 3209   5.102   1.734   5.675
   28CHL1  H12A 3210   5.150   1.658   5.610
   28CHL1  H12B 3211   5.189   1.802   5.681
   28CHL1   C11 3212   5.083   1.681   5.817
   28CHL1  H11A 3213   4.992   1.617   5.814
   28CHL1  H11B 3214   5.166   1.619   5.857
   28CHL1    C9 3215   5.030   1.797   5.908
   28CHL1    H9 3216   5.116   1.867   5.900
   28CHL1   C10 3217   5.009   1.757   6.058
   28CHL1   C19 3218   4.929   1.619   6.057
   28CHL1  H19A 3219   4.985   1.534   6.013
   28CHL1  H19B 3220   4.892   1.594   6.159
   28CHL1  H19C 3221   4.835   1.637   6.000
   28CHL1    C1 3222   5.155   1.744   6.122
   28CHL1   H1A 3223   5.205   1.650   6.091
   28CHL1   H1B 3224   5.218   1.829   6.089
   28CHL1    C2 3225   5.148   1.727   6.283
   28CHL1   H2A 3226   5.252   1.720   6.323
   28CHL1   H2B 3227   5.091   1.632   6.293
   28CHL1   C20 3228   4.972   1.763   5.343
   28CHL1   H20 3229   4.870   1.721   5.331
   28CHL1   C21 3230   5.089   1.659   5.350
   28CHL1  H21A 3231   5.186   1.707   5.377
   28CHL1  H21B 3232   5.102   1.606   5.253
   28CHL1  H21C 3233   5.064   1.581   5.424
   28CHL1   C22 3234   4.999   1.853   5.215
   28CHL1  H22A 3235   4.927   1.938   5.209
   28CHL1  H22B 3236   5.101   1.895   5.224
   28CHL1   C23 3237   4.990   1.778   5.076
   28CHL1  H23A 3238   5.069   1.700   5.067
   28CHL1  H23B 3239   4.892   1.727   5.090
   28CHL1   C24 3240   5.003   1.861   4.945
   28CHL1  H24A 3241   4.945   1.953   4.966
   28CHL1  H24B 3242   5.107   1.889   4.916
   28CHL1   C25 3243   4.957   1.778   4.819
   28CHL1   H25 3244   4.850   1.757   4.841
   28CHL1   C26 3245   4.971   1.845   4.680
   28CHL1  H26A 3246   4.934   1.780   4.598
   28CHL1  H26B 3247   4.905   1.934   4.680
   28CHL1  H26C 3248   5.074   1.879   4.655
   28CHL1   C27 3249   5.034   1.646   4.795
   28CHL1  H27A 3250   5.144   1.661   4.800
   28CHL1  H27B 3251   5.012   1.569   4.873
   28CHL1  H27C 3252   5.012   1.598   4.697
   29CHL1    C3 3253   2.018   3.477   6.278
   29CHL1    H3 3254   2.062   3.375   6.278
   29CHL1    O3 3255   1.931   3.485   6.385
   29CHL1   H3' 3256   1.875   3.408   6.384
   29CHL1    C4 3257   2.135   3.579   6.288
   29CHL1   H4A 3258   2.082   3.676   6.301
   29CHL1   H4B 3259   2.195   3.567   6.381
   29CHL1    C5 3260   2.215   3.577   6.162
   29CHL1    C6 3261   2.356   3.564   6.161
   29CHL1    H6 3262   2.414   3.559   6.254
   29CHL1    C7 3263   2.438   3.571   6.030
   29CHL1   H7A 3264   2.530   3.632   6.045
   29CHL1   H7B 3265   2.487   3.475   6.005
   29CHL1    C8 3266   2.357   3.630   5.908
   29CHL1    H8 3267   2.352   3.738   5.932
   29CHL1   C14 3268   2.432   3.608   5.779
   29CHL1   H14 3269   2.434   3.499   5.759
   29CHL1   C15 3270   2.584   3.642   5.766
   29CHL1  H15A 3271   2.598   3.741   5.815
   29CHL1  H15B 3272   2.647   3.572   5.825
   29CHL1   C16 3273   2.617   3.645   5.620
   29CHL1  H16A 3274   2.663   3.743   5.596
   29CHL1  H16B 3275   2.689   3.570   5.578
   29CHL1   C17 3276   2.483   3.627   5.544
   29CHL1   H17 3277   2.469   3.517   5.529
   29CHL1   C13 3278   2.371   3.665   5.646
   29CHL1   C18 3279   2.351   3.817   5.654
   29CHL1  H18A 3280   2.319   3.856   5.555
   29CHL1  H18B 3281   2.280   3.847   5.735
   29CHL1  H18C 3282   2.441   3.874   5.686
   29CHL1   C12 3283   2.234   3.585   5.633
   29CHL1  H12A 3284   2.177   3.628   5.548
   29CHL1  H12B 3285   2.244   3.475   5.617
   29CHL1   C11 3286   2.153   3.605   5.764
   29CHL1  H11A 3287   2.121   3.711   5.759
   29CHL1  H11B 3288   2.062   3.547   5.740
   29CHL1    C9 3289   2.219   3.573   5.903
   29CHL1    H9 3290   2.234   3.465   5.882
   29CHL1   C10 3291   2.130   3.596   6.028
   29CHL1   C19 3292   2.078   3.747   6.031
   29CHL1  H19A 3293   2.030   3.755   5.931
   29CHL1  H19B 3294   2.002   3.766   6.109
   29CHL1  H19C 3295   2.149   3.832   6.034
   29CHL1    C1 3296   2.012   3.490   6.024
   29CHL1   H1A 3297   1.940   3.501   5.940
   29CHL1   H1B 3298   2.060   3.390   6.013
   29CHL1    C2 3299   1.926   3.493   6.152
   29CHL1   H2A 3300   1.857   3.407   6.132
   29CHL1   H2B 3301   1.868   3.587   6.161
   29CHL1   C20 3302   2.488   3.696   5.401
   29CHL1   H20 3303   2.505   3.805   5.409
   29CHL1   C21 3304   2.346   3.673   5.341
   29CHL1  H21A 3305   2.345   3.712   5.237
   29CHL1  H21B 3306   2.263   3.722   5.398
   29CHL1  H21C 3307   2.324   3.564   5.339
   29CHL1   C22 3308   2.597   3.631   5.317
   29CHL1  H22A 3309   2.700   3.655   5.351
   29CHL1  H22B 3310   2.579   3.523   5.330
   29CHL1   C23 3311   2.584   3.660   5.166
   29CHL1  H23A 3312   2.492   3.621   5.116
   29CHL1  H23B 3313   2.587   3.770   5.151
   29CHL1   C24 3314   2.713   3.610   5.107
   29CHL1  H24A 3315   2.803   3.668   5.139
   29CHL1  H24B 3316   2.742   3.508   5.141
   29CHL1   C25 3317   2.712   3.616   4.957
   29CHL1   H25 3318   2.819   3.606   4.932
   29CHL1   C26 3319   2.647   3.493   4.903
   29CHL1  H26A 3320   2.537   3.504   4.903
   29CHL1  H26B 3321   2.674   3.478   4.796
   29CHL1  H26C 3322   2.685   3.405   4.960
   29CHL1   C27 3323   2.667   3.757   4.895
   29CHL1  H27A 3324   2.703   3.772   4.791
   29CHL1  H27B 3325   2.557   3.751   4.883
   29CHL1  H27C 3326   2.680   3.839   4.968
   30CHL1    C3 3327   2.795   3.268   6.430
   30CHL1    H3 3328   2.719   3.349   6.436
   30CHL1    O3 3329   2.791   3.210   6.563
   30CHL1   H3' 3330   2.837   3.126   6.564
   30CHL1    C4 3331   2.749   3.156   6.337
   30CHL1   H4A 3332   2.794   3.061   6.373
   30CHL1   H4B 3333   2.639   3.152   6.354
   30CHL1    C5 3334   2.775   3.168   6.184
   30CHL1    C6 3335   2.683   3.149   6.087
   30CHL1    H6 3336   2.585   3.106   6.114
   30CHL1    C7 3337   2.700   3.162   5.943
   30CHL1   H7A 3338   2.649   3.084   5.882
   30CHL1   H7B 3339   2.645   3.253   5.912
   30CHL1    C8 3340   2.847   3.179   5.898
   30CHL1    H8 3341   2.897   3.080   5.894
   30CHL1   C14 3342   2.845   3.237   5.757
   30CHL1   H14 3343   2.793   3.335   5.765
   30CHL1   C15 3344   2.769   3.161   5.643
   30CHL1  H15A 3345   2.787   3.052   5.653
   30CHL1  H15B 3346   2.658   3.164   5.649
   30CHL1   C16 3347   2.833   3.232   5.518
   30CHL1  H16A 3348   2.877   3.155   5.451
   30CHL1  H16B 3349   2.762   3.298   5.465
   30CHL1   C17 3350   2.959   3.314   5.557
   30CHL1   H17 3351   2.925   3.419   5.568
   30CHL1   C13 3352   2.992   3.267   5.697
   30CHL1   C18 3353   3.066   3.134   5.692
   30CHL1  H18A 3354   3.017   3.071   5.615
   30CHL1  H18B 3355   3.167   3.165   5.658
   30CHL1  H18C 3356   3.075   3.076   5.786
   30CHL1   C12 3357   3.060   3.364   5.795
   30CHL1  H12A 3358   3.161   3.397   5.763
   30CHL1  H12B 3359   3.008   3.462   5.793
   30CHL1   C11 3360   3.063   3.319   5.941
   30CHL1  H11A 3361   3.143   3.244   5.958
   30CHL1  H11B 3362   3.099   3.413   5.989
   30CHL1    C9 3363   2.913   3.281   5.991
   30CHL1    H9 3364   2.852   3.374   5.986
   30CHL1   C10 3365   2.918   3.224   6.145
   30CHL1   C19 3366   3.017   3.105   6.158
   30CHL1  H19A 3367   3.117   3.147   6.133
   30CHL1  H19B 3368   3.008   3.062   6.260
   30CHL1  H19C 3369   2.996   3.020   6.091
   30CHL1    C1 3370   2.952   3.346   6.238
   30CHL1   H1A 3371   3.061   3.367   6.233
   30CHL1   H1B 3372   2.890   3.435   6.213
   30CHL1    C2 3373   2.935   3.318   6.394
   30CHL1   H2A 3374   2.958   3.407   6.456
   30CHL1   H2B 3375   3.013   3.243   6.418
   30CHL1   C20 3376   3.076   3.321   5.455
   30CHL1   H20 3377   3.116   3.218   5.446
   30CHL1   C21 3378   3.196   3.413   5.498
   30CHL1  H21A 3379   3.284   3.400   5.431
   30CHL1  H21B 3380   3.254   3.394   5.590
   30CHL1  H21C 3381   3.168   3.521   5.493
   30CHL1   C22 3382   3.033   3.353   5.311
   30CHL1  H22A 3383   2.923   3.340   5.296
   30CHL1  H22B 3384   3.062   3.459   5.299
   30CHL1   C23 3385   3.112   3.271   5.201
   30CHL1  H23A 3386   3.220   3.290   5.216
   30CHL1  H23B 3387   3.083   3.163   5.208
   30CHL1   C24 3388   3.077   3.305   5.059
   30CHL1  H24A 3389   2.988   3.249   5.023
   30CHL1  H24B 3390   3.043   3.411   5.062
   30CHL1   C25 3391   3.192   3.303   4.955
   30CHL1   H25 3392   3.269   3.375   4.990
   30CHL1   C26 3393   3.258   3.164   4.950
   30CHL1  H26A 3394   3.179   3.101   4.905
   30CHL1  H26B 3395   3.350   3.178   4.889
   30CHL1  H26C 3396   3.295   3.120   5.045
   30CHL1   C27 3397   3.142   3.344   4.815
   30CHL1  H27A 3398   3.222   3.364   4.741
   30CHL1  H27B 3399   3.089   3.264   4.758
   30CHL1  H27C 3400   3.074   3.432   4.820
   31CHL1    C3 3401   1.657   4.030   6.064
   31CHL1    H3 3402   1.555   4.003   6.028
   31CHL1    O3 3403   1.646   4.067   6.197
   31CHL1   H3' 3404   1.732   4.053   6.237
   31CHL1    C4 3405   1.764   3.912   6.038
   31CHL1   H4A 3406   1.857   3.931   6.096
   31CHL1   H4B 3407   1.713   3.827   6.088
   31CHL1    C5 3408   1.773   3.882   5.896
   31CHL1    C6 3409   1.752   3.753   5.859
   31CHL1    H6 3410   1.701   3.684   5.927
   31CHL1    C7 3411   1.756   3.704   5.716
   31CHL1   H7A 3412   1.813   3.610   5.702
   31CHL1   H7B 3413   1.654   3.689   5.675
   31CHL1    C8 3414   1.821   3.805   5.619
   31CHL1    H8 3415   1.930   3.786   5.634
   31CHL1   C14 3416   1.805   3.774   5.469
   31CHL1   H14 3417   1.696   3.771   5.449
   31CHL1   C15 3418   1.836   3.635   5.412
   31CHL1  H15A 3419   1.937   3.604   5.447
   31CHL1  H15B 3420   1.758   3.560   5.437
   31CHL1   C16 3421   1.846   3.658   5.261
   31CHL1  H16A 3422   1.951   3.641   5.229
   31CHL1  H16B 3423   1.772   3.587   5.218
   31CHL1   C17 3424   1.814   3.807   5.233
   31CHL1   H17 3425   1.703   3.816   5.232
   31CHL1   C13 3426   1.860   3.877   5.371
   31CHL1   C18 3427   2.012   3.880   5.377
   31CHL1  H18A 3428   2.046   3.861   5.481
   31CHL1  H18B 3429   2.071   3.802   5.323
   31CHL1  H18C 3430   2.048   3.980   5.345
   31CHL1   C12 3431   1.798   4.016   5.402
   31CHL1  H12A 3432   1.835   4.102   5.342
   31CHL1  H12B 3433   1.689   3.995   5.393
   31CHL1   C11 3434   1.834   4.052   5.550
   31CHL1  H11A 3435   1.943   4.070   5.545
   31CHL1  H11B 3436   1.784   4.151   5.561
   31CHL1    C9 3437   1.781   3.949   5.648
   31CHL1    H9 3438   1.670   3.946   5.647
   31CHL1   C10 3439   1.806   3.996   5.797
   31CHL1   C19 3440   1.959   4.026   5.808
   31CHL1  H19A 3441   2.003   4.107   5.745
   31CHL1  H19B 3442   1.988   4.061   5.909
   31CHL1  H19C 3443   2.025   3.940   5.783
   31CHL1    C1 3444   1.714   4.116   5.827
   31CHL1   H1A 3445   1.753   4.207   5.777
   31CHL1   H1B 3446   1.614   4.081   5.796
   31CHL1    C2 3447   1.712   4.144   5.976
   31CHL1   H2A 3448   1.652   4.237   5.989
   31CHL1   H2B 3449   1.814   4.174   6.008
   31CHL1   C20 3450   1.870   3.853   5.100
   31CHL1   H20 3451   1.979   3.832   5.095
   31CHL1   C21 3452   1.851   4.006   5.079
   31CHL1  H21A 3453   1.919   4.071   5.139
   31CHL1  H21B 3454   1.749   4.030   5.116
   31CHL1  H21C 3455   1.866   4.035   4.973
   31CHL1   C22 3456   1.805   3.765   4.982
   31CHL1  H22A 3457   1.827   3.658   5.000
   31CHL1  H22B 3458   1.696   3.788   4.978
   31CHL1   C23 3459   1.860   3.799   4.846
   31CHL1  H23A 3460   1.832   3.904   4.820
   31CHL1  H23B 3461   1.969   3.779   4.840
   31CHL1   C24 3462   1.788   3.711   4.744
   31CHL1  H24A 3463   1.828   3.610   4.767
   31CHL1  H24B 3464   1.679   3.706   4.764
   31CHL1   C25 3465   1.812   3.754   4.599
   31CHL1   H25 3466   1.801   3.865   4.592
   31CHL1   C26 3467   1.953   3.727   4.560
   31CHL1  H26A 3468   1.972   3.733   4.451
   31CHL1  H26B 3469   2.020   3.793   4.619
   31CHL1  H26C 3470   1.990   3.633   4.606
   31CHL1   C27 3471   1.711   3.690   4.500
   31CHL1  H27A 3472   1.724   3.718   4.393
   31CHL1  H27B 3473   1.722   3.579   4.509
   31CHL1  H27C 3474   1.607   3.715   4.530
   32CHL1    C3 3475   2.357   1.887   6.311
   32CHL1    H3 3476   2.455   1.927   6.276
   32CHL1    O3 3477   2.362   1.855   6.448
   32CHL1   H3' 3478   2.449   1.815   6.460
   32CHL1    C4 3479   2.247   1.995   6.277
   32CHL1   H4A 3480   2.149   1.958   6.314
   32CHL1   H4B 3481   2.271   2.084   6.338
   32CHL1    C5 3482   2.254   2.027   6.127
   32CHL1    C6 3483   2.269   2.150   6.089
   32CHL1    H6 3484   2.301   2.227   6.161
   32CHL1    C7 3485   2.261   2.187   5.943
   32CHL1   H7A 3486   2.213   2.284   5.922
   32CHL1   H7B 3487   2.363   2.191   5.899
   32CHL1    C8 3488   2.198   2.086   5.848
   32CHL1    H8 3489   2.087   2.093   5.853
   32CHL1   C14 3490   2.258   2.103   5.713
   32CHL1   H14 3491   2.367   2.082   5.705
   32CHL1   C15 3492   2.251   2.245   5.645
   32CHL1  H15A 3493   2.146   2.277   5.662
   32CHL1  H15B 3494   2.322   2.315   5.695
   32CHL1   C16 3495   2.259   2.212   5.500
   32CHL1  H16A 3496   2.174   2.254   5.442
   32CHL1  H16B 3497   2.345   2.273   5.462
   32CHL1   C17 3498   2.271   2.056   5.482
   32CHL1   H17 3499   2.379   2.038   5.498
   32CHL1   C13 3500   2.196   2.008   5.613
   32CHL1   C18 3501   2.041   2.024   5.587
   32CHL1  H18A 3502   2.009   1.947   5.514
   32CHL1  H18B 3503   1.979   2.010   5.678
   32CHL1  H18C 3504   2.018   2.124   5.546
   32CHL1   C12 3505   2.228   1.863   5.651
   32CHL1  H12A 3506   2.178   1.797   5.577
   32CHL1  H12B 3507   2.337   1.843   5.652
   32CHL1   C11 3508   2.187   1.830   5.801
   32CHL1  H11A 3509   2.077   1.814   5.808
   32CHL1  H11B 3510   2.235   1.735   5.832
   32CHL1    C9 3511   2.236   1.944   5.890
   32CHL1    H9 3512   2.347   1.939   5.881
   32CHL1   C10 3513   2.210   1.909   6.037
   32CHL1   C19 3514   2.064   1.877   6.056
   32CHL1  H19A 3515   2.022   1.880   6.158
   32CHL1  H19B 3516   1.991   1.941   6.001
   32CHL1  H19C 3517   2.040   1.779   6.011
   32CHL1    C1 3518   2.310   1.789   6.082
   32CHL1   H1A 3519   2.302   1.693   6.026
   32CHL1   H1B 3520   2.408   1.829   6.048
   32CHL1    C2 3521   2.312   1.762   6.231
   32CHL1   H2A 3522   2.376   1.673   6.249
   32CHL1   H2B 3523   2.208   1.738   6.264
   32CHL1   C20 3524   2.231   2.014   5.338
   32CHL1   H20 3525   2.122   2.030   5.326
   32CHL1   C21 3526   2.243   1.864   5.318
   32CHL1  H21A 3527   2.339   1.828   5.360
   32CHL1  H21B 3528   2.224   1.845   5.210
   32CHL1  H21C 3529   2.159   1.815   5.371
   32CHL1   C22 3530   2.319   2.098   5.229
   32CHL1  H22A 3531   2.336   2.203   5.261
   32CHL1  H22B 3532   2.421   2.053   5.229
   32CHL1   C23 3533   2.260   2.094   5.087
   32CHL1  H23A 3534   2.327   2.163   5.030
   32CHL1  H23B 3535   2.268   1.996   5.035
   32CHL1   C24 3536   2.110   2.145   5.069
   32CHL1  H24A 3537   2.092   2.143   4.959
   32CHL1  H24B 3538   2.041   2.063   5.101
   32CHL1   C25 3539   2.070   2.277   5.124
   32CHL1   H25 3540   2.119   2.297   5.221
   32CHL1   C26 3541   2.112   2.392   5.030
   32CHL1  H26A 3542   2.071   2.373   4.928
   32CHL1  H26B 3543   2.063   2.478   5.081
   32CHL1  H26C 3544   2.221   2.407   5.043
   32CHL1   C27 3545   1.919   2.284   5.144
   32CHL1  H27A 3546   1.866   2.268   5.048
   32CHL1  H27B 3547   1.887   2.201   5.212
   32CHL1  H27C 3548   1.893   2.379   5.196
   33CHL1    C3 3549   0.294   1.295   5.521
   33CHL1    H3 3550   0.259   1.399   5.500
   33CHL1    O3 3551   0.301   1.262   5.657
   33CHL1   H3' 3552   0.376   1.204   5.670
   33CHL1    C4 3553   0.205   1.190   5.453
   33CHL1   H4A 3554   0.234   1.089   5.490
   33CHL1   H4B 3555   0.099   1.193   5.487
   33CHL1    C5 3556   0.216   1.211   5.299
   33CHL1    C6 3557   0.103   1.237   5.223
   33CHL1    H6 3558   0.009   1.240   5.279
   33CHL1    C7 3559   0.103   1.250   5.072
   33CHL1   H7A 3560   0.030   1.189   5.014
   33CHL1   H7B 3561   0.074   1.355   5.049
   33CHL1    C8 3562   0.236   1.213   5.005
   33CHL1    H8 3563   0.238   1.102   4.996
   33CHL1   C14 3564   0.249   1.288   4.866
   33CHL1   H14 3565   0.266   1.396   4.888
   33CHL1   C15 3566   0.133   1.292   4.758
   33CHL1  H15A 3567   0.065   1.205   4.747
   33CHL1  H15B 3568   0.054   1.370   4.768
   33CHL1   C16 3569   0.215   1.313   4.625
   33CHL1  H16A 3570   0.200   1.215   4.574
   33CHL1  H16B 3571   0.183   1.391   4.552
   33CHL1   C17 3572   0.366   1.339   4.660
   33CHL1   H17 3573   0.369   1.446   4.687
   33CHL1   C13 3574   0.377   1.251   4.794
   33CHL1   C18 3575   0.372   1.099   4.747
   33CHL1  H18A 3576   0.367   1.028   4.833
   33CHL1  H18B 3577   0.288   1.078   4.678
   33CHL1  H18C 3578   0.463   1.068   4.691
   33CHL1   C12 3579   0.497   1.290   4.882
   33CHL1  H12A 3580   0.587   1.248   4.832
   33CHL1  H12B 3581   0.490   1.400   4.878
   33CHL1   C11 3582   0.489   1.220   5.014
   33CHL1  H11A 3583   0.495   1.112   4.989
   33CHL1  H11B 3584   0.582   1.243   5.070
   33CHL1    C9 3585   0.357   1.251   5.090
   33CHL1    H9 3586   0.349   1.361   5.102
   33CHL1   C10 3587   0.354   1.204   5.242
   33CHL1   C19 3588   0.407   1.060   5.242
   33CHL1  H19A 3589   0.516   1.059   5.221
   33CHL1  H19B 3590   0.396   1.010   5.341
   33CHL1  H19C 3591   0.354   0.992   5.172
   33CHL1    C1 3592   0.454   1.300   5.315
   33CHL1   H1A 3593   0.555   1.277   5.275
   33CHL1   H1B 3594   0.436   1.407   5.291
   33CHL1    C2 3595   0.441   1.288   5.471
   33CHL1   H2A 3596   0.510   1.366   5.510
   33CHL1   H2B 3597   0.482   1.189   5.500
   33CHL1   C20 3598   0.474   1.326   4.551
   33CHL1   H20 3599   0.551   1.251   4.580
   33CHL1   C21 3600   0.546   1.460   4.527
   33CHL1  H21A 3601   0.612   1.460   4.438
   33CHL1  H21B 3602   0.600   1.499   4.615
   33CHL1  H21C 3603   0.470   1.538   4.505
   33CHL1   C22 3604   0.414   1.274   4.421
   33CHL1  H22A 3605   0.345   1.190   4.443
   33CHL1  H22B 3606   0.358   1.360   4.378
   33CHL1   C23 3607   0.527   1.226   4.326
   33CHL1  H23A 3608   0.586   1.316   4.299
   33CHL1  H23B 3609   0.597   1.156   4.376
   33CHL1   C24 3610   0.481   1.143   4.199
   33CHL1  H24A 3611   0.432   1.051   4.235
   33CHL1  H24B 3612   0.417   1.215   4.144
   33CHL1   C25 3613   0.598   1.100   4.110
   33CHL1   H25 3614   0.677   1.063   4.179
   33CHL1   C26 3615   0.552   0.975   4.028
   33CHL1  H26A 3616   0.623   0.939   3.951
   33CHL1  H26B 3617   0.534   0.891   4.098
   33CHL1  H26C 3618   0.454   0.988   3.977
   33CHL1   C27 3619   0.644   1.220   4.021
   33CHL1  H27A 3620   0.678   1.304   4.085
   33CHL1  H27B 3621   0.728   1.192   3.954
   33CHL1  H27C 3622   0.555   1.236   3.957
   34CHL1    C3 3623   2.711   2.657   6.246
   34CHL1    H3 3624   2.790   2.581   6.226
   34CHL1    O3 3625   2.698   2.688   6.386
   34CHL1   H3' 3626   2.638   2.763   6.391
   34CHL1    C4 3627   2.734   2.785   6.162
   34CHL1   H4A 3628   2.650   2.857   6.175
   34CHL1   H4B 3629   2.824   2.835   6.205
   34CHL1    C5 3630   2.740   2.750   6.010
   34CHL1    C6 3631   2.851   2.786   5.940
   34CHL1    H6 3632   2.939   2.832   5.988
   34CHL1    C7 3633   2.855   2.761   5.792
   34CHL1   H7A 3634   2.908   2.846   5.743
   34CHL1   H7B 3635   2.908   2.667   5.766
   34CHL1    C8 3636   2.712   2.744   5.721
   34CHL1    H8 3637   2.666   2.845   5.722
   34CHL1   C14 3638   2.719   2.686   5.581
   34CHL1   H14 3639   2.780   2.594   5.593
   34CHL1   C15 3640   2.791   2.774   5.478
   34CHL1  H15A 3641   2.758   2.877   5.503
   34CHL1  H15B 3642   2.900   2.758   5.488
   34CHL1   C16 3643   2.740   2.739   5.336
   34CHL1  H16A 3644   2.695   2.829   5.290
   34CHL1  H16B 3645   2.820   2.700   5.270
   34CHL1   C17 3646   2.622   2.631   5.370
   34CHL1   H17 3647   2.672   2.532   5.372
   34CHL1   C13 3648   2.582   2.656   5.525
   34CHL1   C18 3649   2.478   2.768   5.548
   34CHL1  H18A 3650   2.513   2.843   5.473
   34CHL1  H18B 3651   2.377   2.733   5.518
   34CHL1  H18C 3652   2.470   2.809   5.651
   34CHL1   C12 3653   2.540   2.528   5.600
   34CHL1  H12A 3654   2.449   2.479   5.559
   34CHL1  H12B 3655   2.616   2.447   5.600
   34CHL1   C11 3656   2.524   2.558   5.753
   34CHL1  H11A 3657   2.431   2.617   5.761
   34CHL1  H11B 3658   2.517   2.465   5.813
   34CHL1    C9 3659   2.642   2.641   5.811
   34CHL1    H9 3660   2.716   2.558   5.810
   34CHL1   C10 3661   2.621   2.689   5.957
   34CHL1   C19 3662   2.515   2.797   5.964
   34CHL1  H19A 3663   2.480   2.813   6.068
   34CHL1  H19B 3664   2.547   2.896   5.925
   34CHL1  H19C 3665   2.425   2.762   5.910
   34CHL1    C1 3666   2.578   2.564   6.050
   34CHL1   H1A 3667   2.478   2.526   6.020
   34CHL1   H1B 3668   2.652   2.486   6.021
   34CHL1    C2 3669   2.586   2.592   6.204
   34CHL1   H2A 3670   2.562   2.494   6.250
   34CHL1   H2B 3671   2.493   2.650   6.225
   34CHL1   C20 3672   2.517   2.631   5.264
   34CHL1   H20 3673   2.474   2.732   5.254
   34CHL1   C21 3674   2.400   2.539   5.303
   34CHL1  H21A 3675   2.350   2.577   5.395
   34CHL1  H21B 3676   2.443   2.437   5.318
   34CHL1  H21C 3677   2.319   2.540   5.227
   34CHL1   C22 3678   2.562   2.607   5.116
   34CHL1  H22A 3679   2.663   2.648   5.093
   34CHL1  H22B 3680   2.574   2.497   5.108
   34CHL1   C23 3681   2.467   2.650   5.000
   34CHL1  H23A 3682   2.365   2.663   5.042
   34CHL1  H23B 3683   2.503   2.752   4.974
   34CHL1   C24 3684   2.454   2.553   4.887
   34CHL1  H24A 3685   2.413   2.463   4.937
   34CHL1  H24B 3686   2.388   2.586   4.804
   34CHL1   C25 3687   2.593   2.503   4.824
   34CHL1   H25 3688   2.674   2.492   4.899
   34CHL1   C26 3689   2.581   2.371   4.752
   34CHL1  H26A 3690   2.661   2.351   4.677
   34CHL1  H26B 3691   2.578   2.286   4.823
   34CHL1  H26C 3692   2.492   2.372   4.684
   34CHL1   C27 3693   2.649   2.607   4.726
   34CHL1  H27A 3694   2.738   2.573   4.669
   34CHL1  H27B 3695   2.577   2.643   4.650
   34CHL1  H27C 3696   2.679   2.694   4.788
   35CHL1    C3 3697   4.285   5.011   6.012
   35CHL1    H3 3698   4.311   5.119   6.012
   35CHL1    O3 3699   4.281   4.951   6.143
   35CHL1   H3' 3700   4.252   4.862   6.124
   35CHL1    C4 3701   4.141   5.011   5.957
   35CHL1   H4A 3702   4.081   4.921   5.984
   35CHL1   H4B 3703   4.088   5.088   6.017
   35CHL1    C5 3704   4.124   5.036   5.805
   35CHL1    C6 3705   4.039   5.127   5.765
   35CHL1    H6 3706   3.977   5.179   5.840
   35CHL1    C7 3707   4.023   5.169   5.625
   35CHL1   H7A 3708   3.914   5.165   5.602
   35CHL1   H7B 3709   4.076   5.267   5.618
   35CHL1    C8 3710   4.102   5.077   5.531
   35CHL1    H8 3711   4.042   4.984   5.519
   35CHL1   C14 3712   4.119   5.148   5.390
   35CHL1   H14 3713   4.181   5.238   5.409
   35CHL1   C15 3714   3.998   5.217   5.324
   35CHL1  H15A 3715   3.916   5.143   5.326
   35CHL1  H15B 3716   3.970   5.312   5.375
   35CHL1   C16 3717   4.050   5.254   5.183
   35CHL1  H16A 3718   3.982   5.241   5.096
   35CHL1  H16B 3719   4.070   5.363   5.178
   35CHL1   C17 3720   4.168   5.159   5.160
   35CHL1   H17 3721   4.258   5.225   5.167
   35CHL1   C13 3722   4.175   5.058   5.278
   35CHL1   C18 3723   4.087   4.935   5.256
   35CHL1  H18A 3724   3.983   4.967   5.230
   35CHL1  H18B 3725   4.128   4.873   5.173
   35CHL1  H18C 3726   4.078   4.861   5.338
   35CHL1   C12 3727   4.315   5.017   5.330
   35CHL1  H12A 3728   4.365   4.953   5.253
   35CHL1  H12B 3729   4.375   5.110   5.333
   35CHL1   C11 3730   4.308   4.947   5.465
   35CHL1  H11A 3731   4.258   4.848   5.458
   35CHL1  H11B 3732   4.415   4.934   5.490
   35CHL1    C9 3733   4.238   5.036   5.577
   35CHL1    H9 3734   4.294   5.132   5.583
   35CHL1   C10 3735   4.234   4.973   5.715
   35CHL1   C19 3736   4.203   4.822   5.708
   35CHL1  H19A 3737   4.139   4.803   5.619
   35CHL1  H19B 3738   4.302   4.774   5.691
   35CHL1  H19C 3739   4.158   4.777   5.798
   35CHL1    C1 3740   4.373   4.988   5.786
   35CHL1   H1A 3741   4.447   4.934   5.722
   35CHL1   H1B 3742   4.416   5.090   5.781
   35CHL1    C2 3743   4.380   4.933   5.929
   35CHL1   H2A 3744   4.483   4.945   5.970
   35CHL1   H2B 3745   4.355   4.825   5.934
   35CHL1   C20 3746   4.174   5.095   5.020
   35CHL1   H20 3747   4.088   5.024   5.009
   35CHL1   C21 3748   4.307   5.024   4.992
   35CHL1  H21A 3749   4.391   5.094   5.011
   35CHL1  H21B 3750   4.301   4.991   4.886
   35CHL1  H21C 3751   4.313   4.937   5.062
   35CHL1   C22 3752   4.149   5.193   4.900
   35CHL1  H22A 3753   4.080   5.277   4.924
   35CHL1  H22B 3754   4.246   5.236   4.866
   35CHL1   C23 3755   4.081   5.120   4.777
   35CHL1  H23A 3756   4.148   5.038   4.743
   35CHL1  H23B 3757   3.980   5.079   4.797
   35CHL1   C24 3758   4.063   5.213   4.653
   35CHL1  H24A 3759   4.010   5.303   4.692
   35CHL1  H24B 3760   4.163   5.252   4.624
   35CHL1   C25 3761   3.992   5.169   4.529
   35CHL1   H25 3762   4.015   5.243   4.449
   35CHL1   C26 3763   4.030   5.023   4.494
   35CHL1  H26A 3764   4.138   5.002   4.479
   35CHL1  H26B 3765   3.987   4.965   4.578
   35CHL1  H26C 3766   3.985   4.986   4.399
   35CHL1   C27 3767   3.836   5.171   4.533
   35CHL1  H27A 3768   3.801   5.115   4.622
   35CHL1  H27B 3769   3.802   5.276   4.543
   35CHL1  H27C 3770   3.781   5.116   4.455
   36CHL1    C3 3771   0.056   3.777   6.010
   36CHL1    H3 3772   0.166   3.762   6.003
   36CHL1    O3 3773   6.786   3.750   6.137
   36CHL1   H3' 3774   0.038   3.676   6.175
   36CHL1    C4 3775   0.027   3.924   5.977
   36CHL1   H4A 3776   6.713   3.937   5.974
   36CHL1   H4B 3777   0.064   3.997   6.053
   36CHL1    C5 3778   0.079   3.960   5.839
   36CHL1    C6 3779   0.166   4.057   5.819
   36CHL1    H6 3780   0.210   4.105   5.908
   36CHL1    C7 3781   0.220   4.091   5.685
   36CHL1   H7A 3782   0.230   4.199   5.664
   36CHL1   H7B 3783   0.326   4.058   5.683
   36CHL1    C8 3784   0.129   4.042   5.567
   36CHL1    H8 3785   0.033   4.096   5.557
   36CHL1   C14 3786   0.198   4.043   5.438
   36CHL1   H14 3787   0.278   3.965   5.441
   36CHL1   C15 3788   0.262   4.179   5.394
   36CHL1  H15A 3789   0.204   4.264   5.434
   36CHL1  H15B 3790   0.360   4.176   5.446
   36CHL1   C16 3791   0.271   4.155   5.242
   36CHL1  H16A 3792   0.206   4.229   5.190
   36CHL1  H16B 3793   0.372   4.180   5.203
   36CHL1   C17 3794   0.226   4.013   5.213
   36CHL1   H17 3795   0.311   3.944   5.233
   36CHL1   C13 3796   0.118   3.994   5.323
   36CHL1   C18 3797   6.789   4.083   5.296
   36CHL1  H18A 3798   6.691   4.055   5.340
   36CHL1  H18B 3799   0.015   4.183   5.338
   36CHL1  H18C 3800   6.786   4.101   5.186
   36CHL1   C12 3801   0.073   3.849   5.340
   36CHL1  H12A 3802   0.001   3.816   5.262
   36CHL1  H12B 3803   0.161   3.782   5.332
   36CHL1   C11 3804   0.018   3.823   5.478
   36CHL1  H11A 3805   6.712   3.864   5.463
   36CHL1  H11B 3806   0.010   3.717   5.509
   36CHL1    C9 3807   0.092   3.895   5.595
   36CHL1    H9 3808   0.186   3.837   5.606
   36CHL1   C10 3809   0.019   3.871   5.730
   36CHL1   C19 3810   6.662   3.894   5.717
   36CHL1  H19A 3811   6.604   3.828   5.648
   36CHL1  H19B 3812   6.607   3.885   5.813
   36CHL1  H19C 3813   6.644   3.998   5.684
   36CHL1    C1 3814   0.030   3.721   5.765
   36CHL1   H1A 3815   6.773   3.644   5.704
   36CHL1   H1B 3816   0.136   3.696   5.745
   36CHL1    C2 3817   6.789   3.684   5.906
   36CHL1   H2A 3818   0.008   3.577   5.934
   36CHL1   H2B 3819   6.680   3.702   5.912
   36CHL1   C20 3820   0.182   3.982   5.068
   36CHL1   H20 3821   0.090   4.038   5.037
   36CHL1   C21 3822   0.151   3.829   5.025
   36CHL1  H21A 3823   0.119   3.831   4.918
   36CHL1  H21B 3824   0.057   3.795   5.073
   36CHL1  H21C 3825   0.244   3.771   5.047
   36CHL1   C22 3826   0.284   4.027   4.961
   36CHL1  H22A 3827   0.234   4.037   4.862
   36CHL1  H22B 3828   0.290   4.136   4.982
   36CHL1   C23 3829   0.413   3.941   4.954
   36CHL1  H23A 3830   0.455   3.923   5.055
   36CHL1  H23B 3831   0.382   3.838   4.925
   36CHL1   C24 3832   0.522   3.987   4.852
   36CHL1  H24A 3833   0.586   4.070   4.890
   36CHL1  H24B 3834   0.590   3.898   4.851
   36CHL1   C25 3835   0.476   4.003   4.704
   36CHL1   H25 3836   0.383   4.062   4.689
   36CHL1   C26 3837   0.588   4.073   4.618
   36CHL1  H26A 3838   0.672   4.000   4.613
   36CHL1  H26B 3839   0.562   4.086   4.511
   36CHL1  H26C 3840   0.641   4.159   4.664
   36CHL1   C27 3841   0.424   3.865   4.643
   36CHL1  H27A 3842   0.510   3.802   4.612
   36CHL1  H27B 3843   0.366   3.798   4.710
   36CHL1  H27C 3844   0.359   3.890   4.557
   37CHL1    C3 3845   0.572   0.344   6.140
   37CHL1    H3 3846   0.569   0.436   6.078
   37CHL1    O3 3847   0.562   0.378   6.278
   37CHL1   H3' 3848   0.631   0.445   6.286
   37CHL1    C4 3849   0.449   0.260   6.101
   37CHL1   H4A 3850   0.448   0.176   6.175
   37CHL1   H4B 3851   0.354   0.313   6.123
   37CHL1    C5 3852   0.449   0.218   5.958
   37CHL1    C6 3853   0.343   0.243   5.873
   37CHL1    H6 3854   0.253   0.298   5.906
   37CHL1    C7 3855   0.336   0.198   5.731
   37CHL1   H7A 3856   0.237   0.151   5.712
   37CHL1   H7B 3857   0.343   0.290   5.669
   37CHL1    C8 3858   0.448   0.102   5.694
   37CHL1    H8 3859   0.412   0.001   5.725
   37CHL1   C14 3860   0.454   0.101   5.539
   37CHL1   H14 3861   0.505   0.195   5.508
   37CHL1   C15 3862   0.328   0.085   5.448
   37CHL1  H15A 3863   0.263   6.796   5.479
   37CHL1  H15B 3864   0.272   0.181   5.454
   37CHL1   C16 3865   0.403   0.056   5.314
   37CHL1  H16A 3866   0.351   6.769   5.262
   37CHL1  H16B 3867   0.384   0.147   5.252
   37CHL1   C17 3868   0.552   0.038   5.334
   37CHL1   H17 3869   0.595   0.140   5.324
   37CHL1   C13 3870   0.559   6.795   5.485
   37CHL1   C18 3871   0.509   6.649   5.501
   37CHL1  H18A 3872   0.414   6.631   5.445
   37CHL1  H18B 3873   0.586   6.580   5.459
   37CHL1  H18C 3874   0.485   6.621   5.606
   37CHL1   C12 3875   0.693   0.027   5.555
   37CHL1  H12A 3876   0.765   6.745   5.523
   37CHL1  H12B 3877   0.738   0.119   5.511
   37CHL1   C11 3878   0.689   0.030   5.712
   37CHL1  H11A 3879   0.662   6.730   5.762
   37CHL1  H11B 3880   0.789   0.064   5.745
   37CHL1    C9 3881   0.582   0.129   5.759
   37CHL1    H9 3882   0.602   0.231   5.720
   37CHL1   C10 3883   0.578   0.148   5.914
   37CHL1   C19 3884   0.578   0.010   5.985
   37CHL1  H19A 3885   0.567   0.021   6.095
   37CHL1  H19B 3886   0.507   6.737   5.935
   37CHL1  H19C 3887   0.678   6.760   5.972
   37CHL1    C1 3888   0.694   0.230   5.964
   37CHL1   H1A 3889   0.788   0.172   5.949
   37CHL1   H1B 3890   0.712   0.320   5.902
   37CHL1    C2 3891   0.703   0.270   6.114
   37CHL1   H2A 3892   0.794   0.333   6.125
   37CHL1   H2B 3893   0.722   0.180   6.176
   37CHL1   C20 3894   0.636   6.740   5.236
   37CHL1   H20 3895   0.708   6.678   5.293
   37CHL1   C21 3896   0.714   0.042   5.145
   37CHL1  H21A 3897   0.785   0.112   5.194
   37CHL1  H21B 3898   0.635   0.092   5.086
   37CHL1  H21C 3899   0.784   6.779   5.081
   37CHL1   C22 3900   0.550   6.636   5.149
   37CHL1  H22A 3901   0.477   6.578   5.211
   37CHL1  H22B 3902   0.486   6.689   5.075
   37CHL1   C23 3903   0.626   6.532   5.065
   37CHL1  H23A 3904   0.721   6.510   5.119
   37CHL1  H23B 3905   0.575   6.434   5.066
   37CHL1   C24 3906   0.635   6.579   4.920
   37CHL1  H24A 3907   0.533   6.579   4.877
   37CHL1  H24B 3908   0.671   6.683   4.928
   37CHL1   C25 3909   0.733   6.497   4.840
   37CHL1   H25 3910   0.831   6.504   4.890
   37CHL1   C26 3911   0.700   6.349   4.828
   37CHL1  H26A 3912   0.777   6.297   4.768
   37CHL1  H26B 3913   0.705   6.306   4.930
   37CHL1  H26C 3914   0.599   6.335   4.785
   37CHL1   C27 3915   0.762   6.564   4.705
   37CHL1  H27A 3916   0.814   6.661   4.719
   37CHL1  H27B 3917   0.825   6.509   4.631
   37CHL1  H27C 3918   0.660   6.580   4.665
   38CHL1    C3 3919   1.337   0.456   5.962
   38CHL1    H3 3920   1.365   0.369   5.899
   38CHL1    O3 3921   1.331   0.419   6.100
   38CHL1   H3' 3922   1.249   0.373   6.119
   38CHL1    C4 3923   1.452   0.563   5.936
   38CHL1   H4A 3924   1.440   0.648   6.006
   38CHL1   H4B 3925   1.547   0.512   5.964
   38CHL1    C5 3926   1.449   0.612   5.790
   38CHL1    C6 3927   1.555   0.619   5.712
   38CHL1    H6 3928   1.654   0.582   5.741
   38CHL1    C7 3929   1.555   0.678   5.573
   38CHL1   H7A 3930   1.644   0.740   5.548
   38CHL1   H7B 3931   1.574   0.591   5.506
   38CHL1    C8 3932   1.429   0.754   5.523
   38CHL1    H8 3933   1.438   0.857   5.562
   38CHL1   C14 3934   1.424   0.760   5.374
   38CHL1   H14 3935   1.431   0.654   5.342
   38CHL1   C15 3936   1.539   0.837   5.293
   38CHL1  H15A 3937   1.558   0.931   5.349
   38CHL1  H15B 3938   1.637   0.785   5.285
   38CHL1   C16 3939   1.477   0.849   5.157
   38CHL1  H16A 3940   1.499   0.953   5.127
   38CHL1  H16B 3941   1.534   0.778   5.093
   38CHL1   C17 3942   1.329   0.813   5.166
   38CHL1   H17 3943   1.329   0.703   5.146
   38CHL1   C13 3944   1.301   0.833   5.315
   38CHL1   C18 3945   1.287   0.981   5.359
   38CHL1  H18A 3946   1.364   1.048   5.314
   38CHL1  H18B 3947   1.188   1.011   5.319
   38CHL1  H18C 3948   1.284   0.987   5.470
   38CHL1   C12 3949   1.176   0.760   5.375
   38CHL1  H12A 3950   1.085   0.817   5.344
   38CHL1  H12B 3951   1.157   0.660   5.330
   38CHL1   C11 3952   1.177   0.744   5.536
   38CHL1  H11A 3953   1.170   0.849   5.573
   38CHL1  H11B 3954   1.085   0.688   5.561
   38CHL1    C9 3955   1.308   0.679   5.581
   38CHL1    H9 3956   1.312   0.575   5.542
   38CHL1   C10 3957   1.311   0.668   5.744
   38CHL1   C19 3958   1.273   0.798   5.803
   38CHL1  H19A 3959   1.328   0.890   5.773
   38CHL1  H19B 3960   1.169   0.823   5.771
   38CHL1  H19C 3961   1.279   0.800   5.914
   38CHL1    C1 3962   1.197   0.559   5.775
   38CHL1   H1A 3963   1.102   0.615   5.761
   38CHL1   H1B 3964   1.202   0.474   5.704
   38CHL1    C2 3965   1.202   0.507   5.922
   38CHL1   H2A 3966   1.122   0.432   5.938
   38CHL1   H2B 3967   1.176   0.599   5.980
   38CHL1   C20 3968   1.251   0.882   5.061
   38CHL1   H20 3969   1.257   0.992   5.075
   38CHL1   C21 3970   1.104   0.851   5.082
   38CHL1  H21A 3971   1.072   0.916   5.166
   38CHL1  H21B 3972   1.091   0.744   5.111
   38CHL1  H21C 3973   1.038   0.874   4.996
   38CHL1   C22 3974   1.292   0.860   4.909
   38CHL1  H22A 3975   1.202   0.906   4.862
   38CHL1  H22B 3976   1.381   0.920   4.879
   38CHL1   C23 3977   1.311   0.720   4.854
   38CHL1  H23A 3978   1.381   0.669   4.923
   38CHL1  H23B 3979   1.210   0.676   4.869
   38CHL1   C24 3980   1.356   0.709   4.697
   38CHL1  H24A 3981   1.461   0.742   4.686
   38CHL1  H24B 3982   1.351   0.602   4.667
   38CHL1   C25 3983   1.269   0.801   4.605
   38CHL1   H25 3984   1.282   0.907   4.638
   38CHL1   C26 3985   1.318   0.794   4.456
   38CHL1  H26A 3986   1.426   0.770   4.449
   38CHL1  H26B 3987   1.270   0.705   4.412
   38CHL1  H26C 3988   1.287   0.884   4.398
   38CHL1   C27 3989   1.121   0.756   4.606
   38CHL1  H27A 3990   1.070   0.759   4.704
   38CHL1  H27B 3991   1.066   0.810   4.526
   38CHL1  H27C 3992   1.120   0.652   4.569
   39CHL1    C3 3993   3.381   1.291   6.308
   39CHL1    H3 3994   3.450   1.206   6.287
   39CHL1    O3 3995   3.372   1.308   6.452
   39CHL1   H3' 3996   3.344   1.399   6.467
   39CHL1    C4 3997   3.441   1.410   6.242
   39CHL1   H4A 3998   3.389   1.501   6.279
   39CHL1   H4B 3999   3.541   1.421   6.288
   39CHL1    C5 4000   3.441   1.413   6.094
   39CHL1    C6 4001   3.554   1.436   6.030
   39CHL1    H6 4002   3.641   1.458   6.094
   39CHL1    C7 4003   3.564   1.446   5.885
   39CHL1   H7A 4004   3.630   1.533   5.862
   39CHL1   H7B 4005   3.617   1.356   5.847
   39CHL1    C8 4006   3.428   1.450   5.811
   39CHL1    H8 4007   3.390   1.554   5.817
   39CHL1   C14 4008   3.441   1.414   5.663
   39CHL1   H14 4009   3.482   1.311   5.655
   39CHL1   C15 4010   3.539   1.508   5.581
   39CHL1  H15A 4011   3.518   1.611   5.616
   39CHL1  H15B 4012   3.644   1.480   5.604
   39CHL1   C16 4013   3.496   1.485   5.437
   39CHL1  H16A 4014   3.489   1.587   5.393
   39CHL1  H16B 4015   3.580   1.434   5.385
   39CHL1   C17 4016   3.366   1.388   5.432
   39CHL1   H17 4017   3.410   1.287   5.417
   39CHL1   C13 4018   3.316   1.406   5.577
   39CHL1   C18 4019   3.236   1.529   5.585
   39CHL1  H18A 4020   3.141   1.526   5.528
   39CHL1  H18B 4021   3.213   1.562   5.689
   39CHL1  H18C 4022   3.294   1.618   5.556
   39CHL1   C12 4023   3.237   1.291   5.634
   39CHL1  H12A 4024   3.141   1.295   5.579
   39CHL1  H12B 4025   3.287   1.192   5.623
   39CHL1   C11 4026   3.207   1.313   5.786
   39CHL1  H11A 4027   3.135   1.397   5.793
   39CHL1  H11B 4028   3.158   1.224   5.830
   39CHL1    C9 4029   3.330   1.348   5.874
   39CHL1    H9 4030   3.395   1.258   5.877
   39CHL1   C10 4031   3.308   1.374   6.025
   39CHL1   C19 4032   3.216   1.493   6.045
   39CHL1  H19A 4033   3.241   1.581   5.981
   39CHL1  H19B 4034   3.108   1.475   6.026
   39CHL1  H19C 4035   3.231   1.545   6.142
   39CHL1    C1 4036   3.248   1.251   6.099
   39CHL1   H1A 4037   3.146   1.222   6.066
   39CHL1   H1B 4038   3.318   1.166   6.084
   39CHL1    C2 4039   3.242   1.255   6.251
   39CHL1   H2A 4040   3.198   1.162   6.291
   39CHL1   H2B 4041   3.175   1.337   6.287
   39CHL1   C20 4042   3.279   1.421   5.310
   39CHL1   H20 4043   3.220   1.515   5.319
   39CHL1   C21 4044   3.182   1.295   5.285
   39CHL1  H21A 4045   3.106   1.319   5.207
   39CHL1  H21B 4046   3.125   1.278   5.379
   39CHL1  H21C 4047   3.243   1.210   5.251
   39CHL1   C22 4048   3.367   1.439   5.182
   39CHL1  H22A 4049   3.437   1.526   5.179
   39CHL1  H22B 4050   3.437   1.354   5.168
   39CHL1   C23 4051   3.292   1.441   5.048
   39CHL1  H23A 4052   3.232   1.347   5.044
   39CHL1  H23B 4053   3.214   1.520   5.041
   39CHL1   C24 4054   3.383   1.457   4.931
   39CHL1  H24A 4055   3.464   1.529   4.958
   39CHL1  H24B 4056   3.435   1.361   4.911
   39CHL1   C25 4057   3.324   1.502   4.795
   39CHL1   H25 4058   3.282   1.605   4.803
   39CHL1   C26 4059   3.437   1.519   4.694
   39CHL1  H26A 4060   3.407   1.554   4.593
   39CHL1  H26B 4061   3.516   1.583   4.739
   39CHL1  H26C 4062   3.484   1.418   4.687
   39CHL1   C27 4063   3.218   1.406   4.737
   39CHL1  H27A 4064   3.188   1.442   4.636
   39CHL1  H27B 4065   3.273   1.310   4.724
   39CHL1  H27C 4066   3.125   1.391   4.795
   40CHL1    C3 4067   3.526   3.920   6.070
   40CHL1    H3 4068   3.417   3.941   6.073
   40CHL1    O3 4069   3.566   3.939   6.201
   40CHL1   H3' 4070   3.607   4.026   6.198
   40CHL1    C4 4071   3.554   3.776   6.015
   40CHL1   H4A 4072   3.657   3.739   6.035
   40CHL1   H4B 4073   3.489   3.699   6.062
   40CHL1    C5 4074   3.529   3.773   5.863
   40CHL1    C6 4075   3.445   3.683   5.805
   40CHL1    H6 4076   3.395   3.608   5.868
   40CHL1    C7 4077   3.418   3.679   5.651
   40CHL1   H7A 4078   3.426   3.573   5.619
   40CHL1   H7B 4079   3.311   3.700   5.633
   40CHL1    C8 4080   3.522   3.759   5.570
   40CHL1    H8 4081   3.618   3.704   5.571
   40CHL1   C14 4082   3.476   3.782   5.428
   40CHL1   H14 4083   3.384   3.842   5.418
   40CHL1   C15 4084   3.433   3.653   5.346
   40CHL1  H15A 4085   3.513   3.578   5.362
   40CHL1  H15B 4086   3.331   3.612   5.361
   40CHL1   C16 4087   3.441   3.701   5.203
   40CHL1  H16A 4088   3.496   3.630   5.138
   40CHL1  H16B 4089   3.337   3.700   5.165
   40CHL1   C17 4090   3.514   3.844   5.207
   40CHL1   H17 4091   3.434   3.921   5.207
   40CHL1   C13 4092   3.586   3.853   5.338
   40CHL1   C18 4093   3.715   3.775   5.331
   40CHL1  H18A 4094   3.787   3.815   5.256
   40CHL1  H18B 4095   3.763   3.778   5.431
   40CHL1  H18C 4096   3.691   3.668   5.311
   40CHL1   C12 4097   3.613   3.986   5.398
   40CHL1  H12A 4098   3.682   4.055   5.346
   40CHL1  H12B 4099   3.514   4.038   5.395
   40CHL1   C11 4100   3.644   3.987   5.545
   40CHL1  H11A 4101   3.742   3.936   5.556
   40CHL1  H11B 4102   3.644   4.091   5.583
   40CHL1    C9 4103   3.550   3.895   5.636
   40CHL1    H9 4104   3.453   3.949   5.639
   40CHL1   C10 4105   3.602   3.882   5.785
   40CHL1   C19 4106   3.756   3.859   5.801
   40CHL1  H19A 4107   3.807   3.945   5.752
   40CHL1  H19B 4108   3.779   3.876   5.908
   40CHL1  H19C 4109   3.785   3.759   5.762
   40CHL1    C1 4110   3.559   4.023   5.845
   40CHL1   H1A 4111   3.618   4.101   5.791
   40CHL1   H1B 4112   3.451   4.033   5.823
   40CHL1    C2 4113   3.590   4.031   5.993
   40CHL1   H2A 4114   3.559   4.132   6.026
   40CHL1   H2B 4115   3.698   4.021   6.016
   40CHL1   C20 4116   3.583   3.875   5.075
   40CHL1   H20 4117   3.673   3.812   5.059
   40CHL1   C21 4118   3.624   4.022   5.063
   40CHL1  H21A 4119   3.551   4.106   5.070
   40CHL1  H21B 4120   3.687   4.044   4.974
   40CHL1  H21C 4121   3.699   4.038   5.143
   40CHL1   C22 4122   3.494   3.856   4.948
   40CHL1  H22A 4123   3.408   3.788   4.963
   40CHL1  H22B 4124   3.444   3.954   4.933
   40CHL1   C23 4125   3.574   3.808   4.823
   40CHL1  H23A 4126   3.663   3.871   4.802
   40CHL1  H23B 4127   3.614   3.707   4.843
   40CHL1   C24 4128   3.483   3.806   4.695
   40CHL1  H24A 4129   3.433   3.905   4.693
   40CHL1  H24B 4130   3.546   3.801   4.603
   40CHL1   C25 4131   3.374   3.697   4.689
   40CHL1   H25 4132   3.346   3.703   4.796
   40CHL1   C26 4133   3.257   3.739   4.600
   40CHL1  H26A 4134   3.207   3.833   4.634
   40CHL1  H26B 4135   3.290   3.753   4.495
   40CHL1  H26C 4136   3.179   3.661   4.587
   40CHL1   C27 4137   3.441   3.562   4.649
   40CHL1  H27A 4138   3.369   3.481   4.674
   40CHL1  H27B 4139   3.471   3.551   4.543
   40CHL1  H27C 4140   3.538   3.548   4.703
   41CHL1    C3 4141   0.551   4.667   6.328
   41CHL1    H3 4142   0.524   4.569   6.283
   41CHL1    O3 4143   0.557   4.643   6.468
   41CHL1   H3' 4144   0.551   4.729   6.511
   41CHL1    C4 4145   0.689   4.704   6.288
   41CHL1   H4A 4146   0.714   4.790   6.354
   41CHL1   H4B 4147   0.752   4.618   6.320
   41CHL1    C5 4148   0.694   4.734   6.140
   41CHL1    C6 4149   0.780   4.670   6.060
   41CHL1    H6 4150   0.848   4.593   6.098
   41CHL1    C7 4151   0.811   4.722   5.922
   41CHL1   H7A 4152   0.922   4.718   5.909
   41CHL1   H7B 4153   0.767   4.650   5.850
   41CHL1    C8 4154   0.750   4.863   5.881
   41CHL1    H8 4155   0.815   4.939   5.929
   41CHL1   C14 4156   0.741   4.874   5.728
   41CHL1   H14 4157   0.678   4.789   5.694
   41CHL1   C15 4158   0.875   4.857   5.648
   41CHL1  H15A 4159   0.956   4.909   5.704
   41CHL1  H15B 4160   0.892   4.748   5.633
   41CHL1   C16 4161   0.851   4.926   5.514
   41CHL1  H16A 4162   0.932   4.997   5.484
   41CHL1  H16B 4163   0.837   4.848   5.437
   41CHL1   C17 4164   0.716   5.002   5.532
   41CHL1   H17 4165   0.635   4.936   5.492
   41CHL1   C13 4166   0.684   5.011   5.681
   41CHL1   C18 4167   0.774   5.127   5.745
   41CHL1  H18A 4168   0.879   5.123   5.708
   41CHL1  H18B 4169   0.731   5.228   5.725
   41CHL1  H18C 4170   0.779   5.120   5.856
   41CHL1   C12 4171   0.539   5.016   5.736
   41CHL1  H12A 4172   0.489   5.111   5.711
   41CHL1  H12B 4173   0.486   4.922   5.708
   41CHL1   C11 4174   0.539   5.001   5.890
   41CHL1  H11A 4175   0.588   5.094   5.928
   41CHL1  H11B 4176   0.437   4.987   5.931
   41CHL1    C9 4177   0.609   4.871   5.937
   41CHL1    H9 4178   0.559   4.781   5.895
   41CHL1   C10 4179   0.601   4.845   6.093
   41CHL1   C19 4180   0.647   4.980   6.156
   41CHL1  H19A 4181   0.593   5.068   6.117
   41CHL1  H19B 4182   0.632   4.982   6.266
   41CHL1  H19C 4183   0.754   4.996   6.131
   41CHL1    C1 4184   0.455   4.816   6.144
   41CHL1   H1A 4185   0.392   4.905   6.127
   41CHL1   H1B 4186   0.405   4.734   6.089
   41CHL1    C2 4187   0.453   4.784   6.294
   41CHL1   H2A 4188   0.350   4.758   6.326
   41CHL1   H2B 4189   0.487   4.871   6.355
   41CHL1   C20 4190   0.711   5.124   5.440
   41CHL1   H20 4191   0.800   5.187   5.459
   41CHL1   C21 4192   0.584   5.206   5.451
   41CHL1  H21A 4193   0.537   5.222   5.550
   41CHL1  H21B 4194   0.515   5.159   5.377
   41CHL1  H21C 4195   0.615   5.306   5.414
   41CHL1   C22 4196   0.714   5.087   5.291
   41CHL1  H22A 4197   0.806   5.025   5.287
   41CHL1  H22B 4198   0.627   5.022   5.263
   41CHL1   C23 4199   0.725   5.197   5.182
   41CHL1  H23A 4200   0.622   5.236   5.168
   41CHL1  H23B 4201   0.806   5.267   5.215
   41CHL1   C24 4202   0.756   5.148   5.046
   41CHL1  H24A 4203   0.788   5.239   4.990
   41CHL1  H24B 4204   0.843   5.079   5.046
   41CHL1   C25 4205   0.641   5.083   4.984
   41CHL1   H25 4206   0.588   5.019   5.058
   41CHL1   C26 4207   0.546   5.181   4.909
   41CHL1  H26A 4208   0.481   5.236   4.980
   41CHL1  H26B 4209   0.610   5.250   4.850
   41CHL1  H26C 4210   0.485   5.119   4.840
   41CHL1   C27 4211   0.693   4.984   4.868
   41CHL1  H27A 4212   0.614   4.965   4.792
   41CHL1  H27B 4213   0.775   5.037   4.815
   41CHL1  H27C 4214   0.743   4.890   4.896
   42CHL1    C3 4215   5.360   3.499   6.217
   42CHL1    H3 4216   5.258   3.543   6.206
   42CHL1    O3 4217   5.391   3.482   6.355
   42CHL1   H3' 4218   5.480   3.447   6.358
   42CHL1    C4 4219   5.370   3.354   6.148
   42CHL1   H4A 4220   5.465   3.305   6.177
   42CHL1   H4B 4221   5.287   3.291   6.187
   42CHL1    C5 4222   5.362   3.372   5.996
   42CHL1    C6 4223   5.268   3.302   5.932
   42CHL1    H6 4224   5.201   3.239   5.993
   42CHL1    C7 4225   5.259   3.289   5.781
   42CHL1   H7A 4226   5.234   3.184   5.757
   42CHL1   H7B 4227   5.172   3.350   5.750
   42CHL1    C8 4228   5.383   3.345   5.707
   42CHL1    H8 4229   5.461   3.266   5.722
   42CHL1   C14 4230   5.358   3.368   5.563
   42CHL1   H14 4231   5.272   3.437   5.548
   42CHL1   C15 4232   5.312   3.242   5.479
   42CHL1  H15A 4233   5.367   3.147   5.497
   42CHL1  H15B 4234   5.204   3.221   5.498
   42CHL1   C16 4235   5.325   3.300   5.340
   42CHL1  H16A 4236   5.396   3.241   5.277
   42CHL1  H16B 4237   5.229   3.296   5.285
   42CHL1   C17 4238   5.395   3.437   5.343
   42CHL1   H17 4239   5.324   3.522   5.347
   42CHL1   C13 4240   5.471   3.434   5.482
   42CHL1   C18 4241   5.596   3.341   5.481
   42CHL1  H18A 4242   5.625   3.320   5.586
   42CHL1  H18B 4243   5.583   3.250   5.420
   42CHL1  H18C 4244   5.676   3.392   5.423
   42CHL1   C12 4245   5.505   3.571   5.545
   42CHL1  H12A 4246   5.587   3.620   5.488
   42CHL1  H12B 4247   5.414   3.634   5.539
   42CHL1   C11 4248   5.542   3.558   5.696
   42CHL1  H11A 4249   5.637   3.500   5.701
   42CHL1  H11B 4250   5.551   3.663   5.729
   42CHL1    C9 4251   5.431   3.483   5.768
   42CHL1    H9 4252   5.340   3.546   5.757
   42CHL1   C10 4253   5.456   3.468   5.928
   42CHL1   C19 4254   5.606   3.417   5.939
   42CHL1  H19A 4255   5.621   3.388   6.045
   42CHL1  H19B 4256   5.629   3.329   5.876
   42CHL1  H19C 4257   5.681   3.497   5.920
   42CHL1    C1 4258   5.437   3.598   6.002
   42CHL1   H1A 4259   5.517   3.665   5.963
   42CHL1   H1B 4260   5.334   3.639   5.992
   42CHL1    C2 4261   5.459   3.586   6.153
   42CHL1   H2A 4262   5.462   3.685   6.204
   42CHL1   H2B 4263   5.563   3.553   6.173
   42CHL1   C20 4264   5.468   3.459   5.209
   42CHL1   H20 4265   5.552   3.386   5.208
   42CHL1   C21 4266   5.533   3.596   5.194
   42CHL1  H21A 4267   5.456   3.672   5.218
   42CHL1  H21B 4268   5.580   3.615   5.095
   42CHL1  H21C 4269   5.604   3.614   5.278
   42CHL1   C22 4270   5.377   3.436   5.081
   42CHL1  H22A 4271   5.424   3.471   4.987
   42CHL1  H22B 4272   5.362   3.326   5.072
   42CHL1   C23 4273   5.252   3.513   5.098
   42CHL1  H23A 4274   5.190   3.465   5.176
   42CHL1  H23B 4275   5.273   3.620   5.121
   42CHL1   C24 4276   5.179   3.537   4.966
   42CHL1  H24A 4277   5.083   3.592   4.968
   42CHL1  H24B 4278   5.246   3.603   4.908
   42CHL1   C25 4279   5.144   3.411   4.885
   42CHL1   H25 4280   5.233   3.346   4.882
   42CHL1   C26 4281   5.041   3.314   4.953
   42CHL1  H26A 4282   5.093   3.264   5.038
   42CHL1  H26B 4283   4.944   3.360   4.979
   42CHL1  H26C 4284   5.016   3.230   4.884
   42CHL1   C27 4285   5.102   3.454   4.747
   42CHL1  H27A 4286   5.084   3.363   4.686
   42CHL1  H27B 4287   5.012   3.519   4.749
   42CHL1  H27C 4288   5.187   3.507   4.699
   43CHL1    C3 4289   6.001   1.316   6.014
   43CHL1    H3 4290   5.899   1.360   6.016
   43CHL1    O3 4291   6.031   1.240   6.139
   43CHL1   H3' 4292   5.957   1.249   6.200
   43CHL1    C4 4293   6.012   1.213   5.910
   43CHL1   H4A 4294   6.111   1.163   5.914
   43CHL1   H4B 4295   5.939   1.134   5.938
   43CHL1    C5 4296   5.998   1.270   5.770
   43CHL1    C6 4297   5.895   1.227   5.695
   43CHL1    H6 4298   5.824   1.153   5.734
   43CHL1    C7 4299   5.876   1.293   5.558
   43CHL1   H7A 4300   5.856   1.209   5.489
   43CHL1   H7B 4301   5.785   1.357   5.553
   43CHL1    C8 4302   5.995   1.376   5.507
   43CHL1    H8 4303   6.064   1.296   5.471
   43CHL1   C14 4304   5.967   1.453   5.386
   43CHL1   H14 4305   5.895   1.535   5.410
   43CHL1   C15 4306   5.918   1.372   5.264
   43CHL1  H15A 4307   5.958   1.269   5.258
   43CHL1  H15B 4308   5.809   1.366   5.287
   43CHL1   C16 4309   5.943   1.458   5.138
   43CHL1  H16A 4310   5.996   1.399   5.060
   43CHL1  H16B 4311   5.848   1.493   5.093
   43CHL1   C17 4312   6.032   1.575   5.194
   43CHL1   H17 4313   5.958   1.645   5.240
   43CHL1   C13 4314   6.089   1.529   5.327
   43CHL1   C18 4315   6.203   1.429   5.293
   43CHL1  H18A 4316   6.283   1.492   5.249
   43CHL1  H18B 4317   6.250   1.392   5.387
   43CHL1  H18C 4318   6.173   1.338   5.237
   43CHL1   C12 4319   6.130   1.636   5.434
   43CHL1  H12A 4320   6.216   1.694   5.394
   43CHL1  H12B 4321   6.040   1.699   5.451
   43CHL1   C11 4322   6.166   1.567   5.561
   43CHL1  H11A 4323   6.264   1.518   5.547
   43CHL1  H11B 4324   6.166   1.645   5.641
   43CHL1    C9 4325   6.060   1.467   5.618
   43CHL1    H9 4326   5.976   1.530   5.653
   43CHL1   C10 4327   6.102   1.379   5.740
   43CHL1   C19 4328   6.237   1.322   5.717
   43CHL1  H19A 4329   6.233   1.264   5.622
   43CHL1  H19B 4330   6.307   1.408   5.705
   43CHL1  H19C 4331   6.255   1.251   5.800
   43CHL1    C1 4332   6.103   1.484   5.861
   43CHL1   H1A 4333   6.178   1.565   5.850
   43CHL1   H1B 4334   6.000   1.526   5.857
   43CHL1    C2 4335   6.107   1.420   6.002
   43CHL1   H2A 4336   6.096   1.500   6.079
   43CHL1   H2B 4337   6.207   1.372   6.009
   43CHL1   C20 4338   6.119   1.645   5.087
   43CHL1   H20 4339   6.185   1.562   5.054
   43CHL1   C21 4340   6.198   1.761   5.155
   43CHL1  H21A 4341   6.286   1.716   5.204
   43CHL1  H21B 4342   6.138   1.830   5.218
   43CHL1  H21C 4343   6.252   1.830   5.087
   43CHL1   C22 4344   6.047   1.699   4.956
   43CHL1  H22A 4345   5.995   1.620   4.898
   43CHL1  H22B 4346   5.970   1.767   4.999
   43CHL1   C23 4347   6.147   1.767   4.855
   43CHL1  H23A 4348   6.176   1.864   4.901
   43CHL1  H23B 4349   6.232   1.701   4.831
   43CHL1   C24 4350   6.074   1.792   4.725
   43CHL1  H24A 4351   6.038   1.697   4.680
   43CHL1  H24B 4352   5.979   1.847   4.741
   43CHL1   C25 4353   6.165   1.863   4.622
   43CHL1   H25 4354   6.255   1.798   4.610
   43CHL1   C26 4355   6.096   1.871   4.485
   43CHL1  H26A 4356   6.174   1.906   4.414
   43CHL1  H26B 4357   6.057   1.773   4.450
   43CHL1  H26C 4358   6.009   1.940   4.500
   43CHL1   C27 4359   6.195   2.007   4.654
   43CHL1  H27A 4360   6.272   2.064   4.599
   43CHL1  H27B 4361   6.099   2.062   4.645
   43CHL1  H27C 4362   6.233   2.014   4.758
   44CHL1    C3 4363   6.723   2.783   5.694
   44CHL1    H3 4364   6.620   2.805   5.659
   44CHL1    O3 4365   6.733   2.753   5.833
   44CHL1   H3' 4366   0.022   2.784   5.864
   44CHL1    C4 4367   6.775   2.670   5.601
   44CHL1   H4A 4368   0.086   2.651   5.626
   44CHL1   H4B 4369   6.731   2.570   5.621
   44CHL1    C5 4370   6.753   2.714   5.457
   44CHL1    C6 4371   6.693   2.630   5.372
   44CHL1    H6 4372   6.650   2.536   5.410
   44CHL1    C7 4373   6.694   2.657   5.223
   44CHL1   H7A 4374   6.719   2.557   5.181
   44CHL1   H7B 4375   6.587   2.678   5.203
   44CHL1    C8 4376   6.778   2.776   5.166
   44CHL1    H8 4377   0.086   2.740   5.153
   44CHL1   C14 4378   6.733   2.816   5.030
   44CHL1   H14 4379   6.631   2.852   5.054
   44CHL1   C15 4380   6.721   2.714   4.913
   44CHL1  H15A 4381   0.014   2.649   4.916
   44CHL1  H15B 4382   6.637   2.641   4.914
   44CHL1   C16 4383   6.730   2.797   4.788
   44CHL1  H16A 4384   0.012   2.747   4.728
   44CHL1  H16B 4385   6.632   2.796   4.734
   44CHL1   C17 4386   6.757   2.945   4.830
   44CHL1   H17 4387   6.657   2.992   4.845
   44CHL1   C13 4388   0.016   2.937   4.976
   44CHL1   C18 4389   0.168   2.901   4.963
   44CHL1  H18A 4390   0.216   2.881   5.061
   44CHL1  H18B 4391   0.174   2.805   4.908
   44CHL1  H18C 4392   0.212   2.984   4.905
   44CHL1   C12 4393   6.784   3.051   5.061
   44CHL1  H12A 4394   0.045   3.144   5.039
   44CHL1  H12B 4395   6.679   3.088   5.057
   44CHL1   C11 4396   0.022   3.022   5.211
   44CHL1  H11A 4397   0.133   3.016   5.214
   44CHL1  H11B 4398   6.786   3.110   5.272
   44CHL1    C9 4399   6.766   2.888   5.276
   44CHL1    H9 4400   6.657   2.905   5.275
   44CHL1   C10 4401   0.020   2.849   5.420
   44CHL1   C19 4402   0.178   2.836   5.433
   44CHL1  H19A 4403   0.213   2.829   5.538
   44CHL1  H19B 4404   0.218   2.755   5.369
   44CHL1  H19C 4405   0.225   2.929   5.395
   44CHL1    C1 4406   6.769   2.955   5.519
   44CHL1   H1A 4407   0.033   3.048   5.506
   44CHL1   H1B 4408   6.665   2.983   5.493
   44CHL1    C2 4409   6.789   2.921   5.669
   44CHL1   H2A 4410   6.738   2.998   5.731
   44CHL1   H2B 4411   0.101   2.920   5.695
   44CHL1   C20 4412   0.037   3.023   4.719
   44CHL1   H20 4413   0.134   2.973   4.696
   44CHL1   C21 4414   0.067   3.169   4.760
   44CHL1  H21A 4415   0.143   3.178   4.841
   44CHL1  H21B 4416   6.770   3.213   4.800
   44CHL1  H21C 4417   0.099   3.230   4.673
   44CHL1   C22 4418   6.748   3.018   4.586
   44CHL1  H22A 4419   0.025   3.057   4.512
   44CHL1  H22B 4420   6.734   2.911   4.561
   44CHL1   C23 4421   6.617   3.098   4.566
   44CHL1  H23A 4422   6.533   3.055   4.625
   44CHL1  H23B 4423   6.640   3.199   4.606
   44CHL1   C24 4424   6.577   3.096   4.413
   44CHL1  H24A 4425   6.656   3.138   4.347
   44CHL1  H24B 4426   6.551   2.989   4.397
   44CHL1   C25 4427   6.455   3.185   4.394
   44CHL1   H25 4428   6.377   3.155   4.468
   44CHL1   C26 4429   6.486   3.329   4.422
   44CHL1  H26A 4430   6.416   3.403   4.376
   44CHL1  H26B 4431   6.477   3.335   4.532
   44CHL1  H26C 4432   6.590   3.355   4.395
   44CHL1   C27 4433   6.399   3.183   4.251
   44CHL1  H27A 4434   6.306   3.244   4.249
   44CHL1  H27B 4435   6.469   3.229   4.177
   44CHL1  H27C 4436   6.371   3.082   4.216
   45CHL1    C3 4437   6.380   4.347   6.202
   45CHL1    H3 4438   6.309   4.432   6.189
   45CHL1    O3 4439   6.398   4.325   6.340
   45CHL1   H3' 4440   6.469   4.262   6.351
   45CHL1    C4 4441   6.323   4.232   6.124
   45CHL1   H4A 4442   6.390   4.144   6.130
   45CHL1   H4B 4443   6.228   4.198   6.171
   45CHL1    C5 4444   6.312   4.248   5.977
   45CHL1    C6 4445   6.194   4.231   5.913
   45CHL1    H6 4446   6.105   4.187   5.962
   45CHL1    C7 4447   6.172   4.250   5.770
   45CHL1   H7A 4448   6.131   4.159   5.721
   45CHL1   H7B 4449   6.103   4.335   5.755
   45CHL1    C8 4450   6.309   4.270   5.696
   45CHL1    H8 4451   6.361   4.172   5.684
   45CHL1   C14 4452   6.278   4.320   5.553
   45CHL1   H14 4453   6.236   4.421   5.571
   45CHL1   C15 4454   6.170   4.244   5.469
   45CHL1  H15A 4455   6.188   4.135   5.461
   45CHL1  H15B 4456   6.067   4.274   5.499
   45CHL1   C16 4457   6.204   4.297   5.320
   45CHL1  H16A 4458   6.219   4.204   5.262
   45CHL1  H16B 4459   6.117   4.355   5.282
   45CHL1   C17 4460   6.333   4.381   5.335
   45CHL1   H17 4461   6.290   4.482   5.351
   45CHL1   C13 4462   6.398   4.338   5.464
   45CHL1   C18 4463   6.480   4.208   5.426
   45CHL1  H18A 4464   6.568   4.237   5.365
   45CHL1  H18B 4465   6.513   4.177   5.528
   45CHL1  H18C 4466   6.411   4.130   5.389
   45CHL1   C12 4467   6.481   4.445   5.535
   45CHL1  H12A 4468   6.575   4.464   5.477
   45CHL1  H12B 4469   6.428   4.542   5.532
   45CHL1   C11 4470   6.529   4.401   5.672
   45CHL1  H11A 4471   6.588   4.308   5.658
   45CHL1  H11B 4472   6.597   4.482   5.708
   45CHL1    C9 4473   6.407   4.364   5.768
   45CHL1    H9 4474   6.358   4.463   5.780
   45CHL1   C10 4475   6.437   4.305   5.910
   45CHL1   C19 4476   6.538   4.188   5.907
   45CHL1  H19A 4477   6.572   4.147   6.004
   45CHL1  H19B 4478   6.491   4.108   5.847
   45CHL1  H19C 4479   6.636   4.223   5.866
   45CHL1    C1 4480   6.492   4.426   6.000
   45CHL1   H1A 4481   6.578   4.468   5.944
   45CHL1   H1B 4482   6.409   4.499   6.004
   45CHL1    C2 4483   6.518   4.389   6.148
   45CHL1   H2A 4484   6.558   4.472   6.209
   45CHL1   H2B 4485   6.585   4.301   6.151
   45CHL1   C20 4486   6.414   4.400   5.199
   45CHL1   H20 4487   6.519   4.428   5.217
   45CHL1   C21 4488   6.359   4.520   5.118
   45CHL1  H21A 4489   6.336   4.611   5.179
   45CHL1  H21B 4490   6.260   4.484   5.081
   45CHL1  H21C 4491   6.426   4.554   5.036
   45CHL1   C22 4492   6.421   4.280   5.100
   45CHL1  H22A 4493   6.448   4.193   5.163
   45CHL1  H22B 4494   6.320   4.267   5.053
   45CHL1   C23 4495   6.519   4.281   4.984
   45CHL1  H23A 4496   6.497   4.363   4.913
   45CHL1  H23B 4497   6.621   4.287   5.030
   45CHL1   C24 4498   6.536   4.145   4.905
   45CHL1  H24A 4499   6.569   4.068   4.979
   45CHL1  H24B 4500   6.435   4.129   4.863
   45CHL1   C25 4501   6.635   4.144   4.786
   45CHL1   H25 4502   6.721   4.205   4.821
   45CHL1   C26 4503   6.693   4.002   4.757
   45CHL1  H26A 4504   6.763   3.973   4.838
   45CHL1  H26B 4505   6.602   3.938   4.756
   45CHL1  H26C 4506   6.733   3.995   4.653
   45CHL1   C27 4507   6.573   4.217   4.662
   45CHL1  H27A 4508   6.516   4.311   4.682
   45CHL1  H27B 4509   6.653   4.238   4.588
   45CHL1  H27C 4510   6.503   4.154   4.602
   46CHL1    C3 4511   2.153   5.762   6.042
   46CHL1    H3 4512   2.259   5.738   6.019
   46CHL1    O3 4513   2.129   5.704   6.164
   46CHL1   H3' 4514   2.035   5.716   6.181
   46CHL1    C4 4515   2.139   5.921   6.043
   46CHL1   H4A 4516   2.038   5.953   6.077
   46CHL1   H4B 4517   2.223   5.956   6.107
   46CHL1    C5 4518   2.162   5.975   5.901
   46CHL1    C6 4519   2.249   6.075   5.866
   46CHL1    H6 4520   2.303   6.130   5.945
   46CHL1    C7 4521   2.270   6.123   5.727
   46CHL1   H7A 4522   2.273   6.234   5.724
   46CHL1   H7B 4523   2.372   6.083   5.705
   46CHL1    C8 4524   2.170   6.081   5.620
   46CHL1    H8 4525   2.074   6.133   5.640
   46CHL1   C14 4526   2.215   6.113   5.477
   46CHL1   H14 4527   2.310   6.057   5.464
   46CHL1   C15 4528   2.248   6.258   5.434
   46CHL1  H15A 4529   2.186   6.332   5.489
   46CHL1  H15B 4530   2.351   6.289   5.461
   46CHL1   C16 4531   2.232   6.268   5.286
   46CHL1  H16A 4532   2.160   6.346   5.253
   46CHL1  H16B 4533   2.331   6.284   5.238
   46CHL1   C17 4534   2.179   6.122   5.241
   46CHL1   H17 4535   2.273   6.065   5.223
   46CHL1   C13 4536   2.118   6.056   5.368
   46CHL1   C18 4537   1.978   6.120   5.385
   46CHL1  H18A 4538   1.932   6.097   5.483
   46CHL1  H18B 4539   1.991   6.230   5.380
   46CHL1  H18C 4540   1.904   6.094   5.307
   46CHL1   C12 4541   2.119   5.904   5.379
   46CHL1  H12A 4542   2.062   5.858   5.296
   46CHL1  H12B 4543   2.222   5.863   5.369
   46CHL1   C11 4544   2.077   5.862   5.519
   46CHL1  H11A 4545   1.969   5.885   5.534
   46CHL1  H11B 4546   2.104   5.754   5.516
   46CHL1    C9 4547   2.154   5.933   5.637
   46CHL1    H9 4548   2.259   5.896   5.629
   46CHL1   C10 4549   2.100   5.901   5.782
   46CHL1   C19 4550   1.950   5.946   5.790
   46CHL1  H19A 4551   1.933   6.051   5.758
   46CHL1  H19B 4552   1.897   5.875   5.722
   46CHL1  H19C 4553   1.906   5.924   5.890
   46CHL1    C1 4554   2.107   5.748   5.805
   46CHL1   H1A 4555   2.036   5.700   5.734
   46CHL1   H1B 4556   2.202   5.719   5.755
   46CHL1    C2 4557   2.067   5.692   5.940
   46CHL1   H2A 4558   2.090   5.584   5.942
   46CHL1   H2B 4559   1.960   5.702   5.970
   46CHL1   C20 4560   2.097   6.113   5.114
   46CHL1   H20 4561   2.038   6.020   5.107
   46CHL1   C21 4562   2.202   6.100   5.000
   46CHL1  H21A 4563   2.262   6.193   4.995
   46CHL1  H21B 4564   2.156   6.090   4.899
   46CHL1  H21C 4565   2.265   6.009   5.012
   46CHL1   C22 4566   1.998   6.231   5.081
   46CHL1  H22A 4567   1.931   6.252   5.167
   46CHL1  H22B 4568   2.065   6.319   5.067
   46CHL1   C23 4569   1.898   6.227   4.959
   46CHL1  H23A 4570   1.856   6.328   4.938
   46CHL1  H23B 4571   1.952   6.187   4.870
   46CHL1   C24 4572   1.777   6.144   4.968
   46CHL1  H24A 4573   1.800   6.037   4.987
   46CHL1  H24B 4574   1.727   6.180   5.060
   46CHL1   C25 4575   1.666   6.168   4.855
   46CHL1   H25 4576   1.648   6.277   4.859
   46CHL1   C26 4577   1.722   6.124   4.716
   46CHL1  H26A 4578   1.769   6.023   4.718
   46CHL1  H26B 4579   1.648   6.140   4.634
   46CHL1  H26C 4580   1.808   6.190   4.690
   46CHL1   C27 4581   1.536   6.091   4.894
   46CHL1  H27A 4582   1.547   5.981   4.884
   46CHL1  H27B 4583   1.513   6.117   4.999
   46CHL1  H27C 4584   1.444   6.116   4.837
   47CHL1    C3 4585   3.608   4.590   6.171
   47CHL1    H3 4586   3.551   4.504   6.130
   47CHL1    O3 4587   3.584   4.595   6.312
   47CHL1   H3' 4588   3.665   4.629   6.351
   47CHL1    C4 4589   3.756   4.542   6.136
   47CHL1   H4A 4590   3.817   4.629   6.170
   47CHL1   H4B 4591   3.788   4.448   6.186
   47CHL1    C5 4592   3.757   4.532   5.982
   47CHL1    C6 4593   3.791   4.418   5.923
   47CHL1    H6 4594   3.825   4.337   5.989
   47CHL1    C7 4595   3.803   4.394   5.782
   47CHL1   H7A 4596   3.898   4.342   5.756
   47CHL1   H7B 4597   3.733   4.321   5.737
   47CHL1    C8 4598   3.801   4.525   5.701
   47CHL1    H8 4599   3.892   4.584   5.723
   47CHL1   C14 4600   3.776   4.498   5.554
   47CHL1   H14 4601   3.679   4.445   5.539
   47CHL1   C15 4602   3.873   4.399   5.488
   47CHL1  H15A 4603   3.978   4.403   5.525
   47CHL1  H15B 4604   3.839   4.294   5.497
   47CHL1   C16 4605   3.873   4.450   5.343
   47CHL1  H16A 4606   3.970   4.496   5.316
   47CHL1  H16B 4607   3.854   4.375   5.262
   47CHL1   C17 4608   3.761   4.557   5.334
   47CHL1   H17 4609   3.670   4.494   5.327
   47CHL1   C13 4610   3.759   4.623   5.474
   47CHL1   C18 4611   3.883   4.712   5.484
   47CHL1  H18A 4612   3.887   4.818   5.449
   47CHL1  H18B 4613   3.915   4.730   5.589
   47CHL1  H18C 4614   3.969   4.663   5.433
   47CHL1   C12 4615   3.636   4.696   5.517
   47CHL1  H12A 4616   3.612   4.778   5.447
   47CHL1  H12B 4617   3.549   4.628   5.508
   47CHL1   C11 4618   3.641   4.738   5.663
   47CHL1  H11A 4619   3.717   4.818   5.672
   47CHL1  H11B 4620   3.550   4.796   5.691
   47CHL1    C9 4621   3.679   4.615   5.750
   47CHL1    H9 4622   3.591   4.547   5.742
   47CHL1   C10 4623   3.702   4.653   5.901
   47CHL1   C19 4624   3.816   4.759   5.911
   47CHL1  H19A 4625   3.917   4.722   5.882
   47CHL1  H19B 4626   3.789   4.847   5.849
   47CHL1  H19C 4627   3.830   4.796   6.015
   47CHL1    C1 4628   3.573   4.713   5.950
   47CHL1   H1A 4629   3.544   4.808   5.901
   47CHL1   H1B 4630   3.504   4.634   5.913
   47CHL1    C2 4631   3.569   4.718   6.101
   47CHL1   H2A 4632   3.462   4.717   6.133
   47CHL1   H2B 4633   3.618   4.809   6.140
   47CHL1   C20 4634   3.771   4.641   5.215
   47CHL1   H20 4635   3.835   4.731   5.234
   47CHL1   C21 4636   3.625   4.682   5.183
   47CHL1  H21A 4637   3.571   4.717   5.273
   47CHL1  H21B 4638   3.569   4.603   5.131
   47CHL1  H21C 4639   3.627   4.761   5.105
   47CHL1   C22 4640   3.834   4.566   5.093
   47CHL1  H22A 4641   3.934   4.527   5.121
   47CHL1  H22B 4642   3.777   4.478   5.058
   47CHL1   C23 4643   3.858   4.652   4.973
   47CHL1  H23A 4644   3.761   4.692   4.935
   47CHL1  H23B 4645   3.930   4.729   5.005
   47CHL1   C24 4646   3.927   4.559   4.874
   47CHL1  H24A 4647   4.021   4.518   4.915
   47CHL1  H24B 4648   3.856   4.476   4.854
   47CHL1   C25 4649   3.968   4.629   4.738
   47CHL1   H25 4650   4.026   4.556   4.679
   47CHL1   C26 4651   3.853   4.678   4.656
   47CHL1  H26A 4652   3.810   4.766   4.709
   47CHL1  H26B 4653   3.893   4.692   4.553
   47CHL1  H26C 4654   3.779   4.596   4.649
   47CHL1   C27 4655   4.062   4.748   4.773
   47CHL1  H27A 4656   4.137   4.715   4.849
   47CHL1  H27B 4657   4.110   4.806   4.692
   47CHL1  H27C 4658   3.994   4.821   4.822
   48CHL1    C3 4659   0.941   5.567   6.403
   48CHL1    H3 4660   1.004   5.658   6.395
   48CHL1    O3 4661   0.924   5.522   6.536
   48CHL1   H3' 4662   0.913   5.429   6.516
   48CHL1    C4 4663   0.809   5.582   6.316
   48CHL1   H4A 4664   0.748   5.491   6.335
   48CHL1   H4B 4665   0.748   5.665   6.359
   48CHL1    C5 4666   0.836   5.610   6.166
   48CHL1    C6 4667   0.789   5.726   6.107
   48CHL1    H6 4668   0.725   5.800   6.158
   48CHL1    C7 4669   0.803   5.751   5.962
   48CHL1   H7A 4670   0.707   5.792   5.927
   48CHL1   H7B 4671   0.872   5.836   5.942
   48CHL1    C8 4672   0.858   5.627   5.882
   48CHL1    H8 4673   0.775   5.554   5.873
   48CHL1   C14 4674   0.917   5.663   5.745
   48CHL1   H14 4675   0.997   5.740   5.746
   48CHL1   C15 4676   0.821   5.745   5.653
   48CHL1  H15A 4677   0.724   5.692   5.666
   48CHL1  H15B 4678   0.813   5.855   5.671
   48CHL1   C16 4679   0.873   5.723   5.507
   48CHL1  H16A 4680   0.789   5.672   5.456
   48CHL1  H16B 4681   0.899   5.817   5.455
   48CHL1   C17 4682   0.991   5.622   5.520
   48CHL1   H17 4683   1.086   5.679   5.534
   48CHL1   C13 4684   0.973   5.550   5.659
   48CHL1   C18 4685   0.859   5.442   5.642
   48CHL1  H18A 4686   0.891   5.347   5.596
   48CHL1  H18B 4687   0.835   5.408   5.745
   48CHL1  H18C 4688   0.764   5.487   5.605
   48CHL1   C12 4689   1.094   5.503   5.735
   48CHL1  H12A 4690   1.141   5.413   5.690
   48CHL1  H12B 4691   1.173   5.582   5.729
   48CHL1   C11 4692   1.064   5.467   5.880
   48CHL1  H11A 4693   1.013   5.370   5.866
   48CHL1  H11B 4694   1.157   5.441   5.934
   48CHL1    C9 4695   0.975   5.573   5.958
   48CHL1    H9 4696   1.039   5.662   5.979
   48CHL1   C10 4697   0.935   5.514   6.097
   48CHL1   C19 4698   0.870   5.376   6.088
   48CHL1  H19A 4699   0.775   5.372   6.030
   48CHL1  H19B 4700   0.940   5.303   6.043
   48CHL1  H19C 4701   0.845   5.338   6.190
   48CHL1    C1 4702   1.055   5.497   6.186
   48CHL1   H1A 4703   1.126   5.417   6.156
   48CHL1   H1B 4704   1.107   5.595   6.184
   48CHL1    C2 4705   1.025   5.462   6.331
   48CHL1   H2A 4706   1.121   5.456   6.385
   48CHL1   H2B 4707   0.980   5.361   6.343
   48CHL1   C20 4708   1.004   5.537   5.393
   48CHL1   H20 4709   0.913   5.474   5.384
   48CHL1   C21 4710   1.121   5.438   5.411
   48CHL1  H21A 4711   1.142   5.391   5.313
   48CHL1  H21B 4712   1.206   5.499   5.448
   48CHL1  H21C 4713   1.093   5.355   5.479
   48CHL1   C22 4714   1.004   5.619   5.259
   48CHL1  H22A 4715   0.902   5.660   5.244
   48CHL1  H22B 4716   1.079   5.700   5.258
   48CHL1   C23 4717   1.016   5.548   5.124
   48CHL1  H23A 4718   1.104   5.481   5.134
   48CHL1  H23B 4719   0.925   5.486   5.111
   48CHL1   C24 4720   1.046   5.646   5.013
   48CHL1  H24A 4721   0.975   5.731   5.017
   48CHL1  H24B 4722   1.150   5.680   5.030
   48CHL1   C25 4723   1.032   5.569   4.881
   48CHL1   H25 4724   0.924   5.546   4.867
   48CHL1   C26 4725   1.074   5.675   4.775
   48CHL1  H26A 4726   1.054   5.643   4.671
   48CHL1  H26B 4727   1.027   5.775   4.791
   48CHL1  H26C 4728   1.184   5.688   4.775
   48CHL1   C27 4729   1.120   5.444   4.857
   48CHL1  H27A 4730   1.122   5.427   4.747
   48CHL1  H27B 4731   1.219   5.450   4.906
   48CHL1  H27C 4732   1.069   5.360   4.909
   49CHL1    C3 4733   4.047   4.163   2.731
   49CHL1    H3 4734   3.946   4.186   2.772
   49CHL1    O3 4735   4.048   4.175   2.588
   49CHL1   H3' 4736   4.139   4.167   2.558
   49CHL1    C4 4737   4.151   4.266   2.788
   49CHL1   H4A 4738   4.231   4.277   2.712
   49CHL1   H4B 4739   4.090   4.358   2.775
   49CHL1    C5 4740   4.206   4.244   2.924
   49CHL1    C6 4741   4.215   4.350   3.003
   49CHL1    H6 4742   4.178   4.444   2.960
   49CHL1    C7 4743   4.246   4.350   3.157
   49CHL1   H7A 4744   4.301   4.439   3.194
   49CHL1   H7B 4745   4.146   4.346   3.206
   49CHL1    C8 4746   4.313   4.213   3.195
   49CHL1    H8 4747   4.415   4.202   3.151
   49CHL1   C14 4748   4.311   4.205   3.346
   49CHL1   H14 4749   4.202   4.209   3.371
   49CHL1   C15 4750   4.366   4.314   3.436
   49CHL1  H15A 4751   4.468   4.349   3.407
   49CHL1  H15B 4752   4.300   4.403   3.429
   49CHL1   C16 4753   4.368   4.258   3.576
   49CHL1  H16A 4754   4.462   4.280   3.630
   49CHL1  H16B 4755   4.281   4.295   3.634
   49CHL1   C17 4756   4.351   4.100   3.556
   49CHL1   H17 4757   4.245   4.080   3.584
   49CHL1   C13 4758   4.364   4.072   3.404
   49CHL1   C18 4759   4.514   4.044   3.370
   49CHL1  H18A 4760   4.528   4.043   3.260
   49CHL1  H18B 4761   4.584   4.123   3.404
   49CHL1  H18C 4762   4.545   3.943   3.404
   49CHL1   C12 4763   4.282   3.957   3.336
   49CHL1  H12A 4764   4.318   3.859   3.374
   49CHL1  H12B 4765   4.174   3.973   3.358
   49CHL1   C11 4766   4.282   3.955   3.181
   49CHL1  H11A 4767   4.388   3.935   3.156
   49CHL1  H11B 4768   4.215   3.875   3.145
   49CHL1    C9 4769   4.236   4.096   3.126
   49CHL1    H9 4770   4.129   4.104   3.155
   49CHL1   C10 4771   4.228   4.107   2.970
   49CHL1   C19 4772   4.364   4.066   2.915
   49CHL1  H19A 4773   4.380   4.081   2.806
   49CHL1  H19B 4774   4.450   4.116   2.964
   49CHL1  H19C 4775   4.386   3.959   2.934
   49CHL1    C1 4776   4.115   4.013   2.919
   49CHL1   H1A 4777   4.139   3.911   2.956
   49CHL1   H1B 4778   4.022   4.038   2.975
   49CHL1    C2 4779   4.095   4.026   2.769
   49CHL1   H2A 4780   4.031   3.941   2.740
   49CHL1   H2B 4781   4.194   4.012   2.720
   49CHL1   C20 4782   4.436   4.025   3.657
   49CHL1   H20 4783   4.543   4.050   3.648
   49CHL1   C21 4784   4.406   3.875   3.640
   49CHL1  H21A 4785   4.466   3.808   3.704
   49CHL1  H21B 4786   4.397   3.829   3.539
   49CHL1  H21C 4787   4.299   3.870   3.671
   49CHL1   C22 4788   4.399   4.069   3.798
   49CHL1  H22A 4789   4.371   4.175   3.816
   49CHL1  H22B 4790   4.304   4.014   3.815
   49CHL1   C23 4791   4.512   4.019   3.898
   49CHL1  H23A 4792   4.541   3.914   3.877
   49CHL1  H23B 4793   4.599   4.084   3.873
   49CHL1   C24 4794   4.464   4.029   4.043
   49CHL1  H24A 4795   4.430   4.135   4.044
   49CHL1  H24B 4796   4.378   3.959   4.033
   49CHL1   C25 4797   4.565   3.993   4.153
   49CHL1   H25 4798   4.659   4.043   4.123
   49CHL1   C26 4799   4.535   4.037   4.298
   49CHL1  H26A 4800   4.436   3.999   4.331
   49CHL1  H26B 4801   4.622   4.000   4.357
   49CHL1  H26C 4802   4.546   4.147   4.303
   49CHL1   C27 4803   4.583   3.845   4.152
   49CHL1  H27A 4804   4.616   3.802   4.055
   49CHL1  H27B 4805   4.665   3.815   4.220
   49CHL1  H27C 4806   4.494   3.784   4.176
   50CHL1    C3 4807   3.700   1.342   2.703
   50CHL1    H3 4808   3.677   1.442   2.746
   50CHL1    O3 4809   3.717   1.359   2.560
   50CHL1   H3' 4810   3.717   1.453   2.544
   50CHL1    C4 4811   3.824   1.288   2.767
   50CHL1   H4A 4812   3.858   1.208   2.697
   50CHL1   H4B 4813   3.913   1.354   2.755
   50CHL1    C5 4814   3.821   1.250   2.914
   50CHL1    C6 4815   3.913   1.289   3.007
   50CHL1    H6 4816   4.006   1.345   2.988
   50CHL1    C7 4817   3.916   1.235   3.150
   50CHL1   H7A 4818   4.020   1.206   3.175
   50CHL1   H7B 4819   3.899   1.319   3.220
   50CHL1    C8 4820   3.810   1.127   3.180
   50CHL1    H8 4821   3.843   1.029   3.138
   50CHL1   C14 4822   3.789   1.127   3.329
   50CHL1   H14 4823   3.746   1.228   3.347
   50CHL1   C15 4824   3.909   1.110   3.433
   50CHL1  H15A 4825   3.981   1.032   3.400
   50CHL1  H15B 4826   3.973   1.199   3.452
   50CHL1   C16 4827   3.846   1.059   3.567
   50CHL1  H16A 4828   3.901   0.966   3.595
   50CHL1  H16B 4829   3.862   1.142   3.639
   50CHL1   C17 4830   3.696   1.043   3.530
   50CHL1   H17 4831   3.649   1.142   3.547
   50CHL1   C13 4832   3.694   1.019   3.375
   50CHL1   C18 4833   3.754   0.884   3.338
   50CHL1  H18A 4834   3.687   0.804   3.376
   50CHL1  H18B 4835   3.759   0.877   3.228
   50CHL1  H18C 4836   3.859   0.864   3.369
   50CHL1   C12 4837   3.564   1.036   3.302
   50CHL1  H12A 4838   3.498   0.947   3.301
   50CHL1  H12B 4839   3.514   1.123   3.348
   50CHL1   C11 4840   3.572   1.054   3.148
   50CHL1  H11A 4841   3.596   0.957   3.098
   50CHL1  H11B 4842   3.478   1.098   3.108
   50CHL1    C9 4843   3.683   1.150   3.107
   50CHL1    H9 4844   3.644   1.252   3.128
   50CHL1   C10 4845   3.704   1.157   2.951
   50CHL1   C19 4846   3.738   1.019   2.891
   50CHL1  H19A 4847   3.643   0.963   2.882
   50CHL1  H19B 4848   3.770   1.028   2.785
   50CHL1  H19C 4849   3.819   0.958   2.938
   50CHL1    C1 4850   3.570   1.218   2.891
   50CHL1   H1A 4851   3.490   1.144   2.915
   50CHL1   H1B 4852   3.560   1.305   2.959
   50CHL1    C2 4853   3.580   1.254   2.739
   50CHL1   H2A 4854   3.483   1.307   2.732
   50CHL1   H2B 4855   3.582   1.152   2.694
   50CHL1   C20 4856   3.631   0.939   3.625
   50CHL1   H20 4857   3.675   0.839   3.608
   50CHL1   C21 4858   3.473   0.929   3.595
   50CHL1  H21A 4859   3.442   0.861   3.676
   50CHL1  H21B 4860   3.467   0.887   3.492
   50CHL1  H21C 4861   3.417   1.025   3.608
   50CHL1   C22 4862   3.655   0.969   3.780
   50CHL1  H22A 4863   3.595   0.896   3.838
   50CHL1  H22B 4864   3.762   0.959   3.810
   50CHL1   C23 4865   3.610   1.109   3.840
   50CHL1  H23A 4866   3.659   1.194   3.789
   50CHL1  H23B 4867   3.504   1.121   3.809
   50CHL1   C24 4868   3.623   1.127   3.993
   50CHL1  H24A 4869   3.568   1.220   4.018
   50CHL1  H24B 4870   3.567   1.049   4.048
   50CHL1   C25 4871   3.770   1.144   4.044
   50CHL1   H25 4872   3.825   1.048   4.038
   50CHL1   C26 4873   3.848   1.256   3.975
   50CHL1  H26A 4874   3.805   1.358   3.976
   50CHL1  H26B 4875   3.936   1.270   4.042
   50CHL1  H26C 4876   3.894   1.221   3.879
   50CHL1   C27 4877   3.761   1.170   4.195
   50CHL1  H27A 4878   3.723   1.273   4.211
   50CHL1  H27B 4879   3.700   1.086   4.234
   50CHL1  H27C 4880   3.867   1.183   4.227
   51CHL1    C3 4881   3.918   2.520   3.059
   51CHL1    H3 4882   3.910   2.618   3.111
   51CHL1    O3 4883   3.956   2.557   2.927
   51CHL1   H3' 4884   4.051   2.562   2.938
   51CHL1    C4 4885   4.020   2.425   3.115
   51CHL1   H4A 4886   4.036   2.343   3.042
   51CHL1   H4B 4887   4.120   2.475   3.116
   51CHL1    C5 4888   3.970   2.383   3.255
   51CHL1    C6 4889   4.047   2.407   3.361
   51CHL1    H6 4890   4.146   2.453   3.354
   51CHL1    C7 4891   4.008   2.371   3.502
   51CHL1   H7A 4892   4.098   2.340   3.558
   51CHL1   H7B 4893   3.978   2.468   3.548
   51CHL1    C8 4894   3.898   2.265   3.509
   51CHL1    H8 4895   3.937   2.169   3.469
   51CHL1   C14 4896   3.838   2.257   3.644
   51CHL1   H14 4897   3.805   2.361   3.665
   51CHL1   C15 4898   3.929   2.236   3.769
   51CHL1  H15A 4899   3.982   2.142   3.743
   51CHL1  H15B 4900   3.999   2.321   3.779
   51CHL1   C16 4901   3.834   2.210   3.886
   51CHL1  H16A 4902   3.869   2.113   3.930
   51CHL1  H16B 4903   3.827   2.281   3.971
   51CHL1   C17 4904   3.694   2.180   3.819
   51CHL1   H17 4905   3.642   2.277   3.827
   51CHL1   C13 4906   3.722   2.164   3.664
   51CHL1   C18 4907   3.763   2.019   3.647
   51CHL1  H18A 4908   3.675   1.955   3.626
   51CHL1  H18B 4909   3.829   1.998   3.559
   51CHL1  H18C 4910   3.813   1.973   3.735
   51CHL1   C12 4911   3.612   2.209   3.572
   51CHL1  H12A 4912   3.528   2.137   3.586
   51CHL1  H12B 4913   3.581   2.310   3.605
   51CHL1   C11 4914   3.658   2.202   3.420
   51CHL1  H11A 4915   3.681   2.097   3.390
   51CHL1  H11B 4916   3.579   2.244   3.355
   51CHL1    C9 4917   3.784   2.294   3.405
   51CHL1    H9 4918   3.749   2.395   3.434
   51CHL1   C10 4919   3.837   2.306   3.253
   51CHL1   C19 4920   3.860   2.164   3.199
   51CHL1  H19A 4921   3.764   2.109   3.191
   51CHL1  H19B 4922   3.905   2.169   3.097
   51CHL1  H19C 4923   3.927   2.111   3.269
   51CHL1    C1 4924   3.731   2.385   3.169
   51CHL1   H1A 4925   3.643   2.323   3.144
   51CHL1   H1B 4926   3.702   2.469   3.237
   51CHL1    C2 4927   3.783   2.452   3.041
   51CHL1   H2A 4928   3.710   2.521   2.995
   51CHL1   H2B 4929   3.800   2.366   2.972
   51CHL1   C20 4930   3.615   2.074   3.899
   51CHL1   H20 4931   3.672   1.979   3.903
   51CHL1   C21 4932   3.486   2.045   3.833
   51CHL1  H21A 4933   3.430   2.140   3.819
   51CHL1  H21B 4934   3.427   1.980   3.901
   51CHL1  H21C 4935   3.506   1.990   3.739
   51CHL1   C22 4936   3.598   2.116   4.049
   51CHL1  H22A 4937   3.696   2.149   4.090
   51CHL1  H22B 4938   3.522   2.196   4.053
   51CHL1   C23 4939   3.561   2.006   4.143
   51CHL1  H23A 4940   3.479   1.944   4.101
   51CHL1  H23B 4941   3.644   1.932   4.145
   51CHL1   C24 4942   3.525   2.046   4.286
   51CHL1  H24A 4943   3.601   2.121   4.316
   51CHL1  H24B 4944   3.425   2.094   4.276
   51CHL1   C25 4945   3.504   1.937   4.394
   51CHL1   H25 4946   3.595   1.873   4.396
   51CHL1   C26 4947   3.482   2.006   4.532
   51CHL1  H26A 4948   3.565   2.070   4.570
   51CHL1  H26B 4949   3.391   2.067   4.522
   51CHL1  H26C 4950   3.467   1.923   4.605
   51CHL1   C27 4951   3.370   1.854   4.359
   51CHL1  H27A 4952   3.368   1.840   4.249
   51CHL1  H27B 4953   3.376   1.755   4.409
   51CHL1  H27C 4954   3.278   1.910   4.385
   52CHL1    C3 4955   3.095   3.831   2.786
   52CHL1    H3 4956   2.990   3.833   2.821
   52CHL1    O3 4957   3.087   3.840   2.645
   52CHL1   H3' 4958   3.180   3.849   2.621
   52CHL1    C4 4959   3.169   3.956   2.842
   52CHL1   H4A 4960   3.266   3.960   2.789
   52CHL1   H4B 4961   3.116   4.050   2.814
   52CHL1    C5 4962   3.190   3.953   2.992
   52CHL1    C6 4963   3.163   4.063   3.069
   52CHL1    H6 4964   3.130   4.156   3.021
   52CHL1    C7 4965   3.207   4.062   3.217
   52CHL1   H7A 4966   3.266   4.155   3.232
   52CHL1   H7B 4967   3.117   4.076   3.282
   52CHL1    C8 4968   3.303   3.944   3.251
   52CHL1    H8 4969   3.410   3.963   3.227
   52CHL1   C14 4970   3.322   3.941   3.405
   52CHL1   H14 4971   3.214   3.934   3.430
   52CHL1   C15 4972   3.365   4.066   3.486
   52CHL1  H15A 4973   3.440   4.127   3.431
   52CHL1  H15B 4974   3.276   4.127   3.513
   52CHL1   C16 4975   3.419   4.016   3.617
   52CHL1  H16A 4976   3.527   4.039   3.627
   52CHL1  H16B 4977   3.365   4.059   3.704
   52CHL1   C17 4978   3.392   3.861   3.616
   52CHL1   H17 4979   3.286   3.847   3.646
   52CHL1   C13 4980   3.404   3.824   3.469
   52CHL1   C18 4981   3.558   3.824   3.426
   52CHL1  H18A 4982   3.616   3.907   3.473
   52CHL1  H18B 4983   3.598   3.724   3.452
   52CHL1  H18C 4984   3.554   3.823   3.315
   52CHL1   C12 4985   3.340   3.693   3.415
   52CHL1  H12A 4986   3.396   3.601   3.441
   52CHL1  H12B 4987   3.235   3.687   3.451
   52CHL1   C11 4988   3.320   3.693   3.262
   52CHL1  H11A 4989   3.421   3.678   3.218
   52CHL1  H11B 4990   3.255   3.608   3.234
   52CHL1    C9 4991   3.249   3.814   3.198
   52CHL1    H9 4992   3.144   3.815   3.234
   52CHL1   C10 4993   3.246   3.818   3.045
   52CHL1   C19 4994   3.395   3.802   3.000
   52CHL1  H19A 4995   3.470   3.836   3.075
   52CHL1  H19B 4996   3.414   3.693   2.988
   52CHL1  H19C 4997   3.414   3.858   2.906
   52CHL1    C1 4998   3.174   3.695   2.985
   52CHL1   H1A 4999   3.214   3.599   3.024
   52CHL1   H1B 5000   3.069   3.712   3.016
   52CHL1    C2 5001   3.165   3.701   2.831
   52CHL1   H2A 5002   3.095   3.624   2.792
   52CHL1   H2B 5003   3.260   3.676   2.778
   52CHL1   C20 5004   3.469   3.773   3.720
   52CHL1   H20 5005   3.559   3.731   3.670
   52CHL1   C21 5006   3.379   3.656   3.759
   52CHL1  H21A 5007   3.426   3.587   3.832
   52CHL1  H21B 5008   3.332   3.601   3.675
   52CHL1  H21C 5009   3.296   3.693   3.824
   52CHL1   C22 5010   3.505   3.859   3.837
   52CHL1  H22A 5011   3.582   3.933   3.809
   52CHL1  H22B 5012   3.412   3.905   3.879
   52CHL1   C23 5013   3.559   3.792   3.970
   52CHL1  H23A 5014   3.467   3.744   4.009
   52CHL1  H23B 5015   3.628   3.709   3.946
   52CHL1   C24 5016   3.623   3.891   4.067
   52CHL1  H24A 5017   3.723   3.911   4.023
   52CHL1  H24B 5018   3.553   3.977   4.073
   52CHL1   C25 5019   3.637   3.833   4.215
   52CHL1   H25 5020   3.682   3.918   4.271
   52CHL1   C26 5021   3.504   3.797   4.288
   52CHL1  H26A 5022   3.528   3.745   4.384
   52CHL1  H26B 5023   3.458   3.897   4.306
   52CHL1  H26C 5024   3.434   3.733   4.232
   52CHL1   C27 5025   3.745   3.723   4.216
   52CHL1  H27A 5026   3.725   3.650   4.134
   52CHL1  H27B 5027   3.836   3.773   4.177
   52CHL1  H27C 5028   3.769   3.674   4.313
   53CHL1    C3 5029   3.413   2.932   2.993
   53CHL1    H3 5030   3.467   3.029   2.995
   53CHL1    O3 5031   3.377   2.908   2.858
   53CHL1   H3' 5032   3.433   2.833   2.838
   53CHL1    C4 5033   3.510   2.815   3.013
   53CHL1   H4A 5034   3.460   2.718   2.996
   53CHL1   H4B 5035   3.591   2.826   2.938
   53CHL1    C5 5036   3.564   2.824   3.157
   53CHL1    C6 5037   3.694   2.825   3.183
   53CHL1    H6 5038   3.762   2.818   3.096
   53CHL1    C7 5039   3.755   2.805   3.321
   53CHL1   H7A 5040   3.823   2.718   3.329
   53CHL1   H7B 5041   3.807   2.899   3.348
   53CHL1    C8 5042   3.639   2.768   3.426
   53CHL1    H8 5043   3.626   2.659   3.410
   53CHL1   C14 5044   3.697   2.782   3.562
   53CHL1   H14 5045   3.719   2.888   3.587
   53CHL1   C15 5046   3.826   2.703   3.600
   53CHL1  H15A 5047   3.816   2.603   3.552
   53CHL1  H15B 5048   3.920   2.753   3.570
   53CHL1   C16 5049   3.822   2.694   3.749
   53CHL1  H16A 5050   3.796   2.594   3.790
   53CHL1  H16B 5051   3.908   2.737   3.805
   53CHL1   C17 5052   3.686   2.773   3.791
   53CHL1   H17 5053   3.723   2.878   3.790
   53CHL1   C13 5054   3.601   2.749   3.673
   53CHL1   C18 5055   3.546   2.604   3.665
   53CHL1  H18A 5056   3.628   2.532   3.685
   53CHL1  H18B 5057   3.467   2.588   3.741
   53CHL1  H18C 5058   3.504   2.576   3.566
   53CHL1   C12 5059   3.479   2.836   3.660
   53CHL1  H12A 5060   3.404   2.813   3.739
   53CHL1  H12B 5061   3.509   2.942   3.677
   53CHL1   C11 5062   3.410   2.827   3.512
   53CHL1  H11A 5063   3.362   2.727   3.520
   53CHL1  H11B 5064   3.336   2.910   3.509
   53CHL1    C9 5065   3.511   2.839   3.403
   53CHL1    H9 5066   3.547   2.944   3.411
   53CHL1   C10 5067   3.449   2.811   3.264
   53CHL1   C19 5068   3.384   2.676   3.265
   53CHL1  H19A 5069   3.326   2.653   3.173
   53CHL1  H19B 5070   3.451   2.590   3.289
   53CHL1  H19C 5071   3.307   2.668   3.344
   53CHL1    C1 5072   3.340   2.924   3.237
   53CHL1   H1A 5073   3.252   2.915   3.304
   53CHL1   H1B 5074   3.398   3.017   3.255
   53CHL1    C2 5075   3.294   2.928   3.085
   53CHL1   H2A 5076   3.220   3.010   3.075
   53CHL1   H2B 5077   3.245   2.832   3.059
   53CHL1   C20 5078   3.619   2.748   3.926
   53CHL1   H20 5079   3.550   2.662   3.916
   53CHL1   C21 5080   3.533   2.874   3.970
   53CHL1  H21A 5081   3.444   2.907   3.912
   53CHL1  H21B 5082   3.602   2.960   3.984
   53CHL1  H21C 5083   3.498   2.861   4.075
   53CHL1   C22 5084   3.711   2.695   4.038
   53CHL1  H22A 5085   3.644   2.686   4.126
   53CHL1  H22B 5086   3.754   2.596   4.011
   53CHL1   C23 5087   3.821   2.792   4.083
   53CHL1  H23A 5088   3.878   2.818   3.991
   53CHL1  H23B 5089   3.775   2.891   4.106
   53CHL1   C24 5090   3.921   2.754   4.195
   53CHL1  H24A 5091   3.870   2.700   4.278
   53CHL1  H24B 5092   3.987   2.670   4.163
   53CHL1   C25 5093   4.020   2.861   4.241
   53CHL1   H25 5094   4.078   2.888   4.151
   53CHL1   C26 5095   3.960   2.987   4.301
   53CHL1  H26A 5096   3.889   2.955   4.381
   53CHL1  H26B 5097   4.038   3.052   4.347
   53CHL1  H26C 5098   3.906   3.042   4.221
   53CHL1   C27 5099   4.112   2.800   4.348
   53CHL1  H27A 5100   4.189   2.876   4.371
   53CHL1  H27B 5101   4.044   2.773   4.432
   53CHL1  H27C 5102   4.170   2.713   4.309
   54CHL1    C3 5103   2.678   2.939   3.214
   54CHL1    H3 5104   2.741   3.027   3.241
   54CHL1    O3 5105   2.645   2.943   3.075
   54CHL1   H3' 5106   2.688   2.859   3.054
   54CHL1    C4 5107   2.773   2.820   3.231
   54CHL1   H4A 5108   2.733   2.719   3.208
   54CHL1   H4B 5109   2.849   2.829   3.151
   54CHL1    C5 5110   2.819   2.812   3.375
   54CHL1    C6 5111   2.946   2.813   3.400
   54CHL1    H6 5112   3.012   2.817   3.312
   54CHL1    C7 5113   3.022   2.801   3.531
   54CHL1   H7A 5114   3.099   2.723   3.553
   54CHL1   H7B 5115   3.064   2.897   3.567
   54CHL1    C8 5116   2.908   2.775   3.646
   54CHL1    H8 5117   2.885   2.667   3.648
   54CHL1   C14 5118   2.965   2.809   3.785
   54CHL1   H14 5119   2.994   2.915   3.768
   54CHL1   C15 5120   3.090   2.729   3.827
   54CHL1  H15A 5121   3.099   2.624   3.794
   54CHL1  H15B 5122   3.179   2.780   3.784
   54CHL1   C16 5123   3.092   2.736   3.981
   54CHL1  H16A 5124   3.115   2.637   4.025
   54CHL1  H16B 5125   3.164   2.818   4.004
   54CHL1   C17 5126   2.954   2.804   4.019
   54CHL1   H17 5127   2.971   2.913   4.028
   54CHL1   C13 5128   2.863   2.782   3.895
   54CHL1   C18 5129   2.810   2.629   3.899
   54CHL1  H18A 5130   2.767   2.608   4.000
   54CHL1  H18B 5131   2.727   2.608   3.829
   54CHL1  H18C 5132   2.892   2.555   3.886
   54CHL1   C12 5133   2.758   2.889   3.878
   54CHL1  H12A 5134   2.680   2.874   3.956
   54CHL1  H12B 5135   2.787   2.995   3.893
   54CHL1   C11 5136   2.685   2.874   3.740
   54CHL1  H11A 5137   2.619   2.784   3.739
   54CHL1  H11B 5138   2.614   2.957   3.722
   54CHL1    C9 5139   2.785   2.858   3.620
   54CHL1    H9 5140   2.828   2.960   3.605
   54CHL1   C10 5141   2.714   2.822   3.489
   54CHL1   C19 5142   2.639   2.691   3.503
   54CHL1  H19A 5143   2.608   2.656   3.402
   54CHL1  H19B 5144   2.696   2.610   3.555
   54CHL1  H19C 5145   2.545   2.714   3.557
   54CHL1    C1 5146   2.605   2.937   3.452
   54CHL1   H1A 5147   2.519   2.909   3.516
   54CHL1   H1B 5148   2.651   3.037   3.462
   54CHL1    C2 5149   2.554   2.936   3.311
   54CHL1   H2A 5150   2.495   3.028   3.292
   54CHL1   H2B 5151   2.495   2.844   3.288
   54CHL1   C20 5152   2.908   2.757   4.161
   54CHL1   H20 5153   2.901   2.646   4.159
   54CHL1   C21 5154   2.767   2.806   4.195
   54CHL1  H21A 5155   2.781   2.916   4.186
   54CHL1  H21B 5156   2.740   2.779   4.299
   54CHL1  H21C 5157   2.691   2.776   4.119
   54CHL1   C22 5158   3.015   2.786   4.271
   54CHL1  H22A 5159   2.972   2.757   4.369
   54CHL1  H22B 5160   3.104   2.724   4.250
   54CHL1   C23 5161   3.041   2.929   4.299
   54CHL1  H23A 5162   3.065   3.000   4.216
   54CHL1  H23B 5163   2.945   2.971   4.337
   54CHL1   C24 5164   3.151   2.967   4.398
   54CHL1  H24A 5165   3.119   2.926   4.496
   54CHL1  H24B 5166   3.248   2.915   4.385
   54CHL1   C25 5167   3.181   3.117   4.433
   54CHL1   H25 5168   3.233   3.155   4.343
   54CHL1   C26 5169   3.061   3.213   4.467
   54CHL1  H26A 5170   2.975   3.200   4.398
   54CHL1  H26B 5171   3.019   3.173   4.562
   54CHL1  H26C 5172   3.078   3.321   4.485
   54CHL1   C27 5173   3.300   3.120   4.538
   54CHL1  H27A 5174   3.387   3.076   4.483
   54CHL1  H27B 5175   3.308   3.225   4.571
   54CHL1  H27C 5176   3.277   3.057   4.627
   55CHL1    C3 5177   3.774   5.730   2.432
   55CHL1    H3 5178   3.668   5.696   2.433
   55CHL1    O3 5179   3.820   5.745   2.294
   55CHL1   H3' 5180   3.910   5.712   2.304
   55CHL1    C4 5181   3.787   5.858   2.503
   55CHL1   H4A 5182   3.893   5.894   2.499
   55CHL1   H4B 5183   3.732   5.938   2.449
   55CHL1    C5 5184   3.753   5.846   2.648
   55CHL1    C6 5185   3.666   5.933   2.696
   55CHL1    H6 5186   3.625   6.017   2.637
   55CHL1    C7 5187   3.615   5.931   2.838
   55CHL1   H7A 5188   3.619   6.030   2.888
   55CHL1   H7B 5189   3.512   5.891   2.850
   55CHL1    C8 5190   3.694   5.842   2.932
   55CHL1    H8 5191   3.786   5.899   2.958
   55CHL1   C14 5192   3.612   5.797   3.057
   55CHL1   H14 5193   3.526   5.732   3.027
   55CHL1   C15 5194   3.546   5.908   3.141
   55CHL1  H15A 5195   3.628   5.979   3.166
   55CHL1  H15B 5196   3.474   5.987   3.109
   55CHL1   C16 5197   3.501   5.832   3.266
   55CHL1  H16A 5198   3.528   5.882   3.361
   55CHL1  H16B 5199   3.393   5.807   3.259
   55CHL1   C17 5200   3.577   5.690   3.258
   55CHL1   H17 5201   3.496   5.629   3.211
   55CHL1   C13 5202   3.692   5.714   3.151
   55CHL1   C18 5203   3.809   5.791   3.217
   55CHL1  H18A 5204   3.874   5.721   3.274
   55CHL1  H18B 5205   3.879   5.834   3.142
   55CHL1  H18C 5206   3.771   5.867   3.288
   55CHL1   C12 5207   3.743   5.589   3.082
   55CHL1  H12A 5208   3.812   5.538   3.153
   55CHL1  H12B 5209   3.660   5.518   3.064
   55CHL1   C11 5210   3.821   5.613   2.954
   55CHL1  H11A 5211   3.920   5.652   2.984
   55CHL1  H11B 5212   3.836   5.520   2.896
   55CHL1    C9 5213   3.745   5.710   2.855
   55CHL1    H9 5214   3.652   5.653   2.835
   55CHL1   C10 5215   3.818   5.731   2.722
   55CHL1   C19 5216   3.965   5.774   2.744
   55CHL1  H19A 5217   4.034   5.801   2.661
   55CHL1  H19B 5218   3.973   5.849   2.826
   55CHL1  H19C 5219   4.019   5.683   2.777
   55CHL1    C1 5220   3.813   5.598   2.639
   55CHL1   H1A 5221   3.867   5.513   2.686
   55CHL1   H1B 5222   3.706   5.572   2.633
   55CHL1    C2 5223   3.844   5.612   2.492
   55CHL1   H2A 5224   3.819   5.519   2.436
   55CHL1   H2B 5225   3.953   5.631   2.479
   55CHL1   C20 5226   3.615   5.611   3.380
   55CHL1   H20 5227   3.721   5.582   3.364
   55CHL1   C21 5228   3.539   5.472   3.377
   55CHL1  H21A 5229   3.431   5.487   3.401
   55CHL1  H21B 5230   3.584   5.417   3.463
   55CHL1  H21C 5231   3.539   5.417   3.281
   55CHL1   C22 5232   3.608   5.695   3.511
   55CHL1  H22A 5233   3.681   5.776   3.491
   55CHL1  H22B 5234   3.507   5.739   3.519
   55CHL1   C23 5235   3.655   5.631   3.646
   55CHL1  H23A 5236   3.570   5.561   3.655
   55CHL1  H23B 5237   3.752   5.580   3.628
   55CHL1   C24 5238   3.645   5.729   3.766
   55CHL1  H24A 5239   3.711   5.817   3.757
   55CHL1  H24B 5240   3.547   5.781   3.768
   55CHL1   C25 5241   3.668   5.651   3.892
   55CHL1   H25 5242   3.762   5.595   3.875
   55CHL1   C26 5243   3.704   5.740   4.018
   55CHL1  H26A 5244   3.617   5.799   4.054
   55CHL1  H26B 5245   3.743   5.668   4.094
   55CHL1  H26C 5246   3.782   5.814   3.993
   55CHL1   C27 5247   3.546   5.561   3.927
   55CHL1  H27A 5248   3.555   5.514   4.027
   55CHL1  H27B 5249   3.457   5.628   3.928
   55CHL1  H27C 5250   3.530   5.490   3.844
   56CHL1    C3 5251   5.895   1.754   2.607
   56CHL1    H3 5252   5.830   1.843   2.610
   56CHL1    O3 5253   5.946   1.740   2.479
   56CHL1   H3' 5254   6.016   1.803   2.460
   56CHL1    C4 5255   6.016   1.771   2.706
   56CHL1   H4A 5256   6.071   1.678   2.681
   56CHL1   H4B 5257   6.071   1.862   2.672
   56CHL1    C5 5258   5.984   1.764   2.849
   56CHL1    C6 5259   6.021   1.855   2.935
   56CHL1    H6 5260   6.066   1.948   2.899
   56CHL1    C7 5261   6.000   1.850   3.089
   56CHL1   H7A 5262   6.096   1.880   3.137
   56CHL1   H7B 5263   5.925   1.926   3.118
   56CHL1    C8 5264   5.946   1.708   3.140
   56CHL1    H8 5265   6.025   1.630   3.140
   56CHL1   C14 5266   5.889   1.728   3.277
   56CHL1   H14 5267   5.809   1.804   3.265
   56CHL1   C15 5268   5.971   1.781   3.398
   56CHL1  H15A 5269   6.059   1.713   3.410
   56CHL1  H15B 5270   6.001   1.889   3.396
   56CHL1   C16 5271   5.873   1.774   3.518
   56CHL1  H16A 5272   5.938   1.748   3.605
   56CHL1  H16B 5273   5.841   1.880   3.530
   56CHL1   C17 5274   5.762   1.675   3.471
   56CHL1   H17 5275   5.674   1.737   3.441
   56CHL1   C13 5276   5.814   1.610   3.340
   56CHL1   C18 5277   5.902   1.491   3.372
   56CHL1  H18A 5278   5.839   1.413   3.420
   56CHL1  H18B 5279   5.962   1.441   3.294
   56CHL1  H18C 5280   5.971   1.510   3.457
   56CHL1   C12 5281   5.700   1.575   3.243
   56CHL1  H12A 5282   5.666   1.479   3.290
   56CHL1  H12B 5283   5.620   1.651   3.242
   56CHL1   C11 5284   5.756   1.548   3.105
   56CHL1  H11A 5285   5.807   1.450   3.098
   56CHL1  H11B 5286   5.669   1.534   3.038
   56CHL1    C9 5287   5.833   1.665   3.045
   56CHL1    H9 5288   5.769   1.755   3.045
   56CHL1   C10 5289   5.892   1.644   2.895
   56CHL1   C19 5290   5.958   1.504   2.882
   56CHL1  H19A 5291   6.022   1.485   2.794
   56CHL1  H19B 5292   6.024   1.485   2.970
   56CHL1  H19C 5293   5.876   1.430   2.893
   56CHL1    C1 5294   5.772   1.645   2.799
   56CHL1   H1A 5295   5.702   1.564   2.827
   56CHL1   H1B 5296   5.718   1.742   2.803
   56CHL1    C2 5297   5.816   1.630   2.648
   56CHL1   H2A 5298   5.719   1.625   2.594
   56CHL1   H2B 5299   5.886   1.546   2.629
   56CHL1   C20 5300   5.717   1.583   3.589
   56CHL1   H20 5301   5.796   1.509   3.614
   56CHL1   C21 5302   5.583   1.518   3.561
   56CHL1  H21A 5303   5.583   1.449   3.474
   56CHL1  H21B 5304   5.508   1.598   3.547
   56CHL1  H21C 5305   5.567   1.456   3.652
   56CHL1   C22 5306   5.707   1.668   3.720
   56CHL1  H22A 5307   5.816   1.676   3.742
   56CHL1  H22B 5308   5.672   1.772   3.705
   56CHL1   C23 5309   5.643   1.589   3.836
   56CHL1  H23A 5310   5.533   1.584   3.824
   56CHL1  H23B 5311   5.681   1.485   3.832
   56CHL1   C24 5312   5.668   1.664   3.970
   56CHL1  H24A 5313   5.773   1.699   3.963
   56CHL1  H24B 5314   5.609   1.758   3.971
   56CHL1   C25 5315   5.627   1.587   4.101
   56CHL1   H25 5316   5.518   1.580   4.086
   56CHL1   C26 5317   5.682   1.447   4.102
   56CHL1  H26A 5318   5.634   1.394   4.186
   56CHL1  H26B 5319   5.651   1.392   4.011
   56CHL1  H26C 5320   5.793   1.440   4.106
   56CHL1   C27 5321   5.648   1.657   4.236
   56CHL1  H27A 5322   5.586   1.612   4.316
   56CHL1  H27B 5323   5.756   1.639   4.257
   56CHL1  H27C 5324   5.621   1.765   4.231
   57CHL1    C3 5325   4.638   6.569   2.731
   57CHL1    H3 5326   4.561   6.648   2.722
   57CHL1    O3 5327   4.702   6.567   2.605
   57CHL1   H3' 5328   4.757   6.489   2.605
   57CHL1    C4 5329   4.729   6.611   2.848
   57CHL1   H4A 5330   4.821   6.550   2.834
   57CHL1   H4B 5331   4.753   6.717   2.825
   57CHL1    C5 5332   4.677   6.603   2.992
   57CHL1    C6 5333   4.672   6.711   3.072
   57CHL1    H6 5334   4.713   0.010   3.035
   57CHL1    C7 5335   4.619   6.709   3.215
   57CHL1   H7A 5336   4.678   6.770   3.287
   57CHL1   H7B 5337   4.515   6.748   3.222
   57CHL1    C8 5338   4.587   6.565   3.267
   57CHL1    H8 5339   4.685   6.526   3.302
   57CHL1   C14 5340   4.499   6.571   3.384
   57CHL1   H14 5341   4.403   6.617   3.352
   57CHL1   C15 5342   4.536   6.655   3.510
   57CHL1  H15A 5343   4.645   6.660   3.527
   57CHL1  H15B 5344   4.518   6.763   3.496
   57CHL1   C16 5345   4.448   6.606   3.628
   57CHL1  H16A 5346   4.527   6.598   3.706
   57CHL1  H16B 5347   4.368   6.675   3.663
   57CHL1   C17 5348   4.382   6.472   3.580
   57CHL1   H17 5349   4.275   6.495   3.561
   57CHL1   C13 5350   4.462   6.433   3.445
   57CHL1   C18 5351   4.577   6.344   3.483
   57CHL1  H18A 5352   4.548   6.247   3.528
   57CHL1  H18B 5353   4.640   6.320   3.395
   57CHL1  H18C 5354   4.642   6.381   3.565
   57CHL1   C12 5355   4.379   6.348   3.339
   57CHL1  H12A 5356   4.355   6.248   3.380
   57CHL1  H12B 5357   4.287   6.399   3.303
   57CHL1   C11 5358   4.464   6.337   3.211
   57CHL1  H11A 5359   4.548   6.271   3.240
   57CHL1  H11B 5360   4.408   6.279   3.134
   57CHL1    C9 5361   4.525   6.475   3.158
   57CHL1    H9 5362   4.427   6.523   3.138
   57CHL1   C10 5363   4.609   6.468   3.024
   57CHL1   C19 5364   4.722   6.361   3.038
   57CHL1  H19A 5365   4.677   6.260   3.046
   57CHL1  H19B 5366   4.790   6.366   2.950
   57CHL1  H19C 5367   4.783   6.369   3.130
   57CHL1    C1 5368   4.509   6.419   2.905
   57CHL1   H1A 5369   4.486   6.311   2.918
   57CHL1   H1B 5370   4.417   6.480   2.894
   57CHL1    C2 5371   4.574   6.432   2.763
   57CHL1   H2A 5372   4.498   6.410   2.686
   57CHL1   H2B 5373   4.661   6.363   2.758
   57CHL1   C20 5374   4.365   6.374   3.696
   57CHL1   H20 5375   4.470   6.356   3.727
   57CHL1   C21 5376   4.292   6.255   3.654
   57CHL1  H21A 5377   4.183   6.259   3.633
   57CHL1  H21B 5378   4.290   6.179   3.735
   57CHL1  H21C 5379   4.336   6.204   3.565
   57CHL1   C22 5380   4.296   6.437   3.820
   57CHL1  H22A 5381   4.328   6.543   3.827
   57CHL1  H22B 5382   4.186   6.431   3.802
   57CHL1   C23 5383   4.331   6.363   3.950
   57CHL1  H23A 5384   4.362   6.256   3.948
   57CHL1  H23B 5385   4.430   6.400   3.983
   57CHL1   C24 5386   4.230   6.394   4.063
   57CHL1  H24A 5387   4.283   6.378   4.159
   57CHL1  H24B 5388   4.213   6.504   4.068
   57CHL1   C25 5389   4.096   6.322   4.051
   57CHL1   H25 5390   4.065   6.334   3.945
   57CHL1   C26 5391   4.098   6.172   4.070
   57CHL1  H26A 5392   3.996   6.140   4.102
   57CHL1  H26B 5393   4.134   6.128   3.975
   57CHL1  H26C 5394   4.168   6.138   4.149
   57CHL1   C27 5395   3.986   6.393   4.137
   57CHL1  H27A 5396   4.016   6.383   4.244
   57CHL1  H27B 5397   3.990   6.502   4.117
   57CHL1  H27C 5398   3.885   6.356   4.109
   58CHL1    C3 5399   4.229   0.467   2.649
   58CHL1    H3 5400   4.226   0.574   2.681
   58CHL1    O3 5401   4.207   0.472   2.510
   58CHL1   H3' 5402   4.130   0.528   2.498
   58CHL1    C4 5403   4.365   0.408   2.701
   58CHL1   H4A 5404   4.375   0.301   2.671
   58CHL1   H4B 5405   4.438   0.467   2.643
   58CHL1    C5 5406   4.387   0.400   2.852
   58CHL1    C6 5407   4.495   0.448   2.914
   58CHL1    H6 5408   4.581   0.469   2.848
   58CHL1    C7 5409   4.523   0.436   3.064
   58CHL1   H7A 5410   4.626   0.399   3.080
   58CHL1   H7B 5411   4.511   0.540   3.103
   58CHL1    C8 5412   4.416   0.346   3.138
   58CHL1    H8 5413   4.436   0.241   3.110
   58CHL1   C14 5414   4.430   0.363   3.291
   58CHL1   H14 5415   4.406   0.470   3.312
   58CHL1   C15 5416   4.561   0.342   3.366
   58CHL1  H15A 5417   4.613   0.248   3.337
   58CHL1  H15B 5418   4.619   0.435   3.348
   58CHL1   C16 5419   4.525   0.321   3.515
   58CHL1  H16A 5420   4.550   0.217   3.545
   58CHL1  H16B 5421   4.576   0.389   3.587
   58CHL1   C17 5422   4.370   0.325   3.525
   58CHL1   H17 5423   4.356   0.433   3.549
   58CHL1   C13 5424   4.318   0.294   3.376
   58CHL1   C18 5425   4.340   0.146   3.352
   58CHL1  H18A 5426   4.281   0.082   3.421
   58CHL1  H18B 5427   4.321   0.113   3.247
   58CHL1  H18C 5428   4.445   0.113   3.363
   58CHL1   C12 5429   4.181   0.341   3.331
   58CHL1  H12A 5430   4.090   0.290   3.368
   58CHL1  H12B 5431   4.167   0.447   3.363
   58CHL1   C11 5432   4.159   0.314   3.179
   58CHL1  H11A 5433   4.156   0.204   3.163
   58CHL1  H11B 5434   4.057   0.355   3.164
   58CHL1    C9 5435   4.270   0.380   3.092
   58CHL1    H9 5436   4.272   0.491   3.103
   58CHL1   C10 5437   4.260   0.355   2.932
   58CHL1   C19 5438   4.259   0.200   2.899
   58CHL1  H19A 5439   4.252   0.171   2.792
   58CHL1  H19B 5440   4.357   0.155   2.925
   58CHL1  H19C 5441   4.169   0.157   2.948
   58CHL1    C1 5442   4.133   0.425   2.877
   58CHL1   H1A 5443   4.042   0.391   2.930
   58CHL1   H1B 5444   4.142   0.534   2.895
   58CHL1    C2 5445   4.116   0.407   2.722
   58CHL1   H2A 5446   4.023   0.458   2.688
   58CHL1   H2B 5447   4.100   0.300   2.698
   58CHL1   C20 5448   4.319   0.243   3.648
   58CHL1   H20 5449   4.343   0.141   3.613
   58CHL1   C21 5450   4.171   0.282   3.675
   58CHL1  H21A 5451   4.127   0.234   3.766
   58CHL1  H21B 5452   4.108   0.248   3.591
   58CHL1  H21C 5453   4.173   0.392   3.693
   58CHL1   C22 5454   4.409   0.262   3.778
   58CHL1  H22A 5455   4.519   0.274   3.769
   58CHL1  H22B 5456   4.381   0.355   3.832
   58CHL1   C23 5457   4.383   0.134   3.868
   58CHL1  H23A 5458   4.274   0.134   3.893
   58CHL1  H23B 5459   4.407   0.044   3.808
   58CHL1   C24 5460   4.459   0.142   3.993
   58CHL1  H24A 5461   4.565   0.155   3.964
   58CHL1  H24B 5462   4.429   0.230   4.055
   58CHL1   C25 5463   4.441   0.020   4.081
   58CHL1   H25 5464   4.333   0.002   4.099
   58CHL1   C26 5465   4.490   6.685   4.027
   58CHL1  H26A 5466   4.444   6.597   4.077
   58CHL1  H26B 5467   4.448   6.682   3.924
   58CHL1  H26C 5468   4.597   6.659   4.012
   58CHL1   C27 5469   4.508   0.041   4.221
   58CHL1  H27A 5470   4.492   6.749   4.286
   58CHL1  H27B 5471   4.618   0.060   4.214
   58CHL1  H27C 5472   4.470   0.129   4.278
   59CHL1    C3 5473   2.734   4.605   2.932
   59CHL1    H3 5474   2.695   4.501   2.930
   59CHL1    O3 5475   2.713   4.683   2.818
   59CHL1   H3' 5476   2.789   4.672   2.759
   59CHL1    C4 5477   2.676   4.674   3.058
   59CHL1   H4A 5478   2.709   4.780   3.062
   59CHL1   H4B 5479   2.567   4.693   3.061
   59CHL1    C5 5480   2.710   4.593   3.180
   59CHL1    C6 5481   2.615   4.530   3.251
   59CHL1    H6 5482   2.507   4.549   3.237
   59CHL1    C7 5483   2.638   4.458   3.379
   59CHL1   H7A 5484   2.582   4.515   3.456
   59CHL1   H7B 5485   2.612   4.350   3.378
   59CHL1    C8 5486   2.786   4.472   3.424
   59CHL1    H8 5487   2.792   4.569   3.479
   59CHL1   C14 5488   2.820   4.365   3.522
   59CHL1   H14 5489   2.816   4.274   3.458
   59CHL1   C15 5490   2.728   4.337   3.639
   59CHL1  H15A 5491   2.704   4.439   3.676
   59CHL1  H15B 5492   2.645   4.267   3.616
   59CHL1   C16 5493   2.823   4.270   3.740
   59CHL1  H16A 5494   2.827   4.332   3.832
   59CHL1  H16B 5495   2.790   4.168   3.769
   59CHL1   C17 5496   2.958   4.253   3.677
   59CHL1   H17 5497   2.949   4.159   3.617
   59CHL1   C13 5498   2.961   4.370   3.580
   59CHL1   C18 5499   2.987   4.499   3.658
   59CHL1  H18A 5500   2.916   4.500   3.743
   59CHL1  H18B 5501   3.094   4.507   3.690
   59CHL1  H18C 5502   2.985   4.588   3.593
   59CHL1   C12 5503   3.059   4.351   3.467
   59CHL1  H12A 5504   3.161   4.360   3.509
   59CHL1  H12B 5505   3.047   4.251   3.420
   59CHL1   C11 5506   3.028   4.456   3.357
   59CHL1  H11A 5507   3.061   4.553   3.398
   59CHL1  H11B 5508   3.092   4.425   3.271
   59CHL1    C9 5509   2.879   4.464   3.306
   59CHL1    H9 5510   2.848   4.372   3.252
   59CHL1   C10 5511   2.862   4.565   3.197
   59CHL1   C19 5512   2.927   4.701   3.246
   59CHL1  H19A 5513   2.931   4.778   3.165
   59CHL1  H19B 5514   2.872   4.740   3.334
   59CHL1  H19C 5515   3.033   4.699   3.278
   59CHL1    C1 5516   2.923   4.520   3.061
   59CHL1   H1A 5517   3.033   4.536   3.064
   59CHL1   H1B 5518   2.900   4.412   3.053
   59CHL1    C2 5519   2.887   4.592   2.924
   59CHL1   H2A 5520   2.916   4.535   2.833
   59CHL1   H2B 5521   2.948   4.684   2.930
   59CHL1   C20 5522   3.074   4.208   3.765
   59CHL1   H20 5523   3.168   4.240   3.716
   59CHL1   C21 5524   3.063   4.055   3.779
   59CHL1  H21A 5525   2.984   4.022   3.850
   59CHL1  H21B 5526   3.154   4.018   3.831
   59CHL1  H21C 5527   3.055   3.994   3.687
   59CHL1   C22 5528   3.067   4.275   3.905
   59CHL1  H22A 5529   3.060   4.384   3.887
   59CHL1  H22B 5530   2.976   4.238   3.958
   59CHL1   C23 5531   3.188   4.255   3.989
   59CHL1  H23A 5532   3.215   4.148   3.998
   59CHL1  H23B 5533   3.277   4.310   3.949
   59CHL1   C24 5534   3.159   4.310   4.131
   59CHL1  H24A 5535   3.092   4.399   4.132
   59CHL1  H24B 5536   3.097   4.229   4.176
   59CHL1   C25 5537   3.281   4.337   4.222
   59CHL1   H25 5538   3.361   4.393   4.170
   59CHL1   C26 5539   3.230   4.416   4.342
   59CHL1  H26A 5540   3.152   4.364   4.402
   59CHL1  H26B 5541   3.319   4.419   4.408
   59CHL1  H26C 5542   3.189   4.515   4.311
   59CHL1   C27 5543   3.338   4.200   4.275
   59CHL1  H27A 5544   3.256   4.145   4.327
   59CHL1  H27B 5545   3.376   4.138   4.192
   59CHL1  H27C 5546   3.427   4.216   4.339
   60CHL1    C3 5547   5.511   5.516   2.779
   60CHL1    H3 5548   5.493   5.407   2.791
   60CHL1    O3 5549   5.540   5.542   2.640
   60CHL1   H3' 5550   5.582   5.628   2.637
   60CHL1    C4 5551   5.380   5.584   2.819
   60CHL1   H4A 5552   5.402   5.691   2.798
   60CHL1   H4B 5553   5.296   5.549   2.756
   60CHL1    C5 5554   5.346   5.566   2.968
   60CHL1    C6 5555   5.225   5.515   2.998
   60CHL1    H6 5556   5.150   5.478   2.926
   60CHL1    C7 5557   5.177   5.495   3.138
   60CHL1   H7A 5558   5.072   5.529   3.153
   60CHL1   H7B 5559   5.167   5.386   3.155
   60CHL1    C8 5560   5.266   5.544   3.249
   60CHL1    H8 5561   5.247   5.654   3.253
   60CHL1   C14 5562   5.244   5.479   3.382
   60CHL1   H14 5563   5.273   5.373   3.365
   60CHL1   C15 5564   5.090   5.469   3.429
   60CHL1  H15A 5565   5.035   5.564   3.410
   60CHL1  H15B 5566   5.039   5.384   3.379
   60CHL1   C16 5567   5.099   5.454   3.580
   60CHL1  H16A 5568   5.055   5.545   3.625
   60CHL1  H16B 5569   5.045   5.362   3.612
   60CHL1   C17 5570   5.250   5.451   3.620
   60CHL1   H17 5571   5.282   5.345   3.611
   60CHL1   C13 5572   5.323   5.530   3.503
   60CHL1   C18 5573   5.279   5.686   3.518
   60CHL1  H18A 5574   5.296   5.736   3.421
   60CHL1  H18B 5575   5.175   5.697   3.556
   60CHL1  H18C 5576   5.336   5.733   3.601
   60CHL1   C12 5577   5.472   5.515   3.474
   60CHL1  H12A 5578   5.535   5.571   3.547
   60CHL1  H12B 5579   5.496   5.407   3.471
   60CHL1   C11 5580   5.509   5.572   3.333
   60CHL1  H11A 5581   5.499   5.680   3.357
   60CHL1  H11B 5582   5.618   5.558   3.319
   60CHL1    C9 5583   5.413   5.526   3.213
   60CHL1    H9 5584   5.430   5.418   3.198
   60CHL1   C10 5585   5.458   5.586   3.075
   60CHL1   C19 5586   5.471   5.743   3.080
   60CHL1  H19A 5587   5.382   5.798   3.118
   60CHL1  H19B 5588   5.559   5.772   3.139
   60CHL1  H19C 5589   5.498   5.776   2.977
   60CHL1    C1 5590   5.586   5.525   3.021
   60CHL1   H1A 5591   5.671   5.565   3.080
   60CHL1   H1B 5592   5.575   5.415   3.026
   60CHL1    C2 5593   5.625   5.563   2.870
   60CHL1   H2A 5594   5.715   5.508   2.834
   60CHL1   H2B 5595   5.641   5.672   2.856
   60CHL1   C20 5596   5.255   5.489   3.773
   60CHL1   H20 5597   5.206   5.589   3.777
   60CHL1   C21 5598   5.403   5.503   3.813
   60CHL1  H21A 5599   5.440   5.569   3.731
   60CHL1  H21B 5600   5.462   5.409   3.819
   60CHL1  H21C 5601   5.425   5.556   3.907
   60CHL1   C22 5602   5.165   5.400   3.865
   60CHL1  H22A 5603   5.062   5.396   3.824
   60CHL1  H22B 5604   5.219   5.304   3.850
   60CHL1   C23 5605   5.161   5.445   4.011
   60CHL1  H23A 5606   5.264   5.444   4.053
   60CHL1  H23B 5607   5.128   5.551   4.011
   60CHL1   C24 5608   5.062   5.371   4.086
   60CHL1  H24A 5609   4.958   5.397   4.056
   60CHL1  H24B 5610   5.085   5.267   4.057
   60CHL1   C25 5611   5.068   5.378   4.244
   60CHL1   H25 5612   5.164   5.340   4.286
   60CHL1   C26 5613   5.052   5.527   4.290
   60CHL1  H26A 5614   5.049   5.515   4.400
   60CHL1  H26B 5615   5.141   5.588   4.264
   60CHL1  H26C 5616   4.956   5.560   4.244
   60CHL1   C27 5617   4.960   5.290   4.309
   60CHL1  H27A 5618   4.964   5.183   4.279
   60CHL1  H27B 5619   4.964   5.300   4.419
   60CHL1  H27C 5620   4.867   5.333   4.266
   61CHL1    C3 5621   5.618   2.148   2.861
   61CHL1    H3 5622   5.634   2.042   2.831
   61CHL1    O3 5623   5.648   2.221   2.744
   61CHL1   H3' 5624   5.655   2.313   2.773
   61CHL1    C4 5625   5.472   2.172   2.903
   61CHL1   H4A 5626   5.466   2.282   2.894
   61CHL1   H4B 5627   5.407   2.127   2.825
   61CHL1    C5 5628   5.449   2.100   3.031
   61CHL1    C6 5629   5.352   2.010   3.050
   61CHL1    H6 5630   5.291   1.977   2.965
   61CHL1    C7 5631   5.313   1.951   3.179
   61CHL1   H7A 5632   5.203   1.961   3.193
   61CHL1   H7B 5633   5.334   1.842   3.183
   61CHL1    C8 5634   5.376   2.029   3.295
   61CHL1    H8 5635   5.316   2.122   3.306
   61CHL1   C14 5636   5.352   1.951   3.422
   61CHL1   H14 5637   5.410   1.857   3.420
   61CHL1   C15 5638   5.210   1.904   3.446
   61CHL1  H15A 5639   5.133   1.980   3.420
   61CHL1  H15B 5640   5.171   1.815   3.392
   61CHL1   C16 5641   5.212   1.874   3.595
   61CHL1  H16A 5642   5.133   1.937   3.642
   61CHL1  H16B 5643   5.189   1.772   3.630
   61CHL1   C17 5644   5.346   1.934   3.659
   61CHL1   H17 5645   5.413   1.847   3.673
   61CHL1   C13 5646   5.407   2.020   3.545
   61CHL1   C18 5647   5.339   2.156   3.546
   61CHL1  H18A 5648   5.229   2.152   3.533
   61CHL1  H18B 5649   5.357   2.205   3.645
   61CHL1  H18C 5650   5.384   2.234   3.481
   61CHL1   C12 5651   5.558   2.012   3.527
   61CHL1  H12A 5652   5.613   2.054   3.614
   61CHL1  H12B 5653   5.576   1.903   3.528
   61CHL1   C11 5654   5.603   2.081   3.395
   61CHL1  H11A 5655   5.599   2.191   3.411
   61CHL1  H11B 5656   5.707   2.047   3.379
   61CHL1    C9 5657   5.522   2.053   3.266
   61CHL1    H9 5658   5.558   1.953   3.232
   61CHL1   C10 5659   5.542   2.146   3.147
   61CHL1   C19 5660   5.503   2.294   3.177
   61CHL1  H19A 5661   5.560   2.325   3.267
   61CHL1  H19B 5662   5.509   2.352   3.082
   61CHL1  H19C 5663   5.401   2.320   3.213
   61CHL1    C1 5664   5.688   2.131   3.111
   61CHL1   H1A 5665   5.752   2.168   3.195
   61CHL1   H1B 5666   5.708   2.022   3.099
   61CHL1    C2 5667   5.720   2.188   2.970
   61CHL1   H2A 5668   5.822   2.150   2.947
   61CHL1   H2B 5669   5.726   2.298   2.986
   61CHL1   C20 5670   5.318   1.990   3.801
   61CHL1   H20 5671   5.242   2.070   3.790
   61CHL1   C21 5672   5.445   2.058   3.864
   61CHL1  H21A 5673   5.405   2.110   3.954
   61CHL1  H21B 5674   5.487   2.129   3.790
   61CHL1  H21C 5675   5.513   1.971   3.874
   61CHL1   C22 5676   5.253   1.880   3.894
   61CHL1  H22A 5677   5.155   1.849   3.851
   61CHL1  H22B 5678   5.323   1.795   3.879
   61CHL1   C23 5679   5.242   1.908   4.047
   61CHL1  H23A 5680   5.339   1.923   4.098
   61CHL1  H23B 5681   5.186   2.003   4.063
   61CHL1   C24 5682   5.160   1.795   4.110
   61CHL1  H24A 5683   5.054   1.815   4.085
   61CHL1  H24B 5684   5.192   1.699   4.064
   61CHL1   C25 5685   5.179   1.771   4.260
   61CHL1   H25 5686   5.288   1.761   4.278
   61CHL1   C26 5687   5.126   1.891   4.340
   61CHL1  H26A 5688   5.128   1.880   4.451
   61CHL1  H26B 5689   5.177   1.987   4.317
   61CHL1  H26C 5690   5.019   1.910   4.316
   61CHL1   C27 5691   5.104   1.650   4.303
   61CHL1  H27A 5692   4.996   1.671   4.288
   61CHL1  H27B 5693   5.125   1.569   4.230
   61CHL1  H27C 5694   5.114   1.622   4.410
   62CHL1    C3 5695   1.626   0.270   2.903
   62CHL1    H3 5696   1.575   0.368   2.885
   62CHL1    O3 5697   1.673   0.220   2.780
   62CHL1   H3' 5698   1.695   0.127   2.791
   62CHL1    C4 5699   1.741   0.288   3.002
   62CHL1   H4A 5700   1.806   0.198   3.000
   62CHL1   H4B 5701   1.806   0.376   2.981
   62CHL1    C5 5702   1.690   0.295   3.148
   62CHL1    C6 5703   1.733   0.388   3.229
   62CHL1    H6 5704   1.805   0.462   3.191
   62CHL1    C7 5705   1.693   0.411   3.368
   62CHL1   H7A 5706   1.773   0.447   3.438
   62CHL1   H7B 5707   1.627   0.499   3.384
   62CHL1    C8 5708   1.622   0.291   3.428
   62CHL1    H8 5709   1.700   0.214   3.448
   62CHL1   C14 5710   1.535   0.318   3.555
   62CHL1   H14 5711   1.455   0.387   3.521
   62CHL1   C15 5712   1.600   0.395   3.667
   62CHL1  H15A 5713   1.702   0.358   3.693
   62CHL1  H15B 5714   1.601   0.504   3.650
   62CHL1   C16 5715   1.510   0.365   3.786
   62CHL1  H16A 5716   1.568   0.337   3.876
   62CHL1  H16B 5717   1.451   0.454   3.819
   62CHL1   C17 5718   1.402   0.265   3.739
   62CHL1   H17 5719   1.318   0.326   3.699
   62CHL1   C13 5720   1.469   0.192   3.619
   62CHL1   C18 5721   1.582   0.096   3.661
   62CHL1  H18A 5722   1.636   0.055   3.573
   62CHL1  H18B 5723   1.652   0.145   3.731
   62CHL1  H18C 5724   1.536   0.008   3.710
   62CHL1   C12 5725   1.363   0.131   3.523
   62CHL1  H12A 5726   1.340   0.030   3.562
   62CHL1  H12B 5727   1.267   0.186   3.518
   62CHL1   C11 5728   1.429   0.113   3.387
   62CHL1  H11A 5729   1.495   0.026   3.409
   62CHL1  H11B 5730   1.348   0.101   3.312
   62CHL1    C9 5731   1.523   0.232   3.330
   62CHL1    H9 5732   1.453   0.317   3.318
   62CHL1   C10 5733   1.583   0.203   3.191
   62CHL1   C19 5734   1.651   0.062   3.209
   62CHL1  H19A 5735   1.570   6.781   3.204
   62CHL1  H19B 5736   1.733   0.046   3.136
   62CHL1  H19C 5737   1.707   0.052   3.304
   62CHL1    C1 5738   1.466   0.193   3.087
   62CHL1   H1A 5739   1.389   0.117   3.110
   62CHL1   H1B 5740   1.426   0.297   3.083
   62CHL1    C2 5741   1.520   0.166   2.945
   62CHL1   H2A 5742   1.446   0.165   2.863
   62CHL1   H2B 5743   1.569   0.067   2.957
   62CHL1   C20 5744   1.344   0.183   3.855
   62CHL1   H20 5745   1.426   0.134   3.911
   62CHL1   C21 5746   1.242   0.080   3.809
   62CHL1  H21A 5747   1.158   0.132   3.758
   62CHL1  H21B 5748   1.196   0.019   3.889
   62CHL1  H21C 5749   1.308   0.018   3.745
   62CHL1   C22 5750   1.274   0.281   3.949
   62CHL1  H22A 5751   1.343   0.366   3.968
   62CHL1  H22B 5752   1.179   0.317   3.905
   62CHL1   C23 5753   1.236   0.227   4.091
   62CHL1  H23A 5754   1.150   0.160   4.068
   62CHL1  H23B 5755   1.315   0.170   4.145
   62CHL1   C24 5756   1.180   0.335   4.182
   62CHL1  H24A 5757   1.252   0.412   4.217
   62CHL1  H24B 5758   1.111   0.396   4.120
   62CHL1   C25 5759   1.097   0.284   4.307
   62CHL1   H25 5760   1.013   0.227   4.262
   62CHL1   C26 5761   1.183   0.175   4.383
   62CHL1  H26A 5762   1.221   0.095   4.316
   62CHL1  H26B 5763   1.271   0.228   4.425
   62CHL1  H26C 5764   1.137   0.126   4.471
   62CHL1   C27 5765   1.043   0.390   4.395
   62CHL1  H27A 5766   0.980   0.463   4.340
   62CHL1  H27B 5767   0.976   0.341   4.469
   62CHL1  H27C 5768   1.119   0.452   4.446
   63CHL1    C3 5769   4.446   4.962   2.603
   63CHL1    H3 5770   4.551   4.944   2.635
   63CHL1    O3 5771   4.435   4.970   2.463
   63CHL1   H3' 5772   4.468   5.055   2.434
   63CHL1    C4 5773   4.367   4.841   2.664
   63CHL1   H4A 5774   4.265   4.837   2.621
   63CHL1   H4B 5775   4.423   4.758   2.614
   63CHL1    C5 5776   4.369   4.816   2.817
   63CHL1    C6 5777   4.410   4.695   2.873
   63CHL1    H6 5778   4.438   4.614   2.803
   63CHL1    C7 5779   4.409   4.673   3.020
   63CHL1   H7A 5780   4.343   4.588   3.048
   63CHL1   H7B 5781   4.510   4.644   3.055
   63CHL1    C8 5782   4.362   4.790   3.112
   63CHL1    H8 5783   4.251   4.784   3.118
   63CHL1   C14 5784   4.416   4.786   3.254
   63CHL1   H14 5785   4.526   4.790   3.248
   63CHL1   C15 5786   4.377   4.658   3.334
   63CHL1  H15A 5787   4.269   4.632   3.324
   63CHL1  H15B 5788   4.450   4.577   3.311
   63CHL1   C16 5789   4.409   4.701   3.481
   63CHL1  H16A 5790   4.321   4.671   3.541
   63CHL1  H16B 5791   4.504   4.658   3.519
   63CHL1   C17 5792   4.433   4.856   3.474
   63CHL1   H17 5793   4.543   4.866   3.459
   63CHL1   C13 5794   4.378   4.901   3.340
   63CHL1   C18 5795   4.221   4.920   3.358
   63CHL1  H18A 5796   4.166   4.929   3.261
   63CHL1  H18B 5797   4.180   4.835   3.416
   63CHL1  H18C 5798   4.199   5.015   3.411
   63CHL1   C12 5799   4.437   5.027   3.280
   63CHL1  H12A 5800   4.404   5.112   3.344
   63CHL1  H12B 5801   4.548   5.024   3.284
   63CHL1   C11 5802   4.397   5.050   3.133
   63CHL1  H11A 5803   4.292   5.085   3.119
   63CHL1  H11B 5804   4.467   5.132   3.106
   63CHL1    C9 5805   4.409   4.921   3.043
   63CHL1    H9 5806   4.516   4.907   3.021
   63CHL1   C10 5807   4.342   4.940   2.899
   63CHL1   C19 5808   4.197   4.979   2.902
   63CHL1  H19A 5809   4.152   4.954   2.803
   63CHL1  H19B 5810   4.137   4.920   2.974
   63CHL1  H19C 5811   4.173   5.086   2.921
   63CHL1    C1 5812   4.418   5.061   2.834
   63CHL1   H1A 5813   4.387   5.159   2.877
   63CHL1   H1B 5814   4.526   5.038   2.852
   63CHL1    C2 5815   4.394   5.082   2.677
   63CHL1   H2A 5816   4.445   5.176   2.646
   63CHL1   H2B 5817   4.288   5.094   2.647
   63CHL1   C20 5818   4.382   4.923   3.602
   63CHL1   H20 5819   4.278   4.884   3.607
   63CHL1   C21 5820   4.382   5.075   3.600
   63CHL1  H21A 5821   4.292   5.111   3.546
   63CHL1  H21B 5822   4.478   5.115   3.562
   63CHL1  H21C 5823   4.360   5.115   3.702
   63CHL1   C22 5824   4.460   4.858   3.724
   63CHL1  H22A 5825   4.485   4.750   3.711
   63CHL1  H22B 5826   4.557   4.912   3.729
   63CHL1   C23 5827   4.372   4.878   3.852
   63CHL1  H23A 5828   4.358   4.986   3.874
   63CHL1  H23B 5829   4.269   4.837   3.842
   63CHL1   C24 5830   4.437   4.803   3.973
   63CHL1  H24A 5831   4.409   4.696   3.968
   63CHL1  H24B 5832   4.547   4.809   3.967
   63CHL1   C25 5833   4.400   4.850   4.108
   63CHL1   H25 5834   4.423   4.780   4.190
   63CHL1   C26 5835   4.479   4.972   4.134
   63CHL1  H26A 5836   4.455   5.008   4.236
   63CHL1  H26B 5837   4.589   4.957   4.134
   63CHL1  H26C 5838   4.454   5.053   4.062
   63CHL1   C27 5839   4.251   4.889   4.128
   63CHL1  H27A 5840   4.195   4.800   4.093
   63CHL1  H27B 5841   4.227   4.902   4.236
   63CHL1  H27C 5842   4.225   4.984   4.076
   64CHL1    C3 5843   2.874   2.439   3.085
   64CHL1    H3 5844   2.906   2.542   3.110
   64CHL1    O3 5845   2.859   2.444   2.944
   64CHL1   H3' 5846   2.859   2.353   2.912
   64CHL1    C4 5847   2.991   2.347   3.132
   64CHL1   H4A 5848   2.946   2.248   3.108
   64CHL1   H4B 5849   3.081   2.376   3.074
   64CHL1    C5 5850   3.004   2.332   3.281
   64CHL1    C6 5851   3.121   2.346   3.339
   64CHL1    H6 5852   3.216   2.361   3.287
   64CHL1    C7 5853   3.146   2.312   3.483
   64CHL1   H7A 5854   3.243   2.258   3.488
   64CHL1   H7B 5855   3.175   2.403   3.540
   64CHL1    C8 5856   3.024   2.248   3.555
   64CHL1    H8 5857   3.019   2.139   3.535
   64CHL1   C14 5858   3.029   2.272   3.701
   64CHL1   H14 5859   3.011   2.381   3.710
   64CHL1   C15 5860   3.173   2.248   3.765
   64CHL1  H15A 5861   3.230   2.164   3.720
   64CHL1  H15B 5862   3.235   2.339   3.770
   64CHL1   C16 5863   3.137   2.227   3.917
   64CHL1  H16A 5864   3.161   2.122   3.943
   64CHL1  H16B 5865   3.190   2.309   3.970
   64CHL1   C17 5866   2.983   2.247   3.930
   64CHL1   H17 5867   2.963   2.356   3.929
   64CHL1   C13 5868   2.925   2.205   3.796
   64CHL1   C18 5869   2.927   2.050   3.783
   64CHL1  H18A 5870   2.861   1.996   3.854
   64CHL1  H18B 5871   2.882   2.030   3.684
   64CHL1  H18C 5872   3.029   2.005   3.787
   64CHL1   C12 5873   2.789   2.261   3.748
   64CHL1  H12A 5874   2.703   2.208   3.795
   64CHL1  H12B 5875   2.778   2.364   3.789
   64CHL1   C11 5876   2.767   2.270   3.592
   64CHL1  H11A 5877   2.738   2.168   3.559
   64CHL1  H11B 5878   2.677   2.332   3.570
   64CHL1    C9 5879   2.894   2.315   3.507
   64CHL1    H9 5880   2.916   2.424   3.515
   64CHL1   C10 5881   2.871   2.292   3.358
   64CHL1   C19 5882   2.837   2.143   3.326
   64CHL1  H19A 5883   2.729   2.123   3.342
   64CHL1  H19B 5884   2.862   2.102   3.226
   64CHL1  H19C 5885   2.883   2.074   3.401
   64CHL1    C1 5886   2.763   2.387   3.306
   64CHL1   H1A 5887   2.672   2.340   3.350
   64CHL1   H1B 5888   2.783   2.489   3.344
   64CHL1    C2 5889   2.748   2.402   3.157
   64CHL1   H2A 5890   2.670   2.477   3.131
   64CHL1   H2B 5891   2.716   2.304   3.115
   64CHL1   C20 5892   2.919   2.207   4.058
   64CHL1   H20 5893   2.921   2.096   4.063
   64CHL1   C21 5894   2.773   2.259   4.069
   64CHL1  H21A 5895   2.774   2.370   4.059
   64CHL1  H21B 5896   2.727   2.237   4.168
   64CHL1  H21C 5897   2.707   2.208   3.996
   64CHL1   C22 5898   3.011   2.246   4.174
   64CHL1  H22A 5899   2.965   2.190   4.258
   64CHL1  H22B 5900   3.110   2.196   4.164
   64CHL1   C23 5901   3.029   2.391   4.223
   64CHL1  H23A 5902   3.063   2.451   4.136
   64CHL1  H23B 5903   2.926   2.426   4.244
   64CHL1   C24 5904   3.128   2.403   4.342
   64CHL1  H24A 5905   3.132   2.507   4.383
   64CHL1  H24B 5906   3.087   2.330   4.415
   64CHL1   C25 5907   3.274   2.364   4.315
   64CHL1   H25 5908   3.281   2.255   4.293
   64CHL1   C26 5909   3.333   2.440   4.194
   64CHL1  H26A 5910   3.280   2.425   4.098
   64CHL1  H26B 5911   3.336   2.546   4.227
   64CHL1  H26C 5912   3.439   2.415   4.171
   64CHL1   C27 5913   3.355   2.390   4.441
   64CHL1  H27A 5914   3.343   2.499   4.460
   64CHL1  H27B 5915   3.302   2.345   4.528
   64CHL1  H27C 5916   3.458   2.348   4.437
   65CHL1    C3 5917   0.930   0.031   2.445
   65CHL1    H3 5918   0.916   0.141   2.456
   65CHL1    O3 5919   0.945   0.002   2.311
   65CHL1   H3' 5920   0.931   6.705   2.295
   65CHL1    C4 5921   1.046   6.773   2.515
   65CHL1   H4A 5922   1.062   6.666   2.489
   65CHL1   H4B 5923   1.133   0.031   2.473
   65CHL1    C5 5924   1.039   6.793   2.662
   65CHL1    C6 5925   1.134   0.065   2.733
   65CHL1    H6 5926   1.219   0.106   2.677
   65CHL1    C7 5927   1.122   0.081   2.880
   65CHL1   H7A 5928   1.226   0.071   2.919
   65CHL1   H7B 5929   1.083   0.180   2.910
   65CHL1    C8 5930   1.026   6.770   2.947
   65CHL1    H8 5931   1.069   6.667   2.947
   65CHL1   C14 5932   1.002   0.009   3.096
   65CHL1   H14 5933   0.959   0.111   3.107
   65CHL1   C15 5934   1.127   0.026   3.189
   65CHL1  H15A 5935   1.199   6.744   3.157
   65CHL1  H15B 5936   1.181   0.121   3.173
   65CHL1   C16 5937   1.067   0.011   3.327
   65CHL1  H16A 5938   1.119   6.729   3.386
   65CHL1  H16B 5939   1.072   0.107   3.382
   65CHL1   C17 5940   0.913   6.785   3.313
   65CHL1   H17 5941   0.867   0.090   3.314
   65CHL1   C13 5942   0.895   6.722   3.167
   65CHL1   C18 5943   0.941   6.572   3.164
   65CHL1  H18A 5944   0.942   6.538   3.058
   65CHL1  H18B 5945   1.048   6.562   3.191
   65CHL1  H18C 5946   0.878   6.512   3.233
   65CHL1   C12 5947   0.752   6.735   3.096
   65CHL1  H12A 5948   0.680   6.664   3.142
   65CHL1  H12B 5949   0.710   0.040   3.109
   65CHL1   C11 5950   0.770   6.695   2.946
   65CHL1  H11A 5951   0.784   6.585   2.935
   65CHL1  H11B 5952   0.680   6.734   2.895
   65CHL1    C9 5953   0.889   6.772   2.869
   65CHL1    H9 5954   0.861   0.083   2.871
   65CHL1   C10 5955   0.914   6.732   2.723
   65CHL1   C19 5956   0.921   6.573   2.711
   65CHL1  H19A 5957   0.953   6.540   2.609
   65CHL1  H19B 5958   0.994   6.539   2.788
   65CHL1  H19C 5959   0.823   6.524   2.731
   65CHL1    C1 5960   0.789   6.787   2.644
   65CHL1   H1A 5961   0.698   6.740   2.686
   65CHL1   H1B 5962   0.780   0.099   2.666
   65CHL1    C2 5963   0.802   6.762   2.494
   65CHL1   H2A 5964   0.712   0.019   2.455
   65CHL1   H2B 5965   0.798   6.653   2.475
   65CHL1   C20 5966   0.860   6.719   3.436
   65CHL1   H20 5967   0.917   6.626   3.459
   65CHL1   C21 5968   0.721   6.682   3.427
   65CHL1  H21A 5969   0.656   6.772   3.429
   65CHL1  H21B 5970   0.690   6.613   3.509
   65CHL1  H21C 5971   0.705   6.628   3.331
   65CHL1   C22 5972   0.881   0.009   3.567
   65CHL1  H22A 5973   0.988   0.027   3.591
   65CHL1  H22B 5974   0.836   0.108   3.544
   65CHL1   C23 5975   0.821   6.747   3.690
   65CHL1  H23A 5976   0.715   6.779   3.684
   65CHL1  H23B 5977   0.832   6.638   3.704
   65CHL1   C24 5978   0.871   0.008   3.829
   65CHL1  H24A 5979   0.977   6.773   3.839
   65CHL1  H24B 5980   0.880   0.119   3.828
   65CHL1   C25 5981   0.789   6.766   3.949
   65CHL1   H25 5982   0.683   0.002   3.935
   65CHL1   C26 5983   0.793   6.608   3.962
   65CHL1  H26A 5984   0.767   6.570   4.063
   65CHL1  H26B 5985   0.716   6.572   3.891
   65CHL1  H26C 5986   0.896   6.572   3.939
   65CHL1   C27 5987   0.835   0.043   4.073
   65CHL1  H27A 5988   0.760   0.031   4.154
   65CHL1  H27B 5989   0.934   6.795   4.100
   65CHL1  H27C 5990   0.846   0.152   4.055
   66CHL1    C3 5991   4.443   1.419   3.026
   66CHL1    H3 5992   4.535   1.359   3.045
   66CHL1    O3 5993   4.439   1.444   2.889
   66CHL1   H3' 5994   4.348   1.471   2.874
   66CHL1    C4 5995   4.317   1.340   3.072
   66CHL1   H4A 5996   4.238   1.411   3.042
   66CHL1   H4B 5997   4.323   1.247   3.011
   66CHL1    C5 5998   4.317   1.322   3.221
   66CHL1    C6 5999   4.313   1.204   3.272
   66CHL1    H6 6000   4.280   1.125   3.202
   66CHL1    C7 6001   4.308   1.181   3.419
   66CHL1   H7A 6002   4.247   1.088   3.425
   66CHL1   H7B 6003   4.407   1.149   3.458
   66CHL1    C8 6004   4.278   1.310   3.503
   66CHL1    H8 6005   4.169   1.327   3.487
   66CHL1   C14 6006   4.290   1.287   3.652
   66CHL1   H14 6007   4.395   1.251   3.659
   66CHL1   C15 6008   4.213   1.164   3.704
   66CHL1  H15A 6009   4.105   1.173   3.678
   66CHL1  H15B 6010   4.263   1.069   3.677
   66CHL1   C16 6011   4.224   1.184   3.857
   66CHL1  H16A 6012   4.124   1.171   3.903
   66CHL1  H16B 6013   4.286   1.098   3.892
   66CHL1   C17 6014   4.289   1.327   3.876
   66CHL1   H17 6015   4.398   1.309   3.868
   66CHL1   C13 6016   4.275   1.404   3.745
   66CHL1   C18 6017   4.132   1.464   3.739
   66CHL1  H18A 6018   4.055   1.394   3.779
   66CHL1  H18B 6019   4.124   1.554   3.804
   66CHL1  H18C 6020   4.101   1.477   3.633
   66CHL1   C12 6021   4.390   1.497   3.699
   66CHL1  H12A 6022   4.393   1.585   3.768
   66CHL1  H12B 6023   4.489   1.448   3.696
   66CHL1   C11 6024   4.354   1.545   3.555
   66CHL1  H11A 6025   4.258   1.601   3.543
   66CHL1  H11B 6026   4.434   1.619   3.531
   66CHL1    C9 6027   4.359   1.419   3.455
   66CHL1    H9 6028   4.464   1.383   3.449
   66CHL1   C10 6029   4.330   1.455   3.300
   66CHL1   C19 6030   4.191   1.535   3.287
   66CHL1  H19A 6031   4.160   1.555   3.182
   66CHL1  H19B 6032   4.118   1.470   3.340
   66CHL1  H19C 6033   4.215   1.635   3.330
   66CHL1    C1 6034   4.456   1.528   3.246
   66CHL1   H1A 6035   4.474   1.616   3.312
   66CHL1   H1B 6036   4.545   1.463   3.260
   66CHL1    C2 6037   4.450   1.554   3.098
   66CHL1   H2A 6038   4.544   1.607   3.071
   66CHL1   H2B 6039   4.362   1.622   3.091
   66CHL1   C20 6040   4.263   1.389   4.015
   66CHL1   H20 6041   4.154   1.406   4.024
   66CHL1   C21 6042   4.342   1.524   4.028
   66CHL1  H21A 6043   4.310   1.588   3.943
   66CHL1  H21B 6044   4.448   1.501   4.002
   66CHL1  H21C 6045   4.329   1.581   4.122
   66CHL1   C22 6046   4.319   1.295   4.132
   66CHL1  H22A 6047   4.297   1.187   4.123
   66CHL1  H22B 6048   4.430   1.308   4.126
   66CHL1   C23 6049   4.264   1.347   4.263
   66CHL1  H23A 6050   4.307   1.449   4.274
   66CHL1  H23B 6051   4.155   1.360   4.245
   66CHL1   C24 6052   4.317   1.267   4.383
   66CHL1  H24A 6053   4.265   1.169   4.385
   66CHL1  H24B 6054   4.427   1.254   4.369
   66CHL1   C25 6055   4.294   1.328   4.517
   66CHL1   H25 6056   4.339   1.429   4.506
   66CHL1   C26 6057   4.144   1.335   4.555
   66CHL1  H26A 6058   4.094   1.392   4.474
   66CHL1  H26B 6059   4.102   1.233   4.557
   66CHL1  H26C 6060   4.127   1.382   4.655
   66CHL1   C27 6061   4.377   1.267   4.631
   66CHL1  H27A 6062   4.357   1.316   4.729
   66CHL1  H27B 6063   4.487   1.275   4.624
   66CHL1  H27C 6064   4.352   1.160   4.642
   67CHL1    C3 6065   4.389   6.032   2.927
   67CHL1    H3 6066   4.399   6.128   2.982
   67CHL1    O3 6067   4.426   6.051   2.788
   67CHL1   H3' 6068   4.483   5.977   2.765
   67CHL1    C4 6069   4.483   5.938   2.994
   67CHL1   H4A 6070   4.487   5.842   2.938
   67CHL1   H4B 6071   4.584   5.982   2.986
   67CHL1    C5 6072   4.445   5.922   3.138
   67CHL1    C6 6073   4.545   5.946   3.231
   67CHL1    H6 6074   4.639   5.989   3.194
   67CHL1    C7 6075   4.523   5.923   3.374
   67CHL1   H7A 6076   4.604   5.867   3.425
   67CHL1   H7B 6077   4.507   6.013   3.438
   67CHL1    C8 6078   4.386   5.844   3.400
   67CHL1    H8 6079   4.401   5.737   3.374
   67CHL1   C14 6080   4.351   5.868   3.544
   67CHL1   H14 6081   4.327   5.976   3.547
   67CHL1   C15 6082   4.464   5.866   3.655
   67CHL1  H15A 6083   4.543   5.792   3.627
   67CHL1  H15B 6084   4.528   5.957   3.654
   67CHL1   C16 6085   4.396   5.833   3.786
   67CHL1  H16A 6086   4.427   5.730   3.813
   67CHL1  H16B 6087   4.421   5.897   3.873
   67CHL1   C17 6088   4.241   5.832   3.747
   67CHL1   H17 6089   4.202   5.936   3.752
   67CHL1   C13 6090   4.233   5.794   3.598
   67CHL1   C18 6091   4.261   5.640   3.598
   67CHL1  H18A 6092   4.168   5.590   3.634
   67CHL1  H18B 6093   4.288   5.598   3.498
   67CHL1  H18C 6094   4.344   5.607   3.663
   67CHL1   C12 6095   4.112   5.851   3.523
   67CHL1  H12A 6096   4.024   5.787   3.548
   67CHL1  H12B 6097   4.080   5.956   3.539
   67CHL1   C11 6098   4.130   5.841   3.369
   67CHL1  H11A 6099   4.135   5.734   3.338
   67CHL1  H11B 6100   4.049   5.894   3.314
   67CHL1    C9 6101   4.270   5.897   3.316
   67CHL1    H9 6102   4.266   6.007   3.334
   67CHL1   C10 6103   4.295   5.880   3.166
   67CHL1   C19 6104   4.278   5.732   3.121
   67CHL1  H19A 6105   4.174   5.693   3.131
   67CHL1  H19B 6106   4.306   5.705   3.017
   67CHL1  H19C 6107   4.337   5.659   3.180
   67CHL1    C1 6108   4.204   5.969   3.089
   67CHL1   H1A 6109   4.100   5.939   3.113
   67CHL1   H1B 6110   4.201   6.074   3.125
   67CHL1    C2 6111   4.250   5.977   2.942
   67CHL1   H2A 6112   4.179   6.038   2.882
   67CHL1   H2B 6113   4.253   5.875   2.897
   67CHL1   C20 6114   4.166   5.748   3.844
   67CHL1   H20 6115   4.204   5.643   3.843
   67CHL1   C21 6116   4.019   5.735   3.812
   67CHL1  H21A 6117   4.009   5.680   3.715
   67CHL1  H21B 6118   3.981   5.838   3.798
   67CHL1  H21C 6119   3.951   5.687   3.886
   67CHL1   C22 6120   4.175   5.796   3.990
   67CHL1  H22A 6121   4.277   5.834   4.013
   67CHL1  H22B 6122   4.112   5.887   3.992
   67CHL1   C23 6123   4.144   5.708   4.103
   67CHL1  H23A 6124   4.047   5.654   4.092
   67CHL1  H23B 6125   4.219   5.627   4.111
   67CHL1   C24 6126   4.156   5.768   4.240
   67CHL1  H24A 6127   4.252   5.820   4.257
   67CHL1  H24B 6128   4.089   5.855   4.252
   67CHL1   C25 6129   4.132   5.671   4.361
   67CHL1   H25 6130   4.181   5.574   4.339
   67CHL1   C26 6131   4.179   5.720   4.499
   67CHL1  H26A 6132   4.290   5.717   4.507
   67CHL1  H26B 6133   4.133   5.819   4.514
   67CHL1  H26C 6134   4.131   5.654   4.575
   67CHL1   C27 6135   3.984   5.641   4.369
   67CHL1  H27A 6136   3.923   5.730   4.396
   67CHL1  H27B 6137   3.951   5.617   4.266
   67CHL1  H27C 6138   3.970   5.556   4.438
   68CHL1    C3 6139   1.800   5.005   3.081
   68CHL1    H3 6140   1.902   5.045   3.063
   68CHL1    O3 6141   1.719   5.003   2.968
   68CHL1   H3' 6142   1.691   4.912   2.957
   68CHL1    C4 6143   1.803   4.863   3.151
   68CHL1   H4A 6144   1.701   4.825   3.171
   68CHL1   H4B 6145   1.844   4.794   3.075
   68CHL1    C5 6146   1.872   4.859   3.282
   68CHL1    C6 6147   1.973   4.774   3.313
   68CHL1    H6 6148   1.993   4.697   3.237
   68CHL1    C7 6149   2.045   4.771   3.443
   68CHL1   H7A 6150   2.072   4.670   3.478
   68CHL1   H7B 6151   2.137   4.832   3.435
   68CHL1    C8 6152   1.964   4.846   3.554
   68CHL1    H8 6153   1.877   4.783   3.582
   68CHL1   C14 6154   2.058   4.866   3.677
   68CHL1   H14 6155   2.152   4.913   3.642
   68CHL1   C15 6156   2.097   4.733   3.752
   68CHL1  H15A 6157   2.008   4.673   3.781
   68CHL1  H15B 6158   2.171   4.667   3.701
   68CHL1   C16 6159   2.165   4.788   3.882
   68CHL1  H16A 6160   2.121   4.732   3.967
   68CHL1  H16B 6161   2.275   4.782   3.876
   68CHL1   C17 6162   2.109   4.932   3.895
   68CHL1   H17 6163   2.189   4.997   3.855
   68CHL1   C13 6164   1.997   4.956   3.789
   68CHL1   C18 6165   1.867   4.895   3.854
   68CHL1  H18A 6166   1.832   4.972   3.926
   68CHL1  H18B 6167   1.786   4.873   3.782
   68CHL1  H18C 6168   1.882   4.801   3.912
   68CHL1   C12 6169   1.984   5.095   3.724
   68CHL1  H12A 6170   1.945   5.169   3.798
   68CHL1  H12B 6171   2.082   5.124   3.682
   68CHL1   C11 6172   1.882   5.084   3.606
   68CHL1  H11A 6173   1.783   5.059   3.650
   68CHL1  H11B 6174   1.867   5.186   3.566
   68CHL1    C9 6175   1.927   4.987   3.496
   68CHL1    H9 6176   2.019   5.034   3.455
   68CHL1   C10 6177   1.832   4.969   3.380
   68CHL1   C19 6178   1.688   4.927   3.433
   68CHL1  H19A 6179   1.702   4.852   3.514
   68CHL1  H19B 6180   1.640   5.013   3.483
   68CHL1  H19C 6181   1.617   4.888   3.358
   68CHL1    C1 6182   1.816   5.104   3.317
   68CHL1   H1A 6183   1.766   5.182   3.379
   68CHL1   H1B 6184   1.909   5.157   3.289
   68CHL1    C2 6185   1.735   5.099   3.184
   68CHL1   H2A 6186   1.716   5.204   3.151
   68CHL1   H2B 6187   1.630   5.065   3.202
   68CHL1   C20 6188   2.088   4.971   4.041
   68CHL1   H20 6189   2.004   4.914   4.086
   68CHL1   C21 6190   2.059   5.125   4.053
   68CHL1  H21A 6191   2.134   5.178   3.990
   68CHL1  H21B 6192   2.081   5.154   4.157
   68CHL1  H21C 6193   1.957   5.155   4.020
   68CHL1   C22 6194   2.221   4.935   4.121
   68CHL1  H22A 6195   2.240   4.826   4.117
   68CHL1  H22B 6196   2.301   4.986   4.063
   68CHL1   C23 6197   2.224   4.972   4.272
   68CHL1  H23A 6198   2.313   4.924   4.319
   68CHL1  H23B 6199   2.241   5.081   4.284
   68CHL1   C24 6200   2.101   4.925   4.350
   68CHL1  H24A 6201   2.010   4.976   4.311
   68CHL1  H24B 6202   2.083   4.818   4.325
   68CHL1   C25 6203   2.129   4.942   4.500
   68CHL1   H25 6204   2.192   5.031   4.520
   68CHL1   C26 6205   1.993   4.955   4.578
   68CHL1  H26A 6206   2.009   4.955   4.688
   68CHL1  H26B 6207   1.937   5.044   4.542
   68CHL1  H26C 6208   1.932   4.864   4.557
   68CHL1   C27 6209   2.206   4.820   4.558
   68CHL1  H27A 6210   2.304   4.808   4.508
   68CHL1  H27B 6211   2.222   4.847   4.664
   68CHL1  H27C 6212   2.143   4.729   4.547
   69CHL1    C3 6213   0.967   2.551   2.511
   69CHL1    H3 6214   1.009   2.449   2.499
   69CHL1    O3 6215   0.984   2.624   2.393
   69CHL1   H3' 6216   1.059   2.578   2.353
   69CHL1    C4 6217   0.818   2.541   2.550
   69CHL1   H4A 6218   0.781   2.644   2.566
   69CHL1   H4B 6219   0.766   2.499   2.461
   69CHL1    C5 6220   0.790   2.467   2.684
   69CHL1    C6 6221   0.703   2.365   2.696
   69CHL1    H6 6222   0.645   2.332   2.609
   69CHL1    C7 6223   0.666   2.305   2.836
   69CHL1   H7A 6224   0.556   2.314   2.846
   69CHL1   H7B 6225   0.702   2.201   2.847
   69CHL1    C8 6226   0.722   2.389   2.962
   69CHL1    H8 6227   0.649   2.472   2.974
   69CHL1   C14 6228   0.716   2.313   3.088
   69CHL1   H14 6229   0.781   2.224   3.071
   69CHL1   C15 6230   0.582   2.253   3.134
   69CHL1  H15A 6231   0.494   2.321   3.125
   69CHL1  H15B 6232   0.561   2.152   3.091
   69CHL1   C16 6233   0.602   2.222   3.284
   69CHL1  H16A 6234   0.534   2.287   3.343
   69CHL1  H16B 6235   0.577   2.115   3.301
   69CHL1   C17 6236   0.753   2.266   3.319
   69CHL1   H17 6237   0.816   2.176   3.298
   69CHL1   C13 6238   0.785   2.375   3.214
   69CHL1   C18 6239   0.722   2.514   3.245
   69CHL1  H18A 6240   0.745   2.591   3.168
   69CHL1  H18B 6241   0.612   2.502   3.255
   69CHL1  H18C 6242   0.763   2.573   3.330
   69CHL1   C12 6243   0.932   2.386   3.177
   69CHL1  H12A 6244   0.999   2.413   3.261
   69CHL1  H12B 6245   0.969   2.283   3.161
   69CHL1   C11 6246   0.953   2.473   3.047
   69CHL1  H11A 6247   0.926   2.575   3.081
   69CHL1  H11B 6248   1.062   2.467   3.030
   69CHL1    C9 6249   0.863   2.435   2.926
   69CHL1    H9 6250   0.910   2.342   2.889
   69CHL1   C10 6251   0.869   2.525   2.800
   69CHL1   C19 6252   0.812   2.667   2.838
   69CHL1  H19A 6253   0.789   2.723   2.745
   69CHL1  H19B 6254   0.724   2.665   2.906
   69CHL1  H19C 6255   0.897   2.720   2.886
   69CHL1    C1 6256   1.013   2.539   2.751
   69CHL1   H1A 6257   1.085   2.575   2.828
   69CHL1   H1B 6258   1.053   2.440   2.720
   69CHL1    C2 6259   1.034   2.620   2.626
   69CHL1   H2A 6260   1.143   2.623   2.603
   69CHL1   H2B 6261   1.001   2.724   2.652
   69CHL1   C20 6262   0.772   2.309   3.463
   69CHL1   H20 6263   0.720   2.406   3.475
   69CHL1   C21 6264   0.914   2.340   3.506
   69CHL1  H21A 6265   0.938   2.441   3.465
   69CHL1  H21B 6266   0.994   2.267   3.480
   69CHL1  H21C 6267   0.904   2.351   3.616
   69CHL1   C22 6268   0.721   2.199   3.551
   69CHL1  H22A 6269   0.618   2.179   3.515
   69CHL1  H22B 6270   0.777   2.106   3.525
   69CHL1   C23 6271   0.698   2.224   3.697
   69CHL1  H23A 6272   0.783   2.263   3.758
   69CHL1  H23B 6273   0.618   2.297   3.719
   69CHL1   C24 6274   0.647   2.091   3.757
   69CHL1  H24A 6275   0.554   2.061   3.703
   69CHL1  H24B 6276   0.724   2.011   3.747
   69CHL1   C25 6277   0.608   2.103   3.905
   69CHL1   H25 6278   0.552   2.196   3.928
   69CHL1   C26 6279   0.506   1.989   3.939
   69CHL1  H26A 6280   0.549   1.895   3.896
   69CHL1  H26B 6281   0.496   1.995   4.049
   69CHL1  H26C 6282   0.413   2.001   3.880
   69CHL1   C27 6283   0.728   2.102   4.002
   69CHL1  H27A 6284   0.795   2.190   3.992
   69CHL1  H27B 6285   0.694   2.088   4.106
   69CHL1  H27C 6286   0.793   2.013   3.986
   70CHL1    C3 6287   2.723   0.141   2.808
   70CHL1    H3 6288   2.779   0.045   2.812
   70CHL1    O3 6289   2.708   0.172   2.670
   70CHL1   H3' 6290   2.777   0.236   2.653
   70CHL1    C4 6291   2.585   0.125   2.875
   70CHL1   H4A 6292   2.529   0.217   2.846
   70CHL1   H4B 6293   2.537   0.044   2.817
   70CHL1    C5 6294   2.581   0.104   3.027
   70CHL1    C6 6295   2.529   6.790   3.079
   70CHL1    H6 6296   2.470   6.722   3.016
   70CHL1    C7 6297   2.521   6.758   3.227
   70CHL1   H7A 6298   2.422   6.708   3.241
   70CHL1   H7B 6299   2.596   6.681   3.255
   70CHL1    C8 6300   2.553   0.085   3.317
   70CHL1    H8 6301   2.461   0.147   3.315
   70CHL1   C14 6302   2.583   0.049   3.461
   70CHL1   H14 6303   2.668   6.774   3.457
   70CHL1   C15 6304   2.472   6.762   3.534
   70CHL1  H15A 6305   2.376   0.018   3.515
   70CHL1  H15B 6306   2.474   6.657   3.496
   70CHL1   C16 6307   2.506   6.775   3.683
   70CHL1  H16A 6308   2.411   0.016   3.727
   70CHL1  H16B 6309   2.542   6.684   3.736
   70CHL1   C17 6310   2.625   0.087   3.692
   70CHL1   H17 6311   2.720   0.029   3.699
   70CHL1   C13 6312   2.616   0.164   3.557
   70CHL1   C18 6313   2.499   0.265   3.563
   70CHL1  H18A 6314   2.520   0.365   3.606
   70CHL1  H18B 6315   2.457   0.280   3.461
   70CHL1  H18C 6316   2.411   0.234   3.623
   70CHL1   C12 6317   2.746   0.229   3.503
   70CHL1  H12A 6318   2.766   0.320   3.563
   70CHL1  H12B 6319   2.832   0.159   3.506
   70CHL1   C11 6320   2.726   0.275   3.357
   70CHL1  H11A 6321   2.644   0.351   3.358
   70CHL1  H11B 6322   2.815   0.327   3.317
   70CHL1    C9 6323   2.676   0.158   3.262
   70CHL1    H9 6324   2.763   0.089   3.264
   70CHL1   C10 6325   2.665   0.205   3.111
   70CHL1   C19 6326   2.591   0.343   3.113
   70CHL1  H19A 6327   2.651   0.426   3.156
   70CHL1  H19B 6328   2.562   0.382   3.013
   70CHL1  H19C 6329   2.506   0.337   3.184
   70CHL1    C1 6330   2.807   0.211   3.044
   70CHL1   H1A 6331   2.865   0.288   3.099
   70CHL1   H1B 6332   2.867   0.121   3.071
   70CHL1    C2 6333   2.806   0.241   2.890
   70CHL1   H2A 6334   2.912   0.234   2.855
   70CHL1   H2B 6335   2.772   0.345   2.875
   70CHL1   C20 6336   2.623   0.167   3.821
   70CHL1   H20 6337   2.521   0.211   3.818
   70CHL1   C21 6338   2.728   0.278   3.829
   70CHL1  H21A 6339   2.831   0.244   3.803
   70CHL1  H21B 6340   2.728   0.330   3.927
   70CHL1  H21C 6341   2.691   0.347   3.750
   70CHL1   C22 6342   2.623   0.089   3.960
   70CHL1  H22A 6343   2.638   0.175   4.028
   70CHL1  H22B 6344   2.523   0.041   3.962
   70CHL1   C23 6345   2.741   6.784   3.974
   70CHL1  H23A 6346   2.729   6.705   3.897
   70CHL1  H23B 6347   2.838   0.040   3.965
   70CHL1   C24 6348   2.740   6.706   4.110
   70CHL1  H24A 6349   2.764   6.773   4.196
   70CHL1  H24B 6350   2.640   6.658   4.115
   70CHL1   C25 6351   2.861   6.602   4.111
   70CHL1   H25 6352   2.867   6.552   4.012
   70CHL1   C26 6353   2.984   6.677   4.148
   70CHL1  H26A 6354   3.034   6.711   4.055
   70CHL1  H26B 6355   2.975   6.767   4.213
   70CHL1  H26C 6356   3.049   6.598   4.191
   70CHL1   C27 6357   2.822   6.499   4.222
   70CHL1  H27A 6358   2.811   6.551   4.320
   70CHL1  H27B 6359   2.720   6.461   4.203
   70CHL1  H27C 6360   2.901   6.425   4.246
   71CHL1    C3 6361   6.152   5.661   2.869
   71CHL1    H3 6362   6.111   5.559   2.881
   71CHL1    O3 6363   6.177   5.673   2.731
   71CHL1   H3' 6364   6.111   5.732   2.693
   71CHL1    C4 6365   6.061   5.769   2.917
   71CHL1   H4A 6366   6.110   5.866   2.894
   71CHL1   H4B 6367   5.959   5.769   2.873
   71CHL1    C5 6368   6.027   5.760   3.068
   71CHL1    C6 6369   5.902   5.747   3.116
   71CHL1    H6 6370   5.814   5.738   3.050
   71CHL1    C7 6371   5.871   5.737   3.265
   71CHL1   H7A 6372   5.796   5.816   3.287
   71CHL1   H7B 6373   5.825   5.637   3.275
   71CHL1    C8 6374   5.991   5.772   3.357
   71CHL1    H8 6375   5.991   5.883   3.359
   71CHL1   C14 6376   5.962   5.726   3.499
   71CHL1   H14 6377   5.951   5.616   3.492
   71CHL1   C15 6378   5.830   5.782   3.561
   71CHL1  H15A 6379   5.826   5.890   3.535
   71CHL1  H15B 6380   5.745   5.726   3.515
   71CHL1   C16 6381   5.853   5.756   3.708
   71CHL1  H16A 6382   5.853   5.856   3.756
   71CHL1  H16B 6383   5.772   5.694   3.752
   71CHL1   C17 6384   5.995   5.707   3.723
   71CHL1   H17 6385   6.006   5.596   3.717
   71CHL1   C13 6386   6.072   5.760   3.596
   71CHL1   C18 6387   6.099   5.915   3.619
   71CHL1  H18A 6388   6.140   5.946   3.520
   71CHL1  H18B 6389   6.017   5.980   3.655
   71CHL1  H18C 6390   6.179   5.933   3.694
   71CHL1   C12 6391   6.199   5.683   3.549
   71CHL1  H12A 6392   6.286   5.677   3.617
   71CHL1  H12B 6393   6.165   5.578   3.551
   71CHL1   C11 6394   6.242   5.722   3.404
   71CHL1  H11A 6395   6.284   5.825   3.403
   71CHL1  H11B 6396   6.324   5.655   3.369
   71CHL1    C9 6397   6.126   5.710   3.303
   71CHL1    H9 6398   6.098   5.602   3.301
   71CHL1   C10 6399   6.152   5.748   3.158
   71CHL1   C19 6400   6.219   5.890   3.158
   71CHL1  H19A 6401   6.230   5.929   3.054
   71CHL1  H19B 6402   6.162   5.967   3.213
   71CHL1  H19C 6403   6.318   5.891   3.209
   71CHL1    C1 6404   6.242   5.639   3.096
   71CHL1   H1A 6405   6.334   5.632   3.158
   71CHL1   H1B 6406   6.196   5.539   3.109
   71CHL1    C2 6407   6.280   5.661   2.946
   71CHL1   H2A 6408   6.356   5.588   2.912
   71CHL1   H2B 6409   6.321   5.764   2.938
   71CHL1   C20 6410   6.045   5.739   3.867
   71CHL1   H20 6411   6.052   5.846   3.896
   71CHL1   C21 6412   6.192   5.695   3.893
   71CHL1  H21A 6413   6.222   5.731   3.994
   71CHL1  H21B 6414   6.263   5.735   3.818
   71CHL1  H21C 6415   6.183   5.586   3.878
   71CHL1   C22 6416   5.954   5.673   3.973
   71CHL1  H22A 6417   5.848   5.704   3.958
   71CHL1  H22B 6418   5.975   5.567   3.947
   71CHL1   C23 6419   5.998   5.680   4.121
   71CHL1  H23A 6420   6.087   5.617   4.143
   71CHL1  H23B 6421   6.039   5.782   4.142
   71CHL1   C24 6422   5.879   5.640   4.214
   71CHL1  H24A 6423   5.808   5.725   4.216
   71CHL1  H24B 6424   5.832   5.550   4.169
   71CHL1   C25 6425   5.919   5.598   4.359
   71CHL1   H25 6426   5.830   5.591   4.424
   71CHL1   C26 6427   5.990   5.463   4.383
   71CHL1  H26A 6428   5.994   5.437   4.491
   71CHL1  H26B 6429   5.923   5.394   4.327
   71CHL1  H26C 6430   6.090   5.458   4.337
   71CHL1   C27 6431   6.008   5.707   4.421
   71CHL1  H27A 6432   6.033   5.690   4.528
   71CHL1  H27B 6433   6.103   5.721   4.365
   71CHL1  H27C 6434   5.957   5.806   4.420
   72CHL1    C3 6435   0.059   4.441   2.821
   72CHL1    H3 6436   0.047   4.550   2.832
   72CHL1    O3 6437   0.058   4.402   2.682
   72CHL1   H3' 6438   0.139   4.448   2.659
   72CHL1    C4 6439   0.189   4.400   2.888
   72CHL1   H4A 6440   0.212   4.294   2.865
   72CHL1   H4B 6441   0.274   4.458   2.846
   72CHL1    C5 6442   0.171   4.432   3.038
   72CHL1    C6 6443   0.253   4.521   3.101
   72CHL1    H6 6444   0.328   4.572   3.038
   72CHL1    C7 6445   0.260   4.555   3.246
   72CHL1   H7A 6446   0.366   4.549   3.282
   72CHL1   H7B 6447   0.214   4.650   3.278
   72CHL1    C8 6448   0.181   4.445   3.334
   72CHL1    H8 6449   0.246   4.357   3.317
   72CHL1   C14 6450   0.170   4.487   3.476
   72CHL1   H14 6451   0.114   4.582   3.481
   72CHL1   C15 6452   0.307   4.523   3.547
   72CHL1  H15A 6453   0.386   4.450   3.522
   72CHL1  H15B 6454   0.348   4.625   3.533
   72CHL1   C16 6455   0.268   4.506   3.697
   72CHL1  H16A 6456   0.337   4.426   3.733
   72CHL1  H16B 6457   0.282   4.599   3.755
   72CHL1   C17 6458   0.120   4.455   3.701
   72CHL1   H17 6459   0.055   4.545   3.706
   72CHL1   C13 6460   0.097   4.386   3.569
   72CHL1   C18 6461   0.172   4.248   3.577
   72CHL1  H18A 6462   0.194   4.222   3.471
   72CHL1  H18B 6463   0.265   4.246   3.638
   72CHL1  H18C 6464   0.094   4.191   3.632
   72CHL1   C12 6465   6.747   4.379   3.518
   72CHL1  H12A 6466   6.689   4.318   3.591
   72CHL1  H12B 6467   6.710   4.484   3.518
   72CHL1   C11 6468   6.751   4.328   3.370
   72CHL1  H11A 6469   6.774   4.220   3.366
   72CHL1  H11B 6470   6.647   4.336   3.330
   72CHL1    C9 6471   0.048   4.417   3.271
   72CHL1    H9 6472   6.792   4.516   3.266
   72CHL1   C10 6473   0.059   4.366   3.121
   72CHL1   C19 6474   0.100   4.216   3.134
   72CHL1  H19A 6475   0.105   4.172   3.032
   72CHL1  H19B 6476   0.192   4.194   3.191
   72CHL1  H19C 6477   0.018   4.161   3.186
   72CHL1    C1 6478   6.722   4.397   3.042
   72CHL1   H1A 6479   6.625   4.351   3.072
   72CHL1   H1B 6480   6.704   4.506   3.050
   72CHL1    C2 6481   6.734   4.372   2.890
   72CHL1   H2A 6482   6.643   4.410   2.839
   72CHL1   H2B 6483   6.732   4.262   2.871
   72CHL1   C20 6484   0.075   4.382   3.838
   72CHL1   H20 6485   0.134   4.288   3.847
   72CHL1   C21 6486   6.718   4.364   3.848
   72CHL1  H21A 6487   6.689   4.258   3.828
   72CHL1  H21B 6488   6.664   4.426   3.773
   72CHL1  H21C 6489   6.678   4.395   3.947
   72CHL1   C22 6490   0.121   4.458   3.970
   72CHL1  H22A 6491   0.070   4.407   4.055
   72CHL1  H22B 6492   0.229   4.444   3.992
   72CHL1   C23 6493   0.071   4.601   3.987
   72CHL1  H23A 6494   0.138   4.661   3.921
   72CHL1  H23B 6495   6.761   4.604   3.955
   72CHL1   C24 6496   0.089   4.646   4.137
   72CHL1  H24A 6497   0.028   4.569   4.189
   72CHL1  H24B 6498   0.196   4.646   4.166
   72CHL1   C25 6499   0.034   4.783   4.175
   72CHL1   H25 6500   6.727   4.790   4.134
   72CHL1   C26 6501   0.023   4.809   4.321
   72CHL1  H26A 6502   6.758   4.901   4.331
   72CHL1  H26B 6503   6.758   4.734   4.376
   72CHL1  H26C 6504   0.124   4.821   4.366
   72CHL1   C27 6505   0.110   4.889   4.095
   72CHL1  H27A 6506   0.052   4.982   4.110
   72CHL1  H27B 6507   0.214   4.906   4.129
   72CHL1  H27C 6508   0.114   4.871   3.985
   73CHL1    C3 6509   1.120   4.786   3.110
   73CHL1    H3 6510   1.195   4.868   3.106
   73CHL1    O3 6511   1.104   4.750   2.973
   73CHL1   H3' 6512   1.037   4.808   2.935
   73CHL1    C4 6513   1.173   4.675   3.200
   73CHL1   H4A 6514   1.113   4.582   3.197
   73CHL1   H4B 6515   1.269   4.637   3.158
   73CHL1    C5 6516   1.194   4.716   3.344
   73CHL1    C6 6517   1.311   4.704   3.412
   73CHL1    H6 6518   1.403   4.662   3.368
   73CHL1    C7 6519   1.330   4.743   3.562
   73CHL1   H7A 6520   1.376   4.657   3.616
   73CHL1   H7B 6521   1.384   4.840   3.566
   73CHL1    C8 6522   1.197   4.763   3.638
   73CHL1    H8 6523   1.153   4.662   3.656
   73CHL1   C14 6524   1.221   4.820   3.766
   73CHL1   H14 6525   1.261   4.922   3.744
   73CHL1   C15 6526   1.324   4.768   3.867
   73CHL1  H15A 6527   1.328   4.657   3.870
   73CHL1  H15B 6528   1.421   4.815   3.844
   73CHL1   C16 6529   1.283   4.835   4.001
   73CHL1  H16A 6530   1.253   4.755   4.072
   73CHL1  H16B 6531   1.367   4.900   4.035
   73CHL1   C17 6532   1.149   4.912   3.983
   73CHL1   H17 6533   1.169   5.019   3.960
   73CHL1   C13 6534   1.092   4.848   3.850
   73CHL1   C18 6535   1.035   4.708   3.887
   73CHL1  H18A 6536   0.937   4.715   3.939
   73CHL1  H18B 6537   1.006   4.646   3.799
   73CHL1  H18C 6538   1.091   4.641   3.956
   73CHL1   C12 6539   0.993   4.937   3.761
   73CHL1  H12A 6540   0.904   4.959   3.824
   73CHL1  H12B 6541   1.040   5.036   3.748
   73CHL1   C11 6542   0.961   4.872   3.630
   73CHL1  H11A 6543   0.890   4.787   3.638
   73CHL1  H11B 6544   0.905   4.944   3.567
   73CHL1    C9 6545   1.094   4.842   3.555
   73CHL1    H9 6546   1.138   4.940   3.525
   73CHL1   C10 6547   1.064   4.781   3.415
   73CHL1   C19 6548   0.957   4.668   3.435
   73CHL1  H19A 6549   0.856   4.709   3.455
   73CHL1  H19B 6550   0.959   4.608   3.342
   73CHL1  H19C 6551   0.992   4.612   3.525
   73CHL1    C1 6552   1.012   4.887   3.312
   73CHL1   H1A 6553   0.925   4.941   3.355
   73CHL1   H1B 6554   1.095   4.960   3.298
   73CHL1    C2 6555   0.982   4.834   3.166
   73CHL1   H2A 6556   0.941   4.912   3.098
   73CHL1   H2B 6557   0.917   4.744   3.172
   73CHL1   C20 6558   1.060   4.919   4.111
   73CHL1   H20 6559   1.035   4.811   4.127
   73CHL1   C21 6560   0.940   5.013   4.091
   73CHL1  H21A 6561   0.891   5.022   4.190
   73CHL1  H21B 6562   0.864   4.955   4.034
   73CHL1  H21C 6563   0.957   5.111   4.042
   73CHL1   C22 6564   1.151   4.978   4.221
   73CHL1  H22A 6565   1.238   4.914   4.244
   73CHL1  H22B 6566   1.185   5.078   4.187
   73CHL1   C23 6567   1.087   5.002   4.359
   73CHL1  H23A 6568   1.040   5.103   4.352
   73CHL1  H23B 6569   1.012   4.922   4.379
   73CHL1   C24 6570   1.195   5.003   4.465
   73CHL1  H24A 6571   1.245   4.904   4.473
   73CHL1  H24B 6572   1.272   5.075   4.429
   73CHL1   C25 6573   1.157   5.051   4.611
   73CHL1   H25 6574   1.139   5.160   4.599
   73CHL1   C26 6575   1.041   4.965   4.671
   73CHL1  H26A 6576   1.049   4.954   4.781
   73CHL1  H26B 6577   0.940   5.000   4.642
   73CHL1  H26C 6578   1.055   4.863   4.629
   73CHL1   C27 6579   1.276   5.031   4.705
   73CHL1  H27A 6580   1.375   5.047   4.659
   73CHL1  H27B 6581   1.265   5.081   4.804
   73CHL1  H27C 6582   1.284   4.923   4.733
   74CHL1    C3 6583   0.943   3.995   2.983
   74CHL1    H3 6584   0.851   4.054   3.005
   74CHL1    O3 6585   0.918   3.945   2.855
   74CHL1   H3' 6586   0.987   3.879   2.844
   74CHL1    C4 6587   1.067   4.088   2.981
   74CHL1   H4A 6588   1.151   4.028   2.939
   74CHL1   H4B 6589   1.044   4.178   2.920
   74CHL1    C5 6590   1.102   4.130   3.123
   74CHL1    C6 6591   1.110   4.261   3.151
   74CHL1    H6 6592   1.106   4.328   3.064
   74CHL1    C7 6593   1.122   4.320   3.295
   74CHL1   H7A 6594   1.195   4.403   3.300
   74CHL1   H7B 6595   1.018   4.349   3.321
   74CHL1    C8 6596   1.171   4.205   3.401
   74CHL1    H8 6597   1.276   4.180   3.373
   74CHL1   C14 6598   1.152   4.245   3.546
   74CHL1   H14 6599   1.045   4.262   3.570
   74CHL1   C15 6600   1.220   4.378   3.584
   74CHL1  H15A 6601   1.317   4.387   3.532
   74CHL1  H15B 6602   1.156   4.466   3.561
   74CHL1   C16 6603   1.248   4.369   3.731
   74CHL1  H16A 6604   1.356   4.389   3.743
   74CHL1  H16B 6605   1.198   4.447   3.793
   74CHL1   C17 6606   1.202   4.225   3.780
   74CHL1   H17 6607   1.093   4.227   3.804
   74CHL1   C13 6608   1.205   4.148   3.647
   74CHL1   C18 6609   1.357   4.114   3.613
   74CHL1  H18A 6610   1.371   4.061   3.516
   74CHL1  H18B 6611   1.425   4.201   3.609
   74CHL1  H18C 6612   1.404   4.054   3.693
   74CHL1   C12 6613   1.121   4.024   3.630
   74CHL1  H12A 6614   1.141   3.936   3.695
   74CHL1  H12B 6615   1.018   4.056   3.656
   74CHL1   C11 6616   1.111   3.963   3.492
   74CHL1  H11A 6617   1.207   3.910   3.475
   74CHL1  H11B 6618   1.025   3.895   3.473
   74CHL1    C9 6619   1.098   4.074   3.373
   74CHL1    H9 6620   0.995   4.115   3.384
   74CHL1   C10 6621   1.101   4.019   3.231
   74CHL1   C19 6622   1.231   3.937   3.210
   74CHL1  H19A 6623   1.316   4.006   3.230
   74CHL1  H19B 6624   1.238   3.855   3.285
   74CHL1  H19C 6625   1.244   3.893   3.108
   74CHL1    C1 6626   0.986   3.917   3.218
   74CHL1   H1A 6627   1.005   3.823   3.274
   74CHL1   H1B 6628   0.893   3.959   3.264
   74CHL1    C2 6629   0.961   3.870   3.071
   74CHL1   H2A 6630   0.869   3.808   3.068
   74CHL1   H2B 6631   1.039   3.804   3.027
   74CHL1   C20 6632   1.283   4.173   3.896
   74CHL1   H20 6633   1.393   4.172   3.879
   74CHL1   C21 6634   1.237   4.034   3.926
   74CHL1  H21A 6635   1.283   3.963   3.854
   74CHL1  H21B 6636   1.127   4.031   3.942
   74CHL1  H21C 6637   1.278   4.000   4.024
   74CHL1   C22 6638   1.259   4.265   4.027
   74CHL1  H22A 6639   1.329   4.216   4.098
   74CHL1  H22B 6640   1.303   4.366   4.013
   74CHL1   C23 6641   1.124   4.268   4.085
   74CHL1  H23A 6642   1.048   4.285   4.005
   74CHL1  H23B 6643   1.110   4.172   4.139
   74CHL1   C24 6644   1.106   4.384   4.187
   74CHL1  H24A 6645   1.179   4.367   4.269
   74CHL1  H24B 6646   1.148   4.477   4.142
   74CHL1   C25 6647   0.961   4.400   4.241
   74CHL1   H25 6648   0.893   4.403   4.153
   74CHL1   C26 6649   0.919   4.273   4.314
   74CHL1  H26A 6650   0.911   4.191   4.240
   74CHL1  H26B 6651   0.990   4.240   4.393
   74CHL1  H26C 6652   0.826   4.283   4.373
   74CHL1   C27 6653   0.927   4.522   4.325
   74CHL1  H27A 6654   0.922   4.616   4.265
   74CHL1  H27B 6655   0.830   4.522   4.379
   74CHL1  H27C 6656   1.001   4.531   4.408
   75CHL1    C3 6657   1.199   2.988   2.718
   75CHL1    H3 6658   1.146   2.892   2.702
   75CHL1    O3 6659   1.271   3.037   2.605
   75CHL1   H3' 6660   1.336   3.097   2.644
   75CHL1    C4 6661   1.093   3.094   2.756
   75CHL1   H4A 6662   1.141   3.193   2.769
   75CHL1   H4B 6663   1.036   3.121   2.664
   75CHL1    C5 6664   1.022   3.046   2.882
   75CHL1    C6 6665   0.890   3.034   2.887
   75CHL1    H6 6666   0.834   3.075   2.802
   75CHL1    C7 6667   0.811   2.994   3.001
   75CHL1   H7A 6668   0.733   3.070   3.022
   75CHL1   H7B 6669   0.762   2.897   2.977
   75CHL1    C8 6670   0.891   2.984   3.137
   75CHL1    H8 6671   0.913   3.090   3.161
   75CHL1   C14 6672   0.817   2.920   3.250
   75CHL1   H14 6673   0.800   2.817   3.214
   75CHL1   C15 6674   0.684   2.983   3.279
   75CHL1  H15A 6675   0.679   3.093   3.266
   75CHL1  H15B 6676   0.610   2.944   3.205
   75CHL1   C16 6677   0.655   2.938   3.423
   75CHL1  H16A 6678   0.627   3.031   3.477
   75CHL1  H16B 6679   0.567   2.870   3.426
   75CHL1   C17 6680   0.788   2.868   3.467
   75CHL1   H17 6681   0.779   2.760   3.441
   75CHL1   C13 6682   0.895   2.924   3.379
   75CHL1   C18 6683   0.935   3.063   3.425
   75CHL1  H18A 6684   0.994   3.116   3.346
   75CHL1  H18B 6685   0.852   3.124   3.466
   75CHL1  H18C 6686   1.006   3.061   3.510
   75CHL1   C12 6687   1.024   2.835   3.358
   75CHL1  H12A 6688   1.086   2.822   3.449
   75CHL1  H12B 6689   0.982   2.733   3.340
   75CHL1   C11 6690   1.107   2.881   3.241
   75CHL1  H11A 6691   1.152   2.976   3.277
   75CHL1  H11B 6692   1.198   2.822   3.214
   75CHL1    C9 6693   1.024   2.919   3.115
   75CHL1    H9 6694   0.994   2.817   3.082
   75CHL1   C10 6695   1.111   2.989   3.000
   75CHL1   C19 6696   1.181   3.117   3.063
   75CHL1  H19A 6697   1.241   3.176   2.990
   75CHL1  H19B 6698   1.103   3.182   3.109
   75CHL1  H19C 6699   1.250   3.093   3.146
   75CHL1    C1 6700   1.227   2.899   2.953
   75CHL1   H1A 6701   1.305   2.894   3.032
   75CHL1   H1B 6702   1.194   2.795   2.931
   75CHL1    C2 6703   1.300   2.959   2.833
   75CHL1   H2A 6704   1.376   2.883   2.806
   75CHL1   H2B 6705   1.352   3.053   2.863
   75CHL1   C20 6706   0.815   2.863   3.620
   75CHL1   H20 6707   0.896   2.936   3.643
   75CHL1   C21 6708   0.838   2.722   3.664
   75CHL1  H21A 6709   0.878   2.723   3.768
   75CHL1  H21B 6710   0.906   2.648   3.616
   75CHL1  H21C 6711   0.746   2.660   3.666
   75CHL1   C22 6712   0.703   2.920   3.708
   75CHL1  H22A 6713   0.681   3.027   3.683
   75CHL1  H22B 6714   0.608   2.864   3.696
   75CHL1   C23 6715   0.731   2.935   3.860
   75CHL1  H23A 6716   0.744   2.830   3.894
   75CHL1  H23B 6717   0.834   2.976   3.859
   75CHL1   C24 6718   0.626   3.026   3.930
   75CHL1  H24A 6719   0.630   3.121   3.872
   75CHL1  H24B 6720   0.524   2.985   3.918
   75CHL1   C25 6721   0.642   3.080   4.078
   75CHL1   H25 6722   0.554   3.146   4.093
   75CHL1   C26 6723   0.640   2.967   4.180
   75CHL1  H26A 6724   0.555   2.899   4.158
   75CHL1  H26B 6725   0.724   2.895   4.172
   75CHL1  H26C 6726   0.623   3.000   4.285
   75CHL1   C27 6727   0.774   3.161   4.093
   75CHL1  H27A 6728   0.859   3.094   4.067
   75CHL1  H27B 6729   0.772   3.238   4.013
   75CHL1  H27C 6730   0.787   3.210   4.191
   76CHL1    C3 6731   6.380   4.822   2.815
   76CHL1    H3 6732   6.491   4.826   2.825
   76CHL1    O3 6733   6.347   4.857   2.678
   76CHL1   H3' 6734   6.369   4.777   2.631
   76CHL1    C4 6735   6.320   4.683   2.868
   76CHL1   H4A 6736   6.213   4.691   2.838
   76CHL1   H4B 6737   6.377   4.608   2.809
   76CHL1    C5 6738   6.341   4.657   3.017
   76CHL1    C6 6739   6.401   4.545   3.060
   76CHL1    H6 6740   6.426   4.477   2.978
   76CHL1    C7 6741   6.411   4.498   3.201
   76CHL1   H7A 6742   6.377   4.394   3.221
   76CHL1   H7B 6743   6.517   4.499   3.235
   76CHL1    C8 6744   6.332   4.602   3.287
   76CHL1    H8 6745   6.226   4.571   3.278
   76CHL1   C14 6746   6.365   4.579   3.435
   76CHL1   H14 6747   6.471   4.609   3.445
   76CHL1   C15 6748   6.347   4.438   3.495
   76CHL1  H15A 6749   6.260   4.377   3.462
   76CHL1  H15B 6750   6.445   4.395   3.465
   76CHL1   C16 6751   6.358   4.463   3.635
   76CHL1  H16A 6752   6.273   4.413   3.685
   76CHL1  H16B 6753   6.440   4.409   3.687
   76CHL1   C17 6754   6.358   4.615   3.657
   76CHL1   H17 6755   6.461   4.654   3.643
   76CHL1   C13 6756   6.291   4.667   3.534
   76CHL1   C18 6757   6.140   4.638   3.540
   76CHL1  H18A 6758   6.105   4.534   3.557
   76CHL1  H18B 6759   6.098   4.703   3.620
   76CHL1  H18C 6760   6.088   4.668   3.447
   76CHL1   C12 6761   6.322   4.810   3.499
   76CHL1  H12A 6762   6.253   4.869   3.563
   76CHL1  H12B 6763   6.431   4.832   3.509
   76CHL1   C11 6764   6.273   4.843   3.357
   76CHL1  H11A 6765   6.163   4.833   3.366
   76CHL1  H11B 6766   6.275   4.948   3.320
   76CHL1    C9 6767   6.347   4.750   3.249
   76CHL1    H9 6768   6.456   4.772   3.258
   76CHL1   C10 6769   6.298   4.778   3.107
   76CHL1   C19 6770   6.142   4.781   3.113
   76CHL1  H19A 6771   6.095   4.694   3.164
   76CHL1  H19B 6772   6.107   4.868   3.172
   76CHL1  H19C 6773   6.094   4.788   3.013
   76CHL1    C1 6774   6.354   4.910   3.051
   76CHL1   H1A 6775   6.309   4.992   3.110
   76CHL1   H1B 6776   6.465   4.910   3.060
   76CHL1    C2 6777   6.323   4.937   2.898
   76CHL1   H2A 6778   6.355   5.037   2.862
   76CHL1   H2B 6779   6.212   4.930   2.889
   76CHL1   C20 6780   6.322   4.659   3.798
   76CHL1   H20 6781   6.214   4.636   3.811
   76CHL1   C21 6782   6.328   4.817   3.808
   76CHL1  H21A 6783   6.231   4.865   3.782
   76CHL1  H21B 6784   6.404   4.860   3.739
   76CHL1  H21C 6785   6.368   4.836   3.910
   76CHL1   C22 6786   6.416   4.608   3.911
   76CHL1  H22A 6787   6.420   4.497   3.906
   76CHL1  H22B 6788   6.519   4.650   3.906
   76CHL1   C23 6789   6.361   4.629   4.050
   76CHL1  H23A 6790   6.361   4.738   4.074
   76CHL1  H23B 6791   6.259   4.585   4.059
   76CHL1   C24 6792   6.450   4.559   4.155
   76CHL1  H24A 6793   6.474   4.462   4.107
   76CHL1  H24B 6794   6.548   4.611   4.157
   76CHL1   C25 6795   6.393   4.545   4.298
   76CHL1   H25 6796   6.282   4.539   4.308
   76CHL1   C26 6797   6.464   4.425   4.367
   76CHL1  H26A 6798   6.573   4.420   4.345
   76CHL1  H26B 6799   6.469   4.444   4.476
   76CHL1  H26C 6800   6.409   4.331   4.346
   76CHL1   C27 6801   6.422   4.680   4.371
   76CHL1  H27A 6802   6.382   4.680   4.475
   76CHL1  H27B 6803   6.531   4.701   4.377
   76CHL1  H27C 6804   6.380   4.766   4.315
   77SOPE     N 6805   3.404   2.301   6.670
   77SOPE   HN1 6806   3.306   2.277   6.696
   77SOPE   HN2 6807   3.461   2.215   6.662
   77SOPE   HN3 6808   3.440   2.357   6.750
   77SOPE   C12 6809   3.403   2.390   6.547
   77SOPE  H12A 6810   3.340   2.332   6.476
   77SOPE  H12B 6811   3.500   2.381   6.493
   77SOPE   C11 6812   3.346   2.532   6.570
   77SOPE  H11A 6813   3.239   2.523   6.600
   77SOPE  H11B 6814   3.347   2.598   6.481
   77SOPE     P 6815   3.535   2.693   6.659
   77SOPE   O13 6816   3.633   2.625   6.571
   77SOPE   O14 6817   3.576   2.731   6.793
   77SOPE   O12 6818   3.413   2.592   6.681
   77SOPE   O11 6819   3.474   2.820   6.592
   77SOPE    C1 6820   3.364   2.893   6.644
   77SOPE    HA 6821   3.380   2.935   6.745
   77SOPE    HB 6822   3.269   2.834   6.647
   77SOPE    C2 6823   3.327   3.010   6.545
   77SOPE    HS 6824   3.217   3.028   6.553
   77SOPE   O21 6825   3.361   2.983   6.411
   77SOPE   C21 6826   3.287   2.887   6.358
   77SOPE   O22 6827   3.195   2.824   6.412
   77SOPE   C22 6828   3.314   2.876   6.208
   77SOPE   H2R 6829   3.421   2.903   6.193
   77SOPE   H2S 6830   3.257   2.953   6.151
   77SOPE    C3 6831   3.392   3.142   6.595
   77SOPE    HX 6832   3.495   3.115   6.625
   77SOPE    HY 6833   3.333   3.163   6.686
   77SOPE   O31 6834   3.370   3.250   6.505
   77SOPE   C31 6835   3.460   3.262   6.409
   77SOPE   O32 6836   3.559   3.191   6.395
   77SOPE   C32 6837   3.419   3.380   6.321
   77SOPE   H2X 6838   3.451   3.470   6.379
   77SOPE   H2Y 6839   3.309   3.372   6.322
   77SOPE   C23 6840   3.281   2.744   6.145
   77SOPE   H3R 6841   3.172   2.724   6.147
   77SOPE   H3S 6842   3.335   2.660   6.193
   77SOPE   C24 6843   3.333   2.738   5.994
   77SOPE   H4R 6844   3.426   2.797   5.997
   77SOPE   H4S 6845   3.349   2.628   5.988
   77SOPE   C25 6846   3.230   2.792   5.887
   77SOPE   H5R 6847   3.128   2.758   5.912
   77SOPE   H5S 6848   3.233   2.903   5.893
   77SOPE   C26 6849   3.264   2.747   5.743
   77SOPE   H6R 6850   3.370   2.715   5.729
   77SOPE   H6S 6851   3.208   2.653   5.721
   77SOPE   C27 6852   3.228   2.842   5.629
   77SOPE   H7R 6853   3.120   2.871   5.633
   77SOPE   H7S 6854   3.284   2.937   5.641
   77SOPE   C28 6855   3.254   2.782   5.495
   77SOPE   H8R 6856   3.364   2.769   5.483
   77SOPE   H8S 6857   3.213   2.679   5.490
   77SOPE   C29 6858   3.190   2.861   5.391
   77SOPE   H91 6859   3.082   2.869   5.409
   77SOPE  C210 6860   3.237   2.897   5.268
   77SOPE  H101 6861   3.171   2.952   5.198
   77SOPE  C211 6862   3.378   2.883   5.211
   77SOPE  H11R 6863   3.446   2.845   5.291
   77SOPE  H11S 6864   3.412   2.988   5.199
   77SOPE  C212 6865   3.398   2.806   5.081
   77SOPE  H12R 6866   3.318   2.840   5.012
   77SOPE  H12S 6867   3.371   2.702   5.109
   77SOPE  C213 6868   3.548   2.819   5.029
   77SOPE  H13R 6869   3.587   2.726   4.981
   77SOPE  H13S 6870   3.603   2.827   5.125
   77SOPE  C214 6871   3.576   2.948   4.940
   77SOPE  H14R 6872   3.687   2.953   4.935
   77SOPE  H14S 6873   3.546   3.035   5.002
   77SOPE  C215 6874   3.524   2.939   4.796
   77SOPE  H15R 6875   3.534   3.042   4.755
   77SOPE  H15S 6876   3.414   2.921   4.796
   77SOPE  C216 6877   3.598   2.837   4.710
   77SOPE  H16R 6878   3.575   2.737   4.752
   77SOPE  H16S 6879   3.707   2.856   4.704
   77SOPE  C217 6880   3.547   2.835   4.564
   77SOPE  H17R 6881   3.531   2.940   4.533
   77SOPE  H17S 6882   3.443   2.799   4.553
   77SOPE  C218 6883   3.634   2.759   4.473
   77SOPE  H18R 6884   3.731   2.739   4.524
   77SOPE  H18S 6885   3.647   2.812   4.376
   77SOPE  H18T 6886   3.600   2.654   4.458
   77SOPE   C33 6887   3.473   3.389   6.174
   77SOPE   H3X 6888   3.583   3.372   6.182
   77SOPE   H3Y 6889   3.454   3.491   6.135
   77SOPE   C34 6890   3.413   3.283   6.091
   77SOPE   H4X 6891   3.305   3.276   6.117
   77SOPE   H4Y 6892   3.454   3.184   6.120
   77SOPE   C35 6893   3.438   3.296   5.942
   77SOPE   H5X 6894   3.389   3.390   5.911
   77SOPE   H5Y 6895   3.377   3.211   5.904
   77SOPE   C36 6896   3.586   3.289   5.906
   77SOPE   H6X 6897   3.624   3.190   5.941
   77SOPE   H6Y 6898   3.648   3.365   5.958
   77SOPE   C37 6899   3.604   3.307   5.757
   77SOPE   H7X 6900   3.710   3.310   5.721
   77SOPE   H7Y 6901   3.571   3.408   5.728
   77SOPE   C38 6902   3.513   3.225   5.659
   77SOPE   H8X 6903   3.413   3.257   5.694
   77SOPE   H8Y 6904   3.526   3.115   5.674
   77SOPE   C39 6905   3.545   3.265   5.512
   77SOPE   H9X 6906   3.653   3.251   5.492
   77SOPE   H9Y 6907   3.520   3.370   5.486
   77SOPE  C310 6908   3.480   3.185   5.396
   77SOPE  H10X 6909   3.371   3.204   5.402
   77SOPE  H10Y 6910   3.486   3.077   5.420
   77SOPE  C311 6911   3.550   3.212   5.269
   77SOPE  H11X 6912   3.485   3.169   5.189
   77SOPE  H11Y 6913   3.650   3.163   5.264
   77SOPE  C312 6914   3.559   3.357   5.220
   77SOPE  H12X 6915   3.625   3.407   5.294
   77SOPE  H12Y 6916   3.457   3.400   5.217
   77SOPE  C313 6917   3.624   3.354   5.080
   77SOPE  H13X 6918   3.611   3.458   5.045
   77SOPE  H13Y 6919   3.565   3.273   5.031
   77SOPE  C314 6920   3.774   3.327   5.083
   77SOPE  H14X 6921   3.802   3.227   5.124
   77SOPE  H14Y 6922   3.814   3.404   5.152
   77SOPE  C315 6923   3.837   3.337   4.942
   77SOPE  H15X 6924   3.784   3.263   4.879
   77SOPE  H15Y 6925   3.944   3.306   4.939
   77SOPE  C316 6926   3.818   3.480   4.883
   77SOPE  H16X 6927   3.853   3.552   4.960
   77SOPE  H16Y 6928   3.708   3.483   4.871
   77SOPE  C317 6929   3.879   3.508   4.747
   77SOPE  H17X 6930   3.985   3.537   4.764
   77SOPE  H17Y 6931   3.831   3.598   4.704
   77SOPE  C318 6932   3.858   3.395   4.640
   77SOPE  H18X 6933   3.900   3.427   4.543
   77SOPE  H18Y 6934   3.753   3.363   4.623
   77SOPE  H18Z 6935   3.928   3.313   4.666
   78SOPE     N 6936   2.501   3.382   6.887
   78SOPE   HN1 6937   2.556   3.348   6.969
   78SOPE   HN2 6938   2.523   3.480   6.859
   78SOPE   HN3 6939   2.400   3.367   6.907
   78SOPE   C12 6940   2.512   3.299   6.760
   78SOPE  H12A 6941   2.538   3.198   6.798
   78SOPE  H12B 6942   2.599   3.332   6.697
   78SOPE   C11 6943   2.396   3.322   6.664
   78SOPE  H11A 6944   2.427   3.278   6.567
   78SOPE  H11B 6945   2.383   3.425   6.625
   78SOPE     P 6946   2.241   3.115   6.704
   78SOPE   O13 6947   2.179   3.068   6.831
   78SOPE   O14 6948   2.356   3.041   6.658
   78SOPE   O12 6949   2.273   3.271   6.716
   78SOPE   O11 6950   2.129   3.108   6.589
   78SOPE    C1 6951   2.152   3.180   6.464
   78SOPE    HA 6952   2.232   3.256   6.476
   78SOPE    HB 6953   2.061   3.242   6.448
   78SOPE    C2 6954   2.177   3.086   6.340
   78SOPE    HS 6955   2.247   3.005   6.371
   78SOPE   O21 6956   2.215   3.167   6.235
   78SOPE   C21 6957   2.298   3.109   6.151
   78SOPE   O22 6958   2.377   3.020   6.177
   78SOPE   C22 6959   2.306   3.195   6.024
   78SOPE   H2R 6960   2.390   3.268   6.029
   78SOPE   H2S 6961   2.218   3.262   6.018
   78SOPE    C3 6962   2.047   3.022   6.311
   78SOPE    HX 6963   1.986   3.103   6.265
   78SOPE    HY 6964   2.003   2.982   6.405
   78SOPE   O31 6965   2.065   2.922   6.218
   78SOPE   C31 6966   2.042   2.792   6.248
   78SOPE   O32 6967   2.009   2.757   6.359
   78SOPE   C32 6968   2.069   2.699   6.127
   78SOPE   H2X 6969   1.973   2.649   6.101
   78SOPE   H2Y 6970   2.141   2.620   6.160
   78SOPE   C23 6971   2.300   3.107   5.898
   78SOPE   H3R 6972   2.211   3.041   5.889
   78SOPE   H3S 6973   2.386   3.036   5.900
   78SOPE   C24 6974   2.311   3.184   5.765
   78SOPE   H4R 6975   2.217   3.238   5.742
   78SOPE   H4S 6976   2.392   3.259   5.772
   78SOPE   C25 6977   2.328   3.094   5.642
   78SOPE   H5R 6978   2.431   3.054   5.655
   78SOPE   H5S 6979   2.252   3.014   5.647
   78SOPE   C26 6980   2.314   3.162   5.511
   78SOPE   H6R 6981   2.206   3.185   5.510
   78SOPE   H6S 6982   2.369   3.258   5.519
   78SOPE   C27 6983   2.365   3.075   5.394
   78SOPE   H7R 6984   2.461   3.030   5.426
   78SOPE   H7S 6985   2.296   2.988   5.383
   78SOPE   C28 6986   2.375   3.159   5.258
   78SOPE   H8R 6987   2.386   3.091   5.171
   78SOPE   H8S 6988   2.278   3.212   5.242
   78SOPE   C29 6989   2.492   3.249   5.278
   78SOPE   H91 6990   2.486   3.319   5.363
   78SOPE  C210 6991   2.611   3.240   5.215
   78SOPE  H101 6992   2.695   3.293   5.264
   78SOPE  C211 6993   2.646   3.135   5.109
   78SOPE  H11R 6994   2.645   3.170   5.003
   78SOPE  H11S 6995   2.576   3.048   5.110
   78SOPE  C212 6996   2.776   3.072   5.142
   78SOPE  H12R 6997   2.776   3.020   5.240
   78SOPE  H12S 6998   2.864   3.139   5.142
   78SOPE  C213 6999   2.801   2.961   5.046
   78SOPE  H13R 7000   2.784   3.003   4.944
   78SOPE  H13S 7001   2.721   2.885   5.057
   78SOPE  C214 7002   2.945   2.908   5.054
   78SOPE  H14R 7003   2.960   2.860   5.154
   78SOPE  H14S 7004   3.012   2.995   5.037
   78SOPE  C215 7005   2.968   2.794   4.953
   78SOPE  H15R 7006   2.915   2.702   4.986
   78SOPE  H15S 7007   3.077   2.777   4.960
   78SOPE  C216 7008   2.941   2.829   4.808
   78SOPE  H16R 7009   3.003   2.918   4.785
   78SOPE  H16S 7010   2.836   2.861   4.793
   78SOPE  C217 7011   2.983   2.712   4.711
   78SOPE  H17R 7012   2.942   2.738   4.612
   78SOPE  H17S 7013   2.925   2.626   4.749
   78SOPE  C218 7014   3.130   2.689   4.700
   78SOPE  H18R 7015   3.164   2.626   4.785
   78SOPE  H18S 7016   3.183   2.785   4.720
   78SOPE  H18T 7017   3.166   2.647   4.604
   78SOPE   C33 7018   2.113   2.765   5.998
   78SOPE   H3X 7019   2.210   2.816   6.016
   78SOPE   H3Y 7020   2.033   2.838   5.972
   78SOPE   C34 7021   2.123   2.668   5.881
   78SOPE   H4X 7022   2.040   2.594   5.883
   78SOPE   H4Y 7023   2.223   2.619   5.887
   78SOPE   C35 7024   2.114   2.741   5.749
   78SOPE   H5X 7025   2.200   2.809   5.732
   78SOPE   H5Y 7026   2.030   2.813   5.754
   78SOPE   C36 7027   2.090   2.645   5.624
   78SOPE   H6X 7028   1.999   2.589   5.652
   78SOPE   H6Y 7029   2.174   2.575   5.610
   78SOPE   C37 7030   2.060   2.736   5.503
   78SOPE   H7X 7031   2.147   2.798   5.469
   78SOPE   H7Y 7032   1.974   2.805   5.515
   78SOPE   C38 7033   2.029   2.645   5.377
   78SOPE   H8X 7034   1.954   2.571   5.410
   78SOPE   H8Y 7035   2.122   2.596   5.342
   78SOPE   C39 7036   1.985   2.725   5.252
   78SOPE   H9X 7037   1.919   2.799   5.303
   78SOPE   H9Y 7038   1.938   2.659   5.177
   78SOPE  C310 7039   2.098   2.811   5.183
   78SOPE  H10X 7040   2.198   2.764   5.175
   78SOPE  H10Y 7041   2.117   2.904   5.241
   78SOPE  C311 7042   2.057   2.860   5.036
   78SOPE  H11X 7043   1.974   2.933   5.037
   78SOPE  H11Y 7044   2.035   2.763   4.985
   78SOPE  C312 7045   2.173   2.922   4.964
   78SOPE  H12X 7046   2.260   2.854   4.960
   78SOPE  H12Y 7047   2.200   3.016   5.017
   78SOPE  C313 7048   2.135   2.969   4.822
   78SOPE  H13X 7049   2.043   3.023   4.855
   78SOPE  H13Y 7050   2.132   2.876   4.762
   78SOPE  C314 7051   2.233   3.074   4.772
   78SOPE  H14X 7052   2.246   3.162   4.838
   78SOPE  H14Y 7053   2.196   3.127   4.682
   78SOPE  C315 7054   2.366   3.009   4.749
   78SOPE  H15X 7055   2.348   2.910   4.703
   78SOPE  H15Y 7056   2.413   2.993   4.848
   78SOPE  C316 7057   2.465   3.100   4.671
   78SOPE  H16X 7058   2.466   3.203   4.714
   78SOPE  H16Y 7059   2.439   3.112   4.564
   78SOPE  C317 7060   2.605   3.051   4.687
   78SOPE  H17X 7061   2.621   2.954   4.637
   78SOPE  H17Y 7062   2.645   3.037   4.790
   78SOPE  C318 7063   2.703   3.151   4.621
   78SOPE  H18X 7064   2.806   3.130   4.657
   78SOPE  H18Y 7065   2.674   3.251   4.658
   78SOPE  H18Z 7066   2.690   3.141   4.511
   79SOPE     N 7067   4.600   1.104   6.682
   79SOPE   HN1 7068   4.676   1.036   6.660
   79SOPE   HN2 7069   4.574   1.163   6.601
   79SOPE   HN3 7070   4.642   1.157   6.762
   79SOPE   C12 7071   4.480   1.029   6.740
   79SOPE  H12A 7072   4.424   0.985   6.655
   79SOPE  H12B 7073   4.426   1.087   6.818
   79SOPE   C11 7074   4.541   0.910   6.818
   79SOPE  H11A 7075   4.456   0.842   6.840
   79SOPE  H11B 7076   4.582   0.943   6.916
   79SOPE     P 7077   4.632   0.699   6.676
   79SOPE   O13 7078   4.577   0.609   6.776
   79SOPE   O14 7079   4.763   0.660   6.618
   79SOPE   O12 7080   4.643   0.844   6.744
   79SOPE   O11 7081   4.524   0.716   6.563
   79SOPE    C1 7082   4.558   0.789   6.450
   79SOPE    HA 7083   4.649   0.748   6.400
   79SOPE    HB 7084   4.596   0.886   6.488
   79SOPE    C2 7085   4.448   0.799   6.344
   79SOPE    HS 7086   4.355   0.792   6.404
   79SOPE   O21 7087   4.464   0.685   6.262
   79SOPE   C21 7088   4.356   0.624   6.213
   79SOPE   O22 7089   4.241   0.657   6.235
   79SOPE   C22 7090   4.401   0.500   6.140
   79SOPE   H2R 7091   4.321   0.423   6.140
   79SOPE   H2S 7092   4.486   0.449   6.190
   79SOPE    C3 7093   4.455   0.930   6.259
   79SOPE    HX 7094   4.556   0.928   6.214
   79SOPE    HY 7095   4.463   1.025   6.316
   79SOPE   O31 7096   4.362   0.930   6.147
   79SOPE   C31 7097   4.238   0.968   6.178
   79SOPE   O32 7098   4.195   1.006   6.282
   79SOPE   C32 7099   4.152   0.946   6.056
   79SOPE   H2X 7100   4.052   0.985   6.083
   79SOPE   H2Y 7101   4.135   0.838   6.038
   79SOPE   C23 7102   4.443   0.525   5.992
   79SOPE   H3R 7103   4.487   0.434   5.945
   79SOPE   H3S 7104   4.530   0.594   5.983
   79SOPE   C24 7105   4.325   0.577   5.905
   79SOPE   H4R 7106   4.226   0.534   5.930
   79SOPE   H4S 7107   4.310   0.681   5.940
   79SOPE   C25 7108   4.363   0.585   5.758
   79SOPE   H5R 7109   4.465   0.629   5.750
   79SOPE   H5S 7110   4.377   0.484   5.715
   79SOPE   C26 7111   4.247   0.648   5.684
   79SOPE   H6R 7112   4.154   0.617   5.736
   79SOPE   H6S 7113   4.262   0.754   5.711
   79SOPE   C27 7114   4.236   0.609   5.535
   79SOPE   H7R 7115   4.331   0.634   5.483
   79SOPE   H7S 7116   4.235   0.499   5.519
   79SOPE   C28 7117   4.116   0.657   5.446
   79SOPE   H8R 7118   4.137   0.624   5.342
   79SOPE   H8S 7119   4.031   0.595   5.482
   79SOPE   C29 7120   4.086   0.803   5.435
   79SOPE   H91 7121   4.029   0.839   5.523
   79SOPE  C210 7122   4.105   0.897   5.336
   79SOPE  H101 7123   4.078   1.003   5.351
   79SOPE  C211 7124   4.176   0.866   5.207
   79SOPE  H11R 7125   4.244   0.778   5.220
   79SOPE  H11S 7126   4.235   0.959   5.193
   79SOPE  C212 7127   4.076   0.837   5.093
   79SOPE  H12R 7128   4.002   0.920   5.087
   79SOPE  H12S 7129   4.018   0.745   5.118
   79SOPE  C213 7130   4.135   0.838   4.956
   79SOPE  H13R 7131   4.230   0.780   4.961
   79SOPE  H13S 7132   4.152   0.943   4.923
   79SOPE  C214 7133   4.041   0.785   4.839
   79SOPE  H14R 7134   3.959   0.858   4.824
   79SOPE  H14S 7135   4.014   0.682   4.872
   79SOPE  C215 7136   4.106   0.770   4.702
   79SOPE  H15R 7137   4.014   0.749   4.642
   79SOPE  H15S 7138   4.174   0.682   4.707
   79SOPE  C216 7139   4.155   0.907   4.647
   79SOPE  H16R 7140   4.238   0.952   4.705
   79SOPE  H16S 7141   4.068   0.971   4.672
   79SOPE  C217 7142   4.157   0.918   4.496
   79SOPE  H17R 7143   4.151   1.026   4.472
   79SOPE  H17S 7144   4.064   0.872   4.457
   79SOPE  C218 7145   4.273   0.845   4.441
   79SOPE  H18R 7146   4.258   0.735   4.440
   79SOPE  H18S 7147   4.361   0.868   4.505
   79SOPE  H18T 7148   4.308   0.873   4.339
   79SOPE   C33 7149   4.198   1.011   5.929
   79SOPE   H3X 7150   4.285   0.965   5.878
   79SOPE   H3Y 7151   4.238   1.114   5.940
   79SOPE   C34 7152   4.088   1.017   5.830
   79SOPE   H4X 7153   4.000   1.075   5.865
   79SOPE   H4Y 7154   4.052   0.913   5.816
   79SOPE   C35 7155   4.143   1.078   5.701
   79SOPE   H5X 7156   4.050   1.099   5.642
   79SOPE   H5Y 7157   4.197   0.996   5.649
   79SOPE   C36 7158   4.234   1.199   5.709
   79SOPE   H6X 7159   4.340   1.165   5.720
   79SOPE   H6Y 7160   4.206   1.252   5.803
   79SOPE   C37 7161   4.214   1.295   5.590
   79SOPE   H7X 7162   4.237   1.400   5.615
   79SOPE   H7Y 7163   4.108   1.304   5.559
   79SOPE   C38 7164   4.302   1.249   5.473
   79SOPE   H8X 7165   4.281   1.141   5.461
   79SOPE   H8Y 7166   4.410   1.265   5.494
   79SOPE   C39 7167   4.259   1.314   5.342
   79SOPE   H9X 7168   4.286   1.421   5.356
   79SOPE   H9Y 7169   4.150   1.304   5.322
   79SOPE  C310 7170   4.343   1.272   5.220
   79SOPE  H10X 7171   4.341   1.162   5.203
   79SOPE  H10Y 7172   4.450   1.298   5.232
   79SOPE  C311 7173   4.309   1.349   5.091
   79SOPE  H11X 7174   4.199   1.367   5.090
   79SOPE  H11Y 7175   4.342   1.285   5.007
   79SOPE  C312 7176   4.373   1.487   5.083
   79SOPE  H12X 7177   4.483   1.489   5.100
   79SOPE  H12Y 7178   4.322   1.540   5.167
   79SOPE  C313 7179   4.349   1.555   4.948
   79SOPE  H13X 7180   4.238   1.557   4.940
   79SOPE  H13Y 7181   4.383   1.496   4.861
   79SOPE  C314 7182   4.397   1.697   4.942
   79SOPE  H14X 7183   4.506   1.704   4.962
   79SOPE  H14Y 7184   4.341   1.747   5.024
   79SOPE  C315 7185   4.379   1.769   4.805
   79SOPE  H15X 7186   4.412   1.874   4.821
   79SOPE  H15Y 7187   4.274   1.767   4.768
   79SOPE  C316 7188   4.478   1.720   4.702
   79SOPE  H16X 7189   4.441   1.625   4.659
   79SOPE  H16Y 7190   4.573   1.697   4.755
   79SOPE  C317 7191   4.503   1.816   4.586
   79SOPE  H17X 7192   4.572   1.767   4.514
   79SOPE  H17Y 7193   4.567   1.899   4.623
   79SOPE  C318 7194   4.371   1.859   4.527
   79SOPE  H18X 7195   4.385   1.885   4.420
   79SOPE  H18Y 7196   4.317   1.935   4.587
   79SOPE  H18Z 7197   4.305   1.770   4.520
   80SOPE     N 7198   1.375   2.625   6.844
   80SOPE   HN1 7199   1.287   2.622   6.789
   80SOPE   HN2 7200   1.371   2.547   6.913
   80SOPE   HN3 7201   1.369   2.715   6.897
   80SOPE   C12 7202   1.496   2.623   6.762
   80SOPE  H12A 7203   1.522   2.518   6.737
   80SOPE  H12B 7204   1.580   2.681   6.804
   80SOPE   C11 7205   1.470   2.700   6.628
   80SOPE  H11A 7206   1.382   2.647   6.586
   80SOPE  H11B 7207   1.566   2.706   6.572
   80SOPE     P 7208   1.379   2.924   6.546
   80SOPE   O13 7209   1.491   3.019   6.518
   80SOPE   O14 7210   1.243   2.978   6.582
   80SOPE   O12 7211   1.430   2.834   6.658
   80SOPE   O11 7212   1.373   2.824   6.427
   80SOPE    C1 7213   1.296   2.867   6.311
   80SOPE    HA 7214   1.231   2.955   6.331
   80SOPE    HB 7215   1.227   2.783   6.289
   80SOPE    C2 7216   1.402   2.896   6.204
   80SOPE    HS 7217   1.471   2.974   6.244
   80SOPE   O21 7218   1.330   2.931   6.086
   80SOPE   C21 7219   1.383   3.025   6.009
   80SOPE   O22 7220   1.476   3.099   6.038
   80SOPE   C22 7221   1.311   3.022   5.877
   80SOPE   H2R 7222   1.217   3.078   5.893
   80SOPE   H2S 7223   1.291   2.919   5.841
   80SOPE    C3 7224   1.487   2.766   6.174
   80SOPE    HX 7225   1.408   2.691   6.155
   80SOPE    HY 7226   1.543   2.748   6.268
   80SOPE   O31 7227   1.573   2.790   6.058
   80SOPE   C31 7228   1.685   2.867   6.086
   80SOPE   O32 7229   1.723   2.911   6.192
   80SOPE   C32 7230   1.742   2.902   5.943
   80SOPE   H2X 7231   1.654   2.923   5.878
   80SOPE   H2Y 7232   1.813   2.825   5.905
   80SOPE   C23 7233   1.379   3.095   5.760
   80SOPE   H3R 7234   1.474   3.047   5.727
   80SOPE   H3S 7235   1.418   3.197   5.782
   80SOPE   C24 7236   1.294   3.118   5.636
   80SOPE   H4R 7237   1.243   3.023   5.610
   80SOPE   H4S 7238   1.219   3.193   5.669
   80SOPE   C25 7239   1.374   3.155   5.508
   80SOPE   H5R 7240   1.436   3.065   5.487
   80SOPE   H5S 7241   1.304   3.154   5.422
   80SOPE   C26 7242   1.455   3.280   5.513
   80SOPE   H6R 7243   1.502   3.284   5.614
   80SOPE   H6S 7244   1.538   3.266   5.440
   80SOPE   C27 7245   1.386   3.416   5.496
   80SOPE   H7R 7246   1.302   3.423   5.568
   80SOPE   H7S 7247   1.455   3.494   5.535
   80SOPE   C28 7248   1.324   3.446   5.355
   80SOPE   H8R 7249   1.264   3.355   5.336
   80SOPE   H8S 7250   1.259   3.536   5.360
   80SOPE   C29 7251   1.436   3.474   5.255
   80SOPE   H91 7252   1.530   3.507   5.300
   80SOPE  C210 7253   1.445   3.425   5.123
   80SOPE  H101 7254   1.530   3.455   5.061
   80SOPE  C211 7255   1.343   3.346   5.048
   80SOPE  H11R 7256   1.240   3.386   5.061
   80SOPE  H11S 7257   1.327   3.240   5.080
   80SOPE  C212 7258   1.355   3.357   4.895
   80SOPE  H12R 7259   1.256   3.334   4.850
   80SOPE  H12S 7260   1.437   3.288   4.866
   80SOPE  C213 7261   1.399   3.494   4.836
   80SOPE  H13R 7262   1.502   3.502   4.795
   80SOPE  H13S 7263   1.392   3.568   4.918
   80SOPE  C214 7264   1.309   3.542   4.722
   80SOPE  H14R 7265   1.300   3.652   4.720
   80SOPE  H14S 7266   1.209   3.499   4.746
   80SOPE  C215 7267   1.338   3.503   4.581
   80SOPE  H15R 7268   1.408   3.577   4.537
   80SOPE  H15S 7269   1.243   3.516   4.525
   80SOPE  C216 7270   1.372   3.350   4.552
   80SOPE  H16R 7271   1.285   3.293   4.590
   80SOPE  H16S 7272   1.468   3.328   4.604
   80SOPE  C217 7273   1.376   3.308   4.407
   80SOPE  H17R 7274   1.289   3.350   4.353
   80SOPE  H17S 7275   1.371   3.198   4.412
   80SOPE  C218 7276   1.513   3.337   4.337
   80SOPE  H18R 7277   1.514   3.448   4.330
   80SOPE  H18S 7278   1.521   3.293   4.235
   80SOPE  H18T 7279   1.600   3.309   4.400
   80SOPE   C33 7280   1.819   3.034   5.951
   80SOPE   H3X 7281   1.920   3.015   5.994
   80SOPE   H3Y 7282   1.792   3.102   6.034
   80SOPE   C34 7283   1.811   3.130   5.825
   80SOPE   H4X 7284   1.856   3.229   5.846
   80SOPE   H4Y 7285   1.703   3.156   5.823
   80SOPE   C35 7286   1.879   3.077   5.693
   80SOPE   H5X 7287   1.838   2.979   5.660
   80SOPE   H5Y 7288   1.986   3.059   5.716
   80SOPE   C36 7289   1.862   3.181   5.579
   80SOPE   H6X 7290   1.926   3.269   5.602
   80SOPE   H6Y 7291   1.755   3.210   5.578
   80SOPE   C37 7292   1.907   3.122   5.441
   80SOPE   H7X 7293   1.831   3.047   5.410
   80SOPE   H7Y 7294   2.004   3.069   5.452
   80SOPE   C38 7295   1.904   3.234   5.340
   80SOPE   H8X 7296   1.977   3.309   5.379
   80SOPE   H8Y 7297   1.800   3.273   5.337
   80SOPE   C39 7298   1.934   3.190   5.201
   80SOPE   H9X 7299   1.852   3.125   5.165
   80SOPE   H9Y 7300   2.024   3.128   5.182
   80SOPE  C310 7301   1.946   3.303   5.087
   80SOPE  H10X 7302   1.869   3.381   5.105
   80SOPE  H10Y 7303   1.925   3.250   4.992
   80SOPE  C311 7304   2.089   3.361   5.085
   80SOPE  H11X 7305   2.158   3.283   5.049
   80SOPE  H11Y 7306   2.115   3.391   5.189
   80SOPE  C312 7307   2.103   3.470   4.987
   80SOPE  H12X 7308   2.031   3.553   5.006
   80SOPE  H12Y 7309   2.088   3.423   4.888
   80SOPE  C313 7310   2.244   3.534   4.976
   80SOPE  H13X 7311   2.313   3.459   5.019
   80SOPE  H13Y 7312   2.246   3.617   5.049
   80SOPE  C314 7313   2.282   3.577   4.837
   80SOPE  H14X 7314   2.374   3.638   4.850
   80SOPE  H14Y 7315   2.200   3.645   4.807
   80SOPE  C315 7316   2.325   3.478   4.725
   80SOPE  H15X 7317   2.232   3.427   4.691
   80SOPE  H15Y 7318   2.396   3.406   4.772
   80SOPE  C316 7319   2.397   3.548   4.607
   80SOPE  H16X 7320   2.483   3.606   4.645
   80SOPE  H16Y 7321   2.333   3.618   4.549
   80SOPE  C317 7322   2.464   3.448   4.509
   80SOPE  H17X 7323   2.501   3.362   4.568
   80SOPE  H17Y 7324   2.551   3.498   4.462
   80SOPE  C318 7325   2.367   3.398   4.394
   80SOPE  H18X 7326   2.415   3.313   4.340
   80SOPE  H18Y 7327   2.353   3.472   4.312
   80SOPE  H18Z 7328   2.266   3.368   4.428
   81SOPE     N 7329   4.820   6.630   6.869
   81SOPE   HN1 7330   4.888   6.552   6.878
   81SOPE   HN2 7331   4.798   6.658   6.966
   81SOPE   HN3 7332   4.737   6.582   6.831
   81SOPE   C12 7333   4.862   6.746   6.786
   81SOPE  H12A 7334   4.941   6.701   6.722
   81SOPE  H12B 7335   4.913   0.020   6.855
   81SOPE   C11 7336   4.748   0.021   6.714
   81SOPE  H11A 7337   4.686   6.754   6.648
   81SOPE  H11B 7338   4.798   0.107   6.664
   81SOPE     P 7339   4.598   0.199   6.846
   81SOPE   O13 7340   4.699   0.264   6.928
   81SOPE   O14 7341   4.461   0.196   6.897
   81SOPE   O12 7342   4.648   0.055   6.807
   81SOPE   O11 7343   4.593   0.266   6.710
   81SOPE    C1 7344   4.523   0.212   6.602
   81SOPE    HA 7345   4.428   0.268   6.593
   81SOPE    HB 7346   4.498   0.104   6.611
   81SOPE    C2 7347   4.596   0.218   6.471
   81SOPE    HS 7348   4.689   0.157   6.483
   81SOPE   O21 7349   4.625   0.358   6.431
   81SOPE   C21 7350   4.741   0.375   6.365
   81SOPE   O22 7351   4.828   0.289   6.355
   81SOPE   C22 7352   4.768   0.511   6.313
   81SOPE   H2R 7353   4.759   0.575   6.403
   81SOPE   H2S 7354   4.674   0.537   6.259
   81SOPE    C3 7355   4.502   0.163   6.362
   81SOPE    HX 7356   4.410   0.226   6.363
   81SOPE    HY 7357   4.481   0.055   6.381
   81SOPE   O31 7358   4.558   0.183   6.228
   81SOPE   C31 7359   4.640   0.086   6.187
   81SOPE   O32 7360   4.668   6.794   6.269
   81SOPE   C32 7361   4.689   0.104   6.044
   81SOPE   H2X 7362   4.676   0.207   6.007
   81SOPE   H2Y 7363   4.625   0.041   5.979
   81SOPE   C23 7364   4.902   0.523   6.235
   81SOPE   H3R 7365   4.902   0.449   6.151
   81SOPE   H3S 7366   4.985   0.502   6.305
   81SOPE   C24 7367   4.927   0.662   6.172
   81SOPE   H4R 7368   4.946   0.741   6.248
   81SOPE   H4S 7369   5.008   0.638   6.099
   81SOPE   C25 7370   4.809   0.709   6.083
   81SOPE   H5R 7371   4.772   0.617   6.033
   81SOPE   H5S 7372   4.733   0.747   6.155
   81SOPE   C26 7373   4.856   0.813   5.977
   81SOPE   H6R 7374   4.912   0.881   6.045
   81SOPE   H6S 7375   4.934   0.767   5.913
   81SOPE   C27 7376   4.747   0.898   5.913
   81SOPE   H7R 7377   4.649   0.889   5.965
   81SOPE   H7S 7378   4.771   1.006   5.916
   81SOPE   C28 7379   4.738   0.853   5.767
   81SOPE   H8R 7380   4.811   0.907   5.703
   81SOPE   H8S 7381   4.745   0.743   5.757
   81SOPE   C29 7382   4.602   0.884   5.708
   81SOPE   H91 7383   4.523   0.912   5.780
   81SOPE  C210 7384   4.566   0.871   5.575
   81SOPE  H101 7385   4.463   0.902   5.553
   81SOPE  C211 7386   4.660   0.844   5.463
   81SOPE  H11R 7387   4.633   0.744   5.421
   81SOPE  H11S 7388   4.764   0.831   5.500
   81SOPE  C212 7389   4.659   0.946   5.348
   81SOPE  H12R 7390   4.743   0.916   5.282
   81SOPE  H12S 7391   4.672   1.050   5.386
   81SOPE  C213 7392   4.532   0.938   5.262
   81SOPE  H13R 7393   4.453   1.002   5.308
   81SOPE  H13S 7394   4.497   0.833   5.261
   81SOPE  C214 7395   4.536   0.987   5.116
   81SOPE  H14R 7396   4.587   1.085   5.112
   81SOPE  H14S 7397   4.433   1.001   5.074
   81SOPE  C215 7398   4.598   0.890   5.014
   81SOPE  H15R 7399   4.544   0.793   5.007
   81SOPE  H15S 7400   4.699   0.865   5.053
   81SOPE  C216 7401   4.614   0.951   4.866
   81SOPE  H16R 7402   4.717   0.917   4.845
   81SOPE  H16S 7403   4.615   1.061   4.878
   81SOPE  C217 7404   4.508   0.919   4.761
   81SOPE  H17R 7405   4.529   0.984   4.674
   81SOPE  H17S 7406   4.408   0.947   4.802
   81SOPE  C218 7407   4.509   0.770   4.735
   81SOPE  H18R 7408   4.606   0.718   4.715
   81SOPE  H18S 7409   4.450   0.746   4.644
   81SOPE  H18T 7410   4.459   0.716   4.818
   81SOPE   C33 7411   4.844   0.055   6.025
   81SOPE   H3X 7412   4.905   0.082   6.114
   81SOPE   H3Y 7413   4.882   0.096   5.929
   81SOPE   C34 7414   4.850   6.694   5.996
   81SOPE   H4X 7415   4.771   6.671   5.922
   81SOPE   H4Y 7416   4.822   6.646   6.093
   81SOPE   C35 7417   4.988   6.639   5.939
   81SOPE   H5X 7418   4.980   6.530   5.919
   81SOPE   H5Y 7419   5.063   6.664   6.017
   81SOPE   C36 7420   5.031   6.714   5.821
   81SOPE   H6X 7421   5.039   0.026   5.840
   81SOPE   H6Y 7422   4.962   6.708   5.733
   81SOPE   C37 7423   5.171   6.673   5.773
   81SOPE   H7X 7424   5.182   6.569   5.738
   81SOPE   H7Y 7425   5.238   6.694   5.860
   81SOPE   C38 7426   5.223   6.752   5.652
   81SOPE   H8X 7427   5.332   6.736   5.641
   81SOPE   H8Y 7428   5.219   0.064   5.676
   81SOPE   C39 7429   5.138   6.725   5.522
   81SOPE   H9X 7430   5.034   6.749   5.552
   81SOPE   H9Y 7431   5.136   6.617   5.498
   81SOPE  C310 7432   5.173   0.011   5.404
   81SOPE  H10X 7433   5.151   6.744   5.315
   81SOPE  H10Y 7434   5.281   0.037   5.394
   81SOPE  C311 7435   5.086   0.134   5.383
   81SOPE  H11X 7436   5.124   0.207   5.458
   81SOPE  H11Y 7437   4.978   0.116   5.404
   81SOPE  C312 7438   5.093   0.190   5.242
   81SOPE  H12X 7439   5.198   0.179   5.206
   81SOPE  H12Y 7440   5.065   0.297   5.247
   81SOPE  C313 7441   5.005   0.117   5.130
   81SOPE  H13X 7442   4.903   0.102   5.170
   81SOPE  H13Y 7443   5.033   0.015   5.097
   81SOPE  C314 7444   4.999   0.208   5.009
   81SOPE  H14X 7445   5.098   0.206   4.960
   81SOPE  H14Y 7446   4.979   0.311   5.045
   81SOPE  C315 7447   4.886   0.165   4.916
   81SOPE  H15X 7448   4.812   0.105   4.972
   81SOPE  H15Y 7449   4.923   0.101   4.833
   81SOPE  C316 7450   4.817   0.286   4.848
   81SOPE  H16X 7451   4.893   0.347   4.795
   81SOPE  H16Y 7452   4.786   0.353   4.931
   81SOPE  C317 7453   4.698   0.252   4.751
   81SOPE  H17X 7454   4.632   0.177   4.800
   81SOPE  H17Y 7455   4.733   0.204   4.657
   81SOPE  C318 7456   4.635   0.382   4.702
   81SOPE  H18X 7457   4.696   0.460   4.652
   81SOPE  H18Y 7458   4.572   0.418   4.787
   81SOPE  H18Z 7459   4.561   0.353   4.625
   82SOPE     N 7460   2.156   0.651   6.755
   82SOPE   HN1 7461   2.129   0.556   6.723
   82SOPE   HN2 7462   2.169   0.705   6.667
   82SOPE   HN3 7463   2.245   0.662   6.807
   82SOPE   C12 7464   2.030   0.702   6.817
   82SOPE  H12A 7465   2.050   0.807   6.847
   82SOPE  H12B 7466   2.027   0.658   6.919
   82SOPE   C11 7467   1.900   0.687   6.736
   82SOPE  H11A 7468   1.924   0.724   6.634
   82SOPE  H11B 7469   1.824   0.758   6.775
   82SOPE     P 7470   1.717   0.501   6.715
   82SOPE   O13 7471   1.618   0.612   6.717
   82SOPE   O14 7472   1.698   0.396   6.811
   82SOPE   O12 7473   1.860   0.553   6.734
   82SOPE   O11 7474   1.720   0.428   6.579
   82SOPE    C1 7475   1.783   0.466   6.458
   82SOPE    HA 7476   1.891   0.482   6.477
   82SOPE    HB 7477   1.746   0.567   6.429
   82SOPE    C2 7478   1.770   0.371   6.340
   82SOPE    HS 7479   1.844   0.289   6.346
   82SOPE   O21 7480   1.784   0.442   6.215
   82SOPE   C21 7481   1.912   0.461   6.178
   82SOPE   O22 7482   2.012   0.446   6.251
   82SOPE   C22 7483   1.913   0.485   6.027
   82SOPE   H2R 7484   1.982   0.571   6.015
   82SOPE   H2S 7485   1.814   0.526   5.998
   82SOPE    C3 7486   1.630   0.309   6.333
   82SOPE    HX 7487   1.567   0.397   6.307
   82SOPE    HY 7488   1.597   0.280   6.435
   82SOPE   O31 7489   1.615   0.207   6.241
   82SOPE   C31 7490   1.490   0.159   6.239
   82SOPE   O32 7491   1.404   0.180   6.324
   82SOPE   C32 7492   1.461   0.084   6.116
   82SOPE   H2X 7493   1.542   0.011   6.097
   82SOPE   H2Y 7494   1.442   0.159   6.035
   82SOPE   C23 7495   1.944   0.365   5.941
   82SOPE   H3R 7496   1.900   0.272   5.983
   82SOPE   H3S 7497   2.052   0.345   5.957
   82SOPE   C24 7498   1.914   0.384   5.790
   82SOPE   H4R 7499   1.949   0.293   5.739
   82SOPE   H4S 7500   1.805   0.404   5.779
   82SOPE   C25 7501   1.972   0.506   5.720
   82SOPE   H5R 7502   1.955   0.603   5.772
   82SOPE   H5S 7503   2.083   0.500   5.714
   82SOPE   C26 7504   1.916   0.517   5.576
   82SOPE   H6R 7505   1.903   0.414   5.537
   82SOPE   H6S 7506   1.819   0.572   5.579
   82SOPE   C27 7507   1.996   0.602   5.483
   82SOPE   H7R 7508   2.002   0.705   5.523
   82SOPE   H7S 7509   2.102   0.567   5.478
   82SOPE   C28 7510   1.932   0.616   5.342
   82SOPE   H8R 7511   1.824   0.639   5.354
   82SOPE   H8S 7512   1.973   0.706   5.292
   82SOPE   C29 7513   1.939   0.484   5.269
   82SOPE   H91 7514   1.923   0.390   5.325
   82SOPE  C210 7515   1.944   0.483   5.137
   82SOPE  H101 7516   1.960   0.387   5.086
   82SOPE  C211 7517   1.970   0.602   5.057
   82SOPE  H11R 7518   2.062   0.657   5.088
   82SOPE  H11S 7519   1.884   0.673   5.055
   82SOPE  C212 7520   1.996   0.570   4.913
   82SOPE  H12R 7521   1.897   0.547   4.867
   82SOPE  H12S 7522   2.073   0.490   4.909
   82SOPE  C213 7523   2.055   0.691   4.827
   82SOPE  H13R 7524   2.156   0.714   4.867
   82SOPE  H13S 7525   1.991   0.778   4.853
   82SOPE  C214 7526   2.046   0.651   4.677
   82SOPE  H14R 7527   2.069   0.753   4.640
   82SOPE  H14S 7528   1.944   0.634   4.636
   82SOPE  C215 7529   2.146   0.546   4.642
   82SOPE  H15R 7530   2.099   0.451   4.675
   82SOPE  H15S 7531   2.243   0.553   4.695
   82SOPE  C216 7532   2.178   0.532   4.492
   82SOPE  H16R 7533   2.273   0.474   4.485
   82SOPE  H16S 7534   2.191   0.633   4.448
   82SOPE  C217 7535   2.076   0.456   4.414
   82SOPE  H17R 7536   1.982   0.514   4.399
   82SOPE  H17S 7537   2.052   0.360   4.465
   82SOPE  C218 7538   2.128   0.422   4.277
   82SOPE  H18R 7539   2.223   0.365   4.293
   82SOPE  H18S 7540   2.160   0.515   4.227
   82SOPE  H18T 7541   2.074   0.351   4.210
   82SOPE   C33 7542   1.325   0.014   6.122
   82SOPE   H3X 7543   1.245   0.084   6.154
   82SOPE   H3Y 7544   1.334   6.731   6.200
   82SOPE   C34 7545   1.286   6.732   5.993
   82SOPE   H4X 7546   1.197   6.667   6.009
   82SOPE   H4Y 7547   1.376   6.675   5.960
   82SOPE   C35 7548   1.254   0.024   5.877
   82SOPE   H5X 7549   1.252   6.749   5.791
   82SOPE   H5Y 7550   1.334   0.097   5.853
   82SOPE   C36 7551   1.121   0.102   5.886
   82SOPE   H6X 7552   1.116   0.159   5.981
   82SOPE   H6Y 7553   1.032   0.036   5.886
   82SOPE   C37 7554   1.102   0.196   5.775
   82SOPE   H7X 7555   1.196   0.254   5.766
   82SOPE   H7Y 7556   1.020   0.262   5.810
   82SOPE   C38 7557   1.057   0.139   5.634
   82SOPE   H8X 7558   0.976   0.065   5.649
   82SOPE   H8Y 7559   1.141   0.087   5.583
   82SOPE   C39 7560   1.014   0.247   5.531
   82SOPE   H9X 7561   0.965   0.204   5.441
   82SOPE   H9Y 7562   1.099   0.306   5.492
   82SOPE  C310 7563   0.917   0.353   5.586
   82SOPE  H10X 7564   0.974   0.406   5.665
   82SOPE  H10Y 7565   0.832   0.298   5.633
   82SOPE  C311 7566   0.878   0.446   5.469
   82SOPE  H11X 7567   0.969   0.473   5.410
   82SOPE  H11Y 7568   0.838   0.539   5.515
   82SOPE  C312 7569   0.763   0.380   5.378
   82SOPE  H12X 7570   0.669   0.369   5.437
   82SOPE  H12Y 7571   0.788   0.273   5.364
   82SOPE  C313 7572   0.727   0.465   5.253
   82SOPE  H13X 7573   0.634   0.423   5.210
   82SOPE  H13Y 7574   0.800   0.453   5.170
   82SOPE  C314 7575   0.704   0.621   5.282
   82SOPE  H14X 7576   0.800   0.660   5.323
   82SOPE  H14Y 7577   0.626   0.622   5.362
   82SOPE  C315 7578   0.676   0.704   5.164
   82SOPE  H15X 7579   0.671   0.808   5.202
   82SOPE  H15Y 7580   0.578   0.682   5.116
   82SOPE  C316 7581   0.766   0.707   5.042
   82SOPE  H16X 7582   0.763   0.609   4.990
   82SOPE  H16Y 7583   0.869   0.725   5.079
   82SOPE  C317 7584   0.728   0.821   4.943
   82SOPE  H17X 7585   0.800   0.804   4.860
   82SOPE  H17Y 7586   0.736   0.921   4.988
   82SOPE  C318 7587   0.582   0.824   4.883
   82SOPE  H18X 7588   0.508   0.819   4.966
   82SOPE  H18Y 7589   0.564   0.735   4.820
   82SOPE  H18Z 7590   0.564   0.921   4.832
   83SOPE     N 7591   1.285   2.160   1.732
   83SOPE   HN1 7592   1.248   2.063   1.734
   83SOPE   HN2 7593   1.220   2.236   1.759
   83SOPE   HN3 7594   1.328   2.182   1.640
   83SOPE   C12 7595   1.405   2.173   1.828
   83SOPE  H12A 7596   1.434   2.280   1.833
   83SOPE  H12B 7597   1.495   2.117   1.796
   83SOPE   C11 7598   1.376   2.127   1.966
   83SOPE  H11A 7599   1.356   2.017   1.968
   83SOPE  H11B 7600   1.278   2.166   2.002
   83SOPE     P 7601   1.490   2.261   2.162
   83SOPE   O13 7602   1.452   2.387   2.097
   83SOPE   O14 7603   1.617   2.248   2.233
   83SOPE   O12 7604   1.476   2.133   2.067
   83SOPE   O11 7605   1.380   2.228   2.270
   83SOPE    C1 7606   1.372   2.109   2.349
   83SOPE    HA 7607   1.420   2.020   2.303
   83SOPE    HB 7608   1.268   2.093   2.384
   83SOPE    C2 7609   1.441   2.143   2.485
   83SOPE    HS 7610   1.550   2.155   2.467
   83SOPE   O21 7611   1.419   2.036   2.578
   83SOPE   C21 7612   1.487   1.920   2.561
   83SOPE   O22 7613   1.560   1.894   2.471
   83SOPE   C22 7614   1.449   1.838   2.682
   83SOPE   H2R 7615   1.339   1.819   2.688
   83SOPE   H2S 7616   1.477   1.901   2.769
   83SOPE    C3 7617   1.382   2.269   2.551
   83SOPE    HX 7618   1.274   2.254   2.575
   83SOPE    HY 7619   1.393   2.351   2.477
   83SOPE   O31 7620   1.446   2.298   2.675
   83SOPE   C31 7621   1.436   2.428   2.708
   83SOPE   O32 7622   1.373   2.517   2.654
   83SOPE   C32 7623   1.530   2.446   2.834
   83SOPE   H2X 7624   1.636   2.434   2.805
   83SOPE   H2Y 7625   1.509   2.356   2.896
   83SOPE   C23 7626   1.544   1.711   2.709
   83SOPE   H3R 7627   1.648   1.739   2.685
   83SOPE   H3S 7628   1.513   1.633   2.636
   83SOPE   C24 7629   1.527   1.675   2.857
   83SOPE   H4R 7630   1.616   1.615   2.885
   83SOPE   H4S 7631   1.539   1.765   2.920
   83SOPE   C25 7632   1.389   1.618   2.899
   83SOPE   H5R 7633   1.315   1.700   2.901
   83SOPE   H5S 7634   1.362   1.547   2.818
   83SOPE   C26 7635   1.393   1.548   3.038
   83SOPE   H6R 7636   1.480   1.483   3.060
   83SOPE   H6S 7637   1.412   1.636   3.103
   83SOPE   C27 7638   1.264   1.479   3.068
   83SOPE   H7R 7639   1.201   1.559   3.024
   83SOPE   H7S 7640   1.246   1.395   2.997
   83SOPE   C28 7641   1.237   1.435   3.210
   83SOPE   H8R 7642   1.278   1.505   3.286
   83SOPE   H8S 7643   1.129   1.430   3.235
   83SOPE   C29 7644   1.295   1.302   3.248
   83SOPE   H91 7645   1.391   1.271   3.206
   83SOPE  C210 7646   1.238   1.223   3.338
   83SOPE  H101 7647   1.300   1.139   3.373
   83SOPE  C211 7648   1.109   1.236   3.407
   83SOPE  H11R 7649   1.045   1.162   3.354
   83SOPE  H11S 7650   1.073   1.341   3.409
   83SOPE  C212 7651   1.100   1.194   3.553
   83SOPE  H12R 7652   1.122   1.085   3.552
   83SOPE  H12S 7653   0.997   1.190   3.595
   83SOPE  C213 7654   1.169   1.281   3.650
   83SOPE  H13R 7655   1.250   1.327   3.589
   83SOPE  H13S 7656   1.210   1.224   3.736
   83SOPE  C214 7657   1.098   1.401   3.704
   83SOPE  H14R 7658   1.013   1.366   3.767
   83SOPE  H14S 7659   1.050   1.450   3.617
   83SOPE  C215 7660   1.180   1.505   3.775
   83SOPE  H15R 7661   1.257   1.559   3.716
   83SOPE  H15S 7662   1.229   1.447   3.856
   83SOPE  C216 7663   1.078   1.612   3.836
   83SOPE  H16R 7664   1.005   1.551   3.894
   83SOPE  H16S 7665   1.027   1.660   3.750
   83SOPE  C217 7666   1.126   1.728   3.929
   83SOPE  H17R 7667   1.201   1.787   3.872
   83SOPE  H17S 7668   1.161   1.682   4.024
   83SOPE  C218 7669   1.013   1.817   3.966
   83SOPE  H18R 7670   0.979   1.881   3.882
   83SOPE  H18S 7671   1.043   1.880   4.053
   83SOPE  H18T 7672   0.924   1.763   4.004
   83SOPE   C33 7673   1.494   2.582   2.907
   83SOPE   H3X 7674   1.386   2.581   2.935
   83SOPE   H3Y 7675   1.517   2.675   2.851
   83SOPE   C34 7676   1.566   2.608   3.042
   83SOPE   H4X 7677   1.675   2.592   3.027
   83SOPE   H4Y 7678   1.526   2.536   3.116
   83SOPE   C35 7679   1.541   2.748   3.102
   83SOPE   H5X 7680   1.441   2.754   3.151
   83SOPE   H5Y 7681   1.552   2.820   3.019
   83SOPE   C36 7682   1.656   2.781   3.209
   83SOPE   H6X 7683   1.644   2.885   3.248
   83SOPE   H6Y 7684   1.751   2.777   3.152
   83SOPE   C37 7685   1.658   2.698   3.334
   83SOPE   H7X 7686   1.716   2.604   3.319
   83SOPE   H7Y 7687   1.553   2.683   3.366
   83SOPE   C38 7688   1.749   2.767   3.441
   83SOPE   H8X 7689   1.697   2.863   3.463
   83SOPE   H8Y 7690   1.845   2.794   3.392
   83SOPE   C39 7691   1.758   2.702   3.575
   83SOPE   H9X 7692   1.826   2.615   3.563
   83SOPE   H9Y 7693   1.657   2.663   3.600
   83SOPE  C310 7694   1.807   2.805   3.672
   83SOPE  H10X 7695   1.728   2.883   3.669
   83SOPE  H10Y 7696   1.905   2.846   3.639
   83SOPE  C311 7697   1.830   2.761   3.812
   83SOPE  H11X 7698   1.882   2.844   3.865
   83SOPE  H11Y 7699   1.903   2.678   3.810
   83SOPE  C312 7700   1.716   2.708   3.891
   83SOPE  H12X 7701   1.657   2.623   3.850
   83SOPE  H12Y 7702   1.636   2.783   3.906
   83SOPE  C313 7703   1.762   2.669   4.032
   83SOPE  H13X 7704   1.818   2.748   4.084
   83SOPE  H13Y 7705   1.851   2.604   4.023
   83SOPE  C314 7706   1.656   2.585   4.106
   83SOPE  H14X 7707   1.660   2.482   4.065
   83SOPE  H14Y 7708   1.557   2.631   4.084
   83SOPE  C315 7709   1.679   2.589   4.254
   83SOPE  H15X 7710   1.688   2.693   4.292
   83SOPE  H15Y 7711   1.772   2.538   4.286
   83SOPE  C316 7712   1.552   2.526   4.324
   83SOPE  H16X 7713   1.456   2.576   4.295
   83SOPE  H16Y 7714   1.558   2.544   4.433
   83SOPE  C317 7715   1.528   2.371   4.291
   83SOPE  H17X 7716   1.491   2.359   4.187
   83SOPE  H17Y 7717   1.438   2.352   4.354
   83SOPE  C318 7718   1.633   2.277   4.337
   83SOPE  H18X 7719   1.597   2.172   4.342
   83SOPE  H18Y 7720   1.656   2.326   4.435
   83SOPE  H18Z 7721   1.715   2.293   4.264
   84SOPE     N 7722   6.663   0.432   1.990
   84SOPE   HN1 7723   6.562   0.443   2.010
   84SOPE   HN2 7724   6.716   0.437   2.079
   84SOPE   HN3 7725   6.700   0.517   1.943
   84SOPE   C12 7726   6.685   0.305   1.911
   84SOPE  H12A 7727   6.632   0.324   1.815
   84SOPE  H12B 7728   6.618   0.234   1.963
   84SOPE   C11 7729   0.037   0.266   1.905
   84SOPE  H11A 7730   0.091   0.350   1.856
   84SOPE  H11B 7731   0.041   0.176   1.839
   84SOPE     P 7732   0.205   0.143   2.065
   84SOPE   O13 7733   0.308   0.177   1.962
   84SOPE   O14 7734   0.148   0.006   2.050
   84SOPE   O12 7735   0.089   0.245   2.040
   84SOPE   O11 7736   0.263   0.175   2.213
   84SOPE    C1 7737   0.273   0.315   2.250
   84SOPE    HA 7738   0.181   0.372   2.225
   84SOPE    HB 7739   0.349   0.365   2.187
   84SOPE    C2 7740   0.300   0.353   2.408
   84SOPE    HS 7741   0.281   0.461   2.421
   84SOPE   O21 7742   0.432   0.317   2.442
   84SOPE   C21 7743   0.519   0.399   2.386
   84SOPE   O22 7744   0.485   0.496   2.321
   84SOPE   C22 7745   0.667   0.357   2.392
   84SOPE   H2R 7746   0.716   0.375   2.295
   84SOPE   H2S 7747   0.676   0.249   2.412
   84SOPE    C3 7748   0.187   0.278   2.491
   84SOPE    HX 7749   0.160   0.183   2.440
   84SOPE    HY 7750   0.094   0.339   2.482
   84SOPE   O31 7751   0.225   0.261   2.630
   84SOPE   C31 7752   0.302   0.155   2.660
   84SOPE   O32 7753   0.333   0.067   2.578
   84SOPE   C32 7754   0.349   0.158   2.806
   84SOPE   H2X 7755   0.290   0.244   2.847
   84SOPE   H2Y 7756   0.457   0.182   2.807
   84SOPE   C23 7757   0.730   0.419   2.514
   84SOPE   H3R 7758   0.738   0.530   2.506
   84SOPE   H3S 7759   0.837   0.389   2.520
   84SOPE   C24 7760   0.659   0.391   2.649
   84SOPE   H4R 7761   0.567   0.451   2.666
   84SOPE   H4S 7762   0.629   0.285   2.652
   84SOPE   C25 7763   0.749   0.426   2.772
   84SOPE   H5R 7764   0.843   0.368   2.766
   84SOPE   H5S 7765   0.761   0.537   2.768
   84SOPE   C26 7766   0.687   0.380   2.907
   84SOPE   H6R 7767   0.582   0.417   2.912
   84SOPE   H6S 7768   0.680   0.270   2.917
   84SOPE   C27 7769   0.768   0.431   3.030
   84SOPE   H7R 7770   0.873   0.397   3.018
   84SOPE   H7S 7771   0.772   0.541   3.034
   84SOPE   C28 7772   0.699   0.387   3.164
   84SOPE   H8R 7773   0.705   0.276   3.170
   84SOPE   H8S 7774   0.761   0.428   3.246
   84SOPE   C29 7775   0.560   0.436   3.198
   84SOPE   H91 7776   0.527   0.528   3.147
   84SOPE  C210 7777   0.461   0.371   3.257
   84SOPE  H101 7778   0.363   0.419   3.271
   84SOPE  C211 7779   0.477   0.239   3.330
   84SOPE  H11R 7780   0.531   0.160   3.274
   84SOPE  H11S 7781   0.382   0.197   3.368
   84SOPE  C212 7782   0.566   0.238   3.454
   84SOPE  H12R 7783   0.673   0.254   3.433
   84SOPE  H12S 7784   0.550   0.134   3.492
   84SOPE  C213 7785   0.521   0.328   3.572
   84SOPE  H13R 7786   0.419   0.315   3.612
   84SOPE  H13S 7787   0.513   0.432   3.534
   84SOPE  C214 7788   0.626   0.316   3.692
   84SOPE  H14R 7789   0.725   0.353   3.656
   84SOPE  H14S 7790   0.639   0.210   3.725
   84SOPE  C215 7791   0.586   0.397   3.812
   84SOPE  H15R 7792   0.482   0.360   3.826
   84SOPE  H15S 7793   0.585   0.502   3.776
   84SOPE  C216 7794   0.652   0.367   3.955
   84SOPE  H16R 7795   0.759   0.398   3.949
   84SOPE  H16S 7796   0.622   0.265   3.987
   84SOPE  C217 7797   0.573   0.464   4.050
   84SOPE  H17R 7798   0.470   0.444   4.015
   84SOPE  H17S 7799   0.596   0.571   4.034
   84SOPE  C218 7800   0.601   0.421   4.198
   84SOPE  H18R 7801   0.569   0.316   4.217
   84SOPE  H18S 7802   0.533   0.485   4.258
   84SOPE  H18T 7803   0.703   0.454   4.229
   84SOPE   C33 7804   0.323   0.021   2.875
   84SOPE   H3X 7805   0.393   6.747   2.823
   84SOPE   H3Y 7806   0.217   6.788   2.860
   84SOPE   C34 7807   0.340   0.024   3.032
   84SOPE   H4X 7808   0.308   0.119   3.079
   84SOPE   H4Y 7809   0.450   0.014   3.045
   84SOPE   C35 7810   0.285   6.703   3.118
   84SOPE   H5X 7811   0.302   6.600   3.079
   84SOPE   H5Y 7812   0.176   6.709   3.098
   84SOPE   C36 7813   0.326   6.713   3.267
   84SOPE   H6X 7814   0.299   0.019   3.301
   84SOPE   H6Y 7815   0.435   6.699   3.277
   84SOPE   C37 7816   0.263   6.596   3.344
   84SOPE   H7X 7817   0.306   6.496   3.321
   84SOPE   H7Y 7818   0.157   6.591   3.311
   84SOPE   C38 7819   0.254   6.632   3.490
   84SOPE   H8X 7820   0.188   6.554   3.535
   84SOPE   H8Y 7821   0.198   6.728   3.497
   84SOPE   C39 7822   0.388   6.633   3.562
   84SOPE   H9X 7823   0.448   6.713   3.513
   84SOPE   H9Y 7824   0.420   6.528   3.542
   84SOPE  C310 7825   0.390   6.643   3.712
   84SOPE  H10X 7826   0.495   6.652   3.747
   84SOPE  H10Y 7827   0.340   6.554   3.755
   84SOPE  C311 7828   0.329   6.772   3.764
   84SOPE  H11X 7829   0.239   0.011   3.708
   84SOPE  H11Y 7830   0.418   0.042   3.766
   84SOPE  C312 7831   0.294   6.773   3.910
   84SOPE  H12X 7832   0.369   6.715   3.968
   84SOPE  H12Y 7833   0.198   6.720   3.930
   84SOPE  C313 7834   0.275   0.114   3.977
   84SOPE  H13X 7835   0.190   0.165   3.927
   84SOPE  H13Y 7836   0.371   0.170   3.969
   84SOPE  C314 7837   0.238   0.095   4.126
   84SOPE  H14X 7838   0.322   0.034   4.165
   84SOPE  H14Y 7839   0.136   0.050   4.134
   84SOPE  C315 7840   0.240   0.222   4.212
   84SOPE  H15X 7841   0.327   0.284   4.181
   84SOPE  H15Y 7842   0.256   0.190   4.317
   84SOPE  C316 7843   0.099   0.290   4.193
   84SOPE  H16X 7844   0.011   0.229   4.223
   84SOPE  H16Y 7845   0.100   0.323   4.087
   84SOPE  C317 7846   0.094   0.409   4.285
   84SOPE  H17X 7847   0.170   0.488   4.267
   84SOPE  H17Y 7848   0.112   0.371   4.388
   84SOPE  C318 7849   6.749   0.472   4.269
   84SOPE  H18X 7850   6.675   0.396   4.300
   84SOPE  H18Y 7851   6.742   0.513   4.166
   84SOPE  H18Z 7852   6.749   0.557   4.340
   85SOPE     N 7853   4.830   4.384   1.589
   85SOPE   HN1 7854   4.893   4.373   1.508
   85SOPE   HN2 7855   4.812   4.291   1.632
   85SOPE   HN3 7856   4.740   4.415   1.547
   85SOPE   C12 7857   4.892   4.471   1.691
   85SOPE  H12A 7858   4.810   4.532   1.733
   85SOPE  H12B 7859   4.956   4.549   1.644
   85SOPE   C11 7860   4.971   4.408   1.809
   85SOPE  H11A 7861   4.908   4.353   1.882
   85SOPE  H11B 7862   5.001   4.493   1.873
   85SOPE     P 7863   5.058   4.171   1.762
   85SOPE   O13 7864   5.181   4.110   1.703
   85SOPE   O14 7865   4.920   4.140   1.713
   85SOPE   O12 7866   5.077   4.334   1.751
   85SOPE   O11 7867   5.062   4.154   1.918
   85SOPE    C1 7868   5.174   4.169   2.001
   85SOPE    HA 7869   5.200   4.275   2.019
   85SOPE    HB 7870   5.257   4.114   1.952
   85SOPE    C2 7871   5.162   4.097   2.142
   85SOPE    HS 7872   5.145   3.989   2.123
   85SOPE   O21 7873   5.055   4.159   2.211
   85SOPE   C21 7874   5.013   4.087   2.312
   85SOPE   O22 7875   5.028   3.967   2.333
   85SOPE   C22 7876   4.937   4.183   2.400
   85SOPE   H2R 7877   4.874   4.120   2.466
   85SOPE   H2S 7878   4.862   4.230   2.332
   85SOPE    C3 7879   5.302   4.113   2.217
   85SOPE    HX 7880   5.311   4.213   2.263
   85SOPE    HY 7881   5.389   4.107   2.148
   85SOPE   O31 7882   5.315   4.018   2.324
   85SOPE   C31 7883   5.365   3.901   2.287
   85SOPE   O32 7884   5.404   3.876   2.171
   85SOPE   C32 7885   5.387   3.822   2.419
   85SOPE   H2X 7886   5.452   3.886   2.482
   85SOPE   H2Y 7887   5.436   3.728   2.386
   85SOPE   C23 7888   5.038   4.273   2.479
   85SOPE   H3R 7889   4.995   4.370   2.514
   85SOPE   H3S 7890   5.118   4.298   2.406
   85SOPE   C24 7891   5.112   4.208   2.592
   85SOPE   H4R 7892   5.108   4.097   2.581
   85SOPE   H4S 7893   5.222   4.226   2.593
   85SOPE   C25 7894   5.051   4.245   2.726
   85SOPE   H5R 7895   5.044   4.353   2.749
   85SOPE   H5S 7896   4.947   4.207   2.717
   85SOPE   C26 7897   5.112   4.168   2.843
   85SOPE   H6R 7898   5.083   4.061   2.830
   85SOPE   H6S 7899   5.222   4.183   2.837
   85SOPE   C27 7900   5.041   4.220   2.971
   85SOPE   H7R 7901   5.056   4.329   2.987
   85SOPE   H7S 7902   4.930   4.218   2.969
   85SOPE   C28 7903   5.093   4.156   3.096
   85SOPE   H8R 7904   5.107   4.047   3.086
   85SOPE   H8S 7905   5.197   4.192   3.114
   85SOPE   C29 7906   5.002   4.176   3.215
   85SOPE   H91 7907   4.897   4.192   3.188
   85SOPE  C210 7908   5.045   4.179   3.344
   85SOPE  H101 7909   4.963   4.194   3.416
   85SOPE  C211 7910   5.166   4.129   3.413
   85SOPE  H11R 7911   5.208   4.212   3.473
   85SOPE  H11S 7912   5.244   4.104   3.339
   85SOPE  C212 7913   5.151   4.013   3.504
   85SOPE  H12R 7914   5.244   4.019   3.563
   85SOPE  H12S 7915   5.148   3.915   3.451
   85SOPE  C213 7916   5.044   4.029   3.615
   85SOPE  H13R 7917   5.054   3.935   3.674
   85SOPE  H13S 7918   4.944   4.027   3.567
   85SOPE  C214 7919   5.052   4.158   3.705
   85SOPE  H14R 7920   5.004   4.238   3.645
   85SOPE  H14S 7921   5.156   4.189   3.727
   85SOPE  C215 7922   4.969   4.140   3.837
   85SOPE  H15R 7923   4.860   4.129   3.816
   85SOPE  H15S 7924   4.973   4.237   3.890
   85SOPE  C216 7925   5.024   4.032   3.928
   85SOPE  H16R 7926   5.134   4.037   3.938
   85SOPE  H16S 7927   4.996   3.936   3.880
   85SOPE  C217 7928   4.959   4.014   4.065
   85SOPE  H17R 7929   4.850   4.032   4.058
   85SOPE  H17S 7930   5.010   4.091   4.126
   85SOPE  C218 7931   4.973   3.886   4.139
   85SOPE  H18R 7932   4.950   3.808   4.064
   85SOPE  H18S 7933   4.905   3.878   4.227
   85SOPE  H18T 7934   5.074   3.869   4.183
   85SOPE   C33 7935   5.264   3.794   2.500
   85SOPE   H3X 7936   5.176   3.765   2.439
   85SOPE   H3Y 7937   5.227   3.893   2.534
   85SOPE   C34 7938   5.287   3.687   2.606
   85SOPE   H4X 7939   5.306   3.589   2.557
   85SOPE   H4Y 7940   5.183   3.674   2.643
   85SOPE   C35 7941   5.367   3.740   2.727
   85SOPE   H5X 7942   5.472   3.765   2.702
   85SOPE   H5Y 7943   5.377   3.658   2.802
   85SOPE   C36 7944   5.297   3.862   2.794
   85SOPE   H6X 7945   5.188   3.841   2.791
   85SOPE   H6Y 7946   5.310   3.948   2.725
   85SOPE   C37 7947   5.353   3.904   2.932
   85SOPE   H7X 7948   5.295   3.991   2.968
   85SOPE   H7Y 7949   5.461   3.927   2.922
   85SOPE   C38 7950   5.350   3.802   3.051
   85SOPE   H8X 7951   5.415   3.713   3.037
   85SOPE   H8Y 7952   5.242   3.775   3.051
   85SOPE   C39 7953   5.384   3.860   3.191
   85SOPE   H9X 7954   5.307   3.936   3.212
   85SOPE   H9Y 7955   5.485   3.907   3.188
   85SOPE  C310 7956   5.401   3.763   3.304
   85SOPE  H10X 7957   5.460   3.680   3.259
   85SOPE  H10Y 7958   5.304   3.720   3.336
   85SOPE  C311 7959   5.488   3.807   3.429
   85SOPE  H11X 7960   5.444   3.894   3.482
   85SOPE  H11Y 7961   5.584   3.837   3.382
   85SOPE  C312 7962   5.526   3.698   3.536
   85SOPE  H12X 7963   5.588   3.616   3.494
   85SOPE  H12Y 7964   5.432   3.658   3.580
   85SOPE  C313 7965   5.632   3.764   3.632
   85SOPE  H13X 7966   5.585   3.859   3.666
   85SOPE  H13Y 7967   5.721   3.780   3.567
   85SOPE  C314 7968   5.667   3.682   3.749
   85SOPE  H14X 7969   5.710   3.588   3.707
   85SOPE  H14Y 7970   5.579   3.655   3.811
   85SOPE  C315 7971   5.767   3.751   3.833
   85SOPE  H15X 7972   5.720   3.849   3.855
   85SOPE  H15Y 7973   5.863   3.766   3.780
   85SOPE  C316 7974   5.809   3.686   3.970
   85SOPE  H16X 7975   5.874   3.600   3.943
   85SOPE  H16Y 7976   5.720   3.651   4.026
   85SOPE  C317 7977   5.899   3.769   4.065
   85SOPE  H17X 7978   5.910   3.702   4.153
   85SOPE  H17Y 7979   5.846   3.864   4.086
   85SOPE  C318 7980   6.030   3.797   4.001
   85SOPE  H18X 7981   6.086   3.702   3.983
   85SOPE  H18Y 7982   6.090   3.856   4.074
   85SOPE  H18Z 7983   6.014   3.852   3.906
   86SOPE     N 7984   5.414   1.088   2.151
   86SOPE   HN1 7985   5.313   1.094   2.176
   86SOPE   HN2 7986   5.439   1.118   2.055
   86SOPE   HN3 7987   5.429   0.985   2.153
   86SOPE   C12 7988   5.499   1.158   2.249
   86SOPE  H12A 7989   5.486   1.108   2.348
   86SOPE  H12B 7990   5.471   1.265   2.256
   86SOPE   C11 7991   5.648   1.150   2.212
   86SOPE  H11A 7992   5.710   1.211   2.281
   86SOPE  H11B 7993   5.666   1.178   2.105
   86SOPE     P 7994   5.816   0.970   2.307
   86SOPE   O13 7995   5.934   1.056   2.261
   86SOPE   O14 7996   5.826   0.820   2.298
   86SOPE   O12 7997   5.694   1.015   2.214
   86SOPE   O11 7998   5.767   1.015   2.460
   86SOPE    C1 7999   5.664   0.939   2.528
   86SOPE    HA 8000   5.705   0.848   2.577
   86SOPE    HB 8001   5.581   0.924   2.456
   86SOPE    C2 8002   5.592   1.025   2.639
   86SOPE    HS 8003   5.563   1.119   2.587
   86SOPE   O21 8004   5.673   1.063   2.755
   86SOPE   C21 8005   5.638   1.160   2.833
   86SOPE   O22 8006   5.551   1.249   2.814
   86SOPE   C22 8007   5.719   1.151   2.966
   86SOPE   H2R 8008   5.805   1.221   2.962
   86SOPE   H2S 8009   5.776   1.057   2.978
   86SOPE    C3 8010   5.461   0.953   2.689
   86SOPE    HX 8011   5.411   0.911   2.599
   86SOPE    HY 8012   5.400   1.037   2.728
   86SOPE   O31 8013   5.482   0.860   2.797
   86SOPE   C31 8014   5.505   0.733   2.773
   86SOPE   O32 8015   5.470   0.675   2.674
   86SOPE   C32 8016   5.579   0.668   2.896
   86SOPE   H2X 8017   5.661   0.738   2.923
   86SOPE   H2Y 8018   5.623   0.576   2.854
   86SOPE   C23 8019   5.641   1.160   3.097
   86SOPE   H3R 8020   5.561   1.083   3.097
   86SOPE   H3S 8021   5.599   1.262   3.110
   86SOPE   C24 8022   5.732   1.148   3.224
   86SOPE   H4R 8023   5.782   1.049   3.234
   86SOPE   H4S 8024   5.806   1.231   3.219
   86SOPE   C25 8025   5.633   1.147   3.344
   86SOPE   H5R 8026   5.583   1.246   3.343
   86SOPE   H5S 8027   5.551   1.076   3.321
   86SOPE   C26 8028   5.711   1.119   3.477
   86SOPE   H6R 8029   5.765   1.023   3.463
   86SOPE   H6S 8030   5.792   1.195   3.485
   86SOPE   C27 8031   5.620   1.113   3.592
   86SOPE   H7R 8032   5.537   1.182   3.566
   86SOPE   H7S 8033   5.569   1.015   3.605
   86SOPE   C28 8034   5.677   1.160   3.732
   86SOPE   H8R 8035   5.770   1.108   3.763
   86SOPE   H8S 8036   5.720   1.262   3.717
   86SOPE   C29 8037   5.577   1.159   3.850
   86SOPE   H91 8038   5.479   1.210   3.850
   86SOPE  C210 8039   5.596   1.089   3.958
   86SOPE  H101 8040   5.525   1.091   4.042
   86SOPE  C211 8041   5.720   1.011   4.002
   86SOPE  H11R 8042   5.811   1.059   3.959
   86SOPE  H11S 8043   5.716   0.902   3.977
   86SOPE  C212 8044   5.737   1.029   4.159
   86SOPE  H12R 8045   5.646   0.997   4.214
   86SOPE  H12S 8046   5.752   1.138   4.176
   86SOPE  C213 8047   5.854   0.958   4.217
   86SOPE  H13R 8048   5.944   1.024   4.208
   86SOPE  H13S 8049   5.870   0.856   4.177
   86SOPE  C214 8050   5.843   0.951   4.375
   86SOPE  H14R 8051   5.735   0.934   4.395
   86SOPE  H14S 8052   5.880   1.048   4.416
   86SOPE  C215 8053   5.914   0.830   4.443
   86SOPE  H15R 8054   5.896   0.734   4.390
   86SOPE  H15S 8055   5.896   0.816   4.552
   86SOPE  C216 8056   6.069   0.849   4.447
   86SOPE  H16R 8057   6.091   0.948   4.493
   86SOPE  H16S 8058   6.099   0.857   4.341
   86SOPE  C217 8059   6.135   0.734   4.530
   86SOPE  H17R 8060   6.081   0.715   4.625
   86SOPE  H17S 8061   6.236   0.770   4.558
   86SOPE  C218 8062   6.142   0.596   4.457
   86SOPE  H18R 8063   6.226   0.609   4.387
   86SOPE  H18S 8064   6.045   0.569   4.409
   86SOPE  H18T 8065   6.170   0.518   4.532
   86SOPE   C33 8066   5.485   0.631   3.017
   86SOPE   H3X 8067   5.405   0.564   2.980
   86SOPE   H3Y 8068   5.446   0.716   3.077
   86SOPE   C34 8069   5.570   0.556   3.116
   86SOPE   H4X 8070   5.663   0.609   3.146
   86SOPE   H4Y 8071   5.600   0.461   3.066
   86SOPE   C35 8072   5.515   0.531   3.251
   86SOPE   H5X 8073   5.506   0.626   3.308
   86SOPE   H5Y 8074   5.584   0.464   3.307
   86SOPE   C36 8075   5.368   0.489   3.261
   86SOPE   H6X 8076   5.355   0.386   3.222
   86SOPE   H6Y 8077   5.307   0.557   3.196
   86SOPE   C37 8078   5.311   0.508   3.399
   86SOPE   H7X 8079   5.203   0.489   3.417
   86SOPE   H7Y 8080   5.332   0.614   3.427
   86SOPE   C38 8081   5.382   0.423   3.500
   86SOPE   H8X 8082   5.486   0.461   3.512
   86SOPE   H8Y 8083   5.399   0.318   3.470
   86SOPE   C39 8084   5.306   0.418   3.639
   86SOPE   H9X 8085   5.199   0.399   3.613
   86SOPE   H9Y 8086   5.312   0.519   3.685
   86SOPE  C310 8087   5.350   0.308   3.734
   86SOPE  H10X 8088   5.446   0.329   3.786
   86SOPE  H10Y 8089   5.354   0.209   3.684
   86SOPE  C311 8090   5.254   0.279   3.845
   86SOPE  H11X 8091   5.165   0.254   3.783
   86SOPE  H11Y 8092   5.237   0.375   3.899
   86SOPE  C312 8093   5.304   0.163   3.930
   86SOPE  H12X 8094   5.353   0.090   3.863
   86SOPE  H12Y 8095   5.212   0.120   3.977
   86SOPE  C313 8096   5.401   0.213   4.038
   86SOPE  H13X 8097   5.363   0.300   4.096
   86SOPE  H13Y 8098   5.496   0.230   3.984
   86SOPE  C314 8099   5.441   0.104   4.141
   86SOPE  H14X 8100   5.502   0.032   4.082
   86SOPE  H14Y 8101   5.352   0.057   4.188
   86SOPE  C315 8102   5.531   0.154   4.258
   86SOPE  H15X 8103   5.475   0.222   4.325
   86SOPE  H15Y 8104   5.620   0.210   4.221
   86SOPE  C316 8105   5.585   0.050   4.362
   86SOPE  H16X 8106   5.641   0.103   4.441
   86SOPE  H16Y 8107   5.660   6.781   4.312
   86SOPE  C317 8108   5.483   6.759   4.416
   86SOPE  H17X 8109   5.456   6.701   4.326
   86SOPE  H17Y 8110   5.399   0.026   4.452
   86SOPE  C318 8111   5.534   6.660   4.520
   86SOPE  H18X 8112   5.621   6.598   4.492
   86SOPE  H18Y 8113   5.454   6.590   4.553
   86SOPE  H18Z 8114   5.562   6.722   4.608
   87SOPE     N 8115   6.047   0.319   1.855
   87SOPE   HN1 8116   6.061   0.356   1.759
   87SOPE   HN2 8117   5.947   0.310   1.881
   87SOPE   HN3 8118   6.097   0.391   1.911
   87SOPE   C12 8119   6.132   0.198   1.851
   87SOPE  H12A 8120   6.150   0.175   1.744
   87SOPE  H12B 8121   6.094   0.111   1.909
   87SOPE   C11 8122   6.270   0.237   1.921
   87SOPE  H11A 8123   6.329   0.311   1.862
   87SOPE  H11B 8124   6.320   0.138   1.908
   87SOPE     P 8125   6.360   0.355   2.142
   87SOPE   O13 8126   6.304   0.388   2.273
   87SOPE   O14 8127   6.410   0.470   2.061
   87SOPE   O12 8128   6.245   0.273   2.055
   87SOPE   O11 8129   6.480   0.251   2.148
   87SOPE    C1 8130   6.450   0.115   2.153
   87SOPE    HA 8131   6.489   0.071   2.059
   87SOPE    HB 8132   6.341   0.095   2.149
   87SOPE    C2 8133   6.496   0.041   2.281
   87SOPE    HS 8134   6.496   6.728   2.259
   87SOPE   O21 8135   6.388   0.068   2.378
   87SOPE   C21 8136   6.381   0.011   2.493
   87SOPE   O22 8137   6.437   6.704   2.524
   87SOPE   C22 8138   6.291   0.089   2.587
   87SOPE   H2R 8139   6.183   0.084   2.561
   87SOPE   H2S 8140   6.315   0.194   2.559
   87SOPE    C3 8141   6.644   0.087   2.320
   87SOPE    HX 8142   6.651   0.198   2.318
   87SOPE    HY 8143   6.719   0.069   2.240
   87SOPE   O31 8144   6.694   0.041   2.444
   87SOPE   C31 8145   6.750   6.724   2.443
   87SOPE   O32 8146   6.748   6.646   2.342
   87SOPE   C32 8147   0.019   6.673   2.566
   87SOPE   H2X 8148   0.123   6.713   2.568
   87SOPE   H2Y 8149   0.031   6.564   2.553
   87SOPE   C23 8150   6.314   0.072   2.741
   87SOPE   H3R 8151   6.424   0.074   2.750
   87SOPE   H3S 8152   6.263   6.772   2.765
   87SOPE   C24 8153   6.256   0.180   2.841
   87SOPE   H4R 8154   6.291   0.279   2.804
   87SOPE   H4S 8155   6.146   0.169   2.830
   87SOPE   C25 8156   6.293   0.166   2.985
   87SOPE   H5R 8157   6.241   0.078   3.030
   87SOPE   H5S 8158   6.403   0.153   2.998
   87SOPE   C26 8159   6.253   0.288   3.073
   87SOPE   H6R 8160   6.288   0.380   3.022
   87SOPE   H6S 8161   6.142   0.293   3.080
   87SOPE   C27 8162   6.310   0.302   3.215
   87SOPE   H7R 8163   6.413   0.338   3.190
   87SOPE   H7S 8164   6.255   0.384   3.265
   87SOPE   C28 8165   6.309   0.180   3.314
   87SOPE   H8R 8166   6.201   0.156   3.328
   87SOPE   H8S 8167   6.368   0.100   3.266
   87SOPE   C29 8168   6.386   0.223   3.432
   87SOPE   H91 8169   6.493   0.244   3.414
   87SOPE  C210 8170   6.338   0.242   3.559
   87SOPE  H101 8171   6.412   0.283   3.630
   87SOPE  C211 8172   6.203   0.228   3.608
   87SOPE  H11R 8173   6.205   0.165   3.699
   87SOPE  H11S 8174   6.147   0.165   3.535
   87SOPE  C212 8175   6.132   0.366   3.620
   87SOPE  H12R 8176   6.108   0.409   3.521
   87SOPE  H12S 8177   6.191   0.434   3.685
   87SOPE  C213 8178   5.995   0.344   3.698
   87SOPE  H13R 8179   5.954   0.247   3.664
   87SOPE  H13S 8180   5.915   0.418   3.675
   87SOPE  C214 8181   6.009   0.349   3.852
   87SOPE  H14R 8182   6.053   0.447   3.882
   87SOPE  H14S 8183   6.077   0.268   3.884
   87SOPE  C215 8184   5.874   0.312   3.925
   87SOPE  H15R 8185   5.848   0.205   3.908
   87SOPE  H15S 8186   5.783   0.365   3.889
   87SOPE  C216 8187   5.885   0.340   4.084
   87SOPE  H16R 8188   5.792   0.315   4.140
   87SOPE  H16S 8189   5.910   0.446   4.107
   87SOPE  C217 8190   6.005   0.257   4.145
   87SOPE  H17R 8191   6.101   0.312   4.135
   87SOPE  H17S 8192   6.019   0.155   4.103
   87SOPE  C218 8193   5.976   0.229   4.298
   87SOPE  H18R 8194   5.981   0.323   4.357
   87SOPE  H18S 8195   6.067   0.178   4.337
   87SOPE  H18T 8196   5.883   0.169   4.310
   87SOPE   C33 8197   6.744   6.687   2.697
   87SOPE   H3X 8198   6.637   6.662   2.679
   87SOPE   H3Y 8199   6.759   6.792   2.731
   87SOPE   C34 8200   0.002   6.588   2.808
   87SOPE   H4X 8201   0.112   6.599   2.801
   87SOPE   H4Y 8202   6.779   6.481   2.788
   87SOPE   C35 8203   6.766   6.629   2.950
   87SOPE   H5X 8204   6.792   6.735   2.972
   87SOPE   H5Y 8205   0.033   6.578   3.027
   87SOPE   C36 8206   6.619   6.598   2.978
   87SOPE   H6X 8207   6.621   6.488   2.989
   87SOPE   H6Y 8208   6.560   6.633   2.891
   87SOPE   C37 8209   6.562   6.658   3.107
   87SOPE   H7X 8210   6.461   6.613   3.120
   87SOPE   H7Y 8211   6.566   6.767   3.086
   87SOPE   C38 8212   6.645   6.625   3.238
   87SOPE   H8X 8213   6.749   6.663   3.229
   87SOPE   H8Y 8214   6.658   6.518   3.264
   87SOPE   C39 8215   6.584   6.695   3.363
   87SOPE   H9X 8216   6.488   6.642   3.381
   87SOPE   H9Y 8217   6.568   0.007   3.341
   87SOPE  C310 8218   6.680   6.678   3.484
   87SOPE  H10X 8219   6.778   6.719   3.452
   87SOPE  H10Y 8220   6.698   6.571   3.506
   87SOPE  C311 8221   6.628   6.735   3.619
   87SOPE  H11X 8222   6.556   6.666   3.669
   87SOPE  H11Y 8223   6.586   0.036   3.587
   87SOPE  C312 8224   6.740   6.771   3.713
   87SOPE  H12X 8225   0.014   0.043   3.659
   87SOPE  H12Y 8226   0.011   6.692   3.752
   87SOPE  C313 8227   6.687   0.050   3.840
   87SOPE  H13X 8228   6.775   0.066   3.907
   87SOPE  H13Y 8229   6.625   6.775   3.899
   87SOPE  C314 8230   6.597   0.166   3.813
   87SOPE  H14X 8231   6.499   0.131   3.772
   87SOPE  H14Y 8232   6.662   0.220   3.742
   87SOPE  C315 8233   6.573   0.262   3.922
   87SOPE  H15X 8234   6.577   0.369   3.891
   87SOPE  H15Y 8235   6.655   0.258   3.997
   87SOPE  C316 8236   6.430   0.250   3.982
   87SOPE  H16X 8237   6.415   0.140   3.986
   87SOPE  H16Y 8238   6.357   0.294   3.910
   87SOPE  C317 8239   6.413   0.322   4.114
   87SOPE  H17X 8240   6.510   0.319   4.169
   87SOPE  H17Y 8241   6.340   0.266   4.176
   87SOPE  C318 8242   6.368   0.466   4.104
   87SOPE  H18X 8243   6.374   0.520   4.200
   87SOPE  H18Y 8244   6.267   0.465   4.059
   87SOPE  H18Z 8245   6.426   0.516   4.023
   88SOPE     N 8246   1.200   5.193   2.223
   88SOPE   HN1 8247   1.172   5.117   2.158
   88SOPE   HN2 8248   1.180   5.287   2.183
   88SOPE   HN3 8249   1.302   5.185   2.238
   88SOPE   C12 8250   1.130   5.173   2.355
   88SOPE  H12A 8251   1.198   5.115   2.420
   88SOPE  H12B 8252   1.033   5.121   2.340
   88SOPE   C11 8253   1.089   5.304   2.428
   88SOPE  H11A 8254   1.173   5.375   2.448
   88SOPE  H11B 8255   1.060   5.271   2.531
   88SOPE     P 8256   0.997   5.496   2.266
   88SOPE   O13 8257   0.871   5.551   2.226
   88SOPE   O14 8258   1.087   5.444   2.164
   88SOPE   O12 8259   0.978   5.368   2.364
   88SOPE   O11 8260   1.073   5.601   2.353
   88SOPE    C1 8261   1.004   5.661   2.464
   88SOPE    HA 8262   0.922   5.598   2.504
   88SOPE    HB 8263   0.975   5.766   2.443
   88SOPE    C2 8264   1.109   5.683   2.582
   88SOPE    HS 8265   1.136   5.584   2.623
   88SOPE   O21 8266   1.053   5.780   2.675
   88SOPE   C21 8267   0.965   5.724   2.761
   88SOPE   O22 8268   0.911   5.617   2.744
   88SOPE   C22 8269   0.946   5.799   2.893
   88SOPE   H2R 8270   0.854   5.860   2.881
   88SOPE   H2S 8271   1.034   5.864   2.913
   88SOPE    C3 8272   1.238   5.743   2.530
   88SOPE    HX 8273   1.218   5.849   2.506
   88SOPE    HY 8274   1.282   5.699   2.438
   88SOPE   O31 8275   1.339   5.750   2.627
   88SOPE   C31 8276   1.418   5.645   2.639
   88SOPE   O32 8277   1.403   5.539   2.575
   88SOPE   C32 8278   1.520   5.655   2.747
   88SOPE   H2X 8279   1.605   5.716   2.710
   88SOPE   H2Y 8280   1.546   5.550   2.774
   88SOPE   C23 8281   0.916   5.708   3.014
   88SOPE   H3R 8282   1.009   5.652   3.038
   88SOPE   H3S 8283   0.838   5.632   2.996
   88SOPE   C24 8284   0.865   5.795   3.126
   88SOPE   H4R 8285   0.940   5.876   3.141
   88SOPE   H4S 8286   0.776   5.854   3.094
   88SOPE   C25 8287   0.854   5.728   3.266
   88SOPE   H5R 8288   0.766   5.661   3.262
   88SOPE   H5S 8289   0.951   5.673   3.273
   88SOPE   C26 8290   0.844   5.822   3.390
   88SOPE   H6R 8291   0.933   5.888   3.387
   88SOPE   H6S 8292   0.747   5.877   3.395
   88SOPE   C27 8293   0.855   5.730   3.519
   88SOPE   H7R 8294   0.777   5.653   3.536
   88SOPE   H7S 8295   0.950   5.674   3.500
   88SOPE   C28 8296   0.876   5.807   3.654
   88SOPE   H8R 8297   0.932   5.740   3.722
   88SOPE   H8S 8298   0.950   5.889   3.643
   88SOPE   C29 8299   0.734   5.840   3.699
   88SOPE   H91 8300   0.660   5.872   3.624
   88SOPE  C210 8301   0.700   5.857   3.829
   88SOPE  H101 8302   0.597   5.892   3.842
   88SOPE  C211 8303   0.781   5.837   3.959
   88SOPE  H11R 8304   0.826   5.935   3.988
   88SOPE  H11S 8305   0.862   5.763   3.941
   88SOPE  C212 8306   0.702   5.781   4.074
   88SOPE  H12R 8307   0.658   5.684   4.041
   88SOPE  H12S 8308   0.616   5.849   4.091
   88SOPE  C213 8309   0.782   5.758   4.200
   88SOPE  H13R 8310   0.857   5.838   4.219
   88SOPE  H13S 8311   0.834   5.661   4.190
   88SOPE  C214 8312   0.710   5.747   4.336
   88SOPE  H14R 8313   0.635   5.826   4.359
   88SOPE  H14S 8314   0.777   5.762   4.423
   88SOPE  C215 8315   0.643   5.610   4.361
   88SOPE  H15R 8316   0.599   5.569   4.268
   88SOPE  H15S 8317   0.560   5.630   4.432
   88SOPE  C216 8318   0.739   5.507   4.404
   88SOPE  H16R 8319   0.796   5.568   4.477
   88SOPE  H16S 8320   0.803   5.477   4.319
   88SOPE  C217 8321   0.688   5.380   4.471
   88SOPE  H17R 8322   0.642   5.328   4.384
   88SOPE  H17S 8323   0.602   5.410   4.535
   88SOPE  C218 8324   0.788   5.286   4.539
   88SOPE  H18R 8325   0.843   5.342   4.618
   88SOPE  H18S 8326   0.863   5.257   4.462
   88SOPE  H18T 8327   0.733   5.206   4.593
   88SOPE   C33 8328   1.467   5.730   2.879
   88SOPE   H3X 8329   1.414   5.824   2.855
   88SOPE   H3Y 8330   1.550   5.753   2.949
   88SOPE   C34 8331   1.373   5.639   2.963
   88SOPE   H4X 8332   1.420   5.538   2.967
   88SOPE   H4Y 8333   1.281   5.635   2.901
   88SOPE   C35 8334   1.334   5.703   3.099
   88SOPE   H5X 8335   1.257   5.784   3.095
   88SOPE   H5Y 8336   1.423   5.756   3.140
   88SOPE   C36 8337   1.280   5.591   3.193
   88SOPE   H6X 8338   1.368   5.524   3.191
   88SOPE   H6Y 8339   1.187   5.542   3.156
   88SOPE   C37 8340   1.235   5.648   3.331
   88SOPE   H7X 8341   1.183   5.564   3.380
   88SOPE   H7Y 8342   1.155   5.721   3.307
   88SOPE   C38 8343   1.350   5.716   3.418
   88SOPE   H8X 8344   1.409   5.793   3.364
   88SOPE   H8Y 8345   1.433   5.644   3.435
   88SOPE   C39 8346   1.314   5.777   3.555
   88SOPE   H9X 8347   1.239   5.858   3.543
   88SOPE   H9Y 8348   1.395   5.817   3.619
   88SOPE  C310 8349   1.256   5.676   3.653
   88SOPE  H10X 8350   1.324   5.589   3.665
   88SOPE  H10Y 8351   1.158   5.639   3.617
   88SOPE  C311 8352   1.233   5.739   3.784
   88SOPE  H11X 8353   1.168   5.827   3.766
   88SOPE  H11Y 8354   1.327   5.760   3.839
   88SOPE  C312 8355   1.164   5.643   3.882
   88SOPE  H12X 8356   1.073   5.596   3.839
   88SOPE  H12Y 8357   1.124   5.703   3.967
   88SOPE  C313 8358   1.251   5.532   3.939
   88SOPE  H13X 8359   1.354   5.563   3.969
   88SOPE  H13Y 8360   1.258   5.449   3.865
   88SOPE  C314 8361   1.188   5.462   4.061
   88SOPE  H14X 8362   1.226   5.358   4.053
   88SOPE  H14Y 8363   1.078   5.466   4.047
   88SOPE  C315 8364   1.237   5.509   4.199
   88SOPE  H15X 8365   1.240   5.620   4.186
   88SOPE  H15Y 8366   1.342   5.472   4.206
   88SOPE  C316 8367   1.159   5.452   4.308
   88SOPE  H16X 8368   1.163   5.342   4.295
   88SOPE  H16Y 8369   1.055   5.491   4.306
   88SOPE  C317 8370   1.206   5.485   4.447
   88SOPE  H17X 8371   1.123   5.448   4.511
   88SOPE  H17Y 8372   1.213   5.595   4.458
   88SOPE  C318 8373   1.340   5.407   4.487
   88SOPE  H18X 8374   1.428   5.469   4.460
   88SOPE  H18Y 8375   1.345   5.313   4.429
   88SOPE  H18Z 8376   1.342   5.390   4.597
   89SAPC     N 8377   5.260   2.772   7.027
   89SAPC   C12 8378   5.145   2.763   6.929
   89SAPC  H12A 8379   5.058   2.797   6.984
   89SAPC  H12B 8380   5.137   2.662   6.892
   89SAPC   C13 8381   5.389   2.760   6.956
   89SAPC  H13A 8382   5.407   2.659   6.921
   89SAPC  H13B 8383   5.381   2.818   6.865
   89SAPC  H13C 8384   5.465   2.813   7.011
   89SAPC   C14 8385   5.250   2.898   7.107
   89SAPC  H14A 8386   5.248   2.980   7.037
   89SAPC  H14B 8387   5.175   2.896   7.184
   89SAPC  H14C 8388   5.340   2.911   7.165
   89SAPC   C15 8389   5.245   2.657   7.127
   89SAPC  H15A 8390   5.251   2.563   7.076
   89SAPC  H15B 8391   5.324   2.653   7.201
   89SAPC  H15C 8392   5.158   2.660   7.191
   89SAPC   C11 8393   5.149   2.863   6.806
   89SAPC  H11A 8394   5.069   2.845   6.731
   89SAPC  H11B 8395   5.244   2.841   6.751
   89SAPC     P 8396   5.037   3.091   6.881
   89SAPC   O13 8397   4.939   3.004   6.944
   89SAPC   O14 8398   5.073   3.220   6.950
   89SAPC   O12 8399   5.161   2.998   6.838
   89SAPC   O11 8400   4.965   3.139   6.751
   89SAPC    C1 8401   5.041   3.200   6.643
   89SAPC    HA 8402   5.099   3.286   6.683
   89SAPC    HB 8403   5.104   3.126   6.590
   89SAPC    C2 8404   4.947   3.252   6.527
   89SAPC    HS 8405   4.861   3.315   6.557
   89SAPC   O21 8406   4.906   3.136   6.454
   89SAPC   C21 8407   4.795   3.150   6.386
   89SAPC   O22 8408   4.715   3.238   6.392
   89SAPC   C22 8409   4.777   3.033   6.291
   89SAPC   H2R 8410   4.847   2.949   6.312
   89SAPC   H2S 8411   4.675   2.996   6.316
   89SAPC    C3 8412   5.033   3.350   6.440
   89SAPC    HX 8413   5.114   3.291   6.392
   89SAPC    HY 8414   5.094   3.417   6.503
   89SAPC   O31 8415   4.950   3.428   6.355
   89SAPC   C31 8416   4.972   3.407   6.220
   89SAPC   O32 8417   5.041   3.323   6.169
   89SAPC   C32 8418   4.901   3.520   6.137
   89SAPC   H2X 8419   4.937   3.619   6.172
   89SAPC   H2Y 8420   4.793   3.519   6.164
   89SAPC   C23 8421   4.792   3.060   6.130
   89SAPC   H3R 8422   4.884   3.116   6.108
   89SAPC   H3S 8423   4.703   3.118   6.098
   89SAPC   C24 8424   4.802   2.933   6.053
   89SAPC   H4R 8425   4.749   2.857   6.114
   89SAPC   H4S 8426   4.909   2.903   6.045
   89SAPC   C25 8427   4.730   2.934   5.922
   89SAPC   H5R 8428   4.621   2.922   5.925
   89SAPC   C26 8429   4.791   2.949   5.804
   89SAPC   H6R 8430   4.722   2.941   5.719
   89SAPC   C27 8431   4.942   2.965   5.770
   89SAPC   H7R 8432   5.017   2.981   5.851
   89SAPC   H7S 8433   4.948   3.063   5.719
   89SAPC   C28 8434   4.986   2.846   5.681
   89SAPC   H8R 8435   5.028   2.761   5.737
   89SAPC   C29 8436   4.977   2.845   5.543
   89SAPC   H9R 8437   5.014   2.753   5.496
   89SAPC  C210 8438   4.941   2.958   5.457
   89SAPC  H10R 8439   5.008   2.972   5.369
   89SAPC  H10S 8440   4.961   3.054   5.511
   89SAPC  C211 8441   4.796   2.969   5.418
   89SAPC  H11R 8442   4.726   3.023   5.483
   89SAPC  C212 8443   4.757   2.921   5.296
   89SAPC  H12R 8444   4.652   2.939   5.266
   89SAPC  C213 8445   4.853   2.873   5.193
   89SAPC  H13R 8446   4.933   2.809   5.236
   89SAPC  H13S 8447   4.911   2.961   5.158
   89SAPC  C214 8448   4.779   2.809   5.077
   89SAPC  H14R 8449   4.745   2.708   5.103
   89SAPC  C215 8450   4.751   2.858   4.955
   89SAPC  H15R 8451   4.688   2.802   4.884
   89SAPC  C216 8452   4.785   2.999   4.906
   89SAPC  H16R 8453   4.893   3.016   4.929
   89SAPC  H16S 8454   4.735   3.087   4.950
   89SAPC  C217 8455   4.770   3.015   4.755
   89SAPC  H17R 8456   4.837   2.955   4.690
   89SAPC  H17S 8457   4.799   3.121   4.738
   89SAPC  C218 8458   4.625   3.011   4.717
   89SAPC  H18R 8459   4.555   3.076   4.775
   89SAPC  H18S 8460   4.579   2.910   4.715
   89SAPC  C219 8461   4.596   3.062   4.568
   89SAPC  H19R 8462   4.643   2.987   4.501
   89SAPC  H19S 8463   4.641   3.161   4.546
   89SAPC  C220 8464   4.452   3.053   4.525
   89SAPC  H20R 8465   4.414   2.949   4.535
   89SAPC  H20S 8466   4.436   3.090   4.421
   89SAPC  H20T 8467   4.386   3.117   4.588
   89SAPC   C33 8468   4.931   3.512   5.984
   89SAPC   H3X 8469   5.040   3.508   5.964
   89SAPC   H3Y 8470   4.900   3.611   5.943
   89SAPC   C34 8471   4.861   3.409   5.894
   89SAPC   H4X 8472   4.881   3.305   5.928
   89SAPC   H4Y 8473   4.899   3.419   5.790
   89SAPC   C35 8474   4.709   3.430   5.890
   89SAPC   H5X 8475   4.684   3.537   5.871
   89SAPC   H5Y 8476   4.674   3.414   5.994
   89SAPC   C36 8477   4.643   3.335   5.795
   89SAPC   H6X 8478   4.676   3.230   5.810
   89SAPC   H6Y 8479   4.668   3.354   5.688
   89SAPC   C37 8480   4.494   3.322   5.824
   89SAPC   H7X 8481   4.462   3.424   5.854
   89SAPC   H7Y 8482   4.490   3.260   5.916
   89SAPC   C38 8483   4.422   3.271   5.695
   89SAPC   H8X 8484   4.453   3.334   5.609
   89SAPC   H8Y 8485   4.313   3.274   5.713
   89SAPC   C39 8486   4.449   3.121   5.678
   89SAPC   H9X 8487   4.427   3.062   5.770
   89SAPC   H9Y 8488   4.557   3.094   5.679
   89SAPC  C310 8489   4.380   3.065   5.548
   89SAPC  H10X 8490   4.271   3.076   5.567
   89SAPC  H10Y 8491   4.408   2.957   5.543
   89SAPC  C311 8492   4.425   3.139   5.420
   89SAPC  H11X 8493   4.535   3.153   5.430
   89SAPC  H11Y 8494   4.384   3.242   5.424
   89SAPC  C312 8495   4.386   3.080   5.289
   89SAPC  H12X 8496   4.276   3.082   5.279
   89SAPC  H12Y 8497   4.418   2.974   5.281
   89SAPC  C313 8498   4.447   3.174   5.183
   89SAPC  H13X 8499   4.557   3.178   5.195
   89SAPC  H13Y 8500   4.413   3.277   5.207
   89SAPC  C314 8501   4.421   3.137   5.039
   89SAPC  H14X 8502   4.478   3.044   5.015
   89SAPC  H14Y 8503   4.460   3.223   4.980
   89SAPC  C315 8504   4.274   3.099   5.009
   89SAPC  H15X 8505   4.206   3.183   5.034
   89SAPC  H15Y 8506   4.233   3.017   5.072
   89SAPC  C316 8507   4.244   3.049   4.872
   89SAPC  H16X 8508   4.299   2.956   4.846
   89SAPC  H16Y 8509   4.286   3.131   4.810
   89SAPC  C317 8510   4.088   3.048   4.840
   89SAPC  H17X 8511   4.038   3.139   4.880
   89SAPC  H17Y 8512   4.042   2.967   4.900
   89SAPC  C318 8513   4.058   3.020   4.692
   89SAPC  H18X 8514   4.109   3.091   4.623
   89SAPC  H18Y 8515   3.949   3.030   4.669
   89SAPC  H18Z 8516   4.102   2.921   4.668
   90SAPC     N 8517   2.943   0.020   7.016
   90SAPC   C12 8518   2.889   6.672   6.992
   90SAPC  H12A 8519   2.781   6.674   6.997
   90SAPC  H12B 8520   2.916   6.610   7.077
   90SAPC   C13 8521   2.924   0.105   6.893
   90SAPC  H13A 8522   2.965   0.203   6.913
   90SAPC  H13B 8523   2.988   0.076   6.811
   90SAPC  H13C 8524   2.822   0.114   6.857
   90SAPC   C14 8525   2.865   0.080   7.127
   90SAPC  H14A 8526   2.759   0.064   7.110
   90SAPC  H14B 8527   2.889   0.038   7.223
   90SAPC  H14C 8528   2.874   0.187   7.127
   90SAPC   C15 8529   3.085   0.016   7.060
   90SAPC  H15A 8530   3.087   6.746   7.145
   90SAPC  H15B 8531   3.161   6.781   6.990
   90SAPC  H15C 8532   3.106   0.116   7.094
   90SAPC   C11 8533   2.926   6.586   6.867
   90SAPC  H11A 8534   2.920   6.651   6.777
   90SAPC  H11B 8535   2.851   6.506   6.860
   90SAPC     P 8536   3.110   6.434   6.996
   90SAPC   O13 8537   3.237   6.494   7.042
   90SAPC   O14 8538   3.002   6.410   7.093
   90SAPC   O12 8539   3.061   6.541   6.888
   90SAPC   O11 8540   3.136   6.306   6.909
   90SAPC    C1 8541   3.194   6.312   6.784
   90SAPC    HA 8542   3.258   6.399   6.760
   90SAPC    HB 8543   3.250   6.217   6.768
   90SAPC    C2 8544   3.079   6.297   6.671
   90SAPC    HS 8545   3.011   6.385   6.673
   90SAPC   O21 8546   3.002   6.174   6.708
   90SAPC   C21 8547   2.878   6.171   6.666
   90SAPC   O22 8548   2.833   6.243   6.576
   90SAPC   C22 8549   2.801   6.052   6.715
   90SAPC   H2R 8550   2.861   5.996   6.790
   90SAPC   H2S 8551   2.709   6.097   6.759
   90SAPC    C3 8552   3.141   6.286   6.526
   90SAPC    HX 8553   3.185   6.385   6.499
   90SAPC    HY 8554   3.062   6.242   6.463
   90SAPC   O31 8555   3.242   6.180   6.550
   90SAPC   C31 8556   3.309   6.145   6.438
   90SAPC   O32 8557   3.296   6.188   6.326
   90SAPC   C32 8558   3.389   6.017   6.472
   90SAPC   H2X 8559   3.369   5.977   6.574
   90SAPC   H2Y 8560   3.494   6.053   6.471
   90SAPC   C23 8561   2.743   5.973   6.601
   90SAPC   H3R 8562   2.688   6.044   6.536
   90SAPC   H3S 8563   2.672   5.895   6.637
   90SAPC   C24 8564   2.845   5.896   6.518
   90SAPC   H4R 8565   2.910   5.845   6.592
   90SAPC   H4S 8566   2.914   5.963   6.462
   90SAPC   C25 8567   2.777   5.808   6.421
   90SAPC   H5R 8568   2.725   5.728   6.476
   90SAPC   C26 8569   2.771   5.812   6.286
   90SAPC   H6R 8570   2.735   5.727   6.227
   90SAPC   C27 8571   2.838   5.916   6.200
   90SAPC   H7R 8572   2.871   6.005   6.257
   90SAPC   H7S 8573   2.765   5.960   6.128
   90SAPC   C28 8574   2.959   5.876   6.122
   90SAPC   H8R 8575   3.022   5.796   6.162
   90SAPC   C29 8576   2.993   5.926   6.001
   90SAPC   H9R 8577   3.086   5.888   5.956
   90SAPC  C210 8578   2.920   6.026   5.915
   90SAPC  H10R 8579   2.860   6.095   5.978
   90SAPC  H10S 8580   2.851   5.967   5.852
   90SAPC  C211 8581   3.014   6.107   5.825
   90SAPC  H11R 8582   3.030   6.205   5.871
   90SAPC  C212 8583   3.072   6.069   5.706
   90SAPC  H12R 8584   3.124   6.145   5.645
   90SAPC  C213 8585   3.084   5.940   5.644
   90SAPC  H13R 8586   3.089   5.963   5.535
   90SAPC  H13S 8587   2.995   5.875   5.660
   90SAPC  C214 8588   3.201   5.855   5.684
   90SAPC  H14R 8589   3.259   5.897   5.767
   90SAPC  C215 8590   3.240   5.745   5.623
   90SAPC  H15R 8591   3.327   5.693   5.666
   90SAPC  C216 8592   3.185   5.676   5.499
   90SAPC  H16R 8593   3.168   5.749   5.417
   90SAPC  H16S 8594   3.084   5.631   5.507
   90SAPC  C217 8595   3.279   5.563   5.445
   90SAPC  H17R 8596   3.313   5.486   5.517
   90SAPC  H17S 8597   3.367   5.599   5.387
   90SAPC  C218 8598   3.203   5.485   5.335
   90SAPC  H18R 8599   3.105   5.458   5.378
   90SAPC  H18S 8600   3.272   5.399   5.323
   90SAPC  C219 8601   3.180   5.560   5.209
   90SAPC  H19R 8602   3.282   5.580   5.168
   90SAPC  H19S 8603   3.134   5.661   5.219
   90SAPC  C220 8604   3.096   5.489   5.103
   90SAPC  H20R 8605   2.990   5.489   5.136
   90SAPC  H20S 8606   3.133   5.386   5.083
   90SAPC  H20T 8607   3.097   5.555   5.014
   90SAPC   C33 8608   3.380   5.886   6.383
   90SAPC   H3X 8609   3.465   5.818   6.408
   90SAPC   H3Y 8610   3.401   5.915   6.279
   90SAPC   C34 8611   3.251   5.822   6.404
   90SAPC   H4X 8612   3.164   5.883   6.370
   90SAPC   H4Y 8613   3.245   5.789   6.510
   90SAPC   C35 8614   3.244   5.683   6.328
   90SAPC   H5X 8615   3.143   5.637   6.337
   90SAPC   H5Y 8616   3.309   5.607   6.375
   90SAPC   C36 8617   3.279   5.694   6.174
   90SAPC   H6X 8618   3.390   5.689   6.171
   90SAPC   H6Y 8619   3.250   5.792   6.132
   90SAPC   C37 8620   3.235   5.575   6.083
   90SAPC   H7X 8621   3.232   5.485   6.149
   90SAPC   H7Y 8622   3.324   5.565   6.017
   90SAPC   C38 8623   3.098   5.585   6.026
   90SAPC   H8X 8624   3.097   5.681   5.969
   90SAPC   H8Y 8625   3.009   5.575   6.091
   90SAPC   C39 8626   3.061   5.473   5.927
   90SAPC   H9X 8627   2.959   5.501   5.893
   90SAPC   H9Y 8628   3.051   5.386   5.996
   90SAPC  C310 8629   3.155   5.441   5.820
   90SAPC  H10X 8630   3.249   5.392   5.852
   90SAPC  H10Y 8631   3.178   5.544   5.786
   90SAPC  C311 8632   3.089   5.366   5.703
   90SAPC  H11X 8633   3.167   5.373   5.624
   90SAPC  H11Y 8634   3.004   5.430   5.670
   90SAPC  C312 8635   3.061   5.216   5.723
   90SAPC  H12X 8636   2.982   5.193   5.798
   90SAPC  H12Y 8637   3.156   5.172   5.760
   90SAPC  C313 8638   3.021   5.140   5.598
   90SAPC  H13X 8639   3.024   5.032   5.625
   90SAPC  H13Y 8640   3.097   5.155   5.518
   90SAPC  C314 8641   2.893   5.175   5.519
   90SAPC  H14X 8642   2.892   5.102   5.435
   90SAPC  H14Y 8643   2.902   5.279   5.480
   90SAPC  C315 8644   2.767   5.170   5.612
   90SAPC  H15X 8645   2.681   5.183   5.542
   90SAPC  H15Y 8646   2.772   5.256   5.683
   90SAPC  C316 8647   2.737   5.035   5.679
   90SAPC  H16X 8648   2.836   5.010   5.723
   90SAPC  H16Y 8649   2.709   4.962   5.600
   90SAPC  C317 8650   2.613   5.028   5.771
   90SAPC  H17X 8651   2.591   4.919   5.779
   90SAPC  H17Y 8652   2.531   5.074   5.711
   90SAPC  C318 8653   2.613   5.079   5.918
   90SAPC  H18X 8654   2.524   5.043   5.973
   90SAPC  H18Y 8655   2.602   5.190   5.921
   90SAPC  H18Z 8656   2.702   5.044   5.975
   91SAPC     N 8657   0.844   5.586   7.017
   91SAPC   C12 8658   0.803   5.697   6.921
   91SAPC  H12A 8659   0.893   5.748   6.889
   91SAPC  H12B 8660   0.746   5.771   6.975
   91SAPC   C13 8661   0.920   5.475   6.948
   91SAPC  H13A 8662   0.923   5.384   7.006
   91SAPC  H13B 8663   0.855   5.432   6.873
   91SAPC  H13C 8664   1.014   5.505   6.903
   91SAPC   C14 8665   0.925   5.658   7.126
   91SAPC  H14A 8666   0.968   5.592   7.199
   91SAPC  H14B 8667   0.999   5.722   7.080
   91SAPC  H14C 8668   0.863   5.721   7.188
   91SAPC   C15 8669   0.721   5.528   7.076
   91SAPC  H15A 8670   0.657   5.497   6.994
   91SAPC  H15B 8671   0.733   5.444   7.143
   91SAPC  H15C 8672   0.661   5.608   7.117
   91SAPC   C11 8673   0.735   5.650   6.789
   91SAPC  H11A 8674   0.803   5.573   6.746
   91SAPC  H11B 8675   0.739   5.719   6.702
   91SAPC     P 8676   0.478   5.705   6.813
   91SAPC   O13 8677   0.354   5.636   6.839
   91SAPC   O14 8678   0.524   5.810   6.906
   91SAPC   O12 8679   0.599   5.600   6.805
   91SAPC   O11 8680   0.477   5.771   6.671
   91SAPC    C1 8681   0.510   5.689   6.553
   91SAPC    HA 8682   0.620   5.696   6.534
   91SAPC    HB 8683   0.490   5.580   6.566
   91SAPC    C2 8684   0.433   5.728   6.422
   91SAPC    HS 8685   0.484   5.685   6.334
   91SAPC   O21 8686   0.424   5.867   6.410
   91SAPC   C21 8687   0.543   5.932   6.384
   91SAPC   O22 8688   0.648   5.882   6.362
   91SAPC   C22 8689   0.518   6.083   6.388
   91SAPC   H2R 8690   0.413   6.104   6.359
   91SAPC   H2S 8691   0.539   6.127   6.488
   91SAPC    C3 8692   0.292   5.676   6.420
   91SAPC    HX 8693   0.226   5.744   6.478
   91SAPC    HY 8694   0.292   5.574   6.463
   91SAPC   O31 8695   0.238   5.672   6.284
   91SAPC   C31 8696   0.119   5.613   6.264
   91SAPC   O32 8697   0.052   5.553   6.344
   91SAPC   C32 8698   0.078   5.630   6.117
   91SAPC   H2X 8699   0.155   5.690   6.063
   91SAPC   H2Y 8700   6.782   5.693   6.118
   91SAPC   C23 8701   0.603   6.159   6.281
   91SAPC   H3R 8702   0.701   6.108   6.274
   91SAPC   H3S 8703   0.616   6.262   6.319
   91SAPC   C24 8704   0.530   6.171   6.147
   91SAPC   H4R 8705   0.577   6.252   6.087
   91SAPC   H4S 8706   0.422   6.188   6.169
   91SAPC   C25 8707   0.547   6.045   6.065
   91SAPC   H5R 8708   0.526   5.951   6.119
   91SAPC   C26 8709   0.582   6.042   5.935
   91SAPC   H6R 8710   0.588   5.941   5.892
   91SAPC   C27 8711   0.596   6.145   5.836
   91SAPC   H7R 8712   0.589   6.237   5.898
   91SAPC   H7S 8713   0.507   6.156   5.770
   91SAPC   C28 8714   0.723   6.135   5.759
   91SAPC   H8R 8715   0.818   6.126   5.813
   91SAPC   C29 8716   0.727   6.122   5.624
   91SAPC   H9R 8717   0.821   6.082   5.582
   91SAPC  C210 8718   0.610   6.114   5.527
   91SAPC  H10R 8719   0.510   6.108   5.574
   91SAPC  H10S 8720   0.620   6.028   5.458
   91SAPC  C211 8721   0.600   6.251   5.462
   91SAPC  H11R 8722   0.582   6.329   5.538
   91SAPC  C212 8723   0.606   6.282   5.333
   91SAPC  H12R 8724   0.607   6.387   5.302
   91SAPC  C213 8725   0.638   6.181   5.224
   91SAPC  H13R 8726   0.721   6.111   5.249
   91SAPC  H13S 8727   0.684   6.236   5.140
   91SAPC  C214 8728   0.506   6.105   5.191
   91SAPC  H14R 8729   0.425   6.106   5.266
   91SAPC  C215 8730   0.476   6.047   5.074
   91SAPC  H15R 8731   0.387   5.982   5.068
   91SAPC  C216 8732   0.575   6.031   4.959
   91SAPC  H16R 8733   0.679   6.054   4.988
   91SAPC  H16S 8734   0.546   6.087   4.868
   91SAPC  C217 8735   0.582   5.885   4.929
   91SAPC  H17R 8736   0.484   5.837   4.906
   91SAPC  H17S 8737   0.626   5.840   5.021
   91SAPC  C218 8738   0.665   5.845   4.805
   91SAPC  H18R 8739   0.761   5.901   4.805
   91SAPC  H18S 8740   0.617   5.878   4.710
   91SAPC  C219 8741   0.688   5.689   4.805
   91SAPC  H19R 8742   0.726   5.663   4.906
   91SAPC  H19S 8743   0.770   5.657   4.737
   91SAPC  C220 8744   0.573   5.602   4.767
   91SAPC  H20R 8745   0.570   5.606   4.656
   91SAPC  H20S 8746   0.474   5.636   4.805
   91SAPC  H20T 8747   0.583   5.499   4.807
   91SAPC   C33 8748   0.029   5.504   6.042
   91SAPC   H3X 8749   6.748   5.446   6.097
   91SAPC   H3Y 8750   0.119   5.440   6.026
   91SAPC   C34 8751   6.765   5.522   5.896
   91SAPC   H4X 8752   0.019   5.605   5.843
   91SAPC   H4Y 8753   6.661   5.558   5.910
   91SAPC   C35 8754   6.767   5.407   5.794
   91SAPC   H5X 8755   6.704   5.340   5.856
   91SAPC   H5Y 8756   0.073   5.371   5.769
   91SAPC   C36 8757   6.704   5.434   5.656
   91SAPC   H6X 8758   6.634   5.519   5.667
   91SAPC   H6Y 8759   6.647   5.341   5.634
   91SAPC   C37 8760   6.794   5.483   5.540
   91SAPC   H7X 8761   0.095   5.433   5.524
   91SAPC   H7Y 8762   0.017   5.585   5.580
   91SAPC   C38 8763   6.722   5.506   5.406
   91SAPC   H8X 8764   6.790   5.575   5.351
   91SAPC   H8Y 8765   6.624   5.557   5.418
   91SAPC   C39 8766   6.703   5.379   5.324
   91SAPC   H9X 8767   6.651   5.298   5.379
   91SAPC   H9Y 8768   0.013   5.349   5.311
   91SAPC  C310 8769   6.640   5.393   5.188
   91SAPC  H10X 8770   6.538   5.437   5.192
   91SAPC  H10Y 8771   6.624   5.287   5.158
   91SAPC  C311 8772   6.735   5.468   5.094
   91SAPC  H11X 8773   0.038   5.421   5.112
   91SAPC  H11Y 8774   6.738   5.570   5.139
   91SAPC  C312 8775   6.690   5.453   4.949
   91SAPC  H12X 8776   6.703   5.553   4.901
   91SAPC  H12Y 8777   6.581   5.434   4.941
   91SAPC  C313 8778   6.779   5.362   4.866
   91SAPC  H13X 8779   6.762   5.258   4.900
   91SAPC  H13Y 8780   0.088   5.391   4.887
   91SAPC  C314 8781   6.757   5.388   4.719
   91SAPC  H14X 8782   0.007   5.483   4.686
   91SAPC  H14Y 8783   6.649   5.389   4.693
   91SAPC  C315 8784   0.024   5.287   4.622
   91SAPC  H15X 8785   0.008   5.314   4.515
   91SAPC  H15Y 8786   6.791   5.181   4.638
   91SAPC  C316 8787   0.174   5.288   4.636
   91SAPC  H16X 8788   0.211   5.284   4.741
   91SAPC  H16Y 8789   0.206   5.382   4.587
   91SAPC  C317 8790   0.238   5.165   4.567
   91SAPC  H17X 8791   0.226   5.079   4.636
   91SAPC  H17Y 8792   0.348   5.182   4.572
   91SAPC  C318 8793   0.190   5.142   4.422
   91SAPC  H18X 8794   0.079   5.132   4.417
   91SAPC  H18Y 8795   0.225   5.052   4.366
   91SAPC  H18Z 8796   0.225   5.233   4.369
   92SAPC     N 8797   6.376   4.401   6.957
   92SAPC   C12 8798   6.249   4.378   6.873
   92SAPC  H12A 8799   6.280   4.317   6.789
   92SAPC  H12B 8800   6.212   4.473   6.837
   92SAPC   C13 8801   6.333   4.450   7.093
   92SAPC  H13A 8802   6.253   4.522   7.097
   92SAPC  H13B 8803   6.298   4.367   7.153
   92SAPC  H13C 8804   6.417   4.500   7.138
   92SAPC   C14 8805   6.459   4.276   6.983
   92SAPC  H14A 8806   6.393   4.191   6.996
   92SAPC  H14B 8807   6.521   4.259   6.897
   92SAPC  H14C 8808   6.520   4.290   7.071
   92SAPC   C15 8809   6.464   4.503   6.893
   92SAPC  H15A 8810   6.556   4.517   6.947
   92SAPC  H15B 8811   6.495   4.475   6.793
   92SAPC  H15C 8812   6.406   4.593   6.883
   92SAPC   C11 8813   6.131   4.311   6.951
   92SAPC  H11A 8814   6.175   4.223   7.004
   92SAPC  H11B 8815   6.054   4.271   6.882
   92SAPC     P 8816   5.973   4.517   6.989
   92SAPC   O13 8817   5.864   4.466   6.903
   92SAPC   O14 8818   5.921   4.611   7.095
   92SAPC   O12 8819   6.069   4.400   7.044
   92SAPC   O11 8820   6.070   4.599   6.896
   92SAPC    C1 8821   6.030   4.725   6.839
   92SAPC    HA 8822   5.932   4.728   6.788
   92SAPC    HB 8823   6.038   4.807   6.913
   92SAPC    C2 8824   6.131   4.769   6.730
   92SAPC    HS 8825   6.110   4.871   6.691
   92SAPC   O21 8826   6.132   4.681   6.613
   92SAPC   C21 8827   6.026   4.702   6.530
   92SAPC   O22 8828   5.933   4.780   6.542
   92SAPC   C22 8829   6.047   4.610   6.409
   92SAPC   H2R 8830   6.143   4.624   6.355
   92SAPC   H2S 8831   6.050   4.511   6.460
   92SAPC    C3 8832   6.278   4.778   6.784
   92SAPC    HX 8833   6.340   4.710   6.723
   92SAPC    HY 8834   6.275   4.748   6.891
   92SAPC   O31 8835   6.326   4.911   6.771
   92SAPC   C31 8836   6.408   4.952   6.869
   92SAPC   O32 8837   6.467   4.874   6.944
   92SAPC   C32 8838   6.412   5.103   6.892
   92SAPC   H2X 8839   6.481   5.129   6.976
   92SAPC   H2Y 8840   6.307   5.137   6.909
   92SAPC   C23 8841   5.935   4.628   6.298
   92SAPC   H3R 8842   5.834   4.639   6.344
   92SAPC   H3S 8843   5.931   4.531   6.244
   92SAPC   C24 8844   5.991   4.741   6.212
   92SAPC   H4R 8845   6.085   4.706   6.164
   92SAPC   H4S 8846   6.030   4.824   6.275
   92SAPC   C25 8847   5.885   4.782   6.116
   92SAPC   H5R 8848   5.796   4.814   6.172
   92SAPC   C26 8849   5.899   4.795   5.982
   92SAPC   H6R 8850   5.804   4.817   5.931
   92SAPC   C27 8851   6.022   4.763   5.897
   92SAPC   H7R 8852   6.115   4.756   5.958
   92SAPC   H7S 8853   6.048   4.836   5.817
   92SAPC   C28 8854   5.991   4.631   5.832
   92SAPC   H8R 8855   5.942   4.556   5.897
   92SAPC   C29 8856   6.014   4.604   5.699
   92SAPC   H9R 8857   5.996   4.500   5.670
   92SAPC  C210 8858   6.083   4.689   5.596
   92SAPC  H10R 8859   6.121   4.617   5.519
   92SAPC  H10S 8860   6.171   4.737   5.645
   92SAPC  C211 8861   5.991   4.792   5.532
   92SAPC  H11R 8862   5.963   4.876   5.598
   92SAPC  C212 8863   5.941   4.781   5.403
   92SAPC  H12R 8864   5.867   4.854   5.367
   92SAPC  C213 8865   5.955   4.667   5.308
   92SAPC  H13R 8866   6.059   4.627   5.308
   92SAPC  H13S 8867   5.951   4.704   5.204
   92SAPC  C214 8868   5.857   4.549   5.337
   92SAPC  H14R 8869   5.876   4.481   5.421
   92SAPC  C215 8870   5.747   4.521   5.260
   92SAPC  H15R 8871   5.666   4.449   5.278
   92SAPC  C216 8872   5.709   4.603   5.139
   92SAPC  H16R 8873   5.739   4.710   5.143
   92SAPC  H16S 8874   5.598   4.598   5.135
   92SAPC  C217 8875   5.755   4.542   5.014
   92SAPC  H17R 8876   5.864   4.525   5.025
   92SAPC  H17S 8877   5.731   4.608   4.928
   92SAPC  C218 8878   5.667   4.416   4.974
   92SAPC  H18R 8879   5.564   4.451   4.954
   92SAPC  H18S 8880   5.655   4.348   5.061
   92SAPC  C219 8881   5.741   4.345   4.864
   92SAPC  H19R 8882   5.836   4.303   4.902
   92SAPC  H19S 8883   5.761   4.413   4.778
   92SAPC  C220 8884   5.646   4.244   4.817
   92SAPC  H20R 8885   5.590   4.192   4.898
   92SAPC  H20S 8886   5.692   4.168   4.751
   92SAPC  H20T 8887   5.569   4.283   4.748
   92SAPC   C33 8888   6.468   5.189   6.763
   92SAPC   H3X 8889   6.459   5.294   6.798
   92SAPC   H3Y 8890   6.405   5.177   6.672
   92SAPC   C34 8891   6.615   5.169   6.733
   92SAPC   H4X 8892   6.656   5.066   6.741
   92SAPC   H4Y 8893   6.678   5.210   6.815
   92SAPC   C35 8894   6.669   5.244   6.607
   92SAPC   H5X 8895   6.772   5.281   6.627
   92SAPC   H5Y 8896   6.606   5.336   6.600
   92SAPC   C36 8897   6.662   5.156   6.494
   92SAPC   H6X 8898   6.558   5.117   6.482
   92SAPC   H6Y 8899   6.731   5.071   6.511
   92SAPC   C37 8900   6.709   5.222   6.360
   92SAPC   H7X 8901   0.010   5.275   6.375
   92SAPC   H7Y 8902   6.631   5.301   6.361
   92SAPC   C38 8903   6.723   5.131   6.243
   92SAPC   H8X 8904   6.726   5.204   6.159
   92SAPC   H8Y 8905   6.632   5.072   6.222
   92SAPC   C39 8906   0.055   5.050   6.240
   92SAPC   H9X 8907   0.046   4.976   6.323
   92SAPC   H9Y 8908   0.144   5.101   6.281
   92SAPC  C310 8909   0.081   4.965   6.113
   92SAPC  H10X 8910   0.007   4.882   6.108
   92SAPC  H10Y 8911   0.175   4.910   6.136
   92SAPC  C311 8912   0.077   5.045   5.980
   92SAPC  H11X 8913   0.151   5.128   5.981
   92SAPC  H11Y 8914   6.784   5.108   5.960
   92SAPC  C312 8915   0.108   4.968   5.849
   92SAPC  H12X 8916   0.030   4.890   5.858
   92SAPC  H12Y 8917   0.208   4.921   5.862
   92SAPC  C313 8918   0.089   5.036   5.714
   92SAPC  H13X 8919   0.110   5.145   5.728
   92SAPC  H13Y 8920   6.777   5.031   5.689
   92SAPC  C314 8921   0.181   4.988   5.596
   92SAPC  H14X 8922   0.175   4.877   5.591
   92SAPC  H14Y 8923   0.285   5.018   5.623
   92SAPC  C315 8924   0.149   5.051   5.466
   92SAPC  H15X 8925   0.156   5.161   5.470
   92SAPC  H15Y 8926   0.041   5.032   5.448
   92SAPC  C316 8927   0.231   4.989   5.350
   92SAPC  H16X 8928   0.228   4.882   5.377
   92SAPC  H16Y 8929   0.334   5.027   5.371
   92SAPC  C317 8930   0.161   5.029   5.221
   92SAPC  H17X 8931   0.151   5.140   5.223
   92SAPC  H17Y 8932   0.061   4.979   5.225
   92SAPC  C318 8933   0.232   4.988   5.101
   92SAPC  H18X 8934   0.257   4.880   5.101
   92SAPC  H18Y 8935   0.323   5.052   5.101
   92SAPC  H18Z 8936   0.193   5.011   4.999
   93SAPC     N 8937   0.972   6.586   6.803
   93SAPC   C12 8938   0.977   6.661   6.670
   93SAPC  H12A 8939   1.081   6.689   6.665
   93SAPC  H12B 8940   0.923   6.753   6.685
   93SAPC   C13 8941   0.988   6.684   6.907
   93SAPC  H13A 8942   0.933   6.774   6.887
   93SAPC  H13B 8943   0.968   6.653   7.008
   93SAPC  H13C 8944   1.092   6.713   6.902
   93SAPC   C14 8945   0.849   6.508   6.810
   93SAPC  H14A 8946   0.847   6.469   6.910
   93SAPC  H14B 8947   0.766   6.577   6.805
   93SAPC  H14C 8948   0.847   6.430   6.735
   93SAPC   C15 8949   1.083   6.490   6.819
   93SAPC  H15A 8950   1.180   6.536   6.829
   93SAPC  H15B 8951   1.063   6.418   6.897
   93SAPC  H15C 8952   1.087   6.434   6.727
   93SAPC   C11 8953   0.924   6.594   6.537
   93SAPC  H11A 8954   0.944   6.659   6.449
   93SAPC  H11B 8955   0.815   6.588   6.555
   93SAPC     P 8956   1.117   6.439   6.438
   93SAPC   O13 8957   1.206   6.562   6.452
   93SAPC   O14 8958   1.165   6.307   6.483
   93SAPC   O12 8959   0.984   6.467   6.525
   93SAPC   O11 8960   1.068   6.423   6.292
   93SAPC    C1 8961   0.978   6.322   6.249
   93SAPC    HA 8962   0.970   6.229   6.309
   93SAPC    HB 8963   0.872   6.353   6.239
   93SAPC    C2 8964   1.029   6.272   6.113
   93SAPC    HS 8965   1.138   6.249   6.124
   93SAPC   O21 8966   0.989   6.369   6.012
   93SAPC   C21 8967   1.089   6.406   5.930
   93SAPC   O22 8968   1.206   6.366   5.950
   93SAPC   C22 8969   1.041   6.496   5.829
   93SAPC   H2R 8970   0.953   6.549   5.871
   93SAPC   H2S 8971   1.116   6.577   5.813
   93SAPC    C3 8972   0.970   6.128   6.083
   93SAPC    HX 8973   0.861   6.150   6.080
   93SAPC    HY 8974   0.981   6.055   6.166
   93SAPC   O31 8975   1.013   6.077   5.955
   93SAPC   C31 8976   1.130   6.024   5.959
   93SAPC   O32 8977   1.200   6.002   6.055
   93SAPC   C32 8978   1.182   5.991   5.821
   93SAPC   H2X 8979   1.143   5.891   5.796
   93SAPC   H2Y 8980   1.291   5.995   5.841
   93SAPC   C23 8981   1.020   6.419   5.697
   93SAPC   H3R 8982   0.955   6.334   5.727
   93SAPC   H3S 8983   1.120   6.377   5.672
   93SAPC   C24 8984   0.973   6.509   5.583
   93SAPC   H4R 8985   1.054   6.585   5.571
   93SAPC   H4S 8986   0.887   6.576   5.602
   93SAPC   C25 8987   0.955   6.409   5.478
   93SAPC   H5R 8988   0.894   6.321   5.499
   93SAPC   C26 8989   1.010   6.417   5.361
   93SAPC   H6R 8990   1.002   6.323   5.305
   93SAPC   C27 8991   1.101   6.518   5.299
   93SAPC   H7R 8992   1.200   6.469   5.288
   93SAPC   H7S 8993   1.119   6.602   5.370
   93SAPC   C28 8994   1.040   6.580   5.176
   93SAPC   H8R 8995   0.952   6.530   5.131
   93SAPC   C29 8996   1.074   6.689   5.103
   93SAPC   H9R 8997   1.004   6.713   5.022
   93SAPC  C210 8998   1.193   6.771   5.146
   93SAPC  H10R 8999   1.246   0.009   5.055
   93SAPC  H10S 9000   1.265   6.712   5.207
   93SAPC  C211 9001   1.146   0.094   5.220
   93SAPC  H11R 9002   1.153   0.081   5.329
   93SAPC  C212 9003   1.108   0.213   5.172
   93SAPC  H12R 9004   1.091   0.294   5.244
   93SAPC  C213 9005   1.074   0.262   5.034
   93SAPC  H13R 9006   0.975   0.223   5.001
   93SAPC  H13S 9007   1.150   0.225   4.961
   93SAPC  C214 9008   1.056   0.417   5.032
   93SAPC  H14R 9009   1.061   0.473   5.126
   93SAPC  C215 9010   1.021   0.489   4.930
   93SAPC  H15R 9011   1.019   0.599   4.935
   93SAPC  C216 9012   0.975   0.438   4.798
   93SAPC  H16R 9013   1.030   0.349   4.760
   93SAPC  H16S 9014   0.975   0.515   4.717
   93SAPC  C217 9015   0.827   0.388   4.803
   93SAPC  H17R 9016   0.766   0.481   4.803
   93SAPC  H17S 9017   0.800   0.319   4.885
   93SAPC  C218 9018   0.772   0.315   4.672
   93SAPC  H18R 9019   0.846   0.234   4.657
   93SAPC  H18S 9020   0.773   0.389   4.589
   93SAPC  C219 9021   0.632   0.267   4.699
   93SAPC  H19R 9022   0.580   0.365   4.696
   93SAPC  H19S 9023   0.619   0.214   4.796
   93SAPC  C220 9024   0.581   0.183   4.579
   93SAPC  H20R 9025   0.617   0.078   4.580
   93SAPC  H20S 9026   0.613   0.229   4.483
   93SAPC  H20T 9027   0.470   0.173   4.583
   93SAPC   C33 9028   1.144   6.083   5.698
   93SAPC   H3X 9029   1.211   6.170   5.684
   93SAPC   H3Y 9030   1.046   6.131   5.715
   93SAPC   C34 9031   1.145   6.000   5.570
   93SAPC   H4X 9032   1.092   5.902   5.578
   93SAPC   H4Y 9033   1.247   5.977   5.533
   93SAPC   C35 9034   1.094   6.087   5.455
   93SAPC   H5X 9035   1.170   6.167   5.462
   93SAPC   H5Y 9036   1.003   6.141   5.489
   93SAPC   C36 9037   1.085   6.018   5.322
   93SAPC   H6X 9038   0.996   5.955   5.308
   93SAPC   H6Y 9039   1.176   5.955   5.313
   93SAPC   C37 9040   1.089   6.119   5.206
   93SAPC   H7X 9041   1.165   6.197   5.227
   93SAPC   H7Y 9042   0.990   6.169   5.206
   93SAPC   C38 9043   1.119   6.059   5.073
   93SAPC   H8X 9044   1.036   5.988   5.056
   93SAPC   H8Y 9045   1.215   6.003   5.073
   93SAPC   C39 9046   1.128   6.168   4.966
   93SAPC   H9X 9047   1.216   6.232   4.985
   93SAPC   H9Y 9048   1.048   6.241   4.991
   93SAPC  C310 9049   1.115   6.106   4.825
   93SAPC  H10X 9050   1.046   6.019   4.816
   93SAPC  H10Y 9051   1.215   6.065   4.801
   93SAPC  C311 9052   1.071   6.216   4.728
   93SAPC  H11X 9053   1.165   6.270   4.704
   93SAPC  H11Y 9054   1.007   6.297   4.768
   93SAPC  C312 9055   1.029   6.151   4.587
   93SAPC  H12X 9056   1.018   6.227   4.506
   93SAPC  H12Y 9057   0.930   6.107   4.611
   93SAPC  C313 9058   1.110   6.044   4.529
   93SAPC  H13X 9059   1.097   5.956   4.596
   93SAPC  H13Y 9060   1.219   6.060   4.521
   93SAPC  C314 9061   1.055   5.996   4.391
   93SAPC  H14X 9062   0.944   5.996   4.388
   93SAPC  H14Y 9063   1.097   5.893   4.382
   93SAPC  C315 9064   1.099   6.094   4.286
   93SAPC  H15X 9065   1.209   6.108   4.290
   93SAPC  H15Y 9066   1.052   6.193   4.305
   93SAPC  C316 9067   1.056   6.047   4.149
   93SAPC  H16X 9068   0.945   6.042   4.150
   93SAPC  H16Y 9069   1.104   5.947   4.136
   93SAPC  C317 9070   1.110   6.132   4.033
   93SAPC  H17X 9071   1.217   6.156   4.050
   93SAPC  H17Y 9072   1.051   6.227   4.032
   93SAPC  C318 9073   1.074   6.072   3.895
   93SAPC  H18X 9074   0.967   6.042   3.898
   93SAPC  H18Y 9075   1.138   5.984   3.876
   93SAPC  H18Z 9076   1.081   6.148   3.813
   94SAPC     N 9077   6.560   4.792   7.447
   94SAPC   C12 9078   6.558   4.711   7.322
   94SAPC  H12A 9079   6.458   4.722   7.283
   94SAPC  H12B 9080   6.569   4.607   7.350
   94SAPC   C13 9081   6.688   4.774   7.515
   94SAPC  H13A 9082   6.762   4.772   7.437
   94SAPC  H13B 9083   6.709   4.855   7.584
   94SAPC  H13C 9084   6.688   4.687   7.580
   94SAPC   C14 9085   6.535   4.937   7.422
   94SAPC  H14A 9086   6.432   4.967   7.411
   94SAPC  H14B 9087   6.578   4.988   7.507
   94SAPC  H14C 9088   6.594   4.960   7.335
   94SAPC   C15 9089   6.442   4.740   7.522
   94SAPC  H15A 9090   6.443   4.781   7.622
   94SAPC  H15B 9091   6.344   4.750   7.479
   94SAPC  H15C 9092   6.459   4.636   7.545
   94SAPC   C11 9093   6.652   4.736   7.197
   94SAPC  H11A 9094   6.619   4.822   7.134
   94SAPC  H11B 9095   6.641   4.650   7.128
   94SAPC     P 9096   0.101   4.668   7.177
   94SAPC   O13 9097   0.233   4.728   7.208
   94SAPC   O14 9098   0.070   4.529   7.211
   94SAPC   O12 9099   6.788   4.760   7.242
   94SAPC   O11 9100   0.064   4.693   7.024
   94SAPC    C1 9101   0.072   4.825   6.963
   94SAPC    HA 9102   6.773   4.854   6.914
   94SAPC    HB 9103   0.091   4.910   7.031
   94SAPC    C2 9104   0.191   4.837   6.858
   94SAPC    HS 9105   0.281   4.827   6.923
   94SAPC   O21 9106   0.174   4.959   6.784
   94SAPC   C21 9107   0.284   5.006   6.735
   94SAPC   O22 9108   0.396   4.967   6.769
   94SAPC   C22 9109   0.247   5.107   6.621
   94SAPC   H2R 9110   0.148   5.079   6.581
   94SAPC   H2S 9111   0.224   5.198   6.681
   94SAPC    C3 9112   0.203   4.721   6.755
   94SAPC    HX 9113   0.232   4.624   6.802
   94SAPC    HY 9114   0.293   4.734   6.692
   94SAPC   O31 9115   0.076   4.708   6.686
   94SAPC   C31 9116   0.072   4.759   6.567
   94SAPC   O32 9117   0.162   4.824   6.509
   94SAPC   C32 9118   6.743   4.719   6.496
   94SAPC   H2X 9119   6.739   4.608   6.492
   94SAPC   H2Y 9120   6.776   4.733   6.391
   94SAPC   C23 9121   0.361   5.133   6.516
   94SAPC   H3R 9122   0.324   5.162   6.416
   94SAPC   H3S 9123   0.396   5.030   6.493
   94SAPC   C24 9124   0.473   5.229   6.557
   94SAPC   H4R 9125   0.510   5.206   6.659
   94SAPC   H4S 9126   0.416   5.324   6.563
   94SAPC   C25 9127   0.584   5.233   6.459
   94SAPC   H5R 9128   0.679   5.186   6.485
   94SAPC   C26 9129   0.570   5.293   6.336
   94SAPC   H6R 9130   0.665   5.289   6.280
   94SAPC   C27 9131   0.455   5.371   6.271
   94SAPC   H7R 9132   0.491   5.466   6.226
   94SAPC   H7S 9133   0.390   5.415   6.350
   94SAPC   C28 9134   0.371   5.307   6.166
   94SAPC   H8R 9135   0.293   5.232   6.186
   94SAPC   C29 9136   0.390   5.334   6.034
   94SAPC   H9R 9137   0.336   5.277   5.956
   94SAPC  C210 9138   0.486   5.444   5.977
   94SAPC  H10R 9139   0.584   5.444   6.028
   94SAPC  H10S 9140   0.442   5.545   5.995
   94SAPC  C211 9141   0.515   5.414   5.831
   94SAPC  H11R 9142   0.598   5.342   5.825
   94SAPC  C212 9143   0.458   5.478   5.732
   94SAPC  H12R 9144   0.503   5.458   5.634
   94SAPC  C213 9145   0.339   5.576   5.741
   94SAPC  H13R 9146   0.284   5.569   5.837
   94SAPC  H13S 9147   0.264   5.553   5.662
   94SAPC  C214 9148   0.387   5.715   5.721
   94SAPC  H14R 9149   0.439   5.751   5.811
   94SAPC  C215 9150   0.396   5.781   5.605
   94SAPC  H15R 9151   0.440   5.882   5.606
   94SAPC  C216 9152   0.349   5.738   5.468
   94SAPC  H16R 9153   0.280   5.818   5.433
   94SAPC  H16S 9154   0.305   5.636   5.465
   94SAPC  C217 9155   0.478   5.742   5.384
   94SAPC  H17R 9156   0.555   5.669   5.415
   94SAPC  H17S 9157   0.522   5.844   5.382
   94SAPC  C218 9158   0.449   5.704   5.237
   94SAPC  H18R 9159   0.545   5.706   5.180
   94SAPC  H18S 9160   0.386   5.787   5.197
   94SAPC  C219 9161   0.369   5.578   5.217
   94SAPC  H19R 9162   0.260   5.595   5.219
   94SAPC  H19S 9163   0.383   5.507   5.302
   94SAPC  C220 9164   0.409   5.486   5.099
   94SAPC  H20R 9165   0.358   5.388   5.110
   94SAPC  H20S 9166   0.517   5.469   5.080
   94SAPC  H20T 9167   0.379   5.524   4.999
   94SAPC   C33 9168   6.615   4.800   6.533
   94SAPC   H3X 9169   6.616   4.897   6.479
   94SAPC   H3Y 9170   6.617   4.844   6.635
   94SAPC   C34 9171   6.480   4.741   6.492
   94SAPC   H4X 9172   6.395   4.805   6.526
   94SAPC   H4Y 9173   6.472   4.643   6.544
   94SAPC   C35 9174   6.454   4.730   6.338
   94SAPC   H5X 9175   6.363   4.670   6.317
   94SAPC   H5Y 9176   6.533   4.663   6.299
   94SAPC   C36 9177   6.462   4.854   6.255
   94SAPC   H6X 9178   6.566   4.893   6.266
   94SAPC   H6Y 9179   6.383   4.927   6.282
   94SAPC   C37 9180   6.432   4.809   6.113
   94SAPC   H7X 9181   6.326   4.786   6.091
   94SAPC   H7Y 9182   6.478   4.708   6.102
   94SAPC   C38 9183   6.480   4.907   6.010
   94SAPC   H8X 9184   6.583   4.931   6.042
   94SAPC   H8Y 9185   6.411   4.994   6.000
   94SAPC   C39 9186   6.489   4.838   5.876
   94SAPC   H9X 9187   6.401   4.774   5.854
   94SAPC   H9Y 9188   6.576   4.770   5.869
   94SAPC  C310 9189   6.489   4.940   5.752
   94SAPC  H10X 9190   6.570   5.015   5.766
   94SAPC  H10Y 9191   6.387   4.986   5.746
   94SAPC  C311 9192   6.510   4.864   5.621
   94SAPC  H11X 9193   6.466   4.763   5.631
   94SAPC  H11Y 9194   6.620   4.849   5.611
   94SAPC  C312 9195   6.460   4.946   5.498
   94SAPC  H12X 9196   6.518   5.041   5.502
   94SAPC  H12Y 9197   6.352   4.966   5.515
   94SAPC  C313 9198   6.481   4.884   5.365
   94SAPC  H13X 9199   6.435   4.783   5.372
   94SAPC  H13Y 9200   6.588   4.872   5.340
   94SAPC  C314 9201   6.418   4.962   5.252
   94SAPC  H14X 9202   6.464   5.063   5.261
   94SAPC  H14Y 9203   6.308   4.970   5.266
   94SAPC  C315 9204   6.437   4.911   5.104
   94SAPC  H15X 9205   6.380   4.817   5.088
   94SAPC  H15Y 9206   6.545   4.890   5.088
   94SAPC  C316 9207   6.383   5.008   5.000
   94SAPC  H16X 9208   6.440   5.103   5.006
   94SAPC  H16Y 9209   6.278   5.035   5.025
   94SAPC  C317 9210   6.394   4.940   4.861
   94SAPC  H17X 9211   6.342   4.980   4.771
   94SAPC  H17Y 9212   6.343   4.842   4.874
   94SAPC  C318 9213   6.536   4.911   4.816
   94SAPC  H18X 9214   6.594   5.000   4.782
   94SAPC  H18Y 9215   6.533   4.873   4.711
   94SAPC  H18Z 9216   6.594   4.833   4.870
   95SAPC     N 9217   4.370   5.977   2.115
   95SAPC   C12 9218   4.247   5.961   2.208
   95SAPC  H12A 9219   4.173   6.035   2.181
   95SAPC  H12B 9220   4.269   5.995   2.308
   95SAPC   C13 9221   4.412   6.125   2.108
   95SAPC  H13A 9222   4.423   6.172   2.204
   95SAPC  H13B 9223   4.497   6.133   2.041
   95SAPC  H13C 9224   4.333   6.177   2.055
   95SAPC   C14 9225   4.478   5.911   2.190
   95SAPC  H14A 9226   4.516   5.961   2.278
   95SAPC  H14B 9227   4.439   5.813   2.217
   95SAPC  H14C 9228   4.567   5.899   2.130
   95SAPC   C15 9229   4.362   5.902   1.990
   95SAPC  H15A 9230   4.395   5.800   2.000
   95SAPC  H15B 9231   4.258   5.880   1.968
   95SAPC  H15C 9232   4.413   5.946   1.906
   95SAPC   C11 9233   4.179   5.822   2.224
   95SAPC  H11A 9234   4.094   5.824   2.295
   95SAPC  H11B 9235   4.260   5.757   2.264
   95SAPC     P 9236   4.089   5.614   2.090
   95SAPC   O13 9237   3.963   5.616   2.010
   95SAPC   O14 9238   4.203   5.538   2.034
   95SAPC   O12 9239   4.137   5.766   2.100
   95SAPC   O11 9240   4.046   5.568   2.235
   95SAPC    C1 9241   4.090   5.433   2.284
   95SAPC    HA 9242   4.194   5.405   2.257
   95SAPC    HB 9243   4.082   5.425   2.394
   95SAPC    C2 9244   3.998   5.329   2.221
   95SAPC    HS 9245   4.017   5.339   2.112
   95SAPC   O21 9246   3.862   5.369   2.260
   95SAPC   C21 9247   3.780   5.297   2.180
   95SAPC   O22 9248   3.814   5.240   2.079
   95SAPC   C22 9249   3.638   5.294   2.248
   95SAPC   H2R 9250   3.641   5.323   2.355
   95SAPC   H2S 9251   3.571   5.358   2.187
   95SAPC    C3 9252   4.042   5.189   2.275
   95SAPC    HX 9253   4.149   5.181   2.245
   95SAPC    HY 9254   3.996   5.101   2.225
   95SAPC   O31 9255   4.049   5.185   2.417
   95SAPC   C31 9256   3.946   5.128   2.479
   95SAPC   O32 9257   3.859   5.067   2.414
   95SAPC   C32 9258   3.941   5.145   2.630
   95SAPC   H2X 9259   4.019   5.219   2.659
   95SAPC   H2Y 9260   3.956   5.044   2.672
   95SAPC   C23 9261   3.574   5.154   2.242
   95SAPC   H3R 9262   3.654   5.083   2.271
   95SAPC   H3S 9263   3.535   5.148   2.138
   95SAPC   C24 9264   3.455   5.134   2.335
   95SAPC   H4R 9265   3.422   5.032   2.304
   95SAPC   H4S 9266   3.381   5.206   2.294
   95SAPC   C25 9267   3.494   5.154   2.480
   95SAPC   H5R 9268   3.564   5.076   2.513
   95SAPC   C26 9269   3.447   5.249   2.564
   95SAPC   H6R 9270   3.491   5.248   2.665
   95SAPC   C27 9271   3.346   5.356   2.537
   95SAPC   H7R 9272   3.255   5.358   2.601
   95SAPC   H7S 9273   3.306   5.359   2.434
   95SAPC   C28 9274   3.429   5.487   2.560
   95SAPC   H8R 9275   3.495   5.511   2.475
   95SAPC   C29 9276   3.418   5.580   2.652
   95SAPC   H9R 9277   3.478   5.671   2.637
   95SAPC  C210 9278   3.328   5.586   2.773
   95SAPC  H10R 9279   3.225   5.560   2.738
   95SAPC  H10S 9280   3.332   5.690   2.810
   95SAPC  C211 9281   3.368   5.484   2.871
   95SAPC  H11R 9282   3.436   5.405   2.836
   95SAPC  C212 9283   3.312   5.476   2.996
   95SAPC  H12R 9284   3.348   5.395   3.061
   95SAPC  C213 9285   3.208   5.560   3.061
   95SAPC  H13R 9286   3.183   5.644   2.993
   95SAPC  H13S 9287   3.271   5.600   3.144
   95SAPC  C214 9288   3.079   5.503   3.125
   95SAPC  H14R 9289   3.089   5.409   3.181
   95SAPC  C215 9290   2.958   5.559   3.124
   95SAPC  H15R 9291   2.876   5.510   3.179
   95SAPC  C216 9292   2.921   5.694   3.067
   95SAPC  H16R 9293   2.862   5.671   2.976
   95SAPC  H16S 9294   3.011   5.754   3.043
   95SAPC  C217 9295   2.849   5.784   3.172
   95SAPC  H17R 9296   2.760   5.733   3.214
   95SAPC  H17S 9297   2.825   5.881   3.125
   95SAPC  C218 9298   2.937   5.815   3.294
   95SAPC  H18R 9299   3.035   5.849   3.256
   95SAPC  H18S 9300   2.951   5.718   3.346
   95SAPC  C219 9301   2.884   5.930   3.389
   95SAPC  H19R 9302   2.957   5.962   3.466
   95SAPC  H19S 9303   2.799   5.881   3.441
   95SAPC  C220 9304   2.815   6.058   3.322
   95SAPC  H20R 9305   2.728   6.025   3.261
   95SAPC  H20S 9306   2.868   6.110   3.238
   95SAPC  H20T 9307   2.790   6.136   3.397
   95SAPC   C33 9308   3.806   5.196   2.703
   95SAPC   H3X 9309   3.727   5.122   2.678
   95SAPC   H3Y 9310   3.765   5.294   2.672
   95SAPC   C34 9311   3.805   5.187   2.860
   95SAPC   H4X 9312   3.881   5.258   2.897
   95SAPC   H4Y 9313   3.842   5.083   2.874
   95SAPC   C35 9314   3.672   5.209   2.927
   95SAPC   H5X 9315   3.598   5.144   2.876
   95SAPC   H5Y 9316   3.625   5.302   2.891
   95SAPC   C36 9317   3.670   5.203   3.080
   95SAPC   H6X 9318   3.566   5.187   3.115
   95SAPC   H6Y 9319   3.700   5.303   3.116
   95SAPC   C37 9320   3.766   5.086   3.141
   95SAPC   H7X 9321   3.867   5.127   3.122
   95SAPC   H7Y 9322   3.754   4.986   3.093
   95SAPC   C38 9323   3.755   5.073   3.293
   95SAPC   H8X 9324   3.744   5.174   3.339
   95SAPC   H8Y 9325   3.837   5.024   3.350
   95SAPC   C39 9326   3.631   4.996   3.332
   95SAPC   H9X 9327   3.624   4.904   3.270
   95SAPC   H9Y 9328   3.546   5.059   3.301
   95SAPC  C310 9329   3.624   4.960   3.480
   95SAPC  H10X 9330   3.710   4.893   3.504
   95SAPC  H10Y 9331   3.532   4.902   3.503
   95SAPC  C311 9332   3.639   5.069   3.579
   95SAPC  H11X 9333   3.565   5.151   3.561
   95SAPC  H11Y 9334   3.742   5.109   3.563
   95SAPC  C312 9335   3.622   5.023   3.721
   95SAPC  H12X 9336   3.715   4.976   3.757
   95SAPC  H12Y 9337   3.550   4.942   3.746
   95SAPC  C313 9338   3.603   5.138   3.824
   95SAPC  H13X 9339   3.493   5.152   3.821
   95SAPC  H13Y 9340   3.658   5.227   3.787
   95SAPC  C314 9341   3.650   5.108   3.972
   95SAPC  H14X 9342   3.761   5.102   3.974
   95SAPC  H14Y 9343   3.615   5.008   4.007
   95SAPC  C315 9344   3.615   5.228   4.067
   95SAPC  H15X 9345   3.645   5.312   4.000
   95SAPC  H15Y 9346   3.683   5.214   4.153
   95SAPC  C316 9347   3.472   5.227   4.125
   95SAPC  H16X 9348   3.397   5.219   4.044
   95SAPC  H16Y 9349   3.458   5.321   4.182
   95SAPC  C317 9350   3.450   5.124   4.243
   95SAPC  H17X 9351   3.519   5.154   4.326
   95SAPC  H17Y 9352   3.468   5.019   4.211
   95SAPC  C318 9353   3.304   5.124   4.308
   95SAPC  H18X 9354   3.288   5.213   4.373
   95SAPC  H18Y 9355   3.298   5.034   4.372
   95SAPC  H18Z 9356   3.234   5.111   4.223
   96SAPC     N 9357   4.074   2.181   2.192
   96SAPC   C12 9358   4.028   2.101   2.315
   96SAPC  H12A 9359   4.095   2.106   2.400
   96SAPC  H12B 9360   4.021   1.997   2.285
   96SAPC   C13 9361   4.098   2.321   2.232
   96SAPC  H13A 9362   4.168   2.336   2.313
   96SAPC  H13B 9363   4.142   2.371   2.147
   96SAPC  H13C 9364   4.009   2.375   2.260
   96SAPC   C14 9365   4.205   2.134   2.131
   96SAPC  H14A 9366   4.251   2.183   2.046
   96SAPC  H14B 9367   4.275   2.131   2.213
   96SAPC  H14C 9368   4.185   2.035   2.091
   96SAPC   C15 9369   3.972   2.174   2.084
   96SAPC  H15A 9370   3.947   2.070   2.064
   96SAPC  H15B 9371   3.876   2.218   2.106
   96SAPC  H15C 9372   4.002   2.215   1.989
   96SAPC   C11 9373   3.887   2.136   2.370
   96SAPC  H11A 9374   3.879   2.246   2.378
   96SAPC  H11B 9375   3.863   2.104   2.474
   96SAPC     P 9376   3.740   1.935   2.289
   96SAPC   O13 9377   3.639   1.915   2.180
   96SAPC   O14 9378   3.860   1.854   2.285
   96SAPC   O12 9379   3.777   2.087   2.292
   96SAPC   O11 9380   3.672   1.909   2.431
   96SAPC    C1 9381   3.559   1.983   2.471
   96SAPC    HA 9382   3.592   2.066   2.537
   96SAPC    HB 9383   3.505   2.042   2.394
   96SAPC    C2 9384   3.460   1.901   2.561
   96SAPC    HS 9385   3.387   1.975   2.601
   96SAPC   O21 9386   3.527   1.822   2.663
   96SAPC   C21 9387   3.576   1.891   2.773
   96SAPC   O22 9388   3.579   2.013   2.783
   96SAPC   C22 9389   3.646   1.791   2.869
   96SAPC   H2R 9390   3.588   1.696   2.860
   96SAPC   H2S 9391   3.744   1.767   2.822
   96SAPC    C3 9392   3.384   1.787   2.482
   96SAPC    HX 9393   3.455   1.703   2.464
   96SAPC    HY 9394   3.354   1.824   2.382
   96SAPC   O31 9395   3.271   1.749   2.559
   96SAPC   C31 9396   3.289   1.646   2.636
   96SAPC   O32 9397   3.390   1.579   2.641
   96SAPC   C32 9398   3.170   1.614   2.720
   96SAPC   H2X 9399   3.095   1.565   2.654
   96SAPC   H2Y 9400   3.121   1.704   2.762
   96SAPC   C23 9401   3.665   1.843   3.012
   96SAPC   H3R 9402   3.562   1.861   3.051
   96SAPC   H3S 9403   3.720   1.939   3.008
   96SAPC   C24 9404   3.751   1.758   3.108
   96SAPC   H4R 9405   3.738   1.816   3.202
   96SAPC   H4S 9406   3.857   1.781   3.081
   96SAPC   C25 9407   3.711   1.613   3.120
   96SAPC   H5R 9408   3.737   1.551   3.033
   96SAPC   C26 9409   3.681   1.535   3.224
   96SAPC   H6R 9410   3.662   1.428   3.208
   96SAPC   C27 9411   3.656   1.583   3.367
   96SAPC   H7R 9412   3.571   1.522   3.405
   96SAPC   H7S 9413   3.627   1.690   3.360
   96SAPC   C28 9414   3.785   1.572   3.454
   96SAPC   H8R 9415   3.877   1.557   3.396
   96SAPC   C29 9416   3.781   1.594   3.582
   96SAPC   H9R 9417   3.877   1.595   3.636
   96SAPC  C210 9418   3.651   1.631   3.654
   96SAPC  H10R 9419   3.562   1.635   3.587
   96SAPC  H10S 9420   3.652   1.731   3.703
   96SAPC  C211 9421   3.630   1.531   3.765
   96SAPC  H11R 9422   3.666   1.431   3.737
   96SAPC  C212 9423   3.585   1.549   3.891
   96SAPC  H12R 9424   3.579   1.465   3.961
   96SAPC  C213 9425   3.528   1.678   3.953
   96SAPC  H13R 9426   3.545   1.769   3.893
   96SAPC  H13S 9427   3.598   1.693   4.038
   96SAPC  C214 9428   3.387   1.663   3.996
   96SAPC  H14R 9429   3.317   1.717   3.931
   96SAPC  C215 9430   3.342   1.599   4.105
   96SAPC  H15R 9431   3.236   1.609   4.135
   96SAPC  C216 9432   3.422   1.515   4.197
   96SAPC  H16R 9433   3.430   1.571   4.293
   96SAPC  H16S 9434   3.521   1.501   4.149
   96SAPC  C217 9435   3.349   1.381   4.230
   96SAPC  H17R 9436   3.355   1.322   4.136
   96SAPC  H17S 9437   3.240   1.392   4.249
   96SAPC  C218 9438   3.423   1.306   4.345
   96SAPC  H18R 9439   3.402   1.344   4.448
   96SAPC  H18S 9440   3.531   1.324   4.331
   96SAPC  C219 9441   3.388   1.160   4.348
   96SAPC  H19R 9442   3.454   1.110   4.423
   96SAPC  H19S 9443   3.419   1.128   4.247
   96SAPC  C220 9444   3.242   1.127   4.386
   96SAPC  H20R 9445   3.182   1.145   4.295
   96SAPC  H20S 9446   3.205   1.188   4.471
   96SAPC  H20T 9447   3.222   1.018   4.399
   96SAPC   C33 9448   3.201   1.514   2.837
   96SAPC   H3X 9449   3.270   1.432   2.808
   96SAPC   H3Y 9450   3.108   1.461   2.865
   96SAPC   C34 9451   3.258   1.581   2.964
   96SAPC   H4X 9452   3.215   1.683   2.977
   96SAPC   H4Y 9453   3.358   1.614   2.929
   96SAPC   C35 9454   3.276   1.501   3.094
   96SAPC   H5X 9455   3.343   1.561   3.160
   96SAPC   H5Y 9456   3.320   1.401   3.077
   96SAPC   C36 9457   3.145   1.488   3.179
   96SAPC   H6X 9458   3.082   1.413   3.128
   96SAPC   H6Y 9459   3.089   1.583   3.190
   96SAPC   C37 9460   3.167   1.435   3.324
   96SAPC   H7X 9461   3.072   1.418   3.379
   96SAPC   H7Y 9462   3.236   1.504   3.377
   96SAPC   C38 9463   3.244   1.302   3.338
   96SAPC   H8X 9464   3.342   1.330   3.295
   96SAPC   H8Y 9465   3.199   1.228   3.269
   96SAPC   C39 9466   3.255   1.243   3.480
   96SAPC   H9X 9467   3.317   1.305   3.548
   96SAPC   H9Y 9468   3.310   1.149   3.459
   96SAPC  C310 9469   3.114   1.206   3.536
   96SAPC  H10X 9470   3.049   1.150   3.466
   96SAPC  H10Y 9471   3.070   1.297   3.581
   96SAPC  C311 9472   3.134   1.121   3.663
   96SAPC  H11X 9473   3.202   1.036   3.639
   96SAPC  H11Y 9474   3.035   1.088   3.703
   96SAPC  C312 9475   3.192   1.197   3.781
   96SAPC  H12X 9476   3.144   1.297   3.788
   96SAPC  H12Y 9477   3.299   1.221   3.764
   96SAPC  C313 9478   3.174   1.124   3.912
   96SAPC  H13X 9479   3.065   1.112   3.928
   96SAPC  H13Y 9480   3.213   1.187   3.996
   96SAPC  C314 9481   3.251   0.998   3.914
   96SAPC  H14X 9482   3.355   1.013   3.879
   96SAPC  H14Y 9483   3.201   0.929   3.844
   96SAPC  C315 9484   3.254   0.924   4.051
   96SAPC  H15X 9485   3.154   0.925   4.099
   96SAPC  H15Y 9486   3.316   0.994   4.112
   96SAPC  C316 9487   3.320   0.790   4.052
   96SAPC  H16X 9488   3.416   0.790   3.995
   96SAPC  H16Y 9489   3.246   0.718   4.009
   96SAPC  C317 9490   3.349   0.750   4.195
   96SAPC  H17X 9491   3.270   0.788   4.263
   96SAPC  H17Y 9492   3.446   0.798   4.222
   96SAPC  C318 9493   3.370   0.598   4.221
   96SAPC  H18X 9494   3.439   0.558   4.144
   96SAPC  H18Y 9495   3.272   0.546   4.209
   96SAPC  H18Z 9496   3.413   0.582   4.322
   97SAPC     N 9497   2.772   0.552   1.911
   97SAPC   C12 9498   2.783   0.403   1.932
   97SAPC  H12A 9499   2.779   0.351   1.838
   97SAPC  H12B 9500   2.701   0.362   1.989
   97SAPC   C13 9501   2.647   0.581   1.839
   97SAPC  H13A 9502   2.626   0.686   1.825
   97SAPC  H13B 9503   2.649   0.536   1.741
   97SAPC  H13C 9504   2.556   0.542   1.882
   97SAPC   C14 9505   2.759   0.632   2.044
   97SAPC  H14A 9506   2.831   0.612   2.122
   97SAPC  H14B 9507   2.768   0.737   2.021
   97SAPC  H14C 9508   2.662   0.628   2.092
   97SAPC   C15 9509   2.882   0.623   1.840
   97SAPC  H15A 9510   2.909   0.578   1.746
   97SAPC  H15B 9511   2.848   0.724   1.822
   97SAPC  H15C 9512   2.973   0.633   1.897
   97SAPC   C11 9513   2.913   0.352   1.999
   97SAPC  H11A 9514   3.005   0.371   1.940
   97SAPC  H11B 9515   2.910   0.241   1.995
   97SAPC     P 9516   2.866   0.301   2.252
   97SAPC   O13 9517   2.851   0.367   2.383
   97SAPC   O14 9518   2.748   0.225   2.210
   97SAPC   O12 9519   2.919   0.399   2.138
   97SAPC   O11 9520   2.985   0.200   2.272
   97SAPC    C1 9521   3.116   0.242   2.269
   97SAPC    HA 9522   3.149   0.274   2.168
   97SAPC    HB 9523   3.130   0.336   2.326
   97SAPC    C2 9524   3.201   0.126   2.333
   97SAPC    HS 9525   3.170   0.040   2.269
   97SAPC   O21 9526   3.150   0.099   2.462
   97SAPC   C21 9527   3.175   6.785   2.528
   97SAPC   O22 9528   3.230   6.688   2.479
   97SAPC   C22 9529   3.135   6.792   2.670
   97SAPC   H2R 9530   3.167   0.093   2.715
   97SAPC   H2S 9531   3.024   6.787   2.661
   97SAPC    C3 9532   3.353   0.136   2.325
   97SAPC    HX 9533   3.364   0.159   2.217
   97SAPC    HY 9534   3.396   0.037   2.350
   97SAPC   O31 9535   3.406   0.248   2.406
   97SAPC   C31 9536   3.441   0.219   2.531
   97SAPC   O32 9537   3.451   0.107   2.580
   97SAPC   C32 9538   3.459   0.349   2.609
   97SAPC   H2X 9539   3.432   0.427   2.534
   97SAPC   H2Y 9540   3.562   0.364   2.649
   97SAPC   C23 9541   3.195   6.689   2.770
   97SAPC   H3R 9542   3.300   6.711   2.799
   97SAPC   H3S 9543   3.187   6.591   2.718
   97SAPC   C24 9544   3.108   6.703   2.891
   97SAPC   H4R 9545   3.003   6.716   2.855
   97SAPC   H4S 9546   3.139   6.793   2.948
   97SAPC   C25 9547   3.116   6.584   2.984
   97SAPC   H5R 9548   3.156   6.497   2.931
   97SAPC   C26 9549   3.065   6.568   3.107
   97SAPC   H6R 9550   3.094   6.474   3.156
   97SAPC   C27 9551   3.000   6.670   3.196
   97SAPC   H7R 9552   2.895   6.632   3.201
   97SAPC   H7S 9553   3.009   6.771   3.151
   97SAPC   C28 9554   3.059   6.662   3.337
   97SAPC   H8R 9555   3.159   6.707   3.351
   97SAPC   C29 9556   3.002   6.610   3.446
   97SAPC   H9R 9557   3.062   6.631   3.535
   97SAPC  C210 9558   2.858   6.561   3.461
   97SAPC  H10R 9559   2.790   6.594   3.379
   97SAPC  H10S 9560   2.804   6.607   3.547
   97SAPC  C211 9561   2.856   6.413   3.493
   97SAPC  H11R 9562   2.903   6.341   3.423
   97SAPC  C212 9563   2.793   6.348   3.595
   97SAPC  H12R 9564   2.803   6.239   3.598
   97SAPC  C213 9565   2.705   6.415   3.700
   97SAPC  H13R 9566   2.600   6.413   3.665
   97SAPC  H13S 9567   2.744   6.517   3.722
   97SAPC  C214 9568   2.726   6.349   3.839
   97SAPC  H14R 9569   2.814   6.382   3.897
   97SAPC  C215 9570   2.662   6.248   3.896
   97SAPC  H15R 9571   2.687   6.197   3.990
   97SAPC  C216 9572   2.538   6.187   3.834
   97SAPC  H16R 9573   2.519   6.222   3.730
   97SAPC  H16S 9574   2.444   6.211   3.888
   97SAPC  C217 9575   2.561   6.035   3.806
   97SAPC  H17R 9576   2.469   5.992   3.763
   97SAPC  H17S 9577   2.592   5.993   3.905
   97SAPC  C218 9578   2.680   6.001   3.718
   97SAPC  H18R 9579   2.764   6.055   3.767
   97SAPC  H18S 9580   2.666   6.025   3.610
   97SAPC  C219 9581   2.711   5.850   3.726
   97SAPC  H19R 9582   2.692   5.812   3.829
   97SAPC  H19S 9583   2.815   5.824   3.697
   97SAPC  C220 9584   2.619   5.759   3.641
   97SAPC  H20R 9585   2.661   5.659   3.662
   97SAPC  H20S 9586   2.640   5.787   3.536
   97SAPC  H20T 9587   2.516   5.767   3.681
   97SAPC   C33 9588   3.360   0.373   2.720
   97SAPC   H3X 9589   3.266   0.323   2.688
   97SAPC   H3Y 9590   3.323   0.478   2.729
   97SAPC   C34 9591   3.413   0.321   2.858
   97SAPC   H4X 9592   3.489   0.388   2.904
   97SAPC   H4Y 9593   3.465   0.224   2.844
   97SAPC   C35 9594   3.312   0.303   2.974
   97SAPC   H5X 9595   3.228   0.244   2.932
   97SAPC   H5Y 9596   3.270   0.400   3.009
   97SAPC   C36 9597   3.372   0.225   3.089
   97SAPC   H6X 9598   3.461   0.284   3.117
   97SAPC   H6Y 9599   3.397   0.122   3.056
   97SAPC   C37 9600   3.281   0.221   3.208
   97SAPC   H7X 9601   3.185   0.171   3.183
   97SAPC   H7Y 9602   3.253   0.327   3.226
   97SAPC   C38 9603   3.340   0.147   3.326
   97SAPC   H8X 9604   3.445   0.182   3.336
   97SAPC   H8Y 9605   3.349   0.038   3.308
   97SAPC   C39 9606   3.256   0.165   3.455
   97SAPC   H9X 9607   3.309   0.092   3.521
   97SAPC   H9Y 9608   3.157   0.116   3.464
   97SAPC  C310 9609   3.256   0.303   3.520
   97SAPC  H10X 9610   3.194   0.382   3.473
   97SAPC  H10Y 9611   3.357   0.343   3.502
   97SAPC  C311 9612   3.226   0.301   3.671
   97SAPC  H11X 9613   3.326   0.275   3.712
   97SAPC  H11Y 9614   3.140   0.232   3.686
   97SAPC  C312 9615   3.175   0.442   3.713
   97SAPC  H12X 9616   3.072   0.463   3.679
   97SAPC  H12Y 9617   3.251   0.520   3.691
   97SAPC  C313 9618   3.181   0.448   3.869
   97SAPC  H13X 9619   3.179   0.553   3.905
   97SAPC  H13Y 9620   3.278   0.416   3.913
   97SAPC  C314 9621   3.071   0.358   3.935
   97SAPC  H14X 9622   3.085   0.250   3.916
   97SAPC  H14Y 9623   2.975   0.389   3.889
   97SAPC  C315 9624   3.071   0.391   4.084
   97SAPC  H15X 9625   3.079   0.502   4.083
   97SAPC  H15Y 9626   3.162   0.351   4.133
   97SAPC  C316 9627   2.943   0.353   4.153
   97SAPC  H16X 9628   2.932   0.245   4.129
   97SAPC  H16Y 9629   2.859   0.416   4.116
   97SAPC  C317 9630   2.946   0.364   4.308
   97SAPC  H17X 9631   2.847   0.338   4.350
   97SAPC  H17Y 9632   2.967   0.469   4.335
   97SAPC  C318 9633   3.058   0.280   4.378
   97SAPC  H18X 9634   3.038   0.289   4.487
   97SAPC  H18Y 9635   3.159   0.323   4.361
   97SAPC  H18Z 9636   3.062   0.173   4.349
   98SAPC     N 9637   6.149   1.395   2.310
   98SAPC   C12 9638   6.232   1.335   2.431
   98SAPC  H12A 9639   6.170   1.284   2.504
   98SAPC  H12B 9640   6.267   1.417   2.492
   98SAPC   C13 9641   6.121   1.282   2.214
   98SAPC  H13A 9642   6.053   1.306   2.134
   98SAPC  H13B 9643   6.217   1.250   2.176
   98SAPC  H13C 9644   6.072   1.202   2.269
   98SAPC   C14 9645   6.021   1.448   2.350
   98SAPC  H14A 9646   5.971   1.482   2.260
   98SAPC  H14B 9647   5.952   1.383   2.402
   98SAPC  H14C 9648   6.033   1.537   2.410
   98SAPC   C15 9649   6.234   1.495   2.233
   98SAPC  H15A 9650   6.200   1.502   2.131
   98SAPC  H15B 9651   6.225   1.595   2.273
   98SAPC  H15C 9652   6.335   1.459   2.220
   98SAPC   C11 9653   6.358   1.253   2.408
   98SAPC  H11A 9654   6.397   1.232   2.510
   98SAPC  H11B 9655   6.431   1.318   2.357
   98SAPC     P 9656   6.376   0.989   2.377
   98SAPC   O13 9657   6.310   0.894   2.286
   98SAPC   O14 9658   6.518   0.975   2.393
   98SAPC   O12 9659   6.342   1.136   2.328
   98SAPC   O11 9660   6.296   0.995   2.518
   98SAPC    C1 9661   6.153   0.999   2.511
   98SAPC    HA 9662   6.117   1.097   2.471
   98SAPC    HB 9663   6.114   0.928   2.435
   98SAPC    C2 9664   6.080   0.964   2.644
   98SAPC    HS 9665   5.979   1.010   2.640
   98SAPC   O21 9666   6.158   1.020   2.748
   98SAPC   C21 9667   6.144   1.152   2.761
   98SAPC   O22 9668   6.075   1.222   2.690
   98SAPC   C22 9669   6.195   1.197   2.894
   98SAPC   H2R 9670   6.301   1.228   2.885
   98SAPC   H2S 9671   6.137   1.287   2.924
   98SAPC    C3 9672   6.077   0.814   2.662
   98SAPC    HX 9673   6.185   0.788   2.660
   98SAPC    HY 9674   6.036   0.766   2.571
   98SAPC   O31 9675   6.006   0.767   2.780
   98SAPC   C31 9676   6.079   0.762   2.891
   98SAPC   O32 9677   6.203   0.763   2.895
   98SAPC   C32 9678   5.983   0.768   3.008
   98SAPC   H2X 9679   5.903   0.693   2.989
   98SAPC   H2Y 9680   5.938   0.870   3.018
   98SAPC   C23 9681   6.186   1.093   3.006
   98SAPC   H3R 9682   6.247   1.006   2.973
   98SAPC   H3S 9683   6.080   1.063   3.023
   98SAPC   C24 9684   6.232   1.136   3.145
   98SAPC   H4R 9685   6.330   1.188   3.144
   98SAPC   H4S 9686   6.240   1.036   3.194
   98SAPC   C25 9687   6.141   1.231   3.224
   98SAPC   H5R 9688   6.126   1.330   3.178
   98SAPC   C26 9689   6.075   1.194   3.339
   98SAPC   H6R 9690   6.006   1.257   3.397
   98SAPC   C27 9691   6.090   1.058   3.406
   98SAPC   H7R 9692   6.107   0.971   3.339
   98SAPC   H7S 9693   5.998   1.023   3.457
   98SAPC   C28 9694   6.206   1.056   3.503
   98SAPC   H8R 9695   6.302   1.078   3.452
   98SAPC   C29 9696   6.208   1.010   3.629
   98SAPC   H9R 9697   6.299   1.023   3.689
   98SAPC  C210 9698   6.081   0.943   3.689
   98SAPC  H10R 9699   6.070   0.845   3.637
   98SAPC  H10S 9700   5.987   1.000   3.678
   98SAPC  C211 9701   6.096   0.920   3.835
   98SAPC  H11R 9702   6.032   0.988   3.894
   98SAPC  C212 9703   6.192   0.842   3.895
   98SAPC  H12R 9704   6.177   0.820   4.002
   98SAPC  C213 9705   6.289   0.750   3.826
   98SAPC  H13R 9706   6.264   0.740   3.718
   98SAPC  H13S 9707   6.269   0.648   3.865
   98SAPC  C214 9708   6.435   0.786   3.850
   98SAPC  H14R 9709   6.458   0.847   3.939
   98SAPC  C215 9710   6.533   0.737   3.766
   98SAPC  H15R 9711   6.640   0.760   3.780
   98SAPC  C216 9712   6.504   0.654   3.647
   98SAPC  H16R 9713   6.410   0.596   3.654
   98SAPC  H16S 9714   6.587   0.581   3.656
   98SAPC  C217 9715   6.522   0.730   3.517
   98SAPC  H17R 9716   6.619   0.784   3.510
   98SAPC  H17S 9717   6.433   0.794   3.497
   98SAPC  C218 9718   6.530   0.626   3.400
   98SAPC  H18R 9719   6.440   0.563   3.410
   98SAPC  H18S 9720   6.622   0.564   3.402
   98SAPC  C219 9721   6.529   0.709   3.272
   98SAPC  H19R 9722   6.625   0.761   3.248
   98SAPC  H19S 9723   6.452   0.789   3.278
   98SAPC  C220 9724   6.483   0.617   3.151
   98SAPC  H20R 9725   6.380   0.575   3.162
   98SAPC  H20S 9726   6.549   0.529   3.137
   98SAPC  H20T 9727   6.487   0.680   3.060
   98SAPC   C33 9728   6.052   0.733   3.141
   98SAPC   H3X 9729   6.125   0.806   3.182
   98SAPC   H3Y 9730   6.100   0.633   3.140
   98SAPC   C34 9731   5.945   0.736   3.252
   98SAPC   H4X 9732   5.849   0.703   3.207
   98SAPC   H4Y 9733   5.942   0.845   3.274
   98SAPC   C35 9734   5.976   0.653   3.379
   98SAPC   H5X 9735   6.077   0.689   3.409
   98SAPC   H5Y 9736   5.967   0.544   3.359
   98SAPC   C36 9737   5.884   0.698   3.502
   98SAPC   H6X 9738   5.868   0.808   3.507
   98SAPC   H6Y 9739   5.928   0.673   3.601
   98SAPC   C37 9740   5.749   0.648   3.477
   98SAPC   H7X 9741   5.753   0.537   3.479
   98SAPC   H7Y 9742   5.708   0.677   3.378
   98SAPC   C38 9743   5.653   0.694   3.590
   98SAPC   H8X 9744   5.548   0.669   3.562
   98SAPC   H8Y 9745   5.675   0.799   3.619
   98SAPC   C39 9746   5.683   0.629   3.723
   98SAPC   H9X 9747   5.769   0.681   3.771
   98SAPC   H9Y 9748   5.710   0.522   3.721
   98SAPC  C310 9749   5.565   0.651   3.815
   98SAPC  H10X 9750   5.476   0.607   3.766
   98SAPC  H10Y 9751   5.549   0.756   3.845
   98SAPC  C311 9752   5.584   0.580   3.948
   98SAPC  H11X 9753   5.677   0.630   3.983
   98SAPC  H11Y 9754   5.595   0.471   3.931
   98SAPC  C312 9755   5.466   0.613   4.048
   98SAPC  H12X 9756   5.393   0.529   4.040
   98SAPC  H12Y 9757   5.403   0.700   4.020
   98SAPC  C313 9758   5.515   0.623   4.190
   98SAPC  H13X 9759   5.434   0.635   4.264
   98SAPC  H13Y 9760   5.572   0.718   4.201
   98SAPC  C314 9761   5.616   0.526   4.239
   98SAPC  H14X 9762   5.710   0.549   4.186
   98SAPC  H14Y 9763   5.582   0.423   4.215
   98SAPC  C315 9764   5.634   0.542   4.390
   98SAPC  H15X 9765   5.642   0.646   4.428
   98SAPC  H15Y 9766   5.735   0.497   4.407
   98SAPC  C316 9767   5.523   0.479   4.480
   98SAPC  H16X 9768   5.528   0.369   4.464
   98SAPC  H16Y 9769   5.417   0.499   4.454
   98SAPC  C317 9770   5.557   0.512   4.625
   98SAPC  H17X 9771   5.535   0.621   4.631
   98SAPC  H17Y 9772   5.659   0.479   4.654
   98SAPC  C318 9773   5.466   0.446   4.724
   98SAPC  H18X 9774   5.493   0.489   4.823
   98SAPC  H18Y 9775   5.481   0.336   4.726
   98SAPC  H18Z 9776   5.359   0.474   4.715
   99SAPC     N 9777   3.443   4.651   1.820
   99SAPC   C12 9778   3.405   4.791   1.875
   99SAPC  H12A 9779   3.337   4.842   1.809
   99SAPC  H12B 9780   3.493   4.854   1.880
   99SAPC   C13 9781   3.532   4.573   1.909
   99SAPC  H13A 9782   3.565   4.478   1.868
   99SAPC  H13B 9783   3.618   4.628   1.946
   99SAPC  H13C 9784   3.475   4.559   1.999
   99SAPC   C14 9785   3.317   4.576   1.801
   99SAPC  H14A 9786   3.284   4.543   1.898
   99SAPC  H14B 9787   3.241   4.624   1.740
   99SAPC  H14C 9788   3.332   4.486   1.742
   99SAPC   C15 9789   3.504   4.670   1.683
   99SAPC  H15A 9790   3.517   4.576   1.630
   99SAPC  H15B 9791   3.440   4.729   1.619
   99SAPC  H15C 9792   3.603   4.713   1.692
   99SAPC   C11 9793   3.370   4.796   2.025
   99SAPC  H11A 9794   3.364   4.902   2.058
   99SAPC  H11B 9795   3.459   4.770   2.086
   99SAPC     P 9796   3.115   4.754   2.070
   99SAPC   O13 9797   3.091   4.873   1.988
   99SAPC   O14 9798   3.016   4.646   2.055
   99SAPC   O12 9799   3.268   4.706   2.063
   99SAPC   O11 9800   3.120   4.802   2.221
   99SAPC    C1 9801   3.168   4.700   2.314
   99SAPC    HA 9802   3.145   4.596   2.281
   99SAPC    HB 9803   3.278   4.708   2.330
   99SAPC    C2 9804   3.097   4.702   2.448
   99SAPC    HS 9805   2.993   4.727   2.420
   99SAPC   O21 9806   3.160   4.800   2.526
   99SAPC   C21 9807   3.107   4.840   2.635
   99SAPC   O22 9808   2.995   4.815   2.676
   99SAPC   C22 9809   3.209   4.922   2.712
   99SAPC   H2R 9810   3.289   4.848   2.730
   99SAPC   H2S 9811   3.247   5.011   2.657
   99SAPC    C3 9812   3.097   4.569   2.527
   99SAPC    HX 9813   3.064   4.494   2.452
   99SAPC    HY 9814   3.024   4.570   2.611
   99SAPC   O31 9815   3.228   4.529   2.564
   99SAPC   C31 9816   3.236   4.422   2.633
   99SAPC   O32 9817   3.148   4.341   2.649
   99SAPC   C32 9818   3.378   4.404   2.680
   99SAPC   H2X 9819   3.440   4.488   2.642
   99SAPC   H2Y 9820   3.403   4.300   2.649
   99SAPC   C23 9821   3.143   4.984   2.845
   99SAPC   H3R 9822   3.113   4.900   2.911
   99SAPC   H3S 9823   3.054   5.040   2.809
   99SAPC   C24 9824   3.235   5.091   2.902
   99SAPC   H4R 9825   3.171   5.148   2.972
   99SAPC   H4S 9826   3.266   5.168   2.829
   99SAPC   C25 9827   3.346   5.026   2.970
   99SAPC   H5R 9828   3.427   4.993   2.904
   99SAPC   C26 9829   3.348   4.994   3.102
   99SAPC   H6R 9830   3.438   4.950   3.148
   99SAPC   C27 9831   3.235   5.017   3.201
   99SAPC   H7R 9832   3.207   4.924   3.254
   99SAPC   H7S 9833   3.140   5.037   3.148
   99SAPC   C28 9834   3.277   5.135   3.289
   99SAPC   H8R 9835   3.291   5.229   3.234
   99SAPC   C29 9836   3.301   5.114   3.420
   99SAPC   H9R 9837   3.319   5.192   3.495
   99SAPC  C210 9838   3.272   4.986   3.502
   99SAPC  H10R 9839   3.344   4.976   3.586
   99SAPC  H10S 9840   3.287   4.895   3.441
   99SAPC  C211 9841   3.132   4.989   3.548
   99SAPC  H11R 9842   3.060   5.037   3.480
   99SAPC  C212 9843   3.084   4.946   3.667
   99SAPC  H12R 9844   2.983   4.976   3.698
   99SAPC  C213 9845   3.175   4.884   3.771
   99SAPC  H13R 9846   3.275   4.931   3.773
   99SAPC  H13S 9847   3.193   4.775   3.758
   99SAPC  C214 9848   3.119   4.897   3.911
   99SAPC  H14R 9849   3.095   5.001   3.939
   99SAPC  C215 9850   3.111   4.796   4.006
   99SAPC  H15R 9851   3.061   4.832   4.097
   99SAPC  C216 9852   3.158   4.656   3.992
   99SAPC  H16R 9853   3.119   4.609   3.899
   99SAPC  H16S 9854   3.099   4.610   4.074
   99SAPC  C217 9855   3.310   4.640   4.002
   99SAPC  H17R 9856   3.376   4.662   3.915
   99SAPC  H17S 9857   3.328   4.531   4.009
   99SAPC  C218 9858   3.360   4.712   4.127
   99SAPC  H18R 9859   3.281   4.714   4.205
   99SAPC  H18S 9860   3.388   4.817   4.101
   99SAPC  C219 9861   3.482   4.652   4.190
   99SAPC  H19R 9862   3.564   4.631   4.118
   99SAPC  H19S 9863   3.453   4.550   4.224
   99SAPC  C220 9864   3.541   4.722   4.314
   99SAPC  H20R 9865   3.481   4.706   4.406
   99SAPC  H20S 9866   3.531   4.830   4.290
   99SAPC  H20T 9867   3.646   4.687   4.320
   99SAPC   C33 9868   3.375   4.423   2.838
   99SAPC   H3X 9869   3.475   4.397   2.879
   99SAPC   H3Y 9870   3.312   4.341   2.877
   99SAPC   C34 9871   3.326   4.560   2.904
   99SAPC   H4X 9872   3.224   4.597   2.883
   99SAPC   H4Y 9873   3.387   4.648   2.875
   99SAPC   C35 9874   3.325   4.553   3.059
   99SAPC   H5X 9875   3.295   4.454   3.097
   99SAPC   H5Y 9876   3.260   4.637   3.091
   99SAPC   C36 9877   3.469   4.572   3.118
   99SAPC   H6X 9878   3.524   4.658   3.074
   99SAPC   H6Y 9879   3.529   4.480   3.112
   99SAPC   C37 9880   3.451   4.613   3.264
   99SAPC   H7X 9881   3.362   4.678   3.282
   99SAPC   H7Y 9882   3.540   4.665   3.306
   99SAPC   C38 9883   3.449   4.489   3.349
   99SAPC   H8X 9884   3.544   4.434   3.331
   99SAPC   H8Y 9885   3.362   4.426   3.321
   99SAPC   C39 9886   3.442   4.511   3.503
   99SAPC   H9X 9887   3.344   4.551   3.536
   99SAPC   H9Y 9888   3.510   4.596   3.527
   99SAPC  C310 9889   3.490   4.390   3.586
   99SAPC  H10X 9890   3.594   4.358   3.562
   99SAPC  H10Y 9891   3.424   4.302   3.573
   99SAPC  C311 9892   3.491   4.427   3.732
   99SAPC  H11X 9893   3.388   4.423   3.775
   99SAPC  H11Y 9894   3.531   4.529   3.748
   99SAPC  C312 9895   3.575   4.335   3.824
   99SAPC  H12X 9896   3.681   4.336   3.790
   99SAPC  H12Y 9897   3.536   4.231   3.824
   99SAPC  C313 9898   3.589   4.376   3.967
   99SAPC  H13X 9899   3.484   4.381   4.002
   99SAPC  H13Y 9900   3.640   4.474   3.959
   99SAPC  C314 9901   3.674   4.286   4.053
   99SAPC  H14X 9902   3.776   4.280   4.008
   99SAPC  H14Y 9903   3.625   4.187   4.048
   99SAPC  C315 9904   3.692   4.342   4.193
   99SAPC  H15X 9905   3.592   4.328   4.240
   99SAPC  H15Y 9906   3.727   4.447   4.201
   99SAPC  C316 9907   3.797   4.255   4.272
   99SAPC  H16X 9908   3.894   4.254   4.219
   99SAPC  H16Y 9909   3.755   4.152   4.272
   99SAPC  C317 9910   3.810   4.307   4.420
   99SAPC  H17X 9911   3.841   4.413   4.408
   99SAPC  H17Y 9912   3.894   4.253   4.471
   99SAPC  C318 9913   3.687   4.299   4.509
   99SAPC  H18X 9914   3.723   4.352   4.600
   99SAPC  H18Y 9915   3.657   4.194   4.527
   99SAPC  H18Z 9916   3.601   4.355   4.468
  100SAPC     N 9917   2.149   3.973   1.638
  100SAPC   C12 9918   2.026   3.990   1.728
  100SAPC  H12A 9919   1.938   3.998   1.666
  100SAPC  H12B 9920   2.032   4.076   1.792
  100SAPC   C13 9921   2.273   3.985   1.713
  100SAPC  H13A 9922   2.271   3.909   1.790
  100SAPC  H13B 9923   2.357   3.964   1.649
  100SAPC  H13C 9924   2.280   4.066   1.784
  100SAPC   C14 9925   2.142   3.841   1.567
  100SAPC  H14A 9926   2.148   3.753   1.631
  100SAPC  H14B 9927   2.049   3.826   1.514
  100SAPC  H14C 9928   2.219   3.840   1.492
  100SAPC   C15 9929   2.147   4.079   1.530
  100SAPC  H15A 9930   2.132   4.179   1.569
  100SAPC  H15B 9931   2.244   4.077   1.482
  100SAPC  H15C 9932   2.072   4.062   1.455
  100SAPC   C11 9933   1.999   3.871   1.824
  100SAPC  H11A 9934   2.070   3.873   1.910
  100SAPC  H11B 9935   2.019   3.774   1.774
  100SAPC     P 9936   1.821   3.960   1.988
  100SAPC   O13 9937   1.884   4.093   1.969
  100SAPC   O14 9938   1.672   3.956   1.990
  100SAPC   O12 9939   1.866   3.869   1.876
  100SAPC   O11 9940   1.874   3.903   2.123
  100SAPC    C1 9941   1.823   3.778   2.176
  100SAPC    HA 9942   1.786   3.709   2.097
  100SAPC    HB 9943   1.892   3.723   2.244
  100SAPC    C2 9944   1.715   3.805   2.287
  100SAPC    HS 9945   1.628   3.836   2.225
  100SAPC   O21 9946   1.753   3.917   2.374
  100SAPC   C21 9947   1.657   3.972   2.460
  100SAPC   O22 9948   1.540   3.932   2.466
  100SAPC   C22 9949   1.715   4.078   2.551
  100SAPC   H2R 9950   1.826   4.075   2.555
  100SAPC   H2S 9951   1.681   4.172   2.501
  100SAPC    C3 9952   1.663   3.679   2.372
  100SAPC    HX 9953   1.633   3.596   2.305
  100SAPC    HY 9954   1.568   3.716   2.418
  100SAPC   O31 9955   1.759   3.649   2.474
  100SAPC   C31 9956   1.838   3.541   2.466
  100SAPC   O32 9957   1.845   3.460   2.374
  100SAPC   C32 9958   1.908   3.511   2.595
  100SAPC   H2X 9959   2.017   3.518   2.575
  100SAPC   H2Y 9960   1.888   3.406   2.627
  100SAPC   C23 9961   1.654   4.055   2.688
  100SAPC   H3R 9962   1.543   4.057   2.694
  100SAPC   H3S 9963   1.693   4.130   2.761
  100SAPC   C24 9964   1.690   3.918   2.744
  100SAPC   H4R 9965   1.797   3.903   2.722
  100SAPC   H4S 9966   1.642   3.846   2.673
  100SAPC   C25 9967   1.638   3.894   2.882
  100SAPC   H5R 9968   1.530   3.874   2.887
  100SAPC   C26 9969   1.697   3.916   3.003
  100SAPC   H6R 9970   1.629   3.911   3.089
  100SAPC   C27 9971   1.842   3.962   3.029
  100SAPC   H7R 9972   1.892   3.963   2.929
  100SAPC   H7S 9973   1.900   3.905   3.105
  100SAPC   C28 9974   1.840   4.104   3.075
  100SAPC   H8R 9975   1.816   4.167   2.988
  100SAPC   C29 9976   1.857   4.160   3.195
  100SAPC   H9R 9977   1.848   4.269   3.206
  100SAPC  C210 9978   1.890   4.092   3.324
  100SAPC  H10R 9979   1.976   4.148   3.365
  100SAPC  H10S 9980   1.931   3.993   3.295
  100SAPC  C211 9981   1.776   4.071   3.422
  100SAPC  H11R 9982   1.679   4.070   3.370
  100SAPC  C212 9983   1.773   4.061   3.554
  100SAPC  H12R 9984   1.676   4.024   3.592
  100SAPC  C213 9985   1.896   4.028   3.635
  100SAPC  H13R 9986   1.923   4.128   3.674
  100SAPC  H13S 9987   1.978   4.000   3.565
  100SAPC  C214 9988   1.890   3.926   3.745
  100SAPC  H14R 9989   1.902   3.818   3.724
  100SAPC  C215 9990   1.877   3.957   3.877
  100SAPC  H15R 9991   1.873   3.872   3.947
  100SAPC  C216 9992   1.862   4.097   3.940
  100SAPC  H16R 9993   1.777   4.095   4.011
  100SAPC  H16S 9994   1.828   4.165   3.860
  100SAPC  C217 9995   1.977   4.170   4.012
  100SAPC  H17R 9996   1.955   4.278   4.015
  100SAPC  H17S 9997   2.078   4.156   3.967
  100SAPC  C218 9998   1.978   4.128   4.155
  100SAPC  H18R 9999   1.880   4.094   4.194
  100SAPC  H18S10000   2.014   4.213   4.217
  100SAPC  C21910001   2.083   4.022   4.182
  100SAPC  H19R10002   2.183   4.038   4.137
  100SAPC  H19S10003   2.052   3.925   4.136
  100SAPC  C22010004   2.107   3.998   4.329
  100SAPC  H20R10005   2.193   3.927   4.330
  100SAPC  H20S10006   2.023   3.945   4.378
  100SAPC  H20T10007   2.139   4.091   4.380
  100SAPC   C3310008   1.864   3.606   2.710
  100SAPC   H3X10009   1.753   3.612   2.716
  100SAPC   H3Y10010   1.901   3.710   2.700
  100SAPC   C3410011   1.922   3.542   2.840
  100SAPC   H4X10012   2.031   3.528   2.820
  100SAPC   H4Y10013   1.877   3.444   2.867
  100SAPC   C3510014   1.925   3.636   2.958
  100SAPC   H5X10015   1.822   3.654   2.997
  100SAPC   H5Y10016   1.973   3.727   2.918
  100SAPC   C3610017   2.019   3.585   3.075
  100SAPC   H6X10018   2.118   3.550   3.039
  100SAPC   H6Y10019   1.960   3.499   3.113
  100SAPC   C3710020   2.028   3.685   3.185
  100SAPC   H7X10021   1.925   3.717   3.210
  100SAPC   H7Y10022   2.091   3.773   3.161
  100SAPC   C3810023   2.081   3.633   3.324
  100SAPC   H8X10024   2.109   3.724   3.381
  100SAPC   H8Y10025   2.173   3.573   3.308
  100SAPC   C3910026   1.995   3.536   3.406
  100SAPC   H9X10027   1.997   3.442   3.347
  100SAPC   H9Y10028   1.896   3.587   3.416
  100SAPC  C31010029   2.043   3.501   3.545
  100SAPC  H10X10030   2.066   3.594   3.600
  100SAPC  H10Y10031   2.139   3.445   3.539
  100SAPC  C31110032   1.944   3.412   3.621
  100SAPC  H11X10033   1.919   3.330   3.550
  100SAPC  H11Y10034   1.859   3.471   3.661
  100SAPC  C31210035   2.008   3.340   3.741
  100SAPC  H12X10036   2.097   3.286   3.702
  100SAPC  H12Y10037   1.942   3.269   3.795
  100SAPC  C31310038   2.059   3.443   3.848
  100SAPC  H13X10039   1.988   3.527   3.865
  100SAPC  H13Y10040   2.149   3.491   3.804
  100SAPC  C31410041   2.086   3.375   3.982
  100SAPC  H14X10042   2.139   3.280   3.959
  100SAPC  H14Y10043   1.993   3.360   4.040
  100SAPC  C31510044   2.178   3.469   4.057
  100SAPC  H15X10045   2.265   3.498   3.995
  100SAPC  H15Y10046   2.214   3.412   4.145
  100SAPC  C31610047   2.116   3.608   4.098
  100SAPC  H16X10048   2.113   3.663   4.001
  100SAPC  H16Y10049   2.195   3.659   4.157
  100SAPC  C31710050   1.980   3.609   4.174
  100SAPC  H17X10051   1.889   3.597   4.112
  100SAPC  H17Y10052   1.972   3.711   4.219
  100SAPC  C31810053   1.977   3.504   4.283
  100SAPC  H18X10054   1.970   3.409   4.226
  100SAPC  H18Y10055   1.890   3.532   4.345
  100SAPC  H18Z10056   2.075   3.515   4.335
  101OSM      N10057   3.786   2.317   7.402
  101OSM    C1510058   3.848   2.410   7.507
  101OSM   H15A10059   3.880   2.350   7.591
  101OSM   H15B10060   3.777   2.485   7.538
  101OSM   H15C10061   3.933   2.462   7.466
  101OSM    C1410062   3.879   2.208   7.371
  101OSM   H14A10063   3.967   2.242   7.319
  101OSM   H14B10064   3.831   2.147   7.295
  101OSM   H14C10065   3.897   2.150   7.461
  101OSM    C1310066   3.659   2.271   7.462
  101OSM   H13A10067   3.685   2.217   7.552
  101OSM   H13B10068   3.603   2.199   7.404
  101OSM   H13C10069   3.592   2.352   7.487
  101OSM    C1210070   3.749   2.400   7.276
  101OSM   H12A10071   3.715   2.498   7.306
  101OSM   H12B10072   3.675   2.343   7.222
  101OSM    C1110073   3.866   2.426   7.178
  101OSM   H11A10074   3.833   2.496   7.099
  101OSM   H11B10075   3.875   2.326   7.130
  101OSM      P10076   4.108   2.488   7.161
  101OSM    O1310077   4.149   2.629   7.147
  101OSM    O1410078   4.215   2.405   7.216
  101OSM    O1110079   4.077   2.429   7.016
  101OSM    O1210080   3.978   2.471   7.243
  101OSM    C1S10081   4.104   2.508   6.901
  101OSM    H1S10082   4.209   2.544   6.905
  101OSM    H1T10083   4.052   2.605   6.918
  101OSM     NF10084   4.104   2.515   6.650
  101OSM    HNF10085   4.029   2.560   6.602
  101OSM    C2S10086   4.055   2.443   6.766
  101OSM    H2S10087   4.099   2.341   6.760
  101OSM    C3S10088   3.901   2.417   6.775
  101OSM    H3S10089   3.841   2.510   6.790
  101OSM     O310090   3.864   2.328   6.875
  101OSM    HO310091   3.933   2.351   6.938
  101OSM    C4S10092   3.854   2.367   6.644
  101OSM    H4S10093   3.795   2.432   6.577
  101OSM    C5S10094   3.864   2.241   6.595
  101OSM    H5S10095   3.920   2.170   6.657
  101OSM    C6S10096   3.823   2.200   6.458
  101OSM    H6S10097   3.743   2.126   6.477
  101OSM    H6T10098   3.909   2.148   6.411
  101OSM    C7S10099   3.783   2.310   6.356
  101OSM    H7S10100   3.866   2.383   6.340
  101OSM    H7T10101   3.701   2.369   6.404
  101OSM    C8S10102   3.727   2.254   6.227
  101OSM    H8S10103   3.691   2.150   6.239
  101OSM    H8T10104   3.811   2.245   6.155
  101OSM    C9S10105   3.629   2.349   6.160
  101OSM    H9S10106   3.679   2.447   6.179
  101OSM    H9T10107   3.529   2.347   6.209
  101OSM   C10S10108   3.611   2.319   6.007
  101OSM   H10S10109   3.577   2.215   5.990
  101OSM   H10T10110   3.714   2.328   5.968
  101OSM   C11S10111   3.518   2.413   5.923
  101OSM   H11S10112   3.567   2.513   5.934
  101OSM   H11T10113   3.420   2.423   5.974
  101OSM   C12S10114   3.528   2.370   5.772
  101OSM   H12S10115   3.477   2.272   5.765
  101OSM   H12T10116   3.635   2.370   5.744
  101OSM   C13S10117   3.441   2.460   5.682
  101OSM   H13S10118   3.485   2.562   5.682
  101OSM   H13T10119   3.338   2.464   5.724
  101OSM   C14S10120   3.428   2.406   5.539
  101OSM   H14S10121   3.357   2.466   5.479
  101OSM   H14T10122   3.369   2.312   5.540
  101OSM   C15S10123   3.562   2.398   5.457
  101OSM   H15S10124   3.634   2.334   5.512
  101OSM   H15T10125   3.608   2.499   5.453
  101OSM   C16S10126   3.534   2.348   5.313
  101OSM   H16S10127   3.463   2.420   5.267
  101OSM   H16T10128   3.481   2.251   5.310
  101OSM   C17S10129   3.660   2.328   5.232
  101OSM   H17S10130   3.715   2.250   5.289
  101OSM   H17T10131   3.721   2.420   5.221
  101OSM   C18S10132   3.629   2.268   5.096
  101OSM   H18S10133   3.569   2.174   5.097
  101OSM   H18T10134   3.724   2.258   5.040
  101OSM   H18U10135   3.562   2.346   5.052
  101OSM    C1F10136   4.230   2.518   6.613
  101OSM     OF10137   4.311   2.455   6.674
  101OSM    C2F10138   4.255   2.612   6.502
  101OSM    H2F10139   4.293   2.707   6.545
  101OSM    H2G10140   4.155   2.614   6.452
  101OSM    C3F10141   4.365   2.568   6.405
  101OSM    H3F10142   4.356   2.468   6.358
  101OSM    H3G10143   4.463   2.578   6.456
  101OSM    C4F10144   4.357   2.671   6.293
  101OSM    H4F10145   4.379   2.769   6.340
  101OSM    H4G10146   4.256   2.658   6.249
  101OSM    C5F10147   4.464   2.641   6.188
  101OSM    H5F10148   4.468   2.533   6.160
  101OSM    H5G10149   4.568   2.663   6.221
  101OSM    C6F10150   4.463   2.726   6.054
  101OSM    H6F10151   4.543   2.688   5.987
  101OSM    H6G10152   4.490   2.831   6.078
  101OSM    C7F10153   4.332   2.726   5.980
  101OSM    H7F10154   4.342   2.782   5.885
  101OSM    H7G10155   4.264   2.783   6.047
  101OSM    C8F10156   4.280   2.593   5.922
  101OSM    H8F10157   4.197   2.627   5.856
  101OSM    H8G10158   4.227   2.541   6.004
  101OSM    C9F10159   4.371   2.504   5.841
  101OSM    H9F10160   4.441   2.445   5.902
  101OSM   C10F10161   4.372   2.485   5.710
  101OSM   H10F10162   4.449   2.425   5.660
  101OSM   C11F10163   4.285   2.551   5.606
  101OSM   H11F10164   4.230   2.644   5.635
  101OSM   H11G10165   4.203   2.481   5.579
  101OSM   C12F10166   4.354   2.592   5.476
  101OSM   H12F10167   4.427   2.672   5.504
  101OSM   H12G10168   4.276   2.641   5.414
  101OSM   C13F10169   4.418   2.479   5.395
  101OSM   H13F10170   4.339   2.411   5.358
  101OSM   H13G10171   4.488   2.416   5.456
  101OSM   C14F10172   4.498   2.536   5.270
  101OSM   H14F10173   4.599   2.493   5.258
  101OSM   H14G10174   4.505   2.646   5.284
  101OSM   C15F10175   4.420   2.526   5.144
  101OSM   H15F10176   4.316   2.562   5.159
  101OSM   H15G10177   4.416   2.417   5.119
  101OSM   C16F10178   4.479   2.596   5.024
  101OSM   H16F10179   4.575   2.546   4.999
  101OSM   H16G10180   4.484   2.704   5.050
  101OSM   C17F10181   4.392   2.586   4.894
  101OSM   H17F10182   4.300   2.644   4.914
  101OSM   H17G10183   4.360   2.481   4.874
  101OSM   C18F10184   4.472   2.625   4.768
  101OSM   H18F10185   4.566   2.567   4.759
  101OSM   H18G10186   4.502   2.732   4.775
  101OSM   H18H10187   4.412   2.628   4.674
  102OSM      N10188   4.368   2.142   6.930
  102OSM    C1510189   4.226   2.157   6.972
  102OSM   H15A10190   4.179   2.243   6.927
  102OSM   H15B10191   4.224   2.184   7.077
  102OSM   H15C10192   4.170   2.066   6.961
  102OSM    C1410193   4.380   2.140   6.784
  102OSM   H14A10194   4.451   2.067   6.749
  102OSM   H14B10195   4.409   2.239   6.751
  102OSM   H14C10196   4.284   2.110   6.744
  102OSM    C1310197   4.442   2.259   6.979
  102OSM   H13A10198   4.415   2.275   7.082
  102OSM   H13B10199   4.411   2.347   6.924
  102OSM   H13C10200   4.547   2.235   6.980
  102OSM    C1210201   4.435   2.014   6.985
  102OSM   H12A10202   4.363   1.934   6.975
  102OSM   H12B10203   4.445   2.008   7.093
  102OSM    C1110204   4.579   1.970   6.929
  102OSM   H11A10205   4.626   1.898   6.999
  102OSM   H11B10206   4.641   2.062   6.916
  102OSM      P10207   4.484   1.760   6.792
  102OSM    O1310208   4.578   1.644   6.799
  102OSM    O1410209   4.382   1.759   6.898
  102OSM    O1110210   4.410   1.759   6.659
  102OSM    O1210211   4.563   1.905   6.803
  102OSM    C1S10212   4.476   1.777   6.535
  102OSM    H1S10213   4.507   1.678   6.496
  102OSM    H1T10214   4.570   1.836   6.539
  102OSM     NF10215   4.465   1.845   6.311
  102OSM    HNF10216   4.484   1.938   6.281
  102OSM    C2S10217   4.382   1.829   6.428
  102OSM    H2S10218   4.298   1.759   6.408
  102OSM    C3S10219   4.305   1.961   6.478
  102OSM    H3S10220   4.373   2.047   6.497
  102OSM     O310221   4.231   1.943   6.597
  102OSM    HO310222   4.280   1.875   6.643
  102OSM    C4S10223   4.215   2.008   6.368
  102OSM    H4S10224   4.160   1.928   6.316
  102OSM    C5S10225   4.196   2.136   6.337
  102OSM    H5S10226   4.254   2.210   6.393
  102OSM    C6S10227   4.102   2.180   6.224
  102OSM    H6S10228   4.054   2.278   6.243
  102OSM    H6T10229   4.016   2.110   6.221
  102OSM    C7S10230   4.190   2.172   6.096
  102OSM    H7S10231   4.223   2.069   6.071
  102OSM    H7T10232   4.278   2.239   6.105
  102OSM    C8S10233   4.120   2.225   5.967
  102OSM    H8S10234   4.198   2.254   5.893
  102OSM    H8T10235   4.070   2.319   5.999
  102OSM    C9S10236   4.013   2.133   5.914
  102OSM    H9S10237   3.930   2.108   5.984
  102OSM    H9T10238   4.075   2.044   5.889
  102OSM   C10S10239   3.957   2.193   5.781
  102OSM   H10S10240   3.920   2.298   5.790
  102OSM   H10T10241   3.868   2.130   5.761
  102OSM   C11S10242   4.056   2.191   5.666
  102OSM   H11S10243   4.114   2.096   5.656
  102OSM   H11T10244   4.143   2.259   5.677
  102OSM   C12S10245   3.995   2.213   5.532
  102OSM   H12S10246   3.958   2.317   5.536
  102OSM   H12T10247   3.904   2.150   5.521
  102OSM   C13S10248   4.100   2.201   5.419
  102OSM   H13S10249   4.163   2.115   5.448
  102OSM   H13T10250   4.172   2.286   5.419
  102OSM   C14S10251   4.035   2.195   5.282
  102OSM   H14S10252   3.956   2.271   5.265
  102OSM   H14T10253   3.977   2.100   5.284
  102OSM   C15S10254   4.135   2.184   5.165
  102OSM   H15S10255   4.186   2.087   5.183
  102OSM   H15T10256   4.208   2.266   5.184
  102OSM   C16S10257   4.063   2.168   5.031
  102OSM   H16S10258   4.008   2.263   5.013
  102OSM   H16T10259   3.985   2.090   5.029
  102OSM   C17S10260   4.159   2.175   4.910
  102OSM   H17S10261   4.255   2.129   4.940
  102OSM   H17T10262   4.189   2.278   4.882
  102OSM   C18S10263   4.101   2.089   4.802
  102OSM   H18S10264   4.158   2.085   4.707
  102OSM   H18T10265   3.999   2.122   4.776
  102OSM   H18U10266   4.091   1.985   4.841
  102OSM    C1F10267   4.492   1.738   6.238
  102OSM     OF10268   4.444   1.633   6.275
  102OSM    C2F10269   4.573   1.751   6.121
  102OSM    H2F10270   4.670   1.697   6.131
  102OSM    H2G10271   4.598   1.859   6.112
  102OSM    C3F10272   4.498   1.715   5.994
  102OSM    H3F10273   4.448   1.617   6.006
  102OSM    H3G10274   4.569   1.703   5.909
  102OSM    C4F10275   4.389   1.812   5.946
  102OSM    H4F10276   4.420   1.917   5.967
  102OSM    H4G10277   4.304   1.776   6.007
  102OSM    C5F10278   4.339   1.795   5.804
  102OSM    H5F10279   4.247   1.856   5.789
  102OSM    H5G10280   4.316   1.694   5.764
  102OSM    C6F10281   4.436   1.852   5.693
  102OSM    H6F10282   4.529   1.792   5.689
  102OSM    H6G10283   4.451   1.960   5.715
  102OSM    C7F10284   4.374   1.847   5.552
  102OSM    H7F10285   4.277   1.900   5.544
  102OSM    H7G10286   4.361   1.743   5.515
  102OSM    C8F10287   4.469   1.904   5.449
  102OSM    H8F10288   4.441   1.872   5.347
  102OSM    H8G10289   4.563   1.848   5.466
  102OSM    C9F10290   4.489   2.050   5.458
  102OSM    H9F10291   4.468   2.100   5.553
  102OSM   C10F10292   4.541   2.129   5.363
  102OSM   H10F10293   4.547   2.238   5.375
  102OSM   C11F10294   4.604   2.090   5.231
  102OSM   H11F10295   4.586   1.983   5.208
  102OSM   H11G10296   4.716   2.089   5.233
  102OSM   C12F10297   4.555   2.172   5.111
  102OSM   H12F10298   4.598   2.272   5.134
  102OSM   H12G10299   4.445   2.163   5.108
  102OSM   C13F10300   4.606   2.130   4.976
  102OSM   H13F10301   4.571   2.033   4.934
  102OSM   H13G10302   4.717   2.131   4.973
  102OSM   C14F10303   4.564   2.229   4.872
  102OSM   H14F10304   4.605   2.330   4.896
  102OSM   H14G10305   4.453   2.241   4.869
  102OSM   C15F10306   4.623   2.195   4.729
  102OSM   H15F10307   4.572   2.097   4.710
  102OSM   H15G10308   4.731   2.172   4.730
  102OSM   C16F10309   4.574   2.294   4.628
  102OSM   H16F10310   4.631   2.388   4.644
  102OSM   H16G10311   4.465   2.297   4.650
  102OSM   C17F10312   4.602   2.255   4.482
  102OSM   H17F10313   4.564   2.332   4.412
  102OSM   H17G10314   4.544   2.165   4.456
  102OSM   C18F10315   4.745   2.228   4.444
  102OSM   H18F10316   4.756   2.213   4.335
  102OSM   H18G10317   4.783   2.136   4.493
  102OSM   H18H10318   4.803   2.316   4.480
  103OSM      N10319   4.261   4.935   6.593
  103OSM    C1510320   4.332   5.064   6.636
  103OSM   H15A10321   4.346   5.063   6.743
  103OSM   H15B10322   4.271   5.153   6.629
  103OSM   H15C10323   4.428   5.063   6.587
  103OSM    C1410324   4.370   4.843   6.596
  103OSM   H14A10325   4.345   4.737   6.597
  103OSM   H14B10326   4.437   4.855   6.681
  103OSM   H14C10327   4.430   4.848   6.507
  103OSM    C1310328   4.150   4.912   6.695
  103OSM   H13A10329   4.186   4.895   6.796
  103OSM   H13B10330   4.092   4.832   6.652
  103OSM   H13C10331   4.090   5.000   6.710
  103OSM    C1210332   4.205   4.955   6.454
  103OSM   H12A10333   4.289   4.981   6.391
  103OSM   H12B10334   4.138   5.040   6.454
  103OSM    C1110335   4.126   4.845   6.382
  103OSM   H11A10336   4.194   4.757   6.387
  103OSM   H11B10337   4.108   4.875   6.277
  103OSM      P10338   3.948   4.668   6.451
  103OSM    O1310339   3.987   4.601   6.574
  103OSM    O1410340   3.802   4.681   6.423
  103OSM    O1110341   4.006   4.598   6.314
  103OSM    O1210342   4.010   4.810   6.457
  103OSM    C1S10343   4.071   4.477   6.316
  103OSM    H1S10344   4.007   4.394   6.351
  103OSM    H1T10345   4.159   4.481   6.384
  103OSM     NF10346   4.182   4.302   6.180
  103OSM    HNF10347   4.281   4.309   6.170
  103OSM    C2S10348   4.123   4.438   6.177
  103OSM    H2S10349   4.028   4.427   6.119
  103OSM    C3S10350   4.214   4.546   6.118
  103OSM    H3S10351   4.312   4.531   6.167
  103OSM     O310352   4.176   4.681   6.134
  103OSM    HO310353   4.107   4.679   6.202
  103OSM    C4S10354   4.239   4.518   5.970
  103OSM    H4S10355   4.157   4.553   5.905
  103OSM    C5S10356   4.346   4.472   5.910
  103OSM    H5S10357   4.431   4.450   5.976
  103OSM    C6S10358   4.385   4.447   5.771
  103OSM    H6S10359   4.442   4.352   5.772
  103OSM    H6T10360   4.459   4.522   5.736
  103OSM    C7S10361   4.260   4.439   5.677
  103OSM    H7S10362   4.193   4.527   5.682
  103OSM    H7T10363   4.202   4.348   5.706
  103OSM    C8S10364   4.293   4.416   5.526
  103OSM    H8S10365   4.199   4.390   5.473
  103OSM    H8T10366   4.354   4.324   5.516
  103OSM    C9S10367   4.386   4.518   5.466
  103OSM    H9S10368   4.488   4.481   5.489
  103OSM    H9T10369   4.381   4.612   5.526
  103OSM   C10S10370   4.369   4.544   5.315
  103OSM   H10S10371   4.460   4.601   5.288
  103OSM   H10T10372   4.282   4.608   5.289
  103OSM   C11S10373   4.351   4.419   5.228
  103OSM   H11S10374   4.246   4.388   5.246
  103OSM   H11T10375   4.413   4.329   5.251
  103OSM   C12S10376   4.344   4.440   5.075
  103OSM   H12S10377   4.290   4.533   5.046
  103OSM   H12T10378   4.289   4.351   5.036
  103OSM   C13S10379   4.471   4.461   4.998
  103OSM   H13S10380   4.534   4.371   5.009
  103OSM   H13T10381   4.524   4.550   5.038
  103OSM   C14S10382   4.444   4.487   4.853
  103OSM   H14S10383   4.542   4.518   4.809
  103OSM   H14T10384   4.377   4.575   4.841
  103OSM   C15S10385   4.404   4.363   4.764
  103OSM   H15S10386   4.333   4.308   4.829
  103OSM   H15T10387   4.484   4.285   4.760
  103OSM   C16S10388   4.340   4.390   4.625
  103OSM   H16S10389   4.413   4.421   4.546
  103OSM   H16T10390   4.273   4.474   4.651
  103OSM   C17S10391   4.248   4.273   4.575
  103OSM   H17S10392   4.155   4.266   4.634
  103OSM   H17T10393   4.306   4.181   4.599
  103OSM   C18S10394   4.206   4.288   4.434
  103OSM   H18S10395   4.146   4.380   4.416
  103OSM   H18T10396   4.135   4.207   4.409
  103OSM   H18U10397   4.289   4.290   4.361
  103OSM    C1F10398   4.110   4.190   6.204
  103OSM     OF10399   3.986   4.197   6.218
  103OSM    C2F10400   4.174   4.058   6.205
  103OSM    H2F10401   4.196   4.026   6.309
  103OSM    H2G10402   4.273   4.073   6.157
  103OSM    C3F10403   4.090   3.949   6.135
  103OSM    H3F10404   4.010   3.912   6.204
  103OSM    H3G10405   4.151   3.856   6.125
  103OSM    C4F10406   4.036   3.979   5.988
  103OSM    H4F10407   3.961   4.061   5.987
  103OSM    H4G10408   3.982   3.885   5.962
  103OSM    C5F10409   4.162   4.007   5.894
  103OSM    H5F10410   4.238   3.927   5.904
  103OSM    H5G10411   4.210   4.100   5.929
  103OSM    C6F10412   4.125   4.041   5.743
  103OSM    H6F10413   4.064   4.134   5.742
  103OSM    H6G10414   4.065   3.957   5.703
  103OSM    C7F10415   4.245   4.061   5.653
  103OSM    H7F10416   4.308   3.970   5.657
  103OSM    H7G10417   4.303   4.147   5.693
  103OSM    C8F10418   4.208   4.082   5.509
  103OSM    H8F10419   4.299   4.108   5.451
  103OSM    H8G10420   4.153   4.174   5.479
  103OSM    C9F10421   4.139   3.966   5.450
  103OSM    H9F10422   4.164   3.866   5.489
  103OSM   C10F10423   4.046   3.970   5.350
  103OSM   H10F10424   4.003   3.875   5.314
  103OSM   C11F10425   4.002   4.094   5.264
  103OSM   H11F10426   4.043   4.193   5.293
  103OSM   H11G10427   3.894   4.115   5.256
  103OSM   C12F10428   4.041   4.070   5.114
  103OSM   H12F10429   4.027   3.963   5.090
  103OSM   H12G10430   4.151   4.087   5.102
  103OSM   C13F10431   3.970   4.171   5.022
  103OSM   H13F10432   4.004   4.271   5.054
  103OSM   H13G10433   3.860   4.156   5.032
  103OSM   C14F10434   4.004   4.138   4.874
  103OSM   H14F10435   4.112   4.153   4.853
  103OSM   H14G10436   3.958   4.218   4.813
  103OSM   C15F10437   3.957   3.996   4.826
  103OSM   H15F10438   3.847   3.997   4.811
  103OSM   H15G10439   3.999   3.925   4.900
  103OSM   C16F10440   4.008   3.971   4.679
  103OSM   H16F10441   4.119   3.982   4.686
  103OSM   H16G10442   3.975   4.046   4.603
  103OSM   C17F10443   3.975   3.837   4.612
  103OSM   H17F10444   3.976   3.755   4.687
  103OSM   H17G10445   4.050   3.802   4.538
  103OSM   C18F10446   3.833   3.857   4.562
  103OSM   H18F10447   3.780   3.927   4.630
  103OSM   H18G10448   3.768   3.769   4.544
  103OSM   H18H10449   3.828   3.910   4.465
  104OSM      N10450   5.416   3.315   6.694
  104OSM    C1510451   5.355   3.450   6.702
  104OSM   H15A10452   5.388   3.512   6.619
  104OSM   H15B10453   5.399   3.499   6.788
  104OSM   H15C10454   5.248   3.451   6.706
  104OSM    C1410455   5.365   3.238   6.817
  104OSM   H14A10456   5.398   3.279   6.911
  104OSM   H14B10457   5.404   3.137   6.818
  104OSM   H14C10458   5.257   3.239   6.813
  104OSM    C1310459   5.377   3.255   6.567
  104OSM   H13A10460   5.270   3.242   6.559
  104OSM   H13B10461   5.431   3.162   6.554
  104OSM   H13C10462   5.403   3.322   6.487
  104OSM    C1210463   5.567   3.328   6.691
  104OSM   H12A10464   5.611   3.379   6.776
  104OSM   H12B10465   5.583   3.380   6.597
  104OSM    C1110466   5.655   3.194   6.675
  104OSM   H11A10467   5.761   3.226   6.675
  104OSM   H11B10468   5.633   3.150   6.576
  104OSM      P10469   5.725   2.969   6.782
  104OSM    O1310470   5.863   3.015   6.788
  104OSM    O1410471   5.689   2.883   6.898
  104OSM    O1110472   5.687   2.895   6.648
  104OSM    O1210473   5.633   3.097   6.779
  104OSM    C1S10474   5.553   2.863   6.623
  104OSM    H1S10475   5.504   2.962   6.614
  104OSM    H1T10476   5.521   2.811   6.716
  104OSM     NF10477   5.394   2.774   6.469
  104OSM    HNF10478   5.340   2.695   6.496
  104OSM    C2S10479   5.531   2.782   6.492
  104OSM    H2S10480   5.569   2.839   6.405
  104OSM    C3S10481   5.599   2.646   6.503
  104OSM    H3S10482   5.543   2.573   6.565
  104OSM     O310483   5.734   2.652   6.547
  104OSM    HO310484   5.746   2.728   6.605
  104OSM    C4S10485   5.587   2.591   6.364
  104OSM    H4S10486   5.508   2.516   6.353
  104OSM    C5S10487   5.645   2.625   6.253
  104OSM    H5S10488   5.708   2.715   6.250
  104OSM    C6S10489   5.611   2.569   6.119
  104OSM    H6S10490   5.554   2.635   6.049
  104OSM    H6T10491   5.533   2.490   6.124
  104OSM    C7S10492   5.740   2.513   6.062
  104OSM    H7S10493   5.811   2.470   6.136
  104OSM    H7T10494   5.793   2.599   6.016
  104OSM    C8S10495   5.711   2.396   5.962
  104OSM    H8S10496   5.650   2.433   5.877
  104OSM    H8T10497   5.645   2.325   6.017
  104OSM    C9S10498   5.845   2.342   5.906
  104OSM    H9S10499   5.840   2.234   5.879
  104OSM    H9T10500   5.920   2.344   5.988
  104OSM   C10S10501   5.886   2.421   5.777
  104OSM   H10S10502   5.986   2.394   5.737
  104OSM   H10T10503   5.904   2.526   5.811
  104OSM   C11S10504   5.790   2.414   5.662
  104OSM   H11S10505   5.698   2.476   5.673
  104OSM   H11T10506   5.758   2.309   5.644
  104OSM   C12S10507   5.853   2.453   5.528
  104OSM   H12S10508   5.947   2.394   5.515
  104OSM   H12T10509   5.880   2.560   5.543
  104OSM   C13S10510   5.759   2.443   5.409
  104OSM   H13S10511   5.670   2.507   5.428
  104OSM   H13T10512   5.718   2.340   5.417
  104OSM   C14S10513   5.807   2.482   5.266
  104OSM   H14S10514   5.906   2.438   5.241
  104OSM   H14T10515   5.839   2.588   5.252
  104OSM   C15S10516   5.692   2.464   5.157
  104OSM   H15S10517   5.664   2.356   5.154
  104OSM   H15T10518   5.735   2.487   5.057
  104OSM   C16S10519   5.568   2.549   5.172
  104OSM   H16S10520   5.585   2.651   5.213
  104OSM   H16T10521   5.514   2.505   5.259
  104OSM   C17S10522   5.471   2.554   5.045
  104OSM   H17S10523   5.466   2.451   5.004
  104OSM   H17T10524   5.515   2.616   4.964
  104OSM   C18S10525   5.324   2.598   5.079
  104OSM   H18S10526   5.263   2.517   5.123
  104OSM   H18T10527   5.280   2.631   4.983
  104OSM   H18U10528   5.334   2.680   5.154
  104OSM    C1F10529   5.325   2.882   6.416
  104OSM     OF10530   5.390   2.982   6.392
  104OSM    C2F10531   5.177   2.868   6.381
  104OSM    H2F10532   5.107   2.912   6.455
  104OSM    H2G10533   5.165   2.758   6.379
  104OSM    C3F10534   5.146   2.947   6.248
  104OSM    H3F10535   5.163   3.053   6.273
  104OSM    H3G10536   5.039   2.934   6.220
  104OSM    C4F10537   5.227   2.911   6.127
  104OSM    H4F10538   5.336   2.917   6.149
  104OSM    H4G10539   5.212   2.968   6.033
  104OSM    C5F10540   5.186   2.767   6.096
  104OSM    H5F10541   5.075   2.774   6.097
  104OSM    H5G10542   5.219   2.707   6.184
  104OSM    C6F10543   5.234   2.713   5.959
  104OSM    H6F10544   5.343   2.699   5.978
  104OSM    H6G10545   5.204   2.774   5.871
  104OSM    C7F10546   5.178   2.561   5.930
  104OSM    H7F10547   5.069   2.571   5.949
  104OSM    H7G10548   5.203   2.491   6.013
  104OSM    C8F10549   5.204   2.501   5.793
  104OSM    H8F10550   5.137   2.547   5.717
  104OSM    H8G10551   5.175   2.394   5.789
  104OSM    C9F10552   5.351   2.507   5.746
  104OSM    H9F10553   5.420   2.436   5.793
  104OSM   C10F10554   5.395   2.577   5.643
  104OSM   H10F10555   5.501   2.568   5.613
  104OSM   C11F10556   5.313   2.671   5.555
  104OSM   H11F10557   5.257   2.748   5.612
  104OSM   H11G10558   5.251   2.627   5.475
  104OSM   C12F10559   5.407   2.757   5.461
  104OSM   H12F10560   5.474   2.696   5.396
  104OSM   H12G10561   5.484   2.818   5.512
  104OSM   C13F10562   5.320   2.845   5.375
  104OSM   H13F10563   5.257   2.905   5.443
  104OSM   H13G10564   5.260   2.780   5.308
  104OSM   C14F10565   5.405   2.934   5.284
  104OSM   H14F10566   5.500   2.878   5.266
  104OSM   H14G10567   5.450   3.026   5.327
  104OSM   C15F10568   5.341   2.978   5.154
  104OSM   H15F10569   5.288   3.075   5.168
  104OSM   H15G10570   5.263   2.906   5.124
  104OSM   C16F10571   5.434   2.995   5.036
  104OSM   H16F10572   5.518   2.923   5.021
  104OSM   H16G10573   5.478   3.096   5.044
  104OSM   C17F10574   5.344   3.009   4.907
  104OSM   H17F10575   5.263   3.079   4.938
  104OSM   H17G10576   5.296   2.911   4.885
  104OSM   C18F10577   5.431   3.046   4.789
  104OSM   H18F10578   5.464   2.967   4.719
  104OSM   H18G10579   5.522   3.099   4.823
  104OSM   H18H10580   5.368   3.115   4.728
  105OSM      N10581   5.689   4.122   6.911
  105OSM    C1510582   5.828   4.113   6.955
  105OSM   H15A10583   5.858   4.009   6.961
  105OSM   H15B10584   5.835   4.155   7.054
  105OSM   H15C10585   5.893   4.170   6.891
  105OSM    C1410586   5.607   4.025   6.987
  105OSM   H14A10587   5.503   4.030   6.961
  105OSM   H14B10588   5.621   4.035   7.093
  105OSM   H14C10589   5.641   3.925   6.962
  105OSM    C1310590   5.639   4.266   6.933
  105OSM   H13A10591   5.637   4.293   7.038
  105OSM   H13B10592   5.542   4.280   6.888
  105OSM   H13C10593   5.707   4.327   6.877
  105OSM    C1210594   5.689   4.087   6.768
  105OSM   H12A10595   5.741   4.162   6.710
  105OSM   H12B10596   5.586   4.091   6.738
  105OSM    C1110597   5.758   3.953   6.728
  105OSM   H11A10598   5.865   3.948   6.757
  105OSM   H11B10599   5.740   3.949   6.618
  105OSM      P10600   5.598   3.750   6.706
  105OSM    O1310601   5.595   3.630   6.781
  105OSM    O1410602   5.464   3.808   6.675
  105OSM    O1110603   5.670   3.733   6.574
  105OSM    O1210604   5.683   3.850   6.793
  105OSM    C1S10605   5.792   3.669   6.536
  105OSM    H1S10606   5.792   3.560   6.558
  105OSM    H1T10607   5.874   3.720   6.590
  105OSM     NF10608   5.949   3.621   6.349
  105OSM    HNF10609   6.027   3.680   6.333
  105OSM    C2S10610   5.818   3.674   6.385
  105OSM    H2S10611   5.740   3.611   6.336
  105OSM    C3S10612   5.803   3.814   6.329
  105OSM    H3S10613   5.878   3.881   6.377
  105OSM     O310614   5.676   3.869   6.353
  105OSM    HO310615   5.631   3.812   6.416
  105OSM    C4S10616   5.825   3.822   6.176
  105OSM    H4S10617   5.741   3.808   6.107
  105OSM    C5S10618   5.946   3.849   6.115
  105OSM    H5S10619   6.036   3.874   6.172
  105OSM    C6S10620   5.974   3.848   5.962
  105OSM    H6S10621   6.058   3.779   5.941
  105OSM    H6T10622   6.003   3.951   5.930
  105OSM    C7S10623   5.868   3.810   5.860
  105OSM    H7S10624   5.781   3.880   5.861
  105OSM    H7T10625   5.820   3.711   5.876
  105OSM    C8S10626   5.932   3.811   5.715
  105OSM    H8S10627   6.006   3.728   5.719
  105OSM    H8T10628   5.979   3.911   5.716
  105OSM    C9S10629   5.829   3.812   5.607
  105OSM    H9S10630   5.750   3.886   5.631
  105OSM    H9T10631   5.777   3.714   5.605
  105OSM   C10S10632   5.882   3.841   5.458
  105OSM   H10S10633   5.940   3.756   5.416
  105OSM   H10T10634   5.954   3.923   5.483
  105OSM   C11S10635   5.770   3.863   5.362
  105OSM   H11S10636   5.725   3.961   5.389
  105OSM   H11T10637   5.694   3.783   5.380
  105OSM   C12S10638   5.812   3.856   5.212
  105OSM   H12S10639   5.837   3.748   5.203
  105OSM   H12T10640   5.912   3.898   5.193
  105OSM   C13S10641   5.719   3.913   5.118
  105OSM   H13S10642   5.724   4.024   5.122
  105OSM   H13T10643   5.617   3.885   5.151
  105OSM   C14S10644   5.740   3.861   4.975
  105OSM   H14S10645   5.644   3.862   4.920
  105OSM   H14T10646   5.788   3.760   4.970
  105OSM   C15S10647   5.827   3.963   4.893
  105OSM   H15S10648   5.934   3.955   4.923
  105OSM   H15T10649   5.787   4.064   4.916
  105OSM   C16S10650   5.810   3.929   4.742
  105OSM   H16S10651   5.887   3.991   4.692
  105OSM   H16T10652   5.711   3.970   4.712
  105OSM   C17S10653   5.829   3.782   4.704
  105OSM   H17S10654   5.730   3.739   4.732
  105OSM   H17T10655   5.892   3.721   4.773
  105OSM   C18S10656   5.879   3.770   4.563
  105OSM   H18S10657   5.866   3.666   4.527
  105OSM   H18T10658   5.982   3.812   4.562
  105OSM   H18U10659   5.806   3.843   4.522
  105OSM    C1F10660   5.965   3.490   6.346
  105OSM     OF10661   5.871   3.417   6.368
  105OSM    C2F10662   6.106   3.438   6.326
  105OSM    H2F10663   6.157   3.429   6.423
  105OSM    H2G10664   6.177   3.511   6.280
  105OSM    C3F10665   6.105   3.307   6.244
  105OSM    H3F10666   6.047   3.227   6.294
  105OSM    H3G10667   6.209   3.278   6.222
  105OSM    C4F10668   6.039   3.321   6.104
  105OSM    H4F10669   5.931   3.343   6.119
  105OSM    H4G10670   6.045   3.225   6.050
  105OSM    C5F10671   6.095   3.438   6.009
  105OSM    H5F10672   6.204   3.427   5.992
  105OSM    H5G10673   6.074   3.534   6.061
  105OSM    C6F10674   6.039   3.438   5.865
  105OSM    H6F10675   6.063   3.543   5.836
  105OSM    H6G10676   5.931   3.415   5.877
  105OSM    C7F10677   6.096   3.347   5.758
  105OSM    H7F10678   6.119   3.247   5.801
  105OSM    H7G10679   6.193   3.385   5.720
  105OSM    C8F10680   6.004   3.322   5.633
  105OSM    H8F10681   5.899   3.300   5.658
  105OSM    H8G10682   6.038   3.236   5.571
  105OSM    C9F10683   5.995   3.438   5.537
  105OSM    H9F10684   5.944   3.524   5.581
  105OSM   C10F10685   6.013   3.431   5.401
  105OSM   H10F10686   5.994   3.521   5.341
  105OSM   C11F10687   6.058   3.309   5.318
  105OSM   H11F10688   6.109   3.235   5.385
  105OSM   H11G10689   6.130   3.337   5.238
  105OSM   C12F10690   5.949   3.237   5.240
  105OSM   H12F10691   5.866   3.199   5.303
  105OSM   H12G10692   5.982   3.146   5.186
  105OSM   C13F10693   5.885   3.327   5.128
  105OSM   H13F10694   5.973   3.360   5.070
  105OSM   H13G10695   5.829   3.410   5.176
  105OSM   C14F10696   5.781   3.278   5.026
  105OSM   H14F10697   5.690   3.242   5.079
  105OSM   H14G10698   5.820   3.196   4.961
  105OSM   C15F10699   5.743   3.394   4.941
  105OSM   H15F10700   5.838   3.428   4.894
  105OSM   H15G10701   5.716   3.480   5.007
  105OSM   C16F10702   5.636   3.366   4.829
  105OSM   H16F10703   5.552   3.317   4.883
  105OSM   H16G10704   5.679   3.301   4.750
  105OSM   C17F10705   5.598   3.500   4.755
  105OSM   H17F10706   5.688   3.542   4.704
  105OSM   H17G10707   5.578   3.588   4.820
  105OSM   C18F10708   5.493   3.485   4.647
  105OSM   H18F10709   5.522   3.419   4.563
  105OSM   H18G10710   5.462   3.584   4.607
  105OSM   H18H10711   5.400   3.439   4.687
  106OSM      N10712   4.337   1.393   7.214
  106OSM    C1510713   4.439   1.354   7.314
  106OSM   H15A10714   4.496   1.276   7.265
  106OSM   H15B10715   4.404   1.314   7.407
  106OSM   H15C10716   4.499   1.443   7.327
  106OSM    C1410717   4.238   1.275   7.204
  106OSM   H14A10718   4.294   1.184   7.194
  106OSM   H14B10719   4.168   1.294   7.124
  106OSM   H14C10720   4.176   1.257   7.290
  106OSM    C1310721   4.261   1.513   7.265
  106OSM   H13A10722   4.205   1.488   7.354
  106OSM   H13B10723   4.191   1.551   7.193
  106OSM   H13C10724   4.325   1.593   7.299
  106OSM    C1210725   4.395   1.434   7.082
  106OSM   H12A10726   4.468   1.362   7.048
  106OSM   H12B10727   4.448   1.528   7.091
  106OSM    C1110728   4.299   1.452   6.957
  106OSM   H11A10729   4.349   1.505   6.874
  106OSM   H11B10730   4.213   1.511   6.996
  106OSM      P10731   4.160   1.307   6.797
  106OSM    O1310732   4.190   1.188   6.717
  106OSM    O1410733   4.021   1.308   6.845
  106OSM    O1110734   4.174   1.425   6.698
  106OSM    O1210735   4.262   1.327   6.907
  106OSM    C1S10736   4.288   1.447   6.615
  106OSM    H1S10737   4.391   1.423   6.650
  106OSM    H1T10738   4.302   1.553   6.586
  106OSM     NF10739   4.409   1.396   6.401
  106OSM    HNF10740   4.421   1.483   6.353
  106OSM    C2S10741   4.278   1.379   6.470
  106OSM    H2S10742   4.248   1.272   6.478
  106OSM    C3S10743   4.152   1.441   6.409
  106OSM    H3S10744   4.162   1.552   6.403
  106OSM     O310745   4.031   1.398   6.470
  106OSM    HO310746   4.059   1.371   6.558
  106OSM    C4S10747   4.145   1.393   6.267
  106OSM    H4S10748   4.129   1.285   6.258
  106OSM    C5S10749   4.151   1.475   6.155
  106OSM    H5S10750   4.162   1.584   6.165
  106OSM    C6S10751   4.133   1.433   6.007
  106OSM    H6S10752   4.114   1.324   5.997
  106OSM    H6T10753   4.226   1.448   5.948
  106OSM    C7S10754   4.009   1.511   5.959
  106OSM    H7S10755   4.027   1.616   5.989
  106OSM    H7T10756   3.914   1.491   6.014
  106OSM    C8S10757   3.988   1.504   5.808
  106OSM    H8S10758   3.942   1.408   5.775
  106OSM    H8T10759   4.091   1.518   5.769
  106OSM    C9S10760   3.913   1.619   5.736
  106OSM    H9S10761   3.960   1.713   5.773
  106OSM    H9T10762   3.812   1.625   5.783
  106OSM   C10S10763   3.902   1.610   5.580
  106OSM   H10S10764   3.820   1.677   5.546
  106OSM   H10T10765   3.881   1.505   5.548
  106OSM   C11S10766   4.026   1.662   5.493
  106OSM   H11S10767   4.105   1.584   5.504
  106OSM   H11T10768   4.068   1.753   5.542
  106OSM   C12S10769   3.982   1.698   5.353
  106OSM   H12S10770   3.925   1.793   5.360
  106OSM   H12T10771   3.937   1.606   5.309
  106OSM   C13S10772   4.099   1.721   5.257
  106OSM   H13S10773   4.153   1.629   5.227
  106OSM   H13T10774   4.170   1.786   5.312
  106OSM   C14S10775   4.046   1.781   5.128
  106OSM   H14S10776   4.131   1.831   5.076
  106OSM   H14T10777   3.966   1.855   5.146
  106OSM   C15S10778   3.983   1.687   5.028
  106OSM   H15S10779   3.890   1.654   5.079
  106OSM   H15T10780   4.047   1.600   5.000
  106OSM   C16S10781   3.941   1.749   4.895
  106OSM   H16S10782   4.032   1.766   4.833
  106OSM   H16T10783   3.894   1.843   4.931
  106OSM   C17S10784   3.826   1.691   4.809
  106OSM   H17S10785   3.794   1.776   4.743
  106OSM   H17T10786   3.740   1.650   4.865
  106OSM   C18S10787   3.878   1.575   4.729
  106OSM   H18S10788   3.976   1.588   4.679
  106OSM   H18T10789   3.811   1.543   4.647
  106OSM   H18U10790   3.894   1.490   4.799
  106OSM    C1F10791   4.514   1.318   6.404
  106OSM     OF10792   4.515   1.206   6.455
  106OSM    C2F10793   4.641   1.376   6.366
  106OSM    H2F10794   4.688   1.405   6.462
  106OSM    H2G10795   4.619   1.466   6.304
  106OSM    C3F10796   4.728   1.276   6.289
  106OSM    H3F10797   4.753   1.189   6.354
  106OSM    H3G10798   4.821   1.318   6.247
  106OSM    C4F10799   4.662   1.228   6.156
  106OSM    H4F10800   4.574   1.163   6.174
  106OSM    H4G10801   4.738   1.160   6.111
  106OSM    C5F10802   4.636   1.352   6.071
  106OSM    H5F10803   4.710   1.433   6.094
  106OSM    H5G10804   4.534   1.388   6.095
  106OSM    C6F10805   4.644   1.308   5.927
  106OSM    H6F10806   4.574   1.223   5.908
  106OSM    H6G10807   4.744   1.270   5.899
  106OSM    C7F10808   4.623   1.415   5.820
  106OSM    H7F10809   4.699   1.495   5.832
  106OSM    H7G10810   4.533   1.477   5.839
  106OSM    C8F10811   4.648   1.356   5.679
  106OSM    H8F10812   4.593   1.259   5.677
  106OSM    H8G10813   4.754   1.326   5.664
  106OSM    C9F10814   4.597   1.447   5.570
  106OSM    H9F10815   4.524   1.523   5.600
  106OSM   C10F10816   4.648   1.447   5.445
  106OSM   H10F10817   4.601   1.512   5.370
  106OSM   C11F10818   4.772   1.368   5.404
  106OSM   H11F10819   4.793   1.268   5.448
  106OSM   H11G10820   4.870   1.419   5.419
  106OSM   C12F10821   4.761   1.326   5.253
  106OSM   H12F10822   4.673   1.258   5.252
  106OSM   H12G10823   4.840   1.251   5.231
  106OSM   C13F10824   4.768   1.443   5.143
  106OSM   H13F10825   4.840   1.516   5.186
  106OSM   H13G10826   4.668   1.492   5.139
  106OSM   C14F10827   4.822   1.401   5.001
  106OSM   H14F10828   4.925   1.364   5.020
  106OSM   H14G10829   4.837   1.499   4.952
  106OSM   C15F10830   4.742   1.309   4.910
  106OSM   H15F10831   4.642   1.355   4.897
  106OSM   H15G10832   4.738   1.213   4.967
  106OSM   C16F10833   4.800   1.286   4.766
  106OSM   H16F10834   4.737   1.202   4.729
  106OSM   H16G10835   4.904   1.249   4.751
  106OSM   C17F10836   4.779   1.407   4.676
  106OSM   H17F10837   4.837   1.496   4.708
  106OSM   H17G10838   4.671   1.434   4.671
  106OSM   C18F10839   4.829   1.381   4.528
  106OSM   H18F10840   4.830   1.475   4.469
  106OSM   H18G10841   4.754   1.316   4.478
  106OSM   H18H10842   4.927   1.330   4.513
  107OSM      N10843   3.563   6.148   6.950
  107OSM    C1510844   3.510   6.013   6.920
  107OSM   H15A10845   3.459   5.968   7.004
  107OSM   H15B10846   3.604   5.963   6.901
  107OSM   H15C10847   3.444   6.016   6.835
  107OSM    C1410848   3.455   6.255   6.965
  107OSM   H14A10849   3.491   6.356   6.981
  107OSM   H14B10850   3.380   6.231   7.038
  107OSM   H14C10851   3.397   6.259   6.874
  107OSM    C1310852   3.627   6.136   7.086
  107OSM   H13A10853   3.707   6.064   7.084
  107OSM   H13B10854   3.562   6.106   7.167
  107OSM   H13C10855   3.671   6.229   7.118
  107OSM    C1210856   3.670   6.193   6.846
  107OSM   H12A10857   3.737   6.109   6.836
  107OSM   H12B10858   3.731   6.272   6.886
  107OSM    C1110859   3.610   6.226   6.709
  107OSM   H11A10860   3.540   6.141   6.692
  107OSM   H11B10861   3.674   6.217   6.619
  107OSM      P10862   3.596   6.476   6.704
  107OSM    O1310863   3.515   6.584   6.771
  107OSM    O1410864   3.740   6.470   6.748
  107OSM    O1110865   3.597   6.506   6.551
  107OSM    O1210866   3.528   6.342   6.708
  107OSM    C1S10867   3.468   6.512   6.489
  107OSM    H1S10868   3.418   6.610   6.502
  107OSM    H1T10869   3.400   6.442   6.543
  107OSM     NF10870   3.354   6.466   6.267
  107OSM    HNF10871   3.318   6.373   6.262
  107OSM    C2S10872   3.485   6.471   6.337
  107OSM    H2S10873   3.546   6.552   6.294
  107OSM    C3S10874   3.566   6.346   6.319
  107OSM    H3S10875   3.519   6.269   6.383
  107OSM     O310876   3.700   6.346   6.365
  107OSM    HO310877   3.695   6.411   6.435
  107OSM    C4S10878   3.566   6.298   6.174
  107OSM    H4S10879   3.558   6.387   6.110
  107OSM    C5S10880   3.540   6.179   6.121
  107OSM    H5S10881   3.527   6.098   6.194
  107OSM    C6S10882   3.534   6.137   5.979
  107OSM    H6S10883   3.433   6.098   5.955
  107OSM    H6T10884   3.609   6.057   5.962
  107OSM    C7S10885   3.571   6.245   5.868
  107OSM    H7S10886   3.680   6.263   5.877
  107OSM    H7T10887   3.518   6.338   5.896
  107OSM    C8S10888   3.547   6.199   5.720
  107OSM    H8S10889   3.438   6.186   5.702
  107OSM    H8T10890   3.602   6.104   5.704
  107OSM    C9S10891   3.586   6.306   5.604
  107OSM    H9S10892   3.691   6.343   5.617
  107OSM    H9T10893   3.519   6.394   5.599
  107OSM   C10S10894   3.585   6.244   5.468
  107OSM   H10S10895   3.673   6.176   5.468
  107OSM   H10T10896   3.610   6.314   5.385
  107OSM   C11S10897   3.456   6.167   5.427
  107OSM   H11S10898   3.368   6.234   5.416
  107OSM   H11T10899   3.425   6.103   5.512
  107OSM   C12S10900   3.478   6.079   5.303
  107OSM   H12S10901   3.537   5.993   5.342
  107OSM   H12T10902   3.538   6.141   5.233
  107OSM   C13S10903   3.350   6.041   5.235
  107OSM   H13S10904   3.283   6.128   5.220
  107OSM   H13T10905   3.294   5.975   5.304
  107OSM   C14S10906   3.365   5.960   5.110
  107OSM   H14S10907   3.400   5.857   5.130
  107OSM   H14T10908   3.442   5.998   5.040
  107OSM   C15S10909   3.233   5.954   5.030
  107OSM   H15S10910   3.201   6.060   5.018
  107OSM   H15T10911   3.164   5.896   5.094
  107OSM   C16S10912   3.262   5.877   4.897
  107OSM   H16S10913   3.323   5.785   4.913
  107OSM   H16T10914   3.311   5.954   4.834
  107OSM   C17S10915   3.134   5.817   4.835
  107OSM   H17S10916   3.052   5.887   4.866
  107OSM   H17T10917   3.120   5.714   4.874
  107OSM   C18S10918   3.145   5.812   4.684
  107OSM   H18S10919   3.046   5.783   4.645
  107OSM   H18T10920   3.220   5.736   4.653
  107OSM   H18U10921   3.176   5.910   4.641
  107OSM    C1F10922   3.285   6.577   6.239
  107OSM     OF10923   3.319   6.685   6.291
  107OSM    C2F10924   3.168   6.558   6.145
  107OSM    H2F10925   3.086   6.627   6.172
  107OSM    H2G10926   3.129   6.454   6.149
  107OSM    C3F10927   3.217   6.590   5.999
  107OSM    H3F10928   3.293   6.515   5.969
  107OSM    H3G10929   3.244   6.698   5.991
  107OSM    C4F10930   3.113   6.555   5.891
  107OSM    H4F10931   3.026   6.623   5.894
  107OSM    H4G10932   3.068   6.458   5.922
  107OSM    C5F10933   3.168   6.544   5.746
  107OSM    H5F10934   3.227   6.451   5.737
  107OSM    H5G10935   3.223   6.640   5.734
  107OSM    C6F10936   3.066   6.553   5.630
  107OSM    H6F10937   3.014   6.650   5.648
  107OSM    H6G10938   2.987   6.477   5.646
  107OSM    C7F10939   3.127   6.535   5.492
  107OSM    H7F10940   3.231   6.572   5.489
  107OSM    H7G10941   3.077   6.607   5.424
  107OSM    C8F10942   3.117   6.389   5.438
  107OSM    H8F10943   3.156   6.308   5.504
  107OSM    H8G10944   3.184   6.385   5.350
  107OSM    C9F10945   2.972   6.363   5.403
  107OSM    H9F10946   2.889   6.393   5.469
  107OSM   C10F10947   2.928   6.327   5.285
  107OSM   H10F10948   2.819   6.311   5.282
  107OSM   C11F10949   2.991   6.283   5.159
  107OSM   H11F10950   2.984   6.172   5.152
  107OSM   H11G10951   3.100   6.302   5.167
  107OSM   C12F10952   2.936   6.358   5.035
  107OSM   H12F10953   2.967   6.464   5.044
  107OSM   H12G10954   2.825   6.357   5.037
  107OSM   C13F10955   2.993   6.304   4.904
  107OSM   H13F10956   2.984   6.193   4.902
  107OSM   H13G10957   3.102   6.328   4.904
  107OSM   C14F10958   2.920   6.358   4.781
  107OSM   H14F10959   2.906   6.467   4.802
  107OSM   H14G10960   2.827   6.298   4.779
  107OSM   C15F10961   3.014   6.349   4.656
  107OSM   H15F10962   3.105   6.410   4.675
  107OSM   H15G10963   2.970   6.408   4.573
  107OSM   C16F10964   3.047   6.214   4.601
  107OSM   H16F10965   2.950   6.181   4.557
  107OSM   H16G10966   3.087   6.146   4.678
  107OSM   C17F10967   3.139   6.202   4.479
  107OSM   H17F10968   3.103   6.271   4.400
  107OSM   H17G10969   3.125   6.097   4.444
  107OSM   C18F10970   3.288   6.221   4.504
  107OSM   H18F10971   3.349   6.145   4.557
  107OSM   H18G10972   3.305   6.323   4.547
  107OSM   H18H10973   3.338   6.219   4.405
  108OSM      N10974   5.784   5.394   7.354
  108OSM    C1510975   5.640   5.399   7.396
  108OSM   H15A10976   5.604   5.499   7.376
  108OSM   H15B10977   5.613   5.368   7.496
  108OSM   H15C10978   5.585   5.345   7.321
  108OSM    C1410979   5.871   5.477   7.440
  108OSM   H14A10980   5.835   5.578   7.443
  108OSM   H14B10981   5.966   5.465   7.391
  108OSM   H14C10982   5.872   5.439   7.542
  108OSM    C1310983   5.839   5.253   7.361
  108OSM   H13A10984   5.762   5.180   7.339
  108OSM   H13B10985   5.855   5.226   7.465
  108OSM   H13C10986   5.923   5.243   7.295
  108OSM    C1210987   5.794   5.436   7.205
  108OSM   H12A10988   5.730   5.523   7.200
  108OSM   H12B10989   5.753   5.366   7.134
  108OSM    C1110990   5.932   5.480   7.148
  108OSM   H11A10991   5.972   5.557   7.217
  108OSM   H11B10992   5.920   5.513   7.042
  108OSM      P10993   6.175   5.387   7.120
  108OSM    O1310994   6.219   5.525   7.151
  108OSM    O1410995   6.254   5.282   7.181
  108OSM    O1110996   6.180   5.364   6.963
  108OSM    O1210997   6.017   5.366   7.152
  108OSM    C1S10998   6.166   5.482   6.877
  108OSM    H1S10999   6.246   5.555   6.900
  108OSM    H1T11000   6.066   5.530   6.886
  108OSM     NF11001   6.207   5.531   6.643
  108OSM    HNF11002   6.135   5.553   6.577
  108OSM    C2S11003   6.176   5.430   6.735
  108OSM    H2S11004   6.258   5.355   6.741
  108OSM    C3S11005   6.040   5.352   6.705
  108OSM    H3S11006   5.965   5.432   6.690
  108OSM     O311007   5.988   5.259   6.799
  108OSM    HO311008   6.034   5.285   6.879
  108OSM    C4S11009   6.059   5.283   6.566
  108OSM    H4S11010   6.025   5.339   6.477
  108OSM    C5S11011   6.114   5.163   6.548
  108OSM    H5S11012   6.149   5.113   6.639
  108OSM    C6S11013   6.134   5.092   6.418
  108OSM    H6S11014   6.030   5.071   6.387
  108OSM    H6T11015   6.195   5.002   6.437
  108OSM    C7S11016   6.196   5.166   6.302
  108OSM    H7S11017   6.307   5.171   6.312
  108OSM    H7T11018   6.163   5.271   6.286
  108OSM    C8S11019   6.164   5.100   6.168
  108OSM    H8S11020   6.054   5.093   6.157
  108OSM    H8T11021   6.223   5.007   6.151
  108OSM    C9S11022   6.194   5.200   6.054
  108OSM    H9S11023   6.305   5.204   6.048
  108OSM    H9T11024   6.141   5.293   6.084
  108OSM   C10S11025   6.140   5.145   5.924
  108OSM   H10S11026   6.031   5.128   5.934
  108OSM   H10T11027   6.185   5.053   5.880
  108OSM   C11S11028   6.155   5.241   5.800
  108OSM   H11S11029   6.113   5.336   5.838
  108OSM   H11T11030   6.092   5.215   5.712
  108OSM   C12S11031   6.304   5.276   5.761
  108OSM   H12S11032   6.362   5.181   5.754
  108OSM   H12T11033   6.349   5.317   5.854
  108OSM   C13S11034   6.318   5.373   5.644
  108OSM   H13S11035   6.422   5.407   5.621
  108OSM   H13T11036   6.268   5.467   5.674
  108OSM   C14S11037   6.264   5.321   5.517
  108OSM   H14S11038   6.154   5.307   5.521
  108OSM   H14T11039   6.294   5.217   5.491
  108OSM   C15S11040   6.294   5.418   5.400
  108OSM   H15S11041   6.398   5.420   5.359
  108OSM   H15T11042   6.286   5.523   5.433
  108OSM   C16S11043   6.206   5.385   5.280
  108OSM   H16S11044   6.100   5.388   5.312
  108OSM   H16T11045   6.230   5.282   5.248
  108OSM   C17S11046   6.223   5.490   5.174
  108OSM   H17S11047   6.328   5.485   5.139
  108OSM   H17T11048   6.201   5.587   5.222
  108OSM   C18S11049   6.124   5.483   5.051
  108OSM   H18S11050   6.168   5.551   4.975
  108OSM   H18T11051   6.017   5.508   5.069
  108OSM   H18U11052   6.134   5.380   5.012
  108OSM    C1F11053   6.326   5.585   6.644
  108OSM     OF11054   6.408   5.559   6.732
  108OSM    C2F11055   6.354   5.693   6.548
  108OSM    H2F11056   6.392   5.782   6.603
  108OSM    H2G11057   6.253   5.722   6.513
  108OSM    C3F11058   6.448   5.655   6.434
  108OSM    H3F11059   6.399   5.588   6.361
  108OSM    H3G11060   6.534   5.594   6.469
  108OSM    C4F11061   6.519   5.764   6.350
  108OSM    H4F11062   6.615   5.731   6.306
  108OSM    H4G11063   6.542   5.853   6.413
  108OSM    C5F11064   6.442   5.816   6.233
  108OSM    H5F11065   6.475   5.921   6.220
  108OSM    H5G11066   6.337   5.800   6.265
  108OSM    C6F11067   6.454   5.728   6.102
  108OSM    H6F11068   6.452   5.620   6.129
  108OSM    H6G11069   6.544   5.738   6.038
  108OSM    C7F11070   6.329   5.733   6.009
  108OSM    H7F11071   6.242   5.775   6.064
  108OSM    H7G11072   6.296   5.631   5.979
  108OSM    C8F11073   6.357   5.821   5.887
  108OSM    H8F11074   6.432   5.896   5.921
  108OSM    H8G11075   6.267   5.880   5.862
  108OSM    C9F11076   6.421   5.760   5.768
  108OSM    H9F11077   6.526   5.729   5.782
  108OSM   C10F11078   6.357   5.743   5.652
  108OSM   H10F11079   6.411   5.701   5.565
  108OSM   C11F11080   6.216   5.778   5.621
  108OSM   H11F11081   6.150   5.778   5.711
  108OSM   H11G11082   6.184   5.715   5.535
  108OSM   C12F11083   6.206   5.926   5.567
  108OSM   H12F11084   6.231   6.002   5.644
  108OSM   H12G11085   6.101   5.936   5.533
  108OSM   C13F11086   6.292   5.959   5.449
  108OSM   H13F11087   6.395   5.937   5.483
  108OSM   H13G11088   6.288   6.067   5.422
  108OSM   C14F11089   6.285   5.862   5.329
  108OSM   H14F11090   6.183   5.839   5.290
  108OSM   H14G11091   6.318   5.761   5.362
  108OSM   C15F11092   6.368   5.903   5.203
  108OSM   H15F11093   6.467   5.941   5.237
  108OSM   H15G11094   6.330   5.992   5.149
  108OSM   C16F11095   6.403   5.786   5.114
  108OSM   H16F11096   6.311   5.737   5.076
  108OSM   H16G11097   6.451   5.721   5.190
  108OSM   C17F11098   6.499   5.811   4.997
  108OSM   H17F11099   6.555   5.718   4.975
  108OSM   H17G11100   6.576   5.887   5.020
  108OSM   C18F11101   6.415   5.868   4.880
  108OSM   H18F11102   6.465   5.887   4.783
  108OSM   H18G11103   6.362   5.955   4.924
  108OSM   H18H11104   6.330   5.804   4.846
  109OSM      N11105   2.384   2.665   6.730
  109OSM    C1511106   2.424   2.658   6.588
  109OSM   H15A11107   2.421   2.753   6.537
  109OSM   H15B11108   2.352   2.594   6.539
  109OSM   H15C11109   2.520   2.612   6.568
  109OSM    C1411110   2.469   2.772   6.785
  109OSM   H14A11111   2.454   2.786   6.891
  109OSM   H14B11112   2.465   2.871   6.742
  109OSM   H14C11113   2.572   2.742   6.782
  109OSM    C1311114   2.252   2.725   6.747
  109OSM   H13A11115   2.228   2.760   6.846
  109OSM   H13B11116   2.168   2.668   6.711
  109OSM   H13C11117   2.247   2.821   6.698
  109OSM    C1211118   2.390   2.529   6.794
  109OSM   H12A11119   2.329   2.454   6.746
  109OSM   H12B11120   2.342   2.542   6.890
  109OSM    C1111121   2.537   2.474   6.814
  109OSM   H11A11122   2.582   2.539   6.893
  109OSM   H11B11123   2.598   2.488   6.722
  109OSM      P11124   2.500   2.215   6.764
  109OSM    O1311125   2.517   2.085   6.833
  109OSM    O1411126   2.372   2.246   6.700
  109OSM    O1111127   2.618   2.237   6.661
  109OSM    O1211128   2.532   2.336   6.859
  109OSM    C1S11129   2.637   2.151   6.553
  109OSM    H1S11130   2.548   2.135   6.488
  109OSM    H1T11131   2.670   2.049   6.581
  109OSM     NF11132   2.742   2.154   6.332
  109OSM    HNF11133   2.821   2.093   6.331
  109OSM    C2S11134   2.739   2.219   6.462
  109OSM    H2S11135   2.698   2.322   6.449
  109OSM    C3S11136   2.877   2.242   6.525
  109OSM    H3S11137   2.924   2.141   6.534
  109OSM     O311138   2.871   2.299   6.648
  109OSM    HO311139   2.783   2.278   6.681
  109OSM    C4S11140   2.966   2.328   6.435
  109OSM    H4S11141   2.938   2.434   6.448
  109OSM    C5S11142   3.076   2.282   6.361
  109OSM    H5S11143   3.107   2.177   6.351
  109OSM    C6S11144   3.151   2.381   6.280
  109OSM    H6S11145   3.257   2.351   6.265
  109OSM    H6T11146   3.164   2.480   6.330
  109OSM    C7S11147   3.097   2.412   6.138
  109OSM    H7S11148   3.152   2.497   6.092
  109OSM    H7T11149   2.989   2.437   6.140
  109OSM    C8S11150   3.096   2.281   6.045
  109OSM    H8S11151   3.058   2.189   6.094
  109OSM    H8T11152   3.205   2.258   6.037
  109OSM    C9S11153   3.013   2.309   5.920
  109OSM    H9S11154   2.922   2.370   5.942
  109OSM    H9T11155   2.980   2.211   5.879
  109OSM   C10S11156   3.086   2.381   5.800
  109OSM   H10S11157   3.177   2.322   5.776
  109OSM   H10T11158   3.106   2.486   5.831
  109OSM   C11S11159   2.993   2.379   5.676
  109OSM   H11S11160   2.894   2.413   5.714
  109OSM   H11T11161   2.973   2.277   5.637
  109OSM   C12S11162   3.040   2.455   5.559
  109OSM   H12S11163   3.151   2.444   5.559
  109OSM   H12T11164   3.018   2.562   5.578
  109OSM   C13S11165   2.990   2.411   5.420
  109OSM   H13S11166   2.881   2.432   5.415
  109OSM   H13T11167   3.002   2.302   5.403
  109OSM   C14S11168   3.068   2.485   5.302
  109OSM   H14S11169   3.172   2.476   5.340
  109OSM   H14T11170   3.052   2.594   5.315
  109OSM   C15S11171   3.056   2.428   5.160
  109OSM   H15S11172   2.960   2.444   5.107
  109OSM   H15T11173   3.060   2.318   5.174
  109OSM   C16S11174   3.174   2.454   5.075
  109OSM   H16S11175   3.266   2.405   5.116
  109OSM   H16T11176   3.193   2.562   5.058
  109OSM   C17S11177   3.166   2.379   4.935
  109OSM   H17S11178   3.088   2.420   4.867
  109OSM   H17T11179   3.120   2.279   4.954
  109OSM   C18S11180   3.299   2.356   4.869
  109OSM   H18S11181   3.329   2.450   4.816
  109OSM   H18T11182   3.296   2.265   4.805
  109OSM   H18U11183   3.380   2.340   4.943
  109OSM    C1F11184   2.649   2.171   6.246
  109OSM     OF11185   2.550   2.241   6.271
  109OSM    C2F11186   2.667   2.101   6.119
  109OSM    H2F11187   2.585   2.026   6.112
  109OSM    H2G11188   2.766   2.052   6.107
  109OSM    C3F11189   2.643   2.187   5.989
  109OSM    H3F11190   2.730   2.256   5.996
  109OSM    H3G11191   2.553   2.251   6.001
  109OSM    C4F11192   2.632   2.109   5.860
  109OSM    H4F11193   2.542   2.047   5.841
  109OSM    H4G11194   2.720   2.042   5.852
  109OSM    C5F11195   2.627   2.199   5.729
  109OSM    H5F11196   2.708   2.273   5.742
  109OSM    H5G11197   2.532   2.257   5.724
  109OSM    C6F11198   2.662   2.102   5.612
  109OSM    H6F11199   2.598   2.011   5.613
  109OSM    H6G11200   2.761   2.053   5.625
  109OSM    C7F11201   2.654   2.167   5.468
  109OSM    H7F11202   2.731   2.247   5.470
  109OSM    H7G11203   2.550   2.204   5.454
  109OSM    C8F11204   2.684   2.058   5.367
  109OSM    H8F11205   2.605   1.980   5.362
  109OSM    H8G11206   2.777   2.008   5.402
  109OSM    C9F11207   2.702   2.111   5.235
  109OSM    H9F11208   2.707   2.220   5.220
  109OSM   C10F11209   2.717   2.029   5.130
  109OSM   H10F11210   2.740   2.090   5.042
  109OSM   C11F11211   2.709   1.876   5.119
  109OSM   H11F11212   2.733   1.836   5.220
  109OSM   H11G11213   2.792   1.842   5.055
  109OSM   C12F11214   2.568   1.834   5.068
  109OSM   H12F11215   2.497   1.862   5.148
  109OSM   H12G11216   2.556   1.723   5.065
  109OSM   C13F11217   2.527   1.894   4.930
  109OSM   H13F11218   2.508   2.003   4.920
  109OSM   H13G11219   2.425   1.856   4.912
  109OSM   C14F11220   2.620   1.845   4.810
  109OSM   H14F11221   2.624   1.734   4.812
  109OSM   H14G11222   2.723   1.884   4.827
  109OSM   C15F11223   2.571   1.900   4.683
  109OSM   H15F11224   2.569   2.011   4.692
  109OSM   H15G11225   2.468   1.863   4.665
  109OSM   C16F11226   2.671   1.865   4.571
  109OSM   H16F11227   2.769   1.909   4.599
  109OSM   H16G11228   2.628   1.915   4.481
  109OSM   C17F11229   2.688   1.717   4.536
  109OSM   H17F11230   2.718   1.674   4.634
  109OSM   H17G11231   2.773   1.701   4.467
  109OSM   C18F11232   2.565   1.656   4.473
  109OSM   H18F11233   2.481   1.664   4.546
  109OSM   H18G11234   2.577   1.548   4.451
  109OSM   H18H11235   2.532   1.714   4.384
  110OSM      N11236   4.694   5.968   6.966
  110OSM    C1511237   4.835   5.997   7.018
  110OSM   H15A11238   4.833   5.994   7.126
  110OSM   H15B11239   4.859   6.096   6.984
  110OSM   H15C11240   4.906   5.935   6.965
  110OSM    C1411241   4.652   5.831   6.971
  110OSM   H14A11242   4.722   5.767   6.920
  110OSM   H14B11243   4.561   5.820   6.915
  110OSM   H14C11244   4.640   5.805   7.075
  110OSM    C1311245   4.596   6.052   7.046
  110OSM   H13A11246   4.496   6.039   7.007
  110OSM   H13B11247   4.631   6.153   7.027
  110OSM   H13C11248   4.610   6.030   7.150
  110OSM    C1211249   4.681   6.020   6.822
  110OSM   H12A11250   4.588   5.987   6.778
  110OSM   H12B11251   4.761   5.967   6.772
  110OSM    C1111252   4.689   6.177   6.804
  110OSM   H11A11253   4.588   6.204   6.840
  110OSM   H11B11254   4.694   6.191   6.694
  110OSM      P11255   4.934   6.276   6.819
  110OSM    O1311256   4.976   6.415   6.854
  110OSM    O1411257   5.022   6.163   6.849
  110OSM    O1111258   4.905   6.262   6.665
  110OSM    O1211259   4.795   6.241   6.881
  110OSM    C1S11260   4.916   6.373   6.575
  110OSM    H1S11261   4.999   6.441   6.606
  110OSM    H1T11262   4.817   6.424   6.566
  110OSM     NF11263   5.005   6.435   6.354
  110OSM    HNF11264   4.933   6.494   6.318
  110OSM    C2S11265   4.954   6.323   6.433
  110OSM    H2S11266   5.028   6.240   6.435
  110OSM    C3S11267   4.833   6.265   6.375
  110OSM    H3S11268   4.766   6.350   6.350
  110OSM     O311269   4.766   6.170   6.455
  110OSM    HO311270   4.804   6.178   6.543
  110OSM    C4S11271   4.869   6.200   6.239
  110OSM    H4S11272   4.942   6.118   6.228
  110OSM    C5S11273   4.807   6.235   6.124
  110OSM    H5S11274   4.736   6.317   6.138
  110OSM    C6S11275   4.845   6.168   5.993
  110OSM    H6S11276   4.753   6.108   5.973
  110OSM    H6T11277   4.917   6.084   6.001
  110OSM    C7S11278   4.881   6.255   5.880
  110OSM    H7S11279   4.975   6.305   5.913
  110OSM    H7T11280   4.812   6.341   5.881
  110OSM    C8S11281   4.880   6.195   5.732
  110OSM    H8S11282   4.827   6.098   5.736
  110OSM    H8T11283   4.979   6.167   5.691
  110OSM    C9S11284   4.808   6.288   5.636
  110OSM    H9S11285   4.707   6.313   5.675
  110OSM    H9T11286   4.780   6.236   5.542
  110OSM   C10S11287   4.891   6.409   5.595
  110OSM   H10S11288   4.988   6.372   5.556
  110OSM   H10T11289   4.909   6.467   5.688
  110OSM   C11S11290   4.829   6.496   5.487
  110OSM   H11S11291   4.876   6.596   5.481
  110OSM   H11T11292   4.723   6.507   5.520
  110OSM   C12S11293   4.819   6.434   5.349
  110OSM   H12S11294   4.720   6.450   5.301
  110OSM   H12T11295   4.834   6.324   5.360
  110OSM   C13S11296   4.937   6.477   5.254
  110OSM   H13S11297   5.037   6.448   5.292
  110OSM   H13T11298   4.926   6.586   5.239
  110OSM   C14S11299   4.910   6.418   5.113
  110OSM   H14S11300   4.821   6.468   5.070
  110OSM   H14T11301   4.893   6.308   5.122
  110OSM   C15S11302   5.025   6.444   5.018
  110OSM   H15S11303   5.109   6.384   5.060
  110OSM   H15T11304   5.058   6.550   5.019
  110OSM   C16S11305   4.992   6.418   4.869
  110OSM   H16S11306   5.053   6.477   4.798
  110OSM   H16T11307   4.888   6.430   4.833
  110OSM   C17S11308   5.035   6.272   4.834
  110OSM   H17S11309   4.972   6.192   4.879
  110OSM   H17T11310   5.140   6.273   4.868
  110OSM   C18S11311   5.050   6.254   4.684
  110OSM   H18S11312   4.952   6.249   4.631
  110OSM   H18T11313   5.111   6.164   4.659
  110OSM   H18U11314   5.113   6.341   4.652
  110OSM    C1F11315   5.126   6.488   6.369
  110OSM     OF11316   5.206   6.448   6.454
  110OSM    C2F11317   5.162   6.599   6.293
  110OSM    H2F11318   5.195   6.691   6.347
  110OSM    H2G11319   5.079   6.619   6.223
  110OSM    C3F11320   5.297   6.572   6.214
  110OSM    H3F11321   5.381   6.568   6.286
  110OSM    H3G11322   5.318   6.663   6.154
  110OSM    C4F11323   5.303   6.454   6.118
  110OSM    H4F11324   5.202   6.444   6.072
  110OSM    H4G11325   5.319   6.359   6.174
  110OSM    C5F11326   5.413   6.483   6.009
  110OSM    H5F11327   5.501   6.507   6.072
  110OSM    H5G11328   5.377   6.571   5.951
  110OSM    C6F11329   5.435   6.381   5.907
  110OSM    H6F11330   5.331   6.357   5.877
  110OSM    H6G11331   5.468   6.280   5.940
  110OSM    C7F11332   5.523   6.415   5.793
  110OSM    H7F11333   5.626   6.404   5.833
  110OSM    H7G11334   5.503   6.516   5.751
  110OSM    C8F11335   5.515   6.311   5.679
  110OSM    H8F11336   5.411   6.305   5.642
  110OSM    H8G11337   5.544   6.209   5.713
  110OSM    C9F11338   5.602   6.351   5.563
  110OSM    H9F11339   5.696   6.295   5.550
  110OSM   C10F11340   5.577   6.447   5.470
  110OSM   H10F11341   5.651   6.456   5.390
  110OSM   C11F11342   5.465   6.541   5.476
  110OSM   H11F11343   5.496   6.647   5.488
  110OSM   H11G11344   5.393   6.515   5.557
  110OSM   C12F11345   5.397   6.530   5.335
  110OSM   H12F11346   5.290   6.554   5.352
  110OSM   H12G11347   5.406   6.430   5.288
  110OSM   C13F11348   5.451   6.625   5.227
  110OSM   H13F11349   5.553   6.598   5.193
  110OSM   H13G11350   5.465   6.732   5.256
  110OSM   C14F11351   5.357   6.623   5.098
  110OSM   H14F11352   5.249   6.643   5.113
  110OSM   H14G11353   5.369   6.520   5.060
  110OSM   C15F11354   5.397   6.720   4.984
  110OSM   H15F11355   5.490   6.682   4.936
  110OSM   H15G11356   5.414   0.023   5.031
  110OSM   C16F11357   5.296   6.725   4.874
  110OSM   H16F11358   5.202   6.766   4.918
  110OSM   H16G11359   5.261   6.627   4.837
  110OSM   C17F11360   5.324   0.028   4.759
  110OSM   H17F11361   5.388   6.752   4.704
  110OSM   H17G11362   5.379   0.115   4.800
  110OSM   C18F11363   5.206   0.069   4.672
  110OSM   H18F11364   5.147   6.778   4.637
  110OSM   H18G11365   5.239   0.128   4.583
  110OSM   H18H11366   5.135   0.131   4.731
  111OSM      N11367   0.929   3.314   7.047
  111OSM    C1511368   0.804   3.365   7.114
  111OSM   H15A11369   0.722   3.299   7.089
  111OSM   H15B11370   0.787   3.460   7.066
  111OSM   H15C11371   0.810   3.370   7.222
  111OSM    C1411372   1.044   3.397   7.097
  111OSM   H14A11373   1.020   3.502   7.086
  111OSM   H14B11374   1.131   3.384   7.036
  111OSM   H14C11375   1.065   3.384   7.203
  111OSM    C1311376   0.950   3.174   7.095
  111OSM   H13A11377   1.040   3.123   7.061
  111OSM   H13B11378   0.863   3.122   7.060
  111OSM   H13C11379   0.954   3.180   7.203
  111OSM    C1211380   0.907   3.315   6.905
  111OSM   H12A11381   0.821   3.254   6.881
  111OSM   H12B11382   0.998   3.275   6.863
  111OSM    C1111383   0.891   3.450   6.826
  111OSM   H11A11384   0.890   3.414   6.721
  111OSM   H11B11385   0.987   3.504   6.842
  111OSM      P11386   0.643   3.533   6.792
  111OSM    O1311387   0.656   3.458   6.668
  111OSM    O1411388   0.535   3.491   6.886
  111OSM    O1111389   0.619   3.681   6.744
  111OSM    O1211390   0.788   3.538   6.865
  111OSM    C1S11391   0.695   3.763   6.664
  111OSM    H1S11392   0.794   3.717   6.646
  111OSM    H1T11393   0.711   3.857   6.722
  111OSM     NF11394   0.727   3.891   6.452
  111OSM    HNF11395   0.706   3.987   6.472
  111OSM    C2S11396   0.636   3.800   6.523
  111OSM    H2S11397   0.630   3.707   6.462
  111OSM    C3S11398   0.492   3.855   6.543
  111OSM    H3S11399   0.499   3.930   6.625
  111OSM     O311400   0.404   3.759   6.602
  111OSM    HO311401   0.461   3.724   6.670
  111OSM    C4S11402   0.429   3.926   6.431
  111OSM    H4S11403   0.446   4.034   6.434
  111OSM    C5S11404   0.374   3.867   6.320
  111OSM    H5S11405   0.368   3.757   6.309
  111OSM    C6S11406   0.323   3.940   6.198
  111OSM    H6S11407   0.214   3.921   6.204
  111OSM    H6T11408   0.364   3.890   6.107
  111OSM    C7S11409   0.333   4.092   6.191
  111OSM    H7S11410   0.300   4.126   6.291
  111OSM    H7T11411   0.264   4.140   6.118
  111OSM    C8S11412   0.475   4.142   6.175
  111OSM    H8S11413   0.541   4.064   6.220
  111OSM    H8T11414   0.493   4.237   6.230
  111OSM    C9S11415   0.528   4.165   6.032
  111OSM    H9S11416   0.510   4.075   5.969
  111OSM    H9T11417   0.637   4.182   6.042
  111OSM   C10S11418   0.471   4.292   5.967
  111OSM   H10S11419   0.481   4.381   6.034
  111OSM   H10T11420   0.362   4.273   5.967
  111OSM   C11S11421   0.529   4.326   5.830
  111OSM   H11S11422   0.501   4.241   5.765
  111OSM   H11T11423   0.639   4.331   5.846
  111OSM   C12S11424   0.478   4.459   5.767
  111OSM   H12S11425   0.527   4.544   5.819
  111OSM   H12T11426   0.368   4.445   5.777
  111OSM   C13S11427   0.494   4.469   5.614
  111OSM   H13S11428   0.449   4.380   5.566
  111OSM   H13T11429   0.604   4.475   5.598
  111OSM   C14S11430   0.448   4.601   5.557
  111OSM   H14S11431   0.512   4.682   5.598
  111OSM   H14T11432   0.341   4.625   5.579
  111OSM   C15S11433   0.456   4.608   5.404
  111OSM   H15S11434   0.376   4.670   5.358
  111OSM   H15T11435   0.425   4.507   5.371
  111OSM   C16S11436   0.591   4.638   5.342
  111OSM   H16S11437   0.668   4.565   5.377
  111OSM   H16T11438   0.626   4.737   5.380
  111OSM   C17S11439   0.589   4.640   5.186
  111OSM   H17S11440   0.494   4.693   5.162
  111OSM   H17T11441   0.577   4.534   5.158
  111OSM   C18S11442   0.717   4.703   5.130
  111OSM   H18S11443   0.708   4.691   5.020
  111OSM   H18T11444   0.813   4.667   5.173
  111OSM   H18U11445   0.710   4.812   5.145
  111OSM    C1F11446   0.849   3.853   6.409
  111OSM     OF11447   0.877   3.731   6.417
  111OSM    C2F11448   0.944   3.960   6.353
  111OSM    H2F11449   1.045   3.962   6.399
  111OSM    H2G11450   0.908   4.064   6.372
  111OSM    C3F11451   0.972   3.940   6.204
  111OSM    H3F11452   1.035   3.851   6.185
  111OSM    H3G11453   1.031   4.026   6.166
  111OSM    C4F11454   0.847   3.935   6.116
  111OSM    H4F11455   0.788   4.022   6.152
  111OSM    H4G11456   0.777   3.852   6.140
  111OSM    C5F11457   0.899   3.941   5.972
  111OSM    H5F11458   0.957   3.851   5.941
  111OSM    H5G11459   0.967   4.028   5.972
  111OSM    C6F11460   0.783   3.964   5.872
  111OSM    H6F11461   0.743   4.066   5.889
  111OSM    H6G11462   0.709   3.883   5.887
  111OSM    C7F11463   0.832   3.964   5.727
  111OSM    H7F11464   0.871   3.861   5.714
  111OSM    H7G11465   0.922   4.024   5.704
  111OSM    C8F11466   0.725   3.994   5.608
  111OSM    H8F11467   0.621   3.963   5.636
  111OSM    H8G11468   0.758   3.935   5.520
  111OSM    C9F11469   0.728   4.140   5.567
  111OSM    H9F11470   0.719   4.211   5.650
  111OSM   C10F11471   0.737   4.178   5.441
  111OSM   H10F11472   0.744   4.286   5.421
  111OSM   C11F11473   0.748   4.097   5.313
  111OSM   H11F11474   0.659   4.059   5.258
  111OSM   H11G11475   0.796   3.999   5.334
  111OSM   C12F11476   0.859   4.156   5.215
  111OSM   H12F11477   0.892   4.081   5.141
  111OSM   H12G11478   0.946   4.185   5.279
  111OSM   C13F11479   0.804   4.272   5.134
  111OSM   H13F11480   0.806   4.351   5.212
  111OSM   H13G11481   0.698   4.256   5.107
  111OSM   C14F11482   0.891   4.303   5.015
  111OSM   H14F11483   0.991   4.260   5.037
  111OSM   H14G11484   0.909   4.413   5.008
  111OSM   C15F11485   0.851   4.255   4.883
  111OSM   H15F11486   0.740   4.263   4.871
  111OSM   H15G11487   0.884   4.149   4.881
  111OSM   C16F11488   0.914   4.326   4.764
  111OSM   H16F11489   0.911   4.435   4.785
  111OSM   H16G11490   0.843   4.306   4.682
  111OSM   C17F11491   1.058   4.273   4.739
  111OSM   H17F11492   1.053   4.170   4.698
  111OSM   H17G11493   1.112   4.267   4.836
  111OSM   C18F11494   1.137   4.367   4.648
  111OSM   H18F11495   1.124   4.470   4.689
  111OSM   H18G11496   1.101   4.361   4.543
  111OSM   H18H11497   1.245   4.341   4.650
  112OSM      N11498   3.492   1.457   7.381
  112OSM    C1511499   3.461   1.317   7.400
  112OSM   H15A11500   3.539   1.257   7.357
  112OSM   H15B11501   3.369   1.299   7.346
  112OSM   H15C11502   3.433   1.285   7.500
  112OSM    C1411503   3.357   1.528   7.393
  112OSM   H14A11504   3.297   1.495   7.477
  112OSM   H14B11505   3.298   1.509   7.305
  112OSM   H14C11506   3.379   1.634   7.392
  112OSM    C1311507   3.583   1.511   7.494
  112OSM   H13A11508   3.666   1.441   7.487
  112OSM   H13B11509   3.530   1.516   7.588
  112OSM   H13C11510   3.615   1.612   7.475
  112OSM    C1211511   3.553   1.501   7.251
  112OSM   H12A11512   3.652   1.458   7.242
  112OSM   H12B11513   3.571   1.607   7.264
  112OSM    C1111514   3.482   1.482   7.117
  112OSM   H11A11515   3.550   1.513   7.035
  112OSM   H11B11516   3.390   1.545   7.124
  112OSM      P11517   3.523   1.234   7.018
  112OSM    O1311518   3.651   1.208   7.087
  112OSM    O1411519   3.425   1.124   7.003
  112OSM    O1111520   3.551   1.293   6.876
  112OSM    O1211521   3.445   1.350   7.086
  112OSM    C1S11522   3.659   1.244   6.797
  112OSM    H1S11523   3.638   1.135   6.784
  112OSM    H1T11524   3.755   1.253   6.853
  112OSM     NF11525   3.755   1.244   6.564
  112OSM    HNF11526   3.818   1.308   6.520
  112OSM    C2S11527   3.675   1.319   6.659
  112OSM    H2S11528   3.575   1.330   6.612
  112OSM    C3S11529   3.722   1.469   6.685
  112OSM    H3S11530   3.822   1.468   6.733
  112OSM     O311531   3.644   1.539   6.777
  112OSM    HO311532   3.596   1.470   6.822
  112OSM    C4S11533   3.743   1.547   6.559
  112OSM    H4S11534   3.848   1.554   6.528
  112OSM    C5S11535   3.652   1.621   6.496
  112OSM    H5S11536   3.554   1.642   6.542
  112OSM    C6S11537   3.672   1.703   6.378
  112OSM    H6S11538   3.630   1.802   6.406
  112OSM    H6T11539   3.608   1.673   6.292
  112OSM    C7S11540   3.810   1.720   6.301
  112OSM    H7S11541   3.839   1.626   6.249
  112OSM    H7T11542   3.892   1.740   6.374
  112OSM    C8S11543   3.795   1.824   6.183
  112OSM    H8S11544   3.896   1.860   6.153
  112OSM    H8T11545   3.744   1.909   6.233
  112OSM    C9S11546   3.708   1.773   6.065
  112OSM    H9S11547   3.605   1.748   6.097
  112OSM    H9T11548   3.750   1.676   6.031
  112OSM   C10S11549   3.702   1.868   5.949
  112OSM   H10S11550   3.809   1.877   5.922
  112OSM   H10T11551   3.677   1.972   5.979
  112OSM   C11S11552   3.602   1.833   5.831
  112OSM   H11S11553   3.495   1.829   5.860
  112OSM   H11T11554   3.632   1.728   5.811
  112OSM   C12S11555   3.634   1.919   5.705
  112OSM   H12S11556   3.742   1.945   5.710
  112OSM   H12T11557   3.589   2.015   5.735
  112OSM   C13S11558   3.602   1.855   5.569
  112OSM   H13S11559   3.496   1.822   5.560
  112OSM   H13T11560   3.663   1.762   5.571
  112OSM   C14S11561   3.643   1.934   5.446
  112OSM   H14S11562   3.753   1.939   5.459
  112OSM   H14T11563   3.597   2.036   5.449
  112OSM   C15S11564   3.612   1.852   5.320
  112OSM   H15S11565   3.505   1.829   5.306
  112OSM   H15T11566   3.668   1.756   5.312
  112OSM   C16S11567   3.649   1.922   5.183
  112OSM   H16S11568   3.759   1.928   5.172
  112OSM   H16T11569   3.590   2.015   5.197
  112OSM   C17S11570   3.597   1.847   5.059
  112OSM   H17S11571   3.492   1.812   5.065
  112OSM   H17T11572   3.654   1.754   5.040
  112OSM   C18S11573   3.613   1.929   4.936
  112OSM   H18S11574   3.574   2.031   4.953
  112OSM   H18T11575   3.555   1.887   4.851
  112OSM   H18U11576   3.719   1.936   4.902
  112OSM    C1F11577   3.745   1.124   6.516
  112OSM     OF11578   3.657   1.047   6.547
  112OSM    C2F11579   3.862   1.068   6.438
  112OSM    H2F11580   3.933   1.009   6.500
  112OSM    H2G11581   3.925   1.143   6.386
  112OSM    C3F11582   3.820   0.971   6.323
  112OSM    H3F11583   3.757   0.892   6.369
  112OSM    H3G11584   3.900   0.911   6.274
  112OSM    C4F11585   3.754   1.047   6.208
  112OSM    H4F11586   3.837   1.102   6.158
  112OSM    H4G11587   3.686   1.133   6.229
  112OSM    C5F11588   3.679   0.952   6.113
  112OSM    H5F11589   3.605   0.882   6.159
  112OSM    H5G11590   3.761   0.882   6.087
  112OSM    C6F11591   3.625   1.016   5.986
  112OSM    H6F11592   3.628   1.127   5.977
  112OSM    H6G11593   3.516   1.006   6.003
  112OSM    C7F11594   3.679   0.945   5.861
  112OSM    H7F11595   3.637   0.842   5.862
  112OSM    H7G11596   3.789   0.932   5.870
  112OSM    C8F11597   3.637   1.011   5.725
  112OSM    H8F11598   3.676   1.115   5.731
  112OSM    H8G11599   3.527   0.999   5.720
  112OSM    C9F11600   3.683   0.931   5.606
  112OSM    H9F11601   3.674   0.822   5.618
  112OSM   C10F11602   3.767   0.978   5.505
  112OSM   H10F11603   3.797   0.907   5.427
  112OSM   C11F11604   3.808   1.118   5.473
  112OSM   H11F11605   3.912   1.142   5.440
  112OSM   H11G11606   3.779   1.173   5.564
  112OSM   C12F11607   3.721   1.165   5.352
  112OSM   H12F11608   3.722   1.276   5.341
  112OSM   H12G11609   3.615   1.133   5.359
  112OSM   C13F11610   3.792   1.116   5.217
  112OSM   H13F11611   3.780   1.006   5.225
  112OSM   H13G11612   3.901   1.138   5.217
  112OSM   C14F11613   3.720   1.174   5.093
  112OSM   H14F11614   3.704   1.283   5.104
  112OSM   H14G11615   3.625   1.117   5.082
  112OSM   C15F11616   3.794   1.162   4.964
  112OSM   H15F11617   3.839   1.061   4.962
  112OSM   H15G11618   3.879   1.234   4.970
  112OSM   C16F11619   3.715   1.204   4.831
  112OSM   H16F11620   3.691   1.312   4.837
  112OSM   H16G11621   3.624   1.144   4.808
  112OSM   C17F11622   3.816   1.196   4.709
  112OSM   H17F11623   3.849   1.091   4.700
  112OSM   H17G11624   3.894   1.271   4.733
  112OSM   C18F11625   3.750   1.243   4.581
  112OSM   H18F11626   3.667   1.176   4.552
  112OSM   H18G11627   3.820   1.242   4.494
  112OSM   H18H11628   3.707   1.344   4.598
  113OSM      N11629   0.857   1.568   6.350
  113OSM    C1511630   0.822   1.548   6.496
  113OSM   H15A11631   0.835   1.442   6.516
  113OSM   H15B11632   0.720   1.580   6.508
  113OSM   H15C11633   0.884   1.598   6.570
  113OSM    C1411634   0.814   1.697   6.297
  113OSM   H14A11635   0.828   1.702   6.190
  113OSM   H14B11636   0.845   1.780   6.358
  113OSM   H14C11637   0.707   1.705   6.309
  113OSM    C1311638   1.008   1.557   6.342
  113OSM   H13A11639   1.041   1.543   6.240
  113OSM   H13B11640   1.040   1.470   6.397
  113OSM   H13C11641   1.051   1.648   6.382
  113OSM    C1211642   0.794   1.459   6.269
  113OSM   H12A11643   0.825   1.361   6.302
  113OSM   H12B11644   0.835   1.461   6.169
  113OSM    C1111645   0.642   1.454   6.248
  113OSM   H11A11646   0.637   1.364   6.182
  113OSM   H11B11647   0.614   1.543   6.189
  113OSM      P11648   0.419   1.480   6.376
  113OSM    O1311649   0.333   1.369   6.419
  113OSM    O1411650   0.421   1.600   6.456
  113OSM    O1111651   0.392   1.513   6.226
  113OSM    O1211652   0.570   1.434   6.369
  113OSM    C1S11653   0.356   1.411   6.131
  113OSM    H1S11654   0.311   1.321   6.177
  113OSM    H1T11655   0.443   1.363   6.081
  113OSM     NF11656   0.214   1.352   5.932
  113OSM    HNF11657   0.261   1.342   5.845
  113OSM    C2S11658   0.254   1.462   6.026
  113OSM    H2S11659   0.168   1.494   6.088
  113OSM    C3S11660   0.289   1.594   5.957
  113OSM    H3S11661   0.376   1.589   5.887
  113OSM     O311662   0.318   1.700   6.042
  113OSM    HO311663   0.350   1.650   6.118
  113OSM    C4S11664   0.172   1.639   5.876
  113OSM    H4S11665   0.108   1.717   5.919
  113OSM    C5S11666   0.163   1.603   5.748
  113OSM    H5S11667   0.247   1.542   5.711
  113OSM    C6S11668   0.066   1.652   5.639
  113OSM    H6S11669   6.771   1.694   5.687
  113OSM    H6T11670   0.031   1.564   5.581
  113OSM    C7S11671   0.154   1.757   5.562
  113OSM    H7S11672   0.250   1.710   5.532
  113OSM    H7T11673   0.172   1.843   5.631
  113OSM    C8S11674   0.092   1.797   5.429
  113OSM    H8S11675   6.788   1.843   5.448
  113OSM    H8T11676   0.079   1.706   5.367
  113OSM    C9S11677   0.162   1.909   5.337
  113OSM    H9S11678   0.168   1.997   5.404
  113OSM    H9T11679   0.089   1.930   5.256
  113OSM   C10S11680   0.296   1.882   5.275
  113OSM   H10S11681   0.370   1.855   5.353
  113OSM   H10T11682   0.343   1.969   5.225
  113OSM   C11S11683   0.296   1.764   5.178
  113OSM   H11S11684   0.231   1.679   5.206
  113OSM   H11T11685   0.394   1.717   5.155
  113OSM   C12S11686   0.242   1.797   5.028
  113OSM   H12S11687   0.292   1.889   4.992
  113OSM   H12T11688   0.132   1.810   5.031
  113OSM   C13S11689   0.259   1.684   4.920
  113OSM   H13S11690   0.222   1.591   4.968
  113OSM   H13T11691   0.369   1.668   4.915
  113OSM   C14S11692   0.203   1.725   4.782
  113OSM   H14S11693   0.122   1.800   4.798
  113OSM   H14T11694   0.155   1.643   4.726
  113OSM   C15S11695   0.320   1.794   4.698
  113OSM   H15S11696   0.399   1.718   4.682
  113OSM   H15T11697   0.374   1.871   4.758
  113OSM   C16S11698   0.270   1.845   4.556
  113OSM   H16S11699   0.345   1.915   4.514
  113OSM   H16T11700   0.172   1.893   4.573
  113OSM   C17S11701   0.256   1.726   4.456
  113OSM   H17S11702   0.179   1.659   4.500
  113OSM   H17T11703   0.346   1.661   4.448
  113OSM   C18S11704   0.216   1.777   4.316
  113OSM   H18S11705   0.212   1.686   4.253
  113OSM   H18T11706   0.302   1.841   4.286
  113OSM   H18U11707   0.119   1.828   4.330
  113OSM    C1F11708   0.150   1.243   5.976
  113OSM     OF11709   0.114   1.237   6.091
  113OSM    C2F11710   0.128   1.131   5.877
  113OSM    H2F11711   0.228   1.095   5.844
  113OSM    H2G11712   0.073   1.172   5.790
  113OSM    C3F11713   0.047   1.004   5.922
  113OSM    H3F11714   6.774   1.034   6.005
  113OSM    H3G11715   0.118   0.929   5.962
  113OSM    C4F11716   6.748   0.945   5.813
  113OSM    H4F11717   6.667   1.019   5.793
  113OSM    H4G11718   6.703   0.853   5.855
  113OSM    C5F11719   0.013   0.913   5.676
  113OSM    H5F11720   0.088   0.834   5.697
  113OSM    H5G11721   0.063   0.996   5.623
  113OSM    C6F11722   6.703   0.844   5.585
  113OSM    H6F11723   6.628   0.925   5.570
  113OSM    H6G11724   6.653   0.764   5.642
  113OSM    C7F11725   6.770   0.785   5.459
  113OSM    H7F11726   6.698   0.709   5.421
  113OSM    H7G11727   0.067   0.736   5.495
  113OSM    C8F11728   0.011   0.892   5.356
  113OSM    H8F11729   0.075   0.845   5.279
  113OSM    H8G11730   0.066   0.978   5.401
  113OSM    C9F11731   6.680   0.947   5.285
  113OSM    H9F11732   6.604   0.995   5.348
  113OSM   C10F11733   6.651   0.950   5.155
  113OSM   H10F11734   6.553   0.988   5.123
  113OSM   C11F11735   6.751   0.917   5.043
  113OSM   H11F11736   6.773   0.810   5.061
  113OSM   H11G11737   0.053   0.965   5.061
  113OSM   C12F11738   6.710   0.956   4.899
  113OSM   H12F11739   6.694   1.066   4.890
  113OSM   H12G11740   6.621   0.900   4.863
  113OSM   C13F11741   0.033   0.922   4.804
  113OSM   H13F11742   0.058   0.814   4.806
  113OSM   H13G11743   0.118   0.980   4.846
  113OSM   C14F11744   0.007   0.960   4.653
  113OSM   H14F11745   0.109   0.955   4.608
  113OSM   H14G11746   6.767   1.065   4.651
  113OSM   C15F11747   6.707   0.865   4.585
  113OSM   H15F11748   6.616   0.865   4.648
  113OSM   H15G11749   6.750   0.763   4.568
  113OSM   C16F11750   6.674   0.908   4.438
  113OSM   H16F11751   6.766   0.914   4.375
  113OSM   H16G11752   6.633   1.010   4.455
  113OSM   C17F11753   6.567   0.818   4.366
  113OSM   H17F11754   6.474   0.826   4.427
  113OSM   H17G11755   6.588   0.710   4.353
  113OSM   C18F11756   6.544   0.873   4.224
  113OSM   H18F11757   6.460   0.822   4.172
  113OSM   H18G11758   6.636   0.859   4.163
  113OSM   H18H11759   6.529   0.983   4.223
  114OSM      N11760   6.505   5.657   7.174
  114OSM    C1511761   6.526   5.511   7.205
  114OSM   H15A11762   6.545   5.494   7.310
  114OSM   H15B11763   6.594   5.454   7.143
  114OSM   H15C11764   6.427   5.470   7.189
  114OSM    C1411765   6.405   5.711   7.267
  114OSM   H14A11766   6.406   5.667   7.366
  114OSM   H14B11767   6.306   5.684   7.233
  114OSM   H14C11768   6.417   5.817   7.253
  114OSM    C1311769   6.631   5.733   7.205
  114OSM   H13A11770   6.705   5.679   7.148
  114OSM   H13B11771   6.663   5.731   7.309
  114OSM   H13C11772   6.622   5.834   7.167
  114OSM    C1211773   6.474   5.672   7.026
  114OSM   H12A11774   6.378   5.625   7.013
  114OSM   H12B11775   6.546   5.608   6.977
  114OSM    C1111776   6.462   5.803   6.959
  114OSM   H11A11777   6.442   5.789   6.850
  114OSM   H11B11778   6.563   5.848   6.957
  114OSM      P11779   6.385   6.033   7.079
  114OSM    O1311780   6.292   6.058   7.188
  114OSM    O1411781   6.529   6.033   7.125
  114OSM    O1111782   6.357   6.141   6.960
  114OSM    O1211783   6.356   5.889   7.011
  114OSM    C1S11784   6.324   6.090   6.831
  114OSM    H1S11785   6.243   6.014   6.827
  114OSM    H1T11786   6.416   6.052   6.782
  114OSM     NF11787   6.280   6.159   6.607
  114OSM    HNF11788   6.349   6.195   6.545
  114OSM    C2S11789   6.283   6.209   6.739
  114OSM    H2S11790   6.178   6.243   6.755
  114OSM    C3S11791   6.379   6.342   6.751
  114OSM    H3S11792   6.479   6.303   6.724
  114OSM     O311793   6.387   6.400   6.880
  114OSM    HO311794   6.362   6.333   6.943
  114OSM    C4S11795   6.340   6.451   6.655
  114OSM    H4S11796   6.409   6.466   6.571
  114OSM    C5S11797   6.248   6.549   6.666
  114OSM    H5S11798   6.182   6.549   6.754
  114OSM    C6S11799   6.214   6.662   6.565
  114OSM    H6S11800   6.275   6.753   6.580
  114OSM    H6T11801   6.108   6.693   6.579
  114OSM    C7S11802   6.219   6.615   6.419
  114OSM    H7S11803   6.153   6.529   6.394
  114OSM    H7T11804   6.322   6.580   6.397
  114OSM    C8S11805   6.187   6.730   6.323
  114OSM    H8S11806   6.249   0.024   6.341
  114OSM    H8T11807   6.083   6.768   6.333
  114OSM    C9S11808   6.205   6.684   6.174
  114OSM    H9S11809   6.134   6.599   6.165
  114OSM    H9T11810   6.306   6.641   6.158
  114OSM   C10S11811   6.184   6.786   6.065
  114OSM   H10S11812   6.255   0.075   6.068
  114OSM   H10T11813   6.081   0.030   6.076
  114OSM   C11S11814   6.203   6.720   5.924
  114OSM   H11S11815   6.143   6.628   5.914
  114OSM   H11T11816   6.310   6.691   5.918
  114OSM   C12S11817   6.182   0.011   5.800
  114OSM   H12S11818   6.256   0.094   5.798
  114OSM   H12T11819   6.083   0.060   5.814
  114OSM   C13S11820   6.185   6.735   5.665
  114OSM   H13S11821   6.088   6.681   5.663
  114OSM   H13T11822   6.267   6.661   5.653
  114OSM   C14S11823   6.193   0.037   5.550
  114OSM   H14S11824   6.281   0.101   5.569
  114OSM   H14T11825   6.103   0.103   5.552
  114OSM   C15S11826   6.204   6.759   5.415
  114OSM   H15S11827   6.118   6.688   5.410
  114OSM   H15T11828   6.303   6.708   5.419
  114OSM   C16S11829   6.189   0.061   5.293
  114OSM   H16S11830   6.225   0.161   5.324
  114OSM   H16T11831   6.081   0.066   5.266
  114OSM   C17S11832   6.273   0.018   5.172
  114OSM   H17S11833   6.218   6.721   5.147
  114OSM   H17T11834   6.378   6.796   5.201
  114OSM   C18S11835   6.263   0.115   5.061
  114OSM   H18S11836   6.305   0.216   5.080
  114OSM   H18T11837   6.158   0.143   5.037
  114OSM   H18U11838   6.311   0.075   4.969
  114OSM    C1F11839   6.183   6.076   6.566
  114OSM     OF11840   6.101   6.029   6.643
  114OSM    C2F11841   6.168   6.052   6.420
  114OSM    H2F11842   6.071   5.999   6.407
  114OSM    H2G11843   6.251   5.982   6.394
  114OSM    C3F11844   6.196   6.179   6.330
  114OSM    H3F11845   6.299   6.212   6.354
  114OSM    H3G11846   6.128   6.265   6.348
  114OSM    C4F11847   6.184   6.140   6.180
  114OSM    H4F11848   6.078   6.124   6.154
  114OSM    H4G11849   6.240   6.047   6.157
  114OSM    C5F11850   6.243   6.244   6.083
  114OSM    H5F11851   6.214   6.342   6.126
  114OSM    H5G11852   6.205   6.239   5.979
  114OSM    C6F11853   6.397   6.232   6.087
  114OSM    H6F11854   6.420   6.138   6.033
  114OSM    H6G11855   6.428   6.209   6.192
  114OSM    C7F11856   6.472   6.349   6.035
  114OSM    H7F11857   6.582   6.336   6.042
  114OSM    H7G11858   6.459   6.428   6.112
  114OSM    C8F11859   6.432   6.399   5.898
  114OSM    H8F11860   6.498   6.483   5.865
  114OSM    H8G11861   6.329   6.441   5.899
  114OSM    C9F11862   6.421   6.292   5.790
  114OSM    H9F11863   6.368   6.203   5.826
  114OSM   C10F11864   6.485   6.291   5.675
  114OSM   H10F11865   6.475   6.201   5.613
  114OSM   C11F11866   6.554   6.403   5.608
  114OSM   H11F11867   6.663   6.386   5.598
  114OSM   H11G11868   6.542   6.492   5.674
  114OSM   C12F11869   6.520   6.437   5.463
  114OSM   H12F11870   6.571   6.525   5.420
  114OSM   H12G11871   6.419   6.481   5.478
  114OSM   C13F11872   6.492   6.322   5.367
  114OSM   H13F11873   6.419   6.256   5.419
  114OSM   H13G11874   6.587   6.265   5.354
  114OSM   C14F11875   6.435   6.353   5.226
  114OSM   H14F11876   6.351   6.425   5.234
  114OSM   H14G11877   6.404   6.252   5.193
  114OSM   C15F11878   6.534   6.420   5.119
  114OSM   H15F11879   6.636   6.376   5.128
  114OSM   H15G11880   6.541   6.526   5.152
  114OSM   C16F11881   6.479   6.414   4.978
  114OSM   H16F11882   6.507   6.499   4.912
  114OSM   H16G11883   6.369   6.413   4.989
  114OSM   C17F11884   6.528   6.288   4.911
  114OSM   H17F11885   6.510   6.194   4.967
  114OSM   H17G11886   6.639   6.289   4.908
  114OSM   C18F11887   6.465   6.268   4.779
  114OSM   H18F11888   6.354   6.272   4.778
  114OSM   H18G11889   6.483   6.168   4.732
  114OSM   H18H11890   6.504   6.338   4.702
  115OSM      N11891   0.002   1.981   6.576
  115OSM    C1511892   0.066   1.947   6.703
  115OSM   H15A11893   0.031   2.018   6.777
  115OSM   H15B11894   0.172   1.959   6.721
  115OSM   H15C11895   0.024   1.853   6.737
  115OSM    C1411896   0.047   1.891   6.465
  115OSM   H14A11897   0.152   1.872   6.483
  115OSM   H14B11898   0.030   1.949   6.376
  115OSM   H14C11899   6.787   1.799   6.458
  115OSM    C1311900   6.651   1.959   6.591
  115OSM   H13A11901   6.646   1.877   6.661
  115OSM   H13B11902   6.603   1.941   6.496
  115OSM   H13C11903   6.612   2.042   6.647
  115OSM    C1211904   0.039   2.127   6.541
  115OSM   H12A11905   0.146   2.133   6.530
  115OSM   H12B11906   0.008   2.185   6.627
  115OSM    C1111907   6.745   2.190   6.425
  115OSM   H11A11908   6.785   2.168   6.323
  115OSM   H11B11909   6.776   2.295   6.441
  115OSM      P11910   6.494   2.292   6.427
  115OSM    O1311911   6.374   2.246   6.357
  115OSM    O1411912   6.479   2.342   6.564
  115OSM    O1111913   6.563   2.409   6.348
  115OSM    O1211914   6.593   2.173   6.424
  115OSM    C1S11915   6.598   2.407   6.209
  115OSM    H1S11916   6.569   2.313   6.159
  115OSM    H1T11917   6.706   2.416   6.186
  115OSM     NF11918   6.547   2.514   5.991
  115OSM    HNF11919   6.615   2.566   5.940
  115OSM    C2S11920   6.531   2.529   6.132
  115OSM    H2S11921   6.427   2.536   6.170
  115OSM    C3S11922   6.594   2.668   6.182
  115OSM    H3S11923   6.694   2.686   6.137
  115OSM     O311924   6.604   2.662   6.328
  115OSM    HO311925   6.598   2.571   6.358
  115OSM    C4S11926   6.515   2.790   6.140
  115OSM    H4S11927   6.406   2.779   6.141
  115OSM    C5S11928   6.579   2.908   6.112
  115OSM    H5S11929   6.688   2.913   6.127
  115OSM    C6S11930   6.511   3.033   6.069
  115OSM    H6S11931   6.530   3.106   6.151
  115OSM    H6T11932   6.401   3.023   6.062
  115OSM    C7S11933   6.557   3.099   5.943
  115OSM    H7S11934   6.552   3.029   5.856
  115OSM    H7T11935   6.666   3.119   5.944
  115OSM    C8S11936   6.466   3.215   5.923
  115OSM    H8S11937   6.481   3.280   6.012
  115OSM    H8T11938   6.360   3.183   5.916
  115OSM    C9S11939   6.515   3.313   5.815
  115OSM    H9S11940   6.615   3.349   5.846
  115OSM    H9T11941   6.447   3.401   5.814
  115OSM   C10S11942   6.522   3.252   5.674
  115OSM   H10S11943   6.432   3.187   5.668
  115OSM   H10T11944   6.602   3.176   5.668
  115OSM   C11S11945   6.543   3.358   5.569
  115OSM   H11S11946   6.608   3.430   5.623
  115OSM   H11T11947   6.453   3.416   5.541
  115OSM   C12S11948   6.597   3.308   5.438
  115OSM   H12S11949   6.524   3.238   5.391
  115OSM   H12T11950   6.683   3.244   5.467
  115OSM   C13S11951   6.635   3.424   5.344
  115OSM   H13S11952   6.711   3.492   5.388
  115OSM   H13T11953   6.542   3.482   5.326
  115OSM   C14S11954   6.681   3.365   5.213
  115OSM   H14S11955   6.602   3.291   5.187
  115OSM   H14T11956   6.777   3.309   5.225
  115OSM   C15S11957   6.699   3.473   5.107
  115OSM   H15S11958   6.786   3.538   5.130
  115OSM   H15T11959   6.613   3.537   5.137
  115OSM   C16S11960   6.700   3.428   4.962
  115OSM   H16S11961   6.616   3.359   4.942
  115OSM   H16T11962   6.790   3.365   4.942
  115OSM   C17S11963   6.692   3.541   4.868
  115OSM   H17S11964   6.780   3.606   4.887
  115OSM   H17T11965   6.606   3.606   4.893
  115OSM   C18S11966   6.670   3.505   4.722
  115OSM   H18S11967   6.624   3.587   4.664
  115OSM   H18T11968   6.598   3.420   4.718
  115OSM   H18U11969   6.763   3.491   4.663
  115OSM    C1F11970   6.481   2.418   5.934
  115OSM     OF11971   6.378   2.373   5.982
  115OSM    C2F11972   6.537   2.370   5.802
  115OSM    H2F11973   6.573   2.270   5.833
  115OSM    H2G11974   6.620   2.436   5.767
  115OSM    C3F11975   6.436   2.355   5.688
  115OSM    H3F11976   6.349   2.303   5.734
  115OSM    H3G11977   6.479   2.292   5.607
  115OSM    C4F11978   6.396   2.493   5.636
  115OSM    H4F11979   6.477   2.565   5.613
  115OSM    H4G11980   6.359   2.538   5.730
  115OSM    C5F11981   6.284   2.490   5.530
  115OSM    H5F11982   6.224   2.580   5.555
  115OSM    H5G11983   6.219   2.401   5.542
  115OSM    C6F11984   6.343   2.501   5.390
  115OSM    H6F11985   6.420   2.421   5.379
  115OSM    H6G11986   6.399   2.597   5.387
  115OSM    C7F11987   6.236   2.503   5.279
  115OSM    H7F11988   6.170   2.588   5.306
  115OSM    H7G11989   6.184   2.404   5.275
  115OSM    C8F11990   6.305   2.545   5.148
  115OSM    H8F11991   6.384   2.469   5.128
  115OSM    H8G11992   6.357   2.641   5.168
  115OSM    C9F11993   6.209   2.564   5.036
  115OSM    H9F11994   6.138   2.643   5.066
  115OSM   C10F11995   6.203   2.513   4.912
  115OSM   H10F11996   6.125   2.553   4.846
  115OSM   C11F11997   6.292   2.404   4.859
  115OSM   H11F11998   6.231   2.321   4.817
  115OSM   H11G11999   6.359   2.364   4.938
  115OSM   C12F12000   6.387   2.439   4.748
  115OSM   H12F12001   6.457   2.520   4.777
  115OSM   H12G12002   6.326   2.471   4.661
  115OSM   C13F12003   6.478   2.320   4.702
  115OSM   H13F12004   6.406   2.252   4.652
  115OSM   H13G12005   6.527   2.282   4.794
  115OSM   C14F12006   6.584   2.365   4.594
  115OSM   H14F12007   6.633   2.275   4.553
  115OSM   H14G12008   6.667   2.421   4.645
  115OSM   C15F12009   6.526   2.442   4.476
  115OSM   H15F12010   6.473   2.530   4.519
  115OSM   H15G12011   6.447   2.377   4.433
  115OSM   C16F12012   6.632   2.480   4.374
  115OSM   H16F12013   6.695   2.396   4.337
  115OSM   H16G12014   6.696   2.562   4.414
  115OSM   C17F12015   6.560   2.525   4.244
  115OSM   H17F12016   6.639   2.569   4.180
  115OSM   H17G12017   6.508   2.617   4.279
  115OSM   C18F12018   6.470   2.431   4.168
  115OSM   H18F12019   6.375   2.412   4.223
  115OSM   H18G12020   6.521   2.333   4.154
  115OSM   H18H12021   6.429   2.458   4.068
  116OSM      N12022   0.772   1.187   6.670
  116OSM    C1512023   0.716   1.134   6.800
  116OSM   H15A12024   0.642   1.056   6.786
  116OSM   H15B12025   0.668   1.212   6.858
  116OSM   H15C12026   0.794   1.084   6.855
  116OSM    C1412027   0.663   1.251   6.593
  116OSM   H14A12028   0.584   1.178   6.585
  116OSM   H14B12029   0.679   1.284   6.492
  116OSM   H14C12030   0.611   1.333   6.640
  116OSM    C1312031   0.886   1.289   6.709
  116OSM   H13A12032   0.946   1.288   6.620
  116OSM   H13B12033   0.942   1.257   6.796
  116OSM   H13C12034   0.856   1.392   6.725
  116OSM    C1212035   0.843   1.071   6.586
  116OSM   H12A12036   0.781   0.983   6.587
  116OSM   H12B12037   0.932   1.040   6.639
  116OSM    C1112038   0.879   1.097   6.435
  116OSM   H11A12039   0.777   1.120   6.395
  116OSM   H11B12040   0.927   1.010   6.385
  116OSM      P12041   1.111   1.208   6.412
  116OSM    O1312042   1.154   1.326   6.490
  116OSM    O1412043   1.146   1.069   6.437
  116OSM    O1112044   1.127   1.240   6.258
  116OSM    O1212045   0.955   1.218   6.423
  116OSM    C1S12046   1.027   1.208   6.157
  116OSM    H1S12047   0.941   1.273   6.186
  116OSM    H1T12048   0.995   1.102   6.162
  116OSM     NF12049   0.956   1.227   5.924
  116OSM    HNF12050   0.949   1.151   5.860
  116OSM    C2S12051   1.072   1.238   6.015
  116OSM    H2S12052   1.112   1.340   5.998
  116OSM    C3S12053   1.185   1.144   5.970
  116OSM    H3S12054   1.131   1.048   5.956
  116OSM     O312055   1.284   1.108   6.072
  116OSM    HO312056   1.244   1.151   6.148
  116OSM    C4S12057   1.247   1.183   5.841
  116OSM    H4S12058   1.201   1.132   5.755
  116OSM    C5S12059   1.354   1.262   5.819
  116OSM    H5S12060   1.412   1.315   5.896
  116OSM    C6S12061   1.417   1.283   5.686
  116OSM    H6S12062   1.493   1.202   5.686
  116OSM    H6T12063   1.467   1.382   5.690
  116OSM    C7S12064   1.322   1.280   5.565
  116OSM    H7S12065   1.248   1.357   5.594
  116OSM    H7T12066   1.276   1.179   5.558
  116OSM    C8S12067   1.391   1.316   5.432
  116OSM    H8S12068   1.441   1.222   5.401
  116OSM    H8T12069   1.465   1.396   5.448
  116OSM    C9S12070   1.291   1.353   5.328
  116OSM    H9S12071   1.221   1.431   5.366
  116OSM    H9T12072   1.251   1.251   5.312
  116OSM   C10S12073   1.349   1.400   5.195
  116OSM   H10S12074   1.419   1.487   5.201
  116OSM   H10T12075   1.264   1.433   5.131
  116OSM   C11S12076   1.419   1.288   5.118
  116OSM   H11S12077   1.368   1.190   5.130
  116OSM   H11T12078   1.521   1.271   5.161
  116OSM   C12S12079   1.441   1.325   4.972
  116OSM   H12S12080   1.347   1.339   4.915
  116OSM   H12T12081   1.484   1.233   4.926
  116OSM   C13S12082   1.547   1.441   4.950
  116OSM   H13S12083   1.637   1.413   5.009
  116OSM   H13T12084   1.515   1.536   4.996
  116OSM   C14S12085   1.571   1.453   4.797
  116OSM   H14S12086   1.617   1.358   4.763
  116OSM   H14T12087   1.641   1.538   4.785
  116OSM   C15S12088   1.440   1.491   4.722
  116OSM   H15S12089   1.391   1.579   4.768
  116OSM   H15T12090   1.375   1.403   4.704
  116OSM   C16S12091   1.470   1.532   4.577
  116OSM   H16S12092   1.515   1.455   4.511
  116OSM   H16T12093   1.544   1.614   4.572
  116OSM   C17S12094   1.339   1.591   4.511
  116OSM   H17S12095   1.284   1.649   4.589
  116OSM   H17T12096   1.262   1.513   4.492
  116OSM   C18S12097   1.358   1.666   4.381
  116OSM   H18S12098   1.262   1.693   4.333
  116OSM   H18T12099   1.417   1.605   4.309
  116OSM   H18U12100   1.428   1.747   4.410
  116OSM    C1F12101   0.870   1.324   5.918
  116OSM     OF12102   0.897   1.430   5.972
  116OSM    C2F12103   0.742   1.300   5.841
  116OSM    H2F12104   0.662   1.270   5.911
  116OSM    H2G12105   0.753   1.204   5.787
  116OSM    C3F12106   0.725   1.421   5.747
  116OSM    H3F12107   0.686   1.507   5.805
  116OSM    H3G12108   0.652   1.380   5.675
  116OSM    C4F12109   0.844   1.482   5.666
  116OSM    H4F12110   0.929   1.417   5.637
  116OSM    H4G12111   0.893   1.550   5.738
  116OSM    C5F12112   0.801   1.568   5.544
  116OSM    H5F12113   0.729   1.507   5.486
  116OSM    H5G12114   0.883   1.592   5.473
  116OSM    C6F12115   0.726   1.697   5.590
  116OSM    H6F12116   0.794   1.756   5.656
  116OSM    H6G12117   0.643   1.666   5.656
  116OSM    C7F12118   0.658   1.774   5.478
  116OSM    H7F12119   0.599   1.856   5.525
  116OSM    H7G12120   0.576   1.709   5.439
  116OSM    C8F12121   0.745   1.814   5.357
  116OSM    H8F12122   0.798   1.722   5.325
  116OSM    H8G12123   0.831   1.870   5.399
  116OSM    C9F12124   0.665   1.891   5.252
  116OSM    H9F12125   0.594   1.966   5.292
  116OSM   C10F12126   0.672   1.876   5.123
  116OSM   H10F12127   0.605   1.934   5.059
  116OSM   C11F12128   0.747   1.767   5.054
  116OSM   H11F12129   0.701   1.667   5.070
  116OSM   H11G12130   0.851   1.757   5.091
  116OSM   C12F12131   0.738   1.783   4.903
  116OSM   H12F12132   0.812   1.861   4.873
  116OSM   H12G12133   0.635   1.810   4.874
  116OSM   C13F12134   0.782   1.661   4.825
  116OSM   H13F12135   0.695   1.592   4.819
  116OSM   H13G12136   0.872   1.605   4.858
  116OSM   C14F12137   0.814   1.695   4.679
  116OSM   H14F12138   0.893   1.773   4.683
  116OSM   H14G12139   0.726   1.730   4.622
  116OSM   C15F12140   0.872   1.587   4.586
  116OSM   H15F12141   0.812   1.495   4.568
  116OSM   H15G12142   0.975   1.568   4.623
  116OSM   C16F12143   0.888   1.654   4.450
  116OSM   H16F12144   0.943   1.751   4.458
  116OSM   H16G12145   0.785   1.676   4.415
  116OSM   C17F12146   0.948   1.547   4.363
  116OSM   H17F12147   0.883   1.457   4.361
  116OSM   H17G12148   1.051   1.527   4.401
  116OSM   C18F12149   0.960   1.593   4.218
  116OSM   H18F12150   1.006   1.694   4.225
  116OSM   H18G12151   0.864   1.606   4.165
  116OSM   H18H12152   1.013   1.525   4.148
  117OSM      N12153   0.488   3.793   7.111
  117OSM    C1512154   0.566   3.686   7.170
  117OSM   H15A12155   0.513   3.622   7.240
  117OSM   H15B12156   0.654   3.727   7.217
  117OSM   H15C12157   0.603   3.626   7.088
  117OSM    C1412158   0.360   3.726   7.060
  117OSM   H14A12159   0.386   3.649   6.989
  117OSM   H14B12160   0.309   3.799   6.998
  117OSM   H14C12161   0.293   3.676   7.128
  117OSM    C1312162   0.444   3.894   7.212
  117OSM   H13A12163   0.389   3.836   7.285
  117OSM   H13B12164   0.379   3.965   7.163
  117OSM   H13C12165   0.528   3.944   7.260
  117OSM    C1212166   0.561   3.864   7.004
  117OSM   H12A12167   0.604   3.789   6.938
  117OSM   H12B12168   0.650   3.905   7.049
  117OSM    C1112169   0.494   3.970   6.921
  117OSM   H11A12170   0.412   3.927   6.860
  117OSM   H11B12171   0.565   4.016   6.849
  117OSM      P12172   0.346   4.184   6.974
  117OSM    O1312173   0.219   4.120   7.009
  117OSM    O1412174   0.380   4.308   7.049
  117OSM    O1112175   0.349   4.200   6.817
  117OSM    O1212176   0.459   4.080   7.002
  117OSM    C1S12177   0.461   4.265   6.752
  117OSM    H1S12178   0.549   4.198   6.743
  117OSM    H1T12179   0.495   4.353   6.810
  117OSM     NF12180   0.556   4.364   6.548
  117OSM    HNF12181   0.551   4.463   6.535
  117OSM    C2S12182   0.431   4.316   6.604
  117OSM    H2S12183   0.389   4.239   6.536
  117OSM    C3S12184   0.311   4.416   6.599
  117OSM    H3S12185   0.350   4.498   6.662
  117OSM     O312186   0.192   4.383   6.676
  117OSM    HO312187   0.217   4.318   6.742
  117OSM    C4S12188   0.283   4.483   6.464
  117OSM    H4S12189   0.318   4.587   6.465
  117OSM    C5S12190   0.198   4.442   6.367
  117OSM    H5S12191   0.142   4.351   6.392
  117OSM    C6S12192   0.167   4.535   6.248
  117OSM    H6S12193   0.258   4.594   6.222
  117OSM    H6T12194   0.084   4.608   6.263
  117OSM    C7S12195   0.124   4.455   6.128
  117OSM    H7S12196   0.032   4.392   6.138
  117OSM    H7T12197   0.212   4.391   6.106
  117OSM    C8S12198   0.089   4.546   6.008
  117OSM    H8S12199   0.174   4.617   5.999
  117OSM    H8T12200   6.795   4.610   6.022
  117OSM    C9S12201   0.078   4.480   5.878
  117OSM    H9S12202   6.792   4.406   5.885
  117OSM    H9T12203   0.174   4.426   5.863
  117OSM   C10S12204   0.052   4.574   5.762
  117OSM   H10S12205   0.109   4.667   5.781
  117OSM   H10T12206   6.739   4.596   5.759
  117OSM   C11S12207   0.099   4.507   5.631
  117OSM   H11S12208   0.056   4.404   5.625
  117OSM   H11T12209   0.208   4.489   5.621
  117OSM   C12S12210   0.052   4.577   5.504
  117OSM   H12S12211   0.090   4.682   5.500
  117OSM   H12T12212   6.738   4.588   5.508
  117OSM   C13S12213   0.099   4.503   5.366
  117OSM   H13S12214   0.048   4.404   5.367
  117OSM   H13T12215   0.209   4.493   5.367
  117OSM   C14S12216   0.055   4.590   5.244
  117OSM   H14S12217   0.129   4.673   5.239
  117OSM   H14T12218   6.750   4.626   5.272
  117OSM   C15S12219   0.059   4.512   5.113
  117OSM   H15S12220   0.029   4.406   5.129
  117OSM   H15T12221   0.160   4.515   5.067
  117OSM   C16S12222   6.763   4.581   5.018
  117OSM   H16S12223   6.776   4.691   5.010
  117OSM   H16T12224   6.660   4.563   5.056
  117OSM   C17S12225   6.778   4.517   4.874
  117OSM   H17S12226   6.785   4.406   4.883
  117OSM   H17T12227   0.080   4.551   4.835
  117OSM   C18S12228   6.658   4.548   4.779
  117OSM   H18S12229   6.669   4.484   4.689
  117OSM   H18T12230   6.666   4.657   4.756
  117OSM   H18U12231   6.560   4.540   4.831
  117OSM    C1F12232   0.650   4.271   6.508
  117OSM     OF12233   0.632   4.150   6.526
  117OSM    C2F12234   0.774   4.321   6.444
  117OSM    H2F12235   0.855   4.255   6.482
  117OSM    H2G12236   0.798   4.413   6.502
  117OSM    C3F12237   0.769   4.338   6.291
  117OSM    H3F12238   0.706   4.419   6.247
  117OSM    H3G12239   0.732   4.241   6.253
  117OSM    C4F12240   0.908   4.363   6.232
  117OSM    H4F12241   0.971   4.289   6.286
  117OSM    H4G12242   0.948   4.464   6.254
  117OSM    C5F12243   0.920   4.335   6.081
  117OSM    H5F12244   0.844   4.391   6.021
  117OSM    H5G12245   0.914   4.227   6.057
  117OSM    C6F12246   1.059   4.367   6.031
  117OSM    H6F12247   1.147   4.335   6.091
  117OSM    H6G12248   1.083   4.475   6.028
  117OSM    C7F12249   1.080   4.311   5.888
  117OSM    H7F12250   1.072   4.200   5.885
  117OSM    H7G12251   1.184   4.342   5.863
  117OSM    C8F12252   0.979   4.376   5.786
  117OSM    H8F12253   0.974   4.487   5.791
  117OSM    H8G12254   0.877   4.338   5.807
  117OSM    C9F12255   1.009   4.332   5.642
  117OSM    H9F12256   0.999   4.222   5.641
  117OSM   C10F12257   1.041   4.399   5.530
  117OSM   H10F12258   1.052   4.343   5.436
  117OSM   C11F12259   1.057   4.543   5.514
  117OSM   H11F12260   1.074   4.588   5.615
  117OSM   H11G12261   0.970   4.597   5.472
  117OSM   C12F12262   1.188   4.569   5.434
  117OSM   H12F12263   1.272   4.507   5.473
  117OSM   H12G12264   1.193   4.680   5.437
  117OSM   C13F12265   1.164   4.541   5.280
  117OSM   H13F12266   1.062   4.577   5.254
  117OSM   H13G12267   1.181   4.437   5.243
  117OSM   C14F12268   1.250   4.615   5.174
  117OSM   H14F12269   1.356   4.586   5.192
  117OSM   H14G12270   1.240   4.722   5.201
  117OSM   C15F12271   1.197   4.588   5.030
  117OSM   H15F12272   1.090   4.617   5.024
  117OSM   H15G12273   1.200   4.478   5.018
  117OSM   C16F12274   1.276   4.657   4.916
  117OSM   H16F12275   1.291   4.765   4.937
  117OSM   H16G12276   1.221   4.640   4.821
  117OSM   C17F12277   1.418   4.604   4.906
  117OSM   H17F12278   1.416   4.493   4.896
  117OSM   H17G12279   1.467   4.628   5.002
  117OSM   C18F12280   1.512   4.663   4.794
  117OSM   H18F12281   1.516   4.616   4.693
  117OSM   H18G12282   1.620   4.665   4.820
  117OSM   H18H12283   1.472   4.766   4.780
  118OSM      N12284   0.295   3.325   6.517
  118OSM    C1512285   0.408   3.276   6.609
  118OSM   H15A12286   0.405   3.328   6.704
  118OSM   H15B12287   0.504   3.294   6.562
  118OSM   H15C12288   0.403   3.171   6.631
  118OSM    C1412289   0.307   3.470   6.495
  118OSM   H14A12290   0.229   3.499   6.427
  118OSM   H14B12291   0.396   3.496   6.439
  118OSM   H14C12292   0.308   3.530   6.585
  118OSM    C1312293   0.304   3.267   6.380
  118OSM   H13A12294   0.287   3.160   6.386
  118OSM   H13B12295   0.399   3.285   6.331
  118OSM   H13C12296   0.220   3.305   6.324
  118OSM    C1212297   0.168   3.290   6.581
  118OSM   H12A12298   0.081   3.328   6.530
  118OSM   H12B12299   0.167   3.341   6.676
  118OSM    C1112300   0.134   3.134   6.610
  118OSM   H11A12301   0.046   3.125   6.676
  118OSM   H11B12302   0.224   3.100   6.666
  118OSM      P12303   6.786   3.070   6.401
  118OSM    O1312304   6.706   2.949   6.423
  118OSM    O1412305   6.725   3.198   6.441
  118OSM    O1112306   0.051   3.074   6.256
  118OSM    O1212307   0.124   3.050   6.490
  118OSM    C1S12308   0.159   2.995   6.212
  118OSM    H1S12309   0.135   2.887   6.205
  118OSM    H1T12310   0.246   2.997   6.282
  118OSM     NF12311   0.301   2.949   6.003
  118OSM    HNF12312   0.389   2.994   5.995
  118OSM    C2S12313   0.194   3.035   6.068
  118OSM    H2S12314   0.099   3.014   6.014
  118OSM    C3S12315   0.222   3.194   6.055
  118OSM    H3S12316   0.316   3.211   6.113
  118OSM     O312317   0.135   3.286   6.124
  118OSM    HO312318   0.093   3.224   6.185
  118OSM    C4S12319   0.244   3.244   5.912
  118OSM    H4S12320   0.339   3.223   5.860
  118OSM    C5S12321   0.140   3.284   5.834
  118OSM    H5S12322   0.042   3.280   5.883
  118OSM    C6S12323   0.134   3.315   5.690
  118OSM    H6S12324   0.114   3.422   5.667
  118OSM    H6T12325   0.045   3.259   5.652
  118OSM    C7S12326   0.260   3.259   5.612
  118OSM    H7S12327   0.288   3.154   5.634
  118OSM    H7T12328   0.345   3.327   5.632
  118OSM    C8S12329   0.237   3.267   5.456
  118OSM    H8S12330   0.212   3.371   5.427
  118OSM    H8T12331   0.155   3.197   5.430
  118OSM    C9S12332   0.356   3.218   5.376
  118OSM    H9S12333   0.377   3.112   5.398
  118OSM    H9T12334   0.451   3.272   5.397
  118OSM   C10S12335   0.344   3.221   5.224
  118OSM   H10S12336   0.265   3.153   5.187
  118OSM   H10T12337   0.432   3.188   5.164
  118OSM   C11S12338   0.302   3.348   5.158
  118OSM   H11S12339   0.374   3.417   5.206
  118OSM   H11T12340   0.202   3.393   5.180
  118OSM   C12S12341   0.327   3.354   5.009
  118OSM   H12S12342   0.264   3.285   4.949
  118OSM   H12T12343   0.435   3.335   4.988
  118OSM   C13S12344   0.306   3.488   4.954
  118OSM   H13S12345   0.369   3.573   4.987
  118OSM   H13T12346   0.201   3.518   4.978
  118OSM   C14S12347   0.316   3.497   4.798
  118OSM   H14S12348   0.269   3.595   4.772
  118OSM   H14T12349   0.252   3.414   4.761
  118OSM   C15S12350   0.458   3.497   4.728
  118OSM   H15S12351   0.521   3.424   4.782
  118OSM   H15T12352   0.501   3.597   4.753
  118OSM   C16S12353   0.459   3.471   4.578
  118OSM   H16S12354   0.562   3.433   4.562
  118OSM   H16T12355   0.439   3.563   4.518
  118OSM   C17S12356   0.369   3.360   4.525
  118OSM   H17S12357   0.267   3.403   4.530
  118OSM   H17T12358   0.375   3.265   4.582
  118OSM   C18S12359   0.409   3.328   4.384
  118OSM   H18S12360   0.507   3.276   4.376
  118OSM   H18T12361   0.406   3.420   4.322
  118OSM   H18U12362   0.336   3.260   4.336
  118OSM    C1F12363   0.279   2.824   5.972
  118OSM     OF12364   0.175   2.772   5.991
  118OSM    C2F12365   0.404   2.753   5.930
  118OSM    H2F12366   0.396   2.650   5.969
  118OSM    H2G12367   0.489   2.805   5.979
  118OSM    C3F12368   0.423   2.742   5.776
  118OSM    H3F12369   0.330   2.699   5.734
  118OSM    H3G12370   0.499   2.663   5.760
  118OSM    C4F12371   0.455   2.877   5.711
  118OSM    H4F12372   0.536   2.930   5.766
  118OSM    H4G12373   0.364   2.942   5.713
  118OSM    C5F12374   0.510   2.870   5.573
  118OSM    H5F12375   0.433   2.868   5.492
  118OSM    H5G12376   0.565   2.774   5.563
  118OSM    C6F12377   0.602   2.993   5.537
  118OSM    H6F12378   0.698   2.967   5.587
  118OSM    H6G12379   0.553   3.081   5.582
  118OSM    C7F12380   0.643   3.000   5.388
  118OSM    H7F12381   0.547   3.012   5.333
  118OSM    H7G12382   0.671   2.898   5.353
  118OSM    C8F12383   0.746   3.117   5.350
  118OSM    H8F12384   0.703   3.218   5.370
  118OSM    H8G12385   0.740   3.103   5.240
  118OSM    C9F12386   0.878   3.099   5.416
  118OSM    H9F12387   0.875   3.043   5.510
  118OSM   C10F12388   1.000   3.102   5.357
  118OSM   H10F12389   1.091   3.090   5.418
  118OSM   C11F12390   1.028   3.160   5.222
  118OSM   H11F12391   1.135   3.188   5.210
  118OSM   H11G12392   0.962   3.248   5.212
  118OSM   C12F12393   0.977   3.062   5.114
  118OSM   H12F12394   0.866   3.072   5.117
  118OSM   H12G12395   1.008   2.960   5.143
  118OSM   C13F12396   1.048   3.080   4.977
  118OSM   H13F12397   1.045   2.975   4.940
  118OSM   H13G12398   1.154   3.107   5.000
  118OSM   C14F12399   0.975   3.176   4.890
  118OSM   H14F12400   1.008   3.273   4.932
  118OSM   H14G12401   0.866   3.174   4.911
  118OSM   C15F12402   0.996   3.162   4.744
  118OSM   H15F12403   0.947   3.071   4.703
  118OSM   H15G12404   1.105   3.142   4.736
  118OSM   C16F12405   0.956   3.278   4.649
  118OSM   H16F12406   1.012   3.370   4.676
  118OSM   H16G12407   0.852   3.310   4.669
  118OSM   C17F12408   0.977   3.246   4.500
  118OSM   H17F12409   0.921   3.154   4.472
  118OSM   H17G12410   1.081   3.215   4.478
  118OSM   C18F12411   0.925   3.365   4.420
  118OSM   H18F12412   0.995   3.450   4.405
  118OSM   H18G12413   0.820   3.391   4.444
  118OSM   H18H12414   0.923   3.338   4.312
  119OSM      N12415   3.102   1.230   6.767
  119OSM    C1512416   3.225   1.146   6.765
  119OSM   H15A12417   3.198   1.044   6.743
  119OSM   H15B12418   3.281   1.151   6.857
  119OSM   H15C12419   3.300   1.177   6.694
  119OSM    C1412420   3.011   1.149   6.847
  119OSM   H14A12421   3.068   1.106   6.928
  119OSM   H14B12422   2.963   1.079   6.781
  119OSM   H14C12423   2.935   1.212   6.891
  119OSM    C1312424   3.131   1.371   6.821
  119OSM   H13A12425   3.168   1.362   6.922
  119OSM   H13B12426   3.042   1.432   6.825
  119OSM   H13C12427   3.199   1.426   6.758
  119OSM    C1212428   3.032   1.244   6.630
  119OSM   H12A12429   3.096   1.305   6.568
  119OSM   H12B12430   2.937   1.292   6.646
  119OSM    C1112431   3.013   1.115   6.537
  119OSM   H11A12432   3.106   1.054   6.538
  119OSM   H11B12433   3.004   1.145   6.430
  119OSM      P12434   2.755   1.100   6.537
  119OSM    O1312435   2.649   1.006   6.586
  119OSM    O1412436   2.747   1.244   6.581
  119OSM    O1112437   2.768   1.099   6.379
  119OSM    O1212438   2.897   1.043   6.581
  119OSM    C1S12439   2.802   0.981   6.311
  119OSM    H1S12440   2.722   0.906   6.329
  119OSM    H1T12441   2.904   0.947   6.337
  119OSM     NF12442   2.845   0.864   6.111
  119OSM    HNF12443   2.942   0.845   6.096
  119OSM    C2S12444   2.800   0.997   6.158
  119OSM    H2S12445   2.695   1.007   6.122
  119OSM    C3S12446   2.900   1.104   6.107
  119OSM    H3S12447   3.000   1.061   6.130
  119OSM     O312448   2.901   1.227   6.179
  119OSM    HO312449   2.837   1.212   6.249
  119OSM    C4S12450   2.897   1.115   5.953
  119OSM    H4S12451   2.964   1.052   5.894
  119OSM    C5S12452   2.822   1.200   5.879
  119OSM    H5S12453   2.782   1.287   5.932
  119OSM    C6S12454   2.815   1.212   5.722
  119OSM    H6S12455   2.903   1.163   5.675
  119OSM    H6T12456   2.801   1.315   5.685
  119OSM    C7S12457   2.690   1.124   5.679
  119OSM    H7S12458   2.608   1.161   5.744
  119OSM    H7T12459   2.712   1.020   5.711
  119OSM    C8S12460   2.663   1.133   5.530
  119OSM    H8S12461   2.611   1.226   5.498
  119OSM    H8T12462   2.600   1.047   5.498
  119OSM    C9S12463   2.791   1.119   5.444
  119OSM    H9S12464   2.829   1.025   5.492
  119OSM    H9T12465   2.866   1.194   5.479
  119OSM   C10S12466   2.766   1.108   5.295
  119OSM   H10S12467   2.757   1.207   5.244
  119OSM   H10T12468   2.668   1.058   5.278
  119OSM   C11S12469   2.877   1.049   5.207
  119OSM   H11S12470   2.895   0.942   5.231
  119OSM   H11T12471   2.970   1.105   5.230
  119OSM   C12S12472   2.860   1.071   5.052
  119OSM   H12S12473   2.899   1.171   5.024
  119OSM   H12T12474   2.751   1.072   5.031
  119OSM   C13S12475   2.927   0.964   4.963
  119OSM   H13S12476   2.875   0.871   4.994
  119OSM   H13T12477   3.035   0.961   4.989
  119OSM   C14S12478   2.913   0.975   4.808
  119OSM   H14S12479   2.932   1.079   4.774
  119OSM   H14T12480   2.809   0.948   4.777
  119OSM   C15S12481   3.014   0.888   4.735
  119OSM   H15S12482   2.986   0.783   4.755
  119OSM   H15T12483   3.112   0.908   4.784
  119OSM   C16S12484   3.015   0.891   4.583
  119OSM   H16S12485   3.087   0.971   4.555
  119OSM   H16T12486   2.912   0.923   4.559
  119OSM   C17S12487   3.044   0.760   4.503
  119OSM   H17S12488   2.969   0.695   4.553
  119OSM   H17T12489   3.147   0.721   4.511
  119OSM   C18S12490   3.008   0.775   4.354
  119OSM   H18S12491   3.059   0.857   4.299
  119OSM   H18T12492   2.900   0.798   4.345
  119OSM   H18U12493   3.030   0.676   4.308
  119OSM    C1F12494   2.767   0.753   6.101
  119OSM     OF12495   2.646   0.767   6.123
  119OSM    C2F12496   2.821   0.623   6.075
  119OSM    H2F12497   2.810   0.567   6.171
  119OSM    H2G12498   2.928   0.620   6.043
  119OSM    C3F12499   2.740   0.550   5.966
  119OSM    H3F12500   2.634   0.549   5.998
  119OSM    H3G12501   2.764   0.442   5.967
  119OSM    C4F12502   2.744   0.612   5.820
  119OSM    H4F12503   2.735   0.723   5.826
  119OSM    H4G12504   2.667   0.553   5.766
  119OSM    C5F12505   2.872   0.587   5.742
  119OSM    H5F12506   2.910   0.483   5.730
  119OSM    H5G12507   2.953   0.637   5.799
  119OSM    C6F12508   2.880   0.651   5.598
  119OSM    H6F12509   2.972   0.632   5.540
  119OSM    H6G12510   2.864   0.761   5.594
  119OSM    C7F12511   2.764   0.594   5.505
  119OSM    H7F12512   2.668   0.611   5.558
  119OSM    H7G12513   2.778   0.485   5.494
  119OSM    C8F12514   2.742   0.670   5.376
  119OSM    H8F12515   2.714   0.775   5.398
  119OSM    H8G12516   2.654   0.632   5.320
  119OSM    C9F12517   2.859   0.645   5.286
  119OSM    H9F12518   2.959   0.675   5.322
  119OSM   C10F12519   2.851   0.587   5.171
  119OSM   H10F12520   2.940   0.587   5.107
  119OSM   C11F12521   2.740   0.529   5.101
  119OSM   H11F12522   2.640   0.534   5.149
  119OSM   H11G12523   2.763   0.420   5.103
  119OSM   C12F12524   2.717   0.556   4.947
  119OSM   H12F12525   2.674   0.657   4.932
  119OSM   H12G12526   2.634   0.500   4.898
  119OSM   C13F12527   2.846   0.552   4.862
  119OSM   H13F12528   2.922   0.615   4.913
  119OSM   H13G12529   2.828   0.591   4.760
  119OSM   C14F12530   2.899   0.410   4.853
  119OSM   H14F12531   2.919   0.369   4.954
  119OSM   H14G12532   2.996   0.395   4.801
  119OSM   C15F12533   2.806   0.308   4.786
  119OSM   H15F12534   2.758   0.329   4.688
  119OSM   H15G12535   2.725   0.288   4.860
  119OSM   C16F12536   2.864   0.163   4.767
  119OSM   H16F12537   2.898   0.130   4.867
  119OSM   H16G12538   2.946   0.191   4.697
  119OSM   C17F12539   2.767   0.065   4.709
  119OSM   H17F12540   2.725   0.116   4.620
  119OSM   H17G12541   2.683   0.064   4.782
  119OSM   C18F12542   2.829   6.730   4.683
  119OSM   H18F12543   2.860   6.684   4.779
  119OSM   H18G12544   2.902   6.713   4.601
  119OSM   H18H12545   2.758   6.646   4.667
  120OSM      N12546   5.569   4.722   6.910
  120OSM    C1512547   5.629   4.839   6.854
  120OSM   H15A12548   5.576   4.926   6.892
  120OSM   H15B12549   5.603   4.852   6.750
  120OSM   H15C12550   5.736   4.848   6.869
  120OSM    C1412551   5.614   4.609   6.818
  120OSM   H14A12552   5.566   4.515   6.840
  120OSM   H14B12553   5.716   4.587   6.845
  120OSM   H14C12554   5.606   4.636   6.713
  120OSM    C1312555   5.597   4.682   7.048
  120OSM   H13A12556   5.570   4.580   7.070
  120OSM   H13B12557   5.542   4.749   7.112
  120OSM   H13C12558   5.703   4.694   7.062
  120OSM    C1212559   5.410   4.721   6.894
  120OSM   H12A12560   5.384   4.619   6.868
  120OSM   H12B12561   5.381   4.787   6.814
  120OSM    C1112562   5.312   4.774   7.007
  120OSM   H11A12563   5.308   4.708   7.096
  120OSM   H11B12564   5.215   4.766   6.953
  120OSM      P12565   5.248   5.028   7.033
  120OSM    O1312566   5.121   4.989   7.101
  120OSM    O1412567   5.319   5.148   7.077
  120OSM    O1112568   5.231   5.032   6.876
  120OSM    O1212569   5.340   4.907   7.047
  120OSM    C1S12570   5.316   5.091   6.780
  120OSM    H1S12571   5.420   5.080   6.817
  120OSM    H1T12572   5.303   5.201   6.768
  120OSM     NF12573   5.398   5.130   6.552
  120OSM    HNF12574   5.363   5.184   6.476
  120OSM    C2S12575   5.311   5.048   6.633
  120OSM    H2S12576   5.354   4.946   6.631
  120OSM    C3S12577   5.163   5.047   6.583
  120OSM    H3S12578   5.129   5.152   6.588
  120OSM     O312579   5.082   4.964   6.662
  120OSM    HO312580   5.147   4.940   6.728
  120OSM    C4S12581   5.156   5.005   6.438
  120OSM    H4S12582   5.164   5.082   6.360
  120OSM    C5S12583   5.146   4.880   6.387
  120OSM    H5S12584   5.142   4.803   6.465
  120OSM    C6S12585   5.128   4.828   6.243
  120OSM    H6S12586   5.036   4.766   6.243
  120OSM    H6T12587   5.216   4.766   6.215
  120OSM    C7S12588   5.125   4.936   6.135
  120OSM    H7S12589   5.227   4.980   6.137
  120OSM    H7T12590   5.040   5.008   6.137
  120OSM    C8S12591   5.118   4.870   6.001
  120OSM    H8S12592   5.022   4.821   5.973
  120OSM    H8T12593   5.183   4.780   6.006
  120OSM    C9S12594   5.155   4.961   5.884
  120OSM    H9S12595   5.252   5.012   5.903
  120OSM    H9T12596   5.089   5.050   5.882
  120OSM   C10S12597   5.136   4.903   5.737
  120OSM   H10S12598   5.032   4.864   5.726
  120OSM   H10T12599   5.213   4.828   5.711
  120OSM   C11S12600   5.147   5.024   5.631
  120OSM   H11S12601   5.248   5.070   5.642
  120OSM   H11T12602   5.081   5.110   5.653
  120OSM   C12S12603   5.128   4.973   5.487
  120OSM   H12S12604   5.019   4.956   5.473
  120OSM   H12T12605   5.181   4.876   5.474
  120OSM   C13S12606   5.169   5.077   5.387
  120OSM   H13S12607   5.278   5.098   5.385
  120OSM   H13T12608   5.124   5.174   5.416
  120OSM   C14S12609   5.124   5.047   5.249
  120OSM   H14S12610   5.165   5.124   5.180
  120OSM   H14T12611   5.013   5.052   5.248
  120OSM   C15S12612   5.174   4.907   5.208
  120OSM   H15S12613   5.137   4.902   5.103
  120OSM   H15T12614   5.128   4.826   5.268
  120OSM   C16S12615   5.318   4.882   5.182
  120OSM   H16S12616   5.330   4.778   5.145
  120OSM   H16T12617   5.381   4.883   5.273
  120OSM   C17S12618   5.373   4.980   5.079
  120OSM   H17S12619   5.391   5.079   5.125
  120OSM   H17T12620   5.304   5.002   4.995
  120OSM   C18S12621   5.509   4.935   5.016
  120OSM   H18S12622   5.590   4.954   5.090
  120OSM   H18T12623   5.532   5.011   4.939
  120OSM   H18U12624   5.513   4.832   4.973
  120OSM    C1F12625   5.530   5.132   6.577
  120OSM     OF12626   5.584   5.055   6.658
  120OSM    C2F12627   5.605   5.251   6.519
  120OSM    H2F12628   5.643   5.316   6.601
  120OSM    H2G12629   5.536   5.311   6.457
  120OSM    C3F12630   5.736   5.224   6.429
  120OSM    H3F12631   5.801   5.168   6.498
  120OSM    H3G12632   5.784   5.322   6.405
  120OSM    C4F12633   5.711   5.139   6.311
  120OSM    H4F12634   5.623   5.075   6.331
  120OSM    H4G12635   5.797   5.075   6.280
  120OSM    C5F12636   5.673   5.217   6.178
  120OSM    H5F12637   5.767   5.277   6.174
  120OSM    H5G12638   5.591   5.287   6.205
  120OSM    C6F12639   5.647   5.134   6.052
  120OSM    H6F12640   5.537   5.135   6.035
  120OSM    H6G12641   5.680   5.030   6.073
  120OSM    C7F12642   5.717   5.197   5.932
  120OSM    H7F12643   5.822   5.200   5.969
  120OSM    H7G12644   5.669   5.295   5.914
  120OSM    C8F12645   5.723   5.108   5.802
  120OSM    H8F12646   5.754   5.007   5.836
  120OSM    H8G12647   5.801   5.150   5.735
  120OSM    C9F12648   5.591   5.094   5.734
  120OSM    H9F12649   5.516   5.039   5.792
  120OSM   C10F12650   5.561   5.145   5.609
  120OSM   H10F12651   5.457   5.140   5.574
  120OSM   C11F12652   5.652   5.229   5.524
  120OSM   H11F12653   5.731   5.274   5.589
  120OSM   H11G12654   5.594   5.313   5.481
  120OSM   C12F12655   5.726   5.149   5.416
  120OSM   H12F12656   5.656   5.090   5.352
  120OSM   H12G12657   5.788   5.063   5.449
  120OSM   C13F12658   5.811   5.243   5.326
  120OSM   H13F12659   5.868   5.308   5.396
  120OSM   H13G12660   5.751   5.307   5.259
  120OSM   C14F12661   5.916   5.168   5.242
  120OSM   H14F12662   5.990   5.119   5.309
  120OSM   H14G12663   5.974   5.250   5.193
  120OSM   C15F12664   5.869   5.064   5.136
  120OSM   H15F12665   5.792   5.115   5.075
  120OSM   H15G12666   5.822   4.982   5.194
  120OSM   C16F12667   5.989   5.006   5.055
  120OSM   H16F12668   6.039   4.931   5.121
  120OSM   H16G12669   6.049   5.096   5.031
  120OSM   C17F12670   5.933   4.944   4.930
  120OSM   H17F12671   5.876   5.016   4.869
  120OSM   H17G12672   5.850   4.874   4.955
  120OSM   C18F12673   6.041   4.869   4.854
  120OSM   H18F12674   6.105   4.804   4.917
  120OSM   H18G12675   6.103   4.937   4.793
  120OSM   H18H12676   5.995   4.804   4.776
  121OSM      N12677   6.618   1.218   6.914
  121OSM    C1512678   6.600   1.366   6.934
  121OSM   H15A12679   6.508   1.382   6.990
  121OSM   H15B12680   6.594   1.412   6.837
  121OSM   H15C12681   6.681   1.421   6.979
  121OSM    C1412682   6.756   1.187   6.877
  121OSM   H14A12683   0.029   1.209   6.958
  121OSM   H14B12684   6.783   1.243   6.789
  121OSM   H14C12685   6.768   1.082   6.855
  121OSM    C1312686   6.601   1.160   7.049
  121OSM   H13A12687   6.643   1.061   7.059
  121OSM   H13B12688   6.493   1.161   7.053
  121OSM   H13C12689   6.657   1.220   7.119
  121OSM    C1212690   6.525   1.154   6.814
  121OSM   H12A12691   6.542   1.189   6.714
  121OSM   H12B12692   6.423   1.178   6.838
  121OSM    C1112693   6.552   1.003   6.794
  121OSM   H11A12694   6.458   0.970   6.745
  121OSM   H11B12695   6.566   0.954   6.893
  121OSM      P12696   6.725   0.841   6.668
  121OSM    O1312697   0.023   0.855   6.558
  121OSM    O1412698   6.762   0.757   6.786
  121OSM    O1112699   6.600   0.763   6.601
  121OSM    O1212700   6.666   0.982   6.705
  121OSM    C1S12701   6.508   0.843   6.519
  121OSM    H1S12702   6.566   0.930   6.482
  121OSM    H1T12703   6.420   0.883   6.574
  121OSM     NF12704   6.368   0.846   6.300
  121OSM    HNF12705   6.272   0.819   6.301
  121OSM    C2S12706   6.444   0.763   6.399
  121OSM    H2S12707   6.520   0.717   6.332
  121OSM    C3S12708   6.375   0.636   6.461
  121OSM    H3S12709   6.291   0.674   6.524
  121OSM     O312710   6.436   0.561   6.568
  121OSM    HO312711   6.512   0.607   6.605
  121OSM    C4S12712   6.321   0.549   6.351
  121OSM    H4S12713   6.215   0.573   6.336
  121OSM    C5S12714   6.384   0.447   6.290
  121OSM    H5S12715   6.489   0.425   6.314
  121OSM    C6S12716   6.312   0.371   6.179
  121OSM    H6S12717   6.214   0.337   6.218
  121OSM    H6T12718   6.371   0.277   6.167
  121OSM    C7S12719   6.268   0.446   6.045
  121OSM    H7S12720   6.364   0.492   6.013
  121OSM    H7T12721   6.203   0.534   6.065
  121OSM    C8S12722   6.219   0.358   5.935
  121OSM    H8S12723   6.122   0.311   5.961
  121OSM    H8T12724   6.294   0.277   5.924
  121OSM    C9S12725   6.179   0.439   5.809
  121OSM    H9S12726   6.273   0.492   5.783
  121OSM    H9T12727   6.113   0.523   5.842
  121OSM   C10S12728   6.115   0.361   5.703
  121OSM   H10S12729   6.025   0.305   5.739
  121OSM   H10T12730   6.186   0.291   5.654
  121OSM   C11S12731   6.067   0.447   5.588
  121OSM   H11S12732   6.155   0.493   5.538
  121OSM   H11T12733   6.002   0.527   5.629
  121OSM   C12S12734   5.994   0.361   5.482
  121OSM   H12S12735   5.904   0.322   5.535
  121OSM   H12T12736   6.068   0.280   5.465
  121OSM   C13S12737   5.945   0.433   5.360
  121OSM   H13S12738   5.925   0.537   5.391
  121OSM   H13T12739   5.854   0.380   5.324
  121OSM   C14S12740   6.043   0.418   5.247
  121OSM   H14S12741   6.054   0.310   5.224
  121OSM   H14T12742   6.145   0.450   5.279
  121OSM   C15S12743   6.000   0.488   5.118
  121OSM   H15S12744   5.990   0.595   5.146
  121OSM   H15T12745   5.900   0.448   5.090
  121OSM   C16S12746   6.103   0.480   5.002
  121OSM   H16S12747   6.100   0.373   4.971
  121OSM   H16T12748   6.208   0.494   5.037
  121OSM   C17S12749   6.071   0.565   4.880
  121OSM   H17S12750   6.150   0.530   4.810
  121OSM   H17T12751   6.084   0.670   4.913
  121OSM   C18S12752   5.931   0.538   4.823
  121OSM   H18S12753   5.915   0.593   4.728
  121OSM   H18T12754   5.853   0.558   4.899
  121OSM   H18U12755   5.921   0.431   4.796
  121OSM    C1F12756   6.425   0.943   6.224
  121OSM     OF12757   6.542   0.972   6.241
  121OSM    C2F12758   6.337   1.017   6.131
  121OSM    H2F12759   6.346   1.125   6.158
  121OSM    H2G12760   6.234   0.978   6.137
  121OSM    C3F12761   6.373   1.001   5.979
  121OSM    H3F12762   6.468   1.053   5.954
  121OSM    H3G12763   6.292   1.059   5.931
  121OSM    C4F12764   6.374   0.849   5.953
  121OSM    H4F12765   6.276   0.803   5.977
  121OSM    H4G12766   6.452   0.800   6.014
  121OSM    C5F12767   6.395   0.805   5.808
  121OSM    H5F12768   6.385   0.695   5.810
  121OSM    H5G12769   6.498   0.840   5.784
  121OSM    C6F12770   6.299   0.874   5.707
  121OSM    H6F12771   6.320   0.828   5.608
  121OSM    H6G12772   6.321   0.983   5.709
  121OSM    C7F12773   6.156   0.837   5.740
  121OSM    H7F12774   6.128   0.894   5.831
  121OSM    H7G12775   6.137   0.730   5.763
  121OSM    C8F12776   6.060   0.875   5.627
  121OSM    H8F12777   6.062   0.985   5.610
  121OSM    H8G12778   5.959   0.848   5.664
  121OSM    C9F12779   6.059   0.800   5.501
  121OSM    H9F12780   6.048   0.693   5.523
  121OSM   C10F12781   6.086   0.837   5.377
  121OSM   H10F12782   6.097   0.754   5.306
  121OSM   C11F12783   6.104   0.978   5.327
  121OSM   H11F12784   6.095   1.045   5.415
  121OSM   H11G12785   6.031   1.008   5.249
  121OSM   C12F12786   6.245   0.996   5.269
  121OSM   H12F12787   6.330   0.951   5.325
  121OSM   H12G12788   6.260   1.106   5.282
  121OSM   C13F12789   6.252   0.958   5.116
  121OSM   H13F12790   6.149   0.937   5.081
  121OSM   H13G12791   6.311   0.865   5.105
  121OSM   C14F12792   6.302   1.079   5.033
  121OSM   H14F12793   6.405   1.102   5.066
  121OSM   H14G12794   6.256   1.180   5.036
  121OSM   C15F12795   6.307   1.039   4.879
  121OSM   H15F12796   6.210   0.991   4.854
  121OSM   H15G12797   6.378   0.953   4.876
  121OSM   C16F12798   6.352   1.146   4.778
  121OSM   H16F12799   6.461   1.160   4.796
  121OSM   H16G12800   6.301   1.238   4.811
  121OSM   C17F12801   6.324   1.117   4.627
  121OSM   H17F12802   6.217   1.123   4.597
  121OSM   H17G12803   6.371   1.018   4.607
  121OSM   C18F12804   6.384   1.212   4.525
  121OSM   H18F12805   6.330   1.308   4.512
  121OSM   H18G12806   6.395   1.167   4.424
  121OSM   H18H12807   6.481   1.253   4.562
  122OSM      N12808   6.209   3.416   6.997
  122OSM    C1512809   6.196   3.278   7.039
  122OSM   H15A12810   6.225   3.260   7.141
  122OSM   H15B12811   6.267   3.210   6.994
  122OSM   H15C12812   6.096   3.241   7.022
  122OSM    C1412813   6.133   3.498   7.095
  122OSM   H14A12814   6.152   3.602   7.076
  122OSM   H14B12815   6.148   3.480   7.200
  122OSM   H14C12816   6.027   3.476   7.083
  122OSM    C1312817   6.345   3.463   7.016
  122OSM   H13A12818   6.419   3.392   6.983
  122OSM   H13B12819   6.370   3.481   7.120
  122OSM   H13C12820   6.361   3.556   6.964
  122OSM    C1212821   6.169   3.436   6.851
  122OSM   H12A12822   6.076   3.387   6.828
  122OSM   H12B12823   6.239   3.378   6.793
  122OSM    C1112824   6.180   3.570   6.786
  122OSM   H11A12825   6.177   3.557   6.676
  122OSM   H11B12826   6.286   3.602   6.803
  122OSM      P12827   6.123   3.814   6.860
  122OSM    O1312828   6.025   3.857   6.960
  122OSM    O1412829   6.261   3.820   6.905
  122OSM    O1112830   6.104   3.898   6.727
  122OSM    O1212831   6.084   3.668   6.827
  122OSM    C1S12832   6.221   3.917   6.640
  122OSM    H1S12833   6.258   3.819   6.602
  122OSM    H1T12834   6.302   3.968   6.697
  122OSM     NF12835   6.287   3.992   6.406
  122OSM    HNF12836   6.344   4.073   6.403
  122OSM    C2S12837   6.185   3.997   6.513
  122OSM    H2S12838   6.098   3.942   6.471
  122OSM    C3S12839   6.128   4.142   6.543
  122OSM    H3S12840   6.204   4.210   6.586
  122OSM     O312841   6.021   4.154   6.637
  122OSM    HO312842   6.035   4.075   6.689
  122OSM    C4S12843   6.085   4.195   6.411
  122OSM    H4S12844   6.158   4.261   6.361
  122OSM    C5S12845   5.961   4.179   6.359
  122OSM    H5S12846   5.883   4.122   6.411
  122OSM    C6S12847   5.936   4.211   6.213
  122OSM    H6S12848   5.930   4.119   6.151
  122OSM    H6T12849   6.011   4.281   6.172
  122OSM    C7S12850   5.801   4.283   6.202
  122OSM    H7S12851   5.811   4.386   6.242
  122OSM    H7T12852   5.729   4.226   6.264
  122OSM    C8S12853   5.760   4.290   6.053
  122OSM    H8S12854   5.838   4.351   6.001
  122OSM    H8T12855   5.666   4.348   6.042
  122OSM    C9S12856   5.723   4.162   5.983
  122OSM    H9S12857   5.680   4.098   6.063
  122OSM    H9T12858   5.815   4.108   5.950
  122OSM   C10S12859   5.616   4.176   5.870
  122OSM   H10S12860   5.532   4.242   5.903
  122OSM   H10T12861   5.580   4.076   5.838
  122OSM   C11S12862   5.694   4.240   5.747
  122OSM   H11S12863   5.779   4.171   5.725
  122OSM   H11T12864   5.745   4.335   5.776
  122OSM   C12S12865   5.608   4.269   5.623
  122OSM   H12S12866   5.671   4.314   5.543
  122OSM   H12T12867   5.531   4.343   5.652
  122OSM   C13S12868   5.556   4.144   5.565
  122OSM   H13S12869   5.505   4.092   5.649
  122OSM   H13T12870   5.636   4.071   5.541
  122OSM   C14S12871   5.451   4.165   5.461
  122OSM   H14S12872   5.490   4.200   5.363
  122OSM   H14T12873   5.380   4.248   5.479
  122OSM   C15S12874   5.375   4.032   5.433
  122OSM   H15S12875   5.317   4.005   5.524
  122OSM   H15T12876   5.445   3.958   5.390
  122OSM   C16S12877   5.284   4.063   5.312
  122OSM   H16S12878   5.352   4.109   5.238
  122OSM   H16T12879   5.214   4.144   5.338
  122OSM   C17S12880   5.225   3.934   5.242
  122OSM   H17S12881   5.122   3.903   5.270
  122OSM   H17T12882   5.288   3.847   5.270
  122OSM   C18S12883   5.214   3.945   5.083
  122OSM   H18S12884   5.320   3.958   5.053
  122OSM   H18T12885   5.141   4.026   5.061
  122OSM   H18U12886   5.188   3.848   5.035
  122OSM    C1F12887   6.314   3.877   6.349
  122OSM     OF12888   6.235   3.782   6.358
  122OSM    C2F12889   6.436   3.859   6.269
  122OSM    H2F12890   6.511   3.811   6.335
  122OSM    H2G12891   6.468   3.958   6.230
  122OSM    C3F12892   6.412   3.759   6.150
  122OSM    H3F12893   6.336   3.681   6.172
  122OSM    H3G12894   6.512   3.718   6.127
  122OSM    C4F12895   6.377   3.835   6.020
  122OSM    H4F12896   6.469   3.894   6.001
  122OSM    H4G12897   6.282   3.891   6.033
  122OSM    C5F12898   6.358   3.735   5.901
  122OSM    H5F12899   6.294   3.657   5.947
  122OSM    H5G12900   6.453   3.679   5.884
  122OSM    C6F12901   6.310   3.792   5.763
  122OSM    H6F12902   6.374   3.880   5.742
  122OSM    H6G12903   6.208   3.835   5.771
  122OSM    C7F12904   6.322   3.696   5.649
  122OSM    H7F12905   6.267   3.604   5.679
  122OSM    H7G12906   6.428   3.664   5.641
  122OSM    C8F12907   6.251   3.738   5.523
  122OSM    H8F12908   6.161   3.793   5.559
  122OSM    H8G12909   6.223   3.646   5.468
  122OSM    C9F12910   6.335   3.836   5.437
  122OSM    H9F12911   6.362   3.930   5.487
  122OSM   C10F12912   6.377   3.814   5.306
  122OSM   H10F12913   6.435   3.890   5.250
  122OSM   C11F12914   6.328   3.700   5.225
  122OSM   H11F12915   6.343   3.605   5.282
  122OSM   H11G12916   6.384   3.689   5.130
  122OSM   C12F12917   6.185   3.708   5.188
  122OSM   H12F12918   6.155   3.804   5.140
  122OSM   H12G12919   6.122   3.694   5.278
  122OSM   C13F12920   6.137   3.594   5.096
  122OSM   H13F12921   6.048   3.538   5.133
  122OSM   H13G12922   6.216   3.517   5.081
  122OSM   C14F12923   6.114   3.655   4.953
  122OSM   H14F12924   6.046   3.742   4.962
  122OSM   H14G12925   6.066   3.577   4.889
  122OSM   C15F12926   6.247   3.706   4.892
  122OSM   H15F12927   6.307   3.619   4.859
  122OSM   H15G12928   6.305   3.782   4.949
  122OSM   C16F12929   6.210   3.780   4.764
  122OSM   H16F12930   6.126   3.851   4.779
  122OSM   H16G12931   6.173   3.708   4.688
  122OSM   C17F12932   6.327   3.854   4.705
  122OSM   H17F12933   6.413   3.788   4.685
  122OSM   H17G12934   6.357   3.938   4.771
  122OSM   C18F12935   6.277   3.912   4.574
  122OSM   H18F12936   6.363   3.934   4.507
  122OSM   H18G12937   6.213   4.001   4.591
  122OSM   H18H12938   6.223   3.830   4.521
  123OSM      N12939   2.718   2.618   2.421
  123OSM    C1512940   2.592   2.569   2.358
  123OSM   H15A12941   2.540   2.496   2.418
  123OSM   H15B12942   2.633   2.525   2.268
  123OSM   H15C12943   2.529   2.648   2.320
  123OSM    C1412944   2.775   2.739   2.354
  123OSM   H14A12945   2.876   2.756   2.389
  123OSM   H14B12946   2.717   2.829   2.367
  123OSM   H14C12947   2.788   2.716   2.249
  123OSM    C1312948   2.700   2.646   2.567
  123OSM   H13A12949   2.667   2.562   2.627
  123OSM   H13B12950   2.617   2.715   2.576
  123OSM   H13C12951   2.791   2.682   2.612
  123OSM    C1212952   2.820   2.504   2.400
  123OSM   H12A12953   2.908   2.538   2.454
  123OSM   H12B12954   2.841   2.496   2.294
  123OSM    C1112955   2.786   2.360   2.449
  123OSM   H11A12956   2.776   2.355   2.560
  123OSM   H11B12957   2.881   2.302   2.435
  123OSM      P12958   2.651   2.185   2.303
  123OSM    O1312959   2.585   2.221   2.174
  123OSM    O1412960   2.779   2.110   2.302
  123OSM    O1112961   2.550   2.107   2.391
  123OSM    O1212962   2.663   2.317   2.392
  123OSM    C1S12963   2.430   2.167   2.440
  123OSM    H1S12964   2.351   2.139   2.367
  123OSM    H1T12965   2.432   2.277   2.450
  123OSM     NF12966   2.249   2.102   2.596
  123OSM    HNF12967   2.206   2.152   2.671
  123OSM    C2S12968   2.393   2.099   2.580
  123OSM    H2S12969   2.418   1.991   2.569
  123OSM    C3S12970   2.472   2.171   2.691
  123OSM    H3S12971   2.438   2.277   2.691
  123OSM     O312972   2.614   2.172   2.674
  123OSM    HO312973   2.629   2.141   2.584
  123OSM    C4S12974   2.450   2.114   2.829
  123OSM    H4S12975   2.469   2.006   2.841
  123OSM    C5S12976   2.429   2.185   2.948
  123OSM    H5S12977   2.404   2.291   2.935
  123OSM    C6S12978   2.437   2.127   3.090
  123OSM    H6S12979   2.503   2.185   3.157
  123OSM    H6T12980   2.475   2.023   3.079
  123OSM    C7S12981   2.303   2.125   3.167
  123OSM    H7S12982   2.225   2.061   3.120
  123OSM    H7T12983   2.251   2.222   3.178
  123OSM    C8S12984   2.313   2.073   3.310
  123OSM    H8S12985   2.409   2.022   3.335
  123OSM    H8T12986   2.245   1.986   3.313
  123OSM    C9S12987   2.278   2.177   3.427
  123OSM    H9S12988   2.183   2.229   3.403
  123OSM    H9T12989   2.348   2.263   3.433
  123OSM   C10S12990   2.249   2.124   3.571
  123OSM   H10S12991   2.201   2.024   3.558
  123OSM   H10T12992   2.169   2.184   3.620
  123OSM   C11S12993   2.377   2.092   3.652
  123OSM   H11S12994   2.457   2.170   3.647
  123OSM   H11T12995   2.406   1.996   3.605
  123OSM   C12S12996   2.344   2.077   3.798
  123OSM   H12S12997   2.259   2.006   3.798
  123OSM   H12T12998   2.308   2.179   3.823
  123OSM   C13S12999   2.455   2.009   3.874
  123OSM   H13S13000   2.548   2.057   3.836
  123OSM   H13T13001   2.470   1.905   3.838
  123OSM   C14S13002   2.437   2.013   4.024
  123OSM   H14S13003   2.446   2.118   4.058
  123OSM   H14T13004   2.521   1.950   4.060
  123OSM   C15S13005   2.314   1.949   4.080
  123OSM   H15S13006   2.307   1.850   4.030
  123OSM   H15T13007   2.224   2.011   4.055
  123OSM   C16S13008   2.313   1.932   4.236
  123OSM   H16S13009   2.341   2.031   4.279
  123OSM   H16T13010   2.395   1.857   4.249
  123OSM   C17S13011   2.200   1.867   4.312
  123OSM   H17S13012   2.183   1.773   4.256
  123OSM   H17T13013   2.104   1.922   4.301
  123OSM   C18S13014   2.223   1.826   4.458
  123OSM   H18S13015   2.288   1.735   4.464
  123OSM   H18T13016   2.126   1.790   4.498
  123OSM   H18U13017   2.275   1.909   4.510
  123OSM    C1F13018   2.166   2.012   2.525
  123OSM     OF13019   2.218   1.921   2.461
  123OSM    C2F13020   2.017   2.032   2.533
  123OSM    H2F13021   1.986   2.089   2.443
  123OSM    H2G13022   1.994   2.105   2.614
  123OSM    C3F13023   1.949   1.903   2.578
  123OSM    H3F13024   1.980   1.817   2.514
  123OSM    H3G13025   1.841   1.922   2.563
  123OSM    C4F13026   1.977   1.860   2.720
  123OSM    H4F13027   2.083   1.848   2.749
  123OSM    H4G13028   1.925   1.762   2.732
  123OSM    C5F13029   1.903   1.943   2.832
  123OSM    H5F13030   1.793   1.933   2.816
  123OSM    H5G13031   1.924   2.052   2.837
  123OSM    C6F13032   1.941   1.882   2.965
  123OSM    H6F13033   2.040   1.918   3.002
  123OSM    H6G13034   1.938   1.772   2.948
  123OSM    C7F13035   1.832   1.920   3.076
  123OSM    H7F13036   1.734   1.892   3.031
  123OSM    H7G13037   1.833   2.029   3.095
  123OSM    C8F13038   1.844   1.845   3.214
  123OSM    H8F13039   1.797   1.907   3.293
  123OSM    H8G13040   1.947   1.842   3.255
  123OSM    C9F13041   1.781   1.704   3.210
  123OSM    H9F13042   1.819   1.624   3.145
  123OSM   C10F13043   1.665   1.675   3.278
  123OSM   H10F13044   1.637   1.569   3.279
  123OSM   C11F13045   1.591   1.773   3.371
  123OSM   H11F13046   1.487   1.736   3.380
  123OSM   H11G13047   1.572   1.872   3.324
  123OSM   C12F13048   1.659   1.769   3.509
  123OSM   H12F13049   1.731   1.853   3.515
  123OSM   H12G13050   1.699   1.669   3.539
  123OSM   C13F13051   1.558   1.818   3.618
  123OSM   H13F13052   1.457   1.777   3.599
  123OSM   H13G13053   1.570   1.928   3.610
  123OSM   C14F13054   1.602   1.785   3.761
  123OSM   H14F13055   1.708   1.816   3.770
  123OSM   H14G13056   1.596   1.676   3.784
  123OSM   C15F13057   1.536   1.869   3.865
  123OSM   H15F13058   1.426   1.850   3.870
  123OSM   H15G13059   1.543   1.972   3.823
  123OSM   C16F13060   1.604   1.850   3.998
  123OSM   H16F13061   1.693   1.916   4.003
  123OSM   H16G13062   1.651   1.750   3.995
  123OSM   C17F13063   1.514   1.848   4.124
  123OSM   H17F13064   1.575   1.825   4.214
  123OSM   H17G13065   1.444   1.763   4.128
  123OSM   C18F13066   1.430   1.975   4.147
  123OSM   H18F13067   1.385   1.974   4.248
  123OSM   H18G13068   1.348   1.982   4.073
  123OSM   H18H13069   1.490   2.068   4.144
  124OSM      N13070   2.721   3.488   2.242
  124OSM    C1513071   2.688   3.528   2.103
  124OSM   H15A13072   2.596   3.584   2.095
  124OSM   H15B13073   2.681   3.441   2.039
  124OSM   H15C13074   2.759   3.596   2.059
  124OSM    C1413075   2.865   3.438   2.250
  124OSM   H14A13076   2.897   3.438   2.354
  124OSM   H14B13077   2.931   3.496   2.188
  124OSM   H14C13078   2.878   3.337   2.212
  124OSM    C1313079   2.710   3.610   2.321
  124OSM   H13A13080   2.753   3.603   2.420
  124OSM   H13B13081   2.610   3.650   2.329
  124OSM   H13C13082   2.769   3.692   2.284
  124OSM    C1213083   2.622   3.377   2.284
  124OSM   H12A13084   2.615   3.296   2.213
  124OSM   H12B13085   2.518   3.403   2.295
  124OSM    C1113086   2.633   3.317   2.429
  124OSM   H11A13087   2.551   3.243   2.447
  124OSM   H11B13088   2.633   3.396   2.507
  124OSM      P13089   2.768   3.100   2.371
  124OSM    O1313090   2.649   3.079   2.284
  124OSM    O1413091   2.905   3.084   2.314
  124OSM    O1113092   2.740   3.003   2.493
  124OSM    O1213093   2.755   3.247   2.442
  124OSM    C1S13094   2.797   3.012   2.618
  124OSM    H1S13095   2.879   3.087   2.623
  124OSM    H1T13096   2.837   2.912   2.646
  124OSM     NF13097   2.767   3.083   2.861
  124OSM    HNF13098   2.719   3.038   2.936
  124OSM    C2S13099   2.703   3.063   2.729
  124OSM    H2S13100   2.673   3.164   2.693
  124OSM    C3S13101   2.574   2.981   2.735
  124OSM    H3S13102   2.603   2.886   2.784
  124OSM     O313103   2.518   2.941   2.606
  124OSM    HO313104   2.600   2.951   2.555
  124OSM    C4S13105   2.469   3.045   2.824
  124OSM    H4S13106   2.473   2.982   2.915
  124OSM    C5S13107   2.379   3.151   2.811
  124OSM    H5S13108   2.378   3.206   2.716
  124OSM    C6S13109   2.275   3.199   2.916
  124OSM    H6S13110   2.179   3.196   2.861
  124OSM    H6T13111   2.299   3.301   2.951
  124OSM    C7S13112   2.274   3.094   3.039
  124OSM    H7S13113   2.379   3.088   3.074
  124OSM    H7T13114   2.236   3.001   2.993
  124OSM    C8S13115   2.189   3.146   3.154
  124OSM    H8S13116   2.094   3.179   3.107
  124OSM    H8T13117   2.251   3.234   3.182
  124OSM    C9S13118   2.175   3.048   3.267
  124OSM    H9S13119   2.204   2.944   3.239
  124OSM    H9T13120   2.066   3.036   3.286
  124OSM   C10S13121   2.215   3.098   3.404
  124OSM   H10S13122   2.171   3.199   3.418
  124OSM   H10T13123   2.325   3.094   3.420
  124OSM   C11S13124   2.161   3.012   3.518
  124OSM   H11S13125   2.172   2.902   3.508
  124OSM   H11T13126   2.052   3.033   3.528
  124OSM   C12S13127   2.238   3.033   3.648
  124OSM   H12S13128   2.249   3.138   3.684
  124OSM   H12T13129   2.344   3.003   3.635
  124OSM   C13S13130   2.183   2.959   3.768
  124OSM   H13S13131   2.136   2.862   3.738
  124OSM   H13T13132   2.104   3.015   3.822
  124OSM   C14S13133   2.287   2.916   3.869
  124OSM   H14S13134   2.330   3.008   3.915
  124OSM   H14T13135   2.365   2.849   3.827
  124OSM   C15S13136   2.223   2.833   3.981
  124OSM   H15S13137   2.292   2.764   4.033
  124OSM   H15T13138   2.131   2.792   3.933
  124OSM   C16S13139   2.175   2.917   4.104
  124OSM   H16S13140   2.141   2.844   4.181
  124OSM   H16T13141   2.086   2.980   4.084
  124OSM   C17S13142   2.269   3.020   4.169
  124OSM   H17S13143   2.215   3.057   4.259
  124OSM   H17T13144   2.283   3.105   4.099
  124OSM   C18S13145   2.399   2.960   4.218
  124OSM   H18S13146   2.377   2.868   4.276
  124OSM   H18T13147   2.455   3.026   4.288
  124OSM   H18U13148   2.465   2.933   4.133
  124OSM    C1F13149   2.868   3.170   2.876
  124OSM     OF13150   2.919   3.232   2.787
  124OSM    C2F13151   2.914   3.177   3.029
  124OSM    H2F13152   2.991   3.097   3.030
  124OSM    H2G13153   2.821   3.162   3.089
  124OSM    C3F13154   2.983   3.313   3.063
  124OSM    H3F13155   2.921   3.400   3.032
  124OSM    H3G13156   3.071   3.329   2.997
  124OSM    C4F13157   3.029   3.342   3.210
  124OSM    H4F13158   2.936   3.330   3.270
  124OSM    H4G13159   3.077   3.442   3.210
  124OSM    C5F13160   3.114   3.240   3.283
  124OSM    H5F13161   3.221   3.238   3.254
  124OSM    H5G13162   3.078   3.135   3.277
  124OSM    C6F13163   3.116   3.279   3.434
  124OSM    H6F13164   3.019   3.251   3.480
  124OSM    H6G13165   3.131   3.389   3.434
  124OSM    C7F13166   3.232   3.220   3.509
  124OSM    H7F13167   3.328   3.263   3.475
  124OSM    H7G13168   3.246   3.111   3.496
  124OSM    C8F13169   3.238   3.259   3.661
  124OSM    H8F13170   3.243   3.370   3.660
  124OSM    H8G13171   3.329   3.221   3.713
  124OSM    C9F13172   3.123   3.205   3.739
  124OSM    H9F13173   3.027   3.204   3.686
  124OSM   C10F13174   3.123   3.142   3.858
  124OSM   H10F13175   3.032   3.105   3.905
  124OSM   C11F13176   3.237   3.124   3.954
  124OSM   H11F13177   3.332   3.088   3.908
  124OSM   H11G13178   3.217   3.050   4.034
  124OSM   C12F13179   3.270   3.251   4.038
  124OSM   H12F13180   3.311   3.332   3.975
  124OSM   H12G13181   3.343   3.226   4.118
  124OSM   C13F13182   3.147   3.307   4.113
  124OSM   H13F13183   3.100   3.226   4.172
  124OSM   H13G13184   3.072   3.349   4.043
  124OSM   C14F13185   3.183   3.419   4.210
  124OSM   H14F13186   3.274   3.388   4.265
  124OSM   H14G13187   3.104   3.417   4.288
  124OSM   C15F13188   3.204   3.548   4.140
  124OSM   H15F13189   3.152   3.555   4.042
  124OSM   H15G13190   3.312   3.572   4.128
  124OSM   C16F13191   3.154   3.670   4.220
  124OSM   H16F13192   3.216   3.667   4.312
  124OSM   H16G13193   3.048   3.660   4.250
  124OSM   C17F13194   3.162   3.801   4.134
  124OSM   H17F13195   3.082   3.801   4.057
  124OSM   H17G13196   3.262   3.803   4.084
  124OSM   C18F13197   3.144   3.930   4.213
  124OSM   H18F13198   3.197   3.936   4.311
  124OSM   H18G13199   3.037   3.956   4.227
  124OSM   H18H13200   3.185   4.014   4.154
  125OSM      N13201   3.778   5.884   1.805
  125OSM    C1513202   3.862   5.906   1.687
  125OSM   H15A13203   3.944   5.836   1.687
  125OSM   H15B13204   3.890   6.010   1.685
  125OSM   H15C13205   3.809   5.886   1.595
  125OSM    C1413206   3.675   5.995   1.806
  125OSM   H14A13207   3.595   5.979   1.877
  125OSM   H14B13208   3.633   6.012   1.708
  125OSM   H14C13209   3.723   6.087   1.838
  125OSM    C1313210   3.709   5.756   1.795
  125OSM   H13A13211   3.660   5.730   1.888
  125OSM   H13B13212   3.778   5.676   1.773
  125OSM   H13C13213   3.638   5.764   1.713
  125OSM    C1213214   3.875   5.881   1.920
  125OSM   H12A13215   3.955   5.813   1.895
  125OSM   H12B13216   3.834   5.837   2.010
  125OSM    C1113217   3.945   6.020   1.957
  125OSM   H11A13218   3.996   6.050   1.863
  125OSM   H11B13219   4.018   6.001   2.039
  125OSM      P13220   3.892   6.259   2.036
  125OSM    O1313221   3.954   6.319   1.915
  125OSM    O1413222   3.783   6.338   2.093
  125OSM    O1113223   4.009   6.235   2.141
  125OSM    O1213224   3.850   6.112   2.009
  125OSM    C1S13225   3.979   6.228   2.281
  125OSM    H1S13226   3.989   6.122   2.314
  125OSM    H1T13227   3.876   6.263   2.305
  125OSM     NF13228   3.990   6.350   2.499
  125OSM    HNF13229   3.934   6.432   2.508
  125OSM    C2S13230   4.061   6.325   2.375
  125OSM    H2S13231   4.157   6.270   2.390
  125OSM    C3S13232   4.093   6.460   2.305
  125OSM    H3S13233   3.995   6.511   2.293
  125OSM     O313234   4.154   6.451   2.173
  125OSM    HO313235   4.137   6.360   2.146
  125OSM    C4S13236   4.174   6.548   2.408
  125OSM    H4S13237   4.227   6.485   2.481
  125OSM    C5S13238   4.157   6.677   2.421
  125OSM    H5S13239   4.086   6.736   2.361
  125OSM    C6S13240   4.218   6.762   2.539
  125OSM    H6S13241   4.154   0.054   2.563
  125OSM    H6T13242   4.322   0.002   2.525
  125OSM    C7S13243   4.222   6.674   2.670
  125OSM    H7S13244   4.263   6.728   2.758
  125OSM    H7T13245   4.286   6.587   2.645
  125OSM    C8S13246   4.082   6.627   2.716
  125OSM    H8S13247   4.029   6.568   2.638
  125OSM    H8T13248   4.017   6.717   2.725
  125OSM    C9S13249   4.069   6.556   2.855
  125OSM    H9S13250   4.149   6.480   2.861
  125OSM    H9T13251   3.969   6.510   2.873
  125OSM   C10S13252   4.087   6.650   2.985
  125OSM   H10S13253   4.002   6.720   2.975
  125OSM   H10T13254   4.186   6.702   2.985
  125OSM   C11S13255   4.067   6.573   3.112
  125OSM   H11S13256   4.141   6.490   3.111
  125OSM   H11T13257   3.967   6.528   3.130
  125OSM   C12S13258   4.088   6.676   3.230
  125OSM   H12S13259   4.011   6.755   3.214
  125OSM   H12T13260   4.190   6.721   3.236
  125OSM   C13S13261   4.048   6.616   3.364
  125OSM   H13S13262   4.111   6.525   3.380
  125OSM   H13T13263   3.948   6.569   3.353
  125OSM   C14S13264   4.056   6.705   3.484
  125OSM   H14S13265   4.004   0.006   3.469
  125OSM   H14T13266   4.163   6.734   3.478
  125OSM   C15S13267   4.016   6.645   3.624
  125OSM   H15S13268   4.069   6.547   3.634
  125OSM   H15T13269   3.908   6.620   3.622
  125OSM   C16S13270   4.039   6.746   3.738
  125OSM   H16S13271   3.988   0.047   3.719
  125OSM   H16T13272   4.145   6.775   3.750
  125OSM   C17S13273   3.992   6.685   3.869
  125OSM   H17S13274   4.043   6.586   3.875
  125OSM   H17T13275   3.883   6.665   3.866
  125OSM   C18S13276   4.019   6.770   3.995
  125OSM   H18S13277   3.998   6.704   4.082
  125OSM   H18T13278   3.963   0.069   3.998
  125OSM   H18U13279   4.125   0.003   4.011
  125OSM    C1F13280   3.984   6.260   2.604
  125OSM     OF13281   4.053   6.160   2.608
  125OSM    C2F13282   3.876   6.280   2.707
  125OSM    H2F13283   3.774   6.262   2.668
  125OSM    H2G13284   3.871   6.386   2.740
  125OSM    C3F13285   3.911   6.211   2.842
  125OSM    H3F13286   4.019   6.217   2.866
  125OSM    H3G13287   3.889   6.102   2.836
  125OSM    C4F13288   3.830   6.259   2.965
  125OSM    H4F13289   3.725   6.234   2.938
  125OSM    H4G13290   3.827   6.370   2.970
  125OSM    C5F13291   3.866   6.190   3.095
  125OSM    H5F13292   3.976   6.203   3.099
  125OSM    H5G13293   3.844   6.082   3.077
  125OSM    C6F13294   3.805   6.260   3.217
  125OSM    H6F13295   3.696   6.243   3.226
  125OSM    H6G13296   3.826   6.368   3.204
  125OSM    C7F13297   3.871   6.215   3.351
  125OSM    H7F13298   3.981   6.217   3.342
  125OSM    H7G13299   3.850   6.106   3.365
  125OSM    C8F13300   3.805   6.273   3.475
  125OSM    H8F13301   3.709   6.222   3.493
  125OSM    H8G13302   3.779   6.375   3.439
  125OSM    C9F13303   3.892   6.285   3.593
  125OSM    H9F13304   3.974   6.357   3.582
  125OSM   C10F13305   3.888   6.213   3.705
  125OSM   H10F13306   3.963   6.234   3.782
  125OSM   C11F13307   3.784   6.109   3.732
  125OSM   H11F13308   3.819   6.028   3.799
  125OSM   H11G13309   3.758   6.058   3.637
  125OSM   C12F13310   3.650   6.161   3.783
  125OSM   H12F13311   3.580   6.076   3.797
  125OSM   H12G13312   3.599   6.222   3.706
  125OSM   C13F13313   3.649   6.236   3.912
  125OSM   H13F13314   3.709   6.328   3.894
  125OSM   H13G13315   3.711   6.172   3.978
  125OSM   C14F13316   3.517   6.235   3.989
  125OSM   H14F13317   3.472   6.134   4.002
  125OSM   H14G13318   3.436   6.298   3.947
  125OSM   C15F13319   3.537   6.283   4.131
  125OSM   H15F13320   3.597   6.207   4.185
  125OSM   H15G13321   3.438   6.280   4.181
  125OSM   C16F13322   3.599   6.427   4.147
  125OSM   H16F13323   3.526   6.503   4.113
  125OSM   H16G13324   3.683   6.443   4.076
  125OSM   C17F13325   3.631   6.466   4.293
  125OSM   H17F13326   3.715   6.406   4.333
  125OSM   H17G13327   3.547   6.433   4.358
  125OSM   C18F13328   3.666   6.620   4.317
  125OSM   H18F13329   3.762   6.652   4.271
  125OSM   H18G13330   3.667   6.634   4.428
  125OSM   H18H13331   3.591   6.689   4.273
  126OSM      N13332   2.793   1.386   2.399
  126OSM    C1513333   2.824   1.427   2.543
  126OSM   H15A13334   2.738   1.407   2.606
  126OSM   H15B13335   2.835   1.534   2.551
  126OSM   H15C13336   2.912   1.377   2.580
  126OSM    C1413337   2.700   1.488   2.342
  126OSM   H14A13338   2.665   1.463   2.243
  126OSM   H14B13339   2.753   1.582   2.346
  126OSM   H14C13340   2.607   1.491   2.397
  126OSM    C1313341   2.919   1.406   2.321
  126OSM   H13A13342   2.901   1.398   2.215
  126OSM   H13B13343   2.996   1.335   2.344
  126OSM   H13C13344   2.967   1.500   2.343
  126OSM    C1213345   2.744   1.248   2.393
  126OSM   H12A13346   2.684   1.219   2.308
  126OSM   H12B13347   2.669   1.248   2.472
  126OSM    C1113348   2.846   1.128   2.405
  126OSM   H11A13349   2.789   1.041   2.442
  126OSM   H11B13350   2.911   1.148   2.493
  126OSM      P13351   2.890   1.034   2.154
  126OSM    O1313352   2.745   1.057   2.134
  126OSM    O1413353   2.983   1.080   2.050
  126OSM    O1113354   2.916   0.887   2.194
  126OSM    O1213355   2.928   1.111   2.285
  126OSM    C1S13356   3.040   0.852   2.260
  126OSM    H1S13357   3.130   0.915   2.241
  126OSM    H1T13358   3.075   0.751   2.228
  126OSM     NF13359   3.145   0.807   2.486
  126OSM    HNF13360   3.168   0.710   2.486
  126OSM    C2S13361   3.018   0.834   2.419
  126OSM    H2S13362   2.984   0.933   2.457
  126OSM    C3S13363   2.907   0.729   2.443
  126OSM    H3S13364   2.953   0.628   2.429
  126OSM     O313365   2.793   0.717   2.357
  126OSM    HO313366   2.830   0.779   2.293
  126OSM    C4S13367   2.861   0.752   2.589
  126OSM    H4S13368   2.816   0.850   2.613
  126OSM    C5S13369   2.861   0.662   2.688
  126OSM    H5S13370   2.921   0.571   2.674
  126OSM    C6S13371   2.816   0.690   2.833
  126OSM    H6S13372   2.899   0.729   2.894
  126OSM    H6T13373   2.777   0.593   2.872
  126OSM    C7S13374   2.715   0.803   2.834
  126OSM    H7S13375   2.626   0.774   2.775
  126OSM    H7T13376   2.754   0.895   2.785
  126OSM    C8S13377   2.669   0.850   2.976
  126OSM    H8S13378   2.612   0.943   2.955
  126OSM    H8T13379   2.761   0.885   3.026
  126OSM    C9S13380   2.599   0.746   3.058
  126OSM    H9S13381   2.667   0.667   3.095
  126OSM    H9T13382   2.513   0.695   3.009
  126OSM   C10S13383   2.552   0.820   3.185
  126OSM   H10S13384   2.461   0.877   3.160
  126OSM   H10T13385   2.631   0.886   3.228
  126OSM   C11S13386   2.515   0.728   3.299
  126OSM   H11S13387   2.606   0.689   3.349
  126OSM   H11T13388   2.457   0.641   3.261
  126OSM   C12S13389   2.429   0.790   3.409
  126OSM   H12S13390   2.340   0.836   3.362
  126OSM   H12T13391   2.484   0.876   3.452
  126OSM   C13S13392   2.376   0.705   3.527
  126OSM   H13S13393   2.319   0.622   3.480
  126OSM   H13T13394   2.310   0.777   3.581
  126OSM   C14S13395   2.478   0.660   3.626
  126OSM   H14S13396   2.529   0.749   3.668
  126OSM   H14T13397   2.549   0.587   3.582
  126OSM   C15S13398   2.408   0.598   3.752
  126OSM   H15S13399   2.493   0.548   3.804
  126OSM   H15T13400   2.331   0.521   3.733
  126OSM   C16S13401   2.351   0.703   3.852
  126OSM   H16S13402   2.263   0.751   3.803
  126OSM   H16T13403   2.426   0.785   3.858
  126OSM   C17S13404   2.301   0.674   3.994
  126OSM   H17S13405   2.218   0.600   3.996
  126OSM   H17T13406   2.262   0.769   4.037
  126OSM   C18S13407   2.414   0.618   4.087
  126OSM   H18S13408   2.385   0.602   4.193
  126OSM   H18T13409   2.505   0.682   4.075
  126OSM   H18U13410   2.456   0.523   4.049
  126OSM    C1F13411   3.239   0.901   2.502
  126OSM     OF13412   3.219   1.015   2.455
  126OSM    C2F13413   3.370   0.866   2.556
  126OSM    H2F13414   3.447   0.919   2.495
  126OSM    H2G13415   3.385   0.757   2.543
  126OSM    C3F13416   3.386   0.898   2.705
  126OSM    H3F13417   3.369   1.007   2.716
  126OSM    H3G13418   3.494   0.888   2.729
  126OSM    C4F13419   3.299   0.828   2.810
  126OSM    H4F13420   3.351   0.734   2.837
  126OSM    H4G13421   3.196   0.814   2.768
  126OSM    C5F13422   3.287   0.915   2.939
  126OSM    H5F13423   3.393   0.943   2.960
  126OSM    H5G13424   3.253   0.851   3.023
  126OSM    C6F13425   3.213   1.045   2.938
  126OSM    H6F13426   3.272   1.111   2.870
  126OSM    H6G13427   3.216   1.087   3.041
  126OSM    C7F13428   3.066   1.044   2.887
  126OSM    H7F13429   3.013   0.976   2.957
  126OSM    H7G13430   3.063   0.991   2.790
  126OSM    C8F13431   3.006   1.185   2.879
  126OSM    H8F13432   3.065   1.259   2.821
  126OSM    H8G13433   3.018   1.229   2.980
  126OSM    C9F13434   2.865   1.182   2.821
  126OSM    H9F13435   2.865   1.125   2.727
  126OSM   C10F13436   2.747   1.200   2.883
  126OSM   H10F13437   2.658   1.160   2.832
  126OSM   C11F13438   2.734   1.260   3.014
  126OSM   H11F13439   2.639   1.317   3.018
  126OSM   H11G13440   2.825   1.322   3.029
  126OSM   C12F13441   2.721   1.160   3.137
  126OSM   H12F13442   2.805   1.088   3.131
  126OSM   H12G13443   2.622   1.115   3.113
  126OSM   C13F13444   2.714   1.227   3.283
  126OSM   H13F13445   2.645   1.314   3.275
  126OSM   H13G13446   2.813   1.272   3.303
  126OSM   C14F13447   2.667   1.125   3.387
  126OSM   H14F13448   2.757   1.060   3.388
  126OSM   H14G13449   2.580   1.064   3.357
  126OSM   C15F13450   2.632   1.192   3.523
  126OSM   H15F13451   2.540   1.254   3.508
  126OSM   H15G13452   2.718   1.252   3.560
  126OSM   C16F13453   2.586   1.092   3.628
  126OSM   H16F13454   2.653   1.004   3.622
  126OSM   H16G13455   2.485   1.055   3.599
  126OSM   C17F13456   2.580   1.151   3.770
  126OSM   H17F13457   2.528   1.068   3.823
  126OSM   H17G13458   2.507   1.234   3.782
  126OSM   C18F13459   2.713   1.176   3.834
  126OSM   H18F13460   2.724   1.202   3.942
  126OSM   H18G13461   2.778   1.247   3.779
  126OSM   H18H13462   2.775   1.085   3.849
  127OSM      N13463   2.061   2.730   2.033
  127OSM    C1513464   2.203   2.694   1.987
  127OSM   H15A13465   2.208   2.680   1.880
  127OSM   H15B13466   2.251   2.612   2.037
  127OSM   H15C13467   2.275   2.772   2.006
  127OSM    C1413468   2.013   2.851   1.959
  127OSM   H14A13469   2.091   2.926   1.962
  127OSM   H14B13470   1.919   2.887   1.999
  127OSM   H14C13471   2.006   2.840   1.852
  127OSM    C1313472   1.984   2.612   1.998
  127OSM   H13A13473   2.019   2.583   1.900
  127OSM   H13B13474   1.877   2.622   1.991
  127OSM   H13C13475   2.002   2.535   2.071
  127OSM    C1213476   2.056   2.754   2.178
  127OSM   H12A13477   1.957   2.776   2.217
  127OSM   H12B13478   2.118   2.839   2.202
  127OSM    C1113479   2.116   2.644   2.273
  127OSM   H11A13480   2.085   2.679   2.374
  127OSM   H11B13481   2.227   2.638   2.270
  127OSM      P13482   2.115   2.393   2.296
  127OSM    O1313483   2.028   2.272   2.288
  127OSM    O1413484   2.238   2.386   2.217
  127OSM    O1113485   2.163   2.414   2.444
  127OSM    O1213486   2.042   2.529   2.254
  127OSM    C1S13487   2.069   2.417   2.557
  127OSM    H1S13488   2.031   2.314   2.575
  127OSM    H1T13489   1.982   2.483   2.537
  127OSM     NF13490   2.063   2.444   2.803
  127OSM    HNF13491   2.039   2.528   2.851
  127OSM    C2S13492   2.149   2.456   2.685
  127OSM    H2S13493   2.225   2.375   2.694
  127OSM    C3S13494   2.225   2.595   2.674
  127OSM    H3S13495   2.148   2.671   2.649
  127OSM     O313496   2.297   2.599   2.556
  127OSM    HO313497   2.251   2.538   2.498
  127OSM    C4S13498   2.321   2.617   2.781
  127OSM    H4S13499   2.397   2.538   2.778
  127OSM    C5S13500   2.307   2.709   2.873
  127OSM    H5S13501   2.217   2.772   2.867
  127OSM    C6S13502   2.412   2.731   2.973
  127OSM    H6S13503   2.410   2.827   3.030
  127OSM    H6T13504   2.511   2.725   2.923
  127OSM    C7S13505   2.418   2.627   3.088
  127OSM    H7S13506   2.505   2.641   3.156
  127OSM    H7T13507   2.434   2.524   3.050
  127OSM    C8S13508   2.290   2.634   3.173
  127OSM    H8S13509   2.204   2.604   3.109
  127OSM    H8T13510   2.276   2.743   3.190
  127OSM    C9S13511   2.312   2.560   3.303
  127OSM    H9S13512   2.415   2.518   3.300
  127OSM    H9T13513   2.254   2.468   3.280
  127OSM   C10S13514   2.255   2.633   3.418
  127OSM   H10S13515   2.168   2.686   3.373
  127OSM   H10T13516   2.330   2.708   3.449
  127OSM   C11S13517   2.205   2.538   3.525
  127OSM   H11S13518   2.162   2.444   3.484
  127OSM   H11T13519   2.130   2.606   3.570
  127OSM   C12S13520   2.315   2.495   3.619
  127OSM   H12S13521   2.399   2.568   3.623
  127OSM   H12T13522   2.375   2.402   3.606
  127OSM   C13S13523   2.267   2.485   3.764
  127OSM   H13S13524   2.193   2.402   3.773
  127OSM   H13T13525   2.228   2.584   3.795
  127OSM   C14S13526   2.375   2.458   3.871
  127OSM   H14S13527   2.449   2.539   3.851
  127OSM   H14T13528   2.438   2.374   3.835
  127OSM   C15S13529   2.338   2.433   4.018
  127OSM   H15S13530   2.309   2.327   4.033
  127OSM   H15T13531   2.251   2.502   4.029
  127OSM   C16S13532   2.455   2.462   4.118
  127OSM   H16S13533   2.465   2.573   4.114
  127OSM   H16T13534   2.550   2.421   4.076
  127OSM   C17S13535   2.424   2.418   4.264
  127OSM   H17S13536   2.429   2.308   4.269
  127OSM   H17T13537   2.323   2.444   4.301
  127OSM   C18S13538   2.523   2.486   4.360
  127OSM   H18S13539   2.626   2.444   4.351
  127OSM   H18T13540   2.497   2.461   4.465
  127OSM   H18U13541   2.524   2.597   4.357
  127OSM    C1F13542   2.031   2.323   2.843
  127OSM     OF13543   2.102   2.232   2.802
  127OSM    C2F13544   1.915   2.300   2.933
  127OSM    H2F13545   1.927   2.205   2.990
  127OSM    H2G13546   1.833   2.275   2.862
  127OSM    C3F13547   1.895   2.407   3.036
  127OSM    H3F13548   1.853   2.483   2.967
  127OSM    H3G13549   1.976   2.449   3.100
  127OSM    C4F13550   1.792   2.360   3.154
  127OSM    H4F13551   1.725   2.281   3.114
  127OSM    H4G13552   1.740   2.456   3.176
  127OSM    C5F13553   1.863   2.307   3.273
  127OSM    H5F13554   1.947   2.361   3.323
  127OSM    H5G13555   1.912   2.212   3.244
  127OSM    C6F13556   1.765   2.275   3.388
  127OSM    H6F13557   1.676   2.219   3.350
  127OSM    H6G13558   1.719   2.373   3.413
  127OSM    C7F13559   1.830   2.212   3.512
  127OSM    H7F13560   1.896   2.282   3.568
  127OSM    H7G13561   1.899   2.131   3.479
  127OSM    C8F13562   1.718   2.160   3.613
  127OSM    H8F13563   1.758   2.080   3.679
  127OSM    H8G13564   1.639   2.113   3.552
  127OSM    C9F13565   1.667   2.275   3.697
  127OSM    H9F13566   1.561   2.291   3.668
  127OSM   C10F13567   1.722   2.324   3.809
  127OSM   H10F13568   1.662   2.404   3.856
  127OSM   C11F13569   1.858   2.286   3.859
  127OSM   H11F13570   1.936   2.362   3.836
  127OSM   H11G13571   1.899   2.203   3.797
  127OSM   C12F13572   1.864   2.264   4.015
  127OSM   H12F13573   1.780   2.197   4.042
  127OSM   H12G13574   1.849   2.364   4.060
  127OSM   C13F13575   2.003   2.201   4.047
  127OSM   H13F13576   2.097   2.250   4.016
  127OSM   H13G13577   1.995   2.106   3.991
  127OSM   C14F13578   2.009   2.166   4.197
  127OSM   H14F13579   2.090   2.094   4.222
  127OSM   H14G13580   1.913   2.124   4.234
  127OSM   C15F13581   2.033   2.283   4.287
  127OSM   H15F13582   1.944   2.341   4.319
  127OSM   H15G13583   2.097   2.352   4.228
  127OSM   C16F13584   2.112   2.237   4.415
  127OSM   H16F13585   2.137   2.332   4.466
  127OSM   H16G13586   2.206   2.185   4.387
  127OSM   C17F13587   2.021   2.151   4.508
  127OSM   H17F13588   2.023   2.052   4.458
  127OSM   H17G13589   1.923   2.203   4.522
  127OSM   C18F13590   2.073   2.133   4.656
  127OSM   H18F13591   2.177   2.095   4.660
  127OSM   H18G13592   2.000   2.063   4.703
  127OSM   H18H13593   2.064   2.233   4.703
  128OSM      N13594   1.705   0.390   1.872
  128OSM    C1513595   1.565   0.342   1.888
  128OSM   H15A13596   1.570   0.253   1.949
  128OSM   H15B13597   1.513   0.330   1.794
  128OSM   H15C13598   1.508   0.422   1.933
  128OSM    C1413599   1.708   0.502   1.772
  128OSM   H14A13600   1.667   0.468   1.678
  128OSM   H14B13601   1.811   0.527   1.754
  128OSM   H14C13602   1.649   0.585   1.808
  128OSM    C1313603   1.730   0.450   2.009
  128OSM   H13A13604   1.821   0.508   2.003
  128OSM   H13B13605   1.731   0.373   2.084
  128OSM   H13C13606   1.649   0.516   2.036
  128OSM    C1213607   1.806   0.282   1.839
  128OSM   H12A13608   1.903   0.329   1.830
  128OSM   H12B13609   1.783   0.237   1.744
  128OSM    C1113610   1.815   0.166   1.940
  128OSM   H11A13611   1.887   0.089   1.906
  128OSM   H11B13612   1.718   0.116   1.960
  128OSM      P13613   2.005   0.246   2.098
  128OSM    O1313614   2.076   0.118   2.119
  128OSM    O1413615   2.063   0.336   1.996
  128OSM    O1113616   1.998   0.319   2.242
  128OSM    O1213617   1.852   0.215   2.069
  128OSM    C1S13618   1.978   0.241   2.363
  128OSM    H1S13619   2.073   0.186   2.379
  128OSM    H1T13620   1.901   0.162   2.348
  128OSM     NF13621   1.953   0.263   2.609
  128OSM    HNF13622   1.866   0.245   2.655
  128OSM    C2S13623   1.938   0.333   2.481
  128OSM    H2S13624   2.009   0.418   2.490
  128OSM    C3S13625   1.795   0.386   2.446
  128OSM    H3S13626   1.729   0.297   2.457
  128OSM     O313627   1.783   0.437   2.319
  128OSM    HO313628   1.870   0.418   2.285
  128OSM    C4S13629   1.735   0.488   2.550
  128OSM    H4S13630   1.691   0.434   2.635
  128OSM    C5S13631   1.711   0.619   2.533
  128OSM    H5S13632   1.747   0.668   2.442
  128OSM    C6S13633   1.641   0.709   2.625
  128OSM    H6S13634   1.542   0.733   2.580
  128OSM    H6T13635   1.701   0.802   2.635
  128OSM    C7S13636   1.646   0.654   2.766
  128OSM    H7S13637   1.754   0.635   2.788
  128OSM    H7T13638   1.594   0.556   2.773
  128OSM    C8S13639   1.596   0.752   2.876
  128OSM    H8S13640   1.489   0.761   2.848
  128OSM    H8T13641   1.643   0.850   2.854
  128OSM    C9S13642   1.603   0.698   3.024
  128OSM    H9S13643   1.710   0.702   3.054
  128OSM    H9T13644   1.567   0.593   3.030
  128OSM   C10S13645   1.525   0.791   3.122
  128OSM   H10S13646   1.418   0.776   3.095
  128OSM   H10T13647   1.553   0.898   3.115
  128OSM   C11S13648   1.525   0.749   3.271
  128OSM   H11S13649   1.630   0.757   3.308
  128OSM   H11T13650   1.499   0.642   3.289
  128OSM   C12S13651   1.440   0.839   3.365
  128OSM   H12S13652   1.330   0.827   3.350
  128OSM   H12T13653   1.470   0.946   3.369
  128OSM   C13S13654   1.453   0.782   3.509
  128OSM   H13S13655   1.562   0.776   3.529
  128OSM   H13T13656   1.419   0.676   3.498
  128OSM   C14S13657   1.363   0.858   3.606
  128OSM   H14S13658   1.257   0.846   3.575
  128OSM   H14T13659   1.388   0.966   3.596
  128OSM   C15S13660   1.391   0.805   3.752
  128OSM   H15S13661   1.498   0.824   3.773
  128OSM   H15T13662   1.374   0.695   3.751
  128OSM   C16S13663   1.307   0.868   3.854
  128OSM   H16S13664   1.204   0.863   3.813
  128OSM   H16T13665   1.336   0.972   3.881
  128OSM   C17S13666   1.301   0.796   3.987
  128OSM   H17S13667   1.275   0.690   3.967
  128OSM   H17T13668   1.208   0.832   4.036
  128OSM   C18S13669   1.419   0.819   4.079
  128OSM   H18S13670   1.399   0.765   4.174
  128OSM   H18T13671   1.438   0.927   4.093
  128OSM   H18U13672   1.511   0.775   4.035
  128OSM    C1F13673   2.074   0.221   2.663
  128OSM     OF13674   2.180   0.246   2.608
  128OSM    C2F13675   2.079   0.146   2.794
  128OSM    H2F13676   2.104   0.041   2.768
  128OSM    H2G13677   1.982   0.151   2.847
  128OSM    C3F13678   2.190   0.194   2.886
  128OSM    H3F13679   2.191   0.303   2.906
  128OSM    H3G13680   2.288   0.167   2.841
  128OSM    C4F13681   2.189   0.124   3.023
  128OSM    H4F13682   2.286   0.131   3.076
  128OSM    H4G13683   2.173   0.015   3.008
  128OSM    C5F13684   2.089   0.175   3.115
  128OSM    H5F13685   1.993   0.120   3.111
  128OSM    H5G13686   2.067   0.283   3.100
  128OSM    C6F13687   2.123   0.142   3.261
  128OSM    H6F13688   2.227   0.173   3.287
  128OSM    H6G13689   2.127   0.033   3.283
  128OSM    C7F13690   2.030   0.205   3.368
  128OSM    H7F13691   1.925   0.187   3.339
  128OSM    H7G13692   2.042   0.315   3.373
  128OSM    C8F13693   2.048   0.130   3.500
  128OSM    H8F13694   2.157   0.127   3.521
  128OSM    H8G13695   2.015   0.025   3.481
  128OSM    C9F13696   1.969   0.189   3.608
  128OSM    H9F13697   1.860   0.169   3.610
  128OSM   C10F13698   2.004   0.266   3.712
  128OSM   H10F13699   1.936   0.293   3.795
  128OSM   C11F13700   2.139   0.306   3.752
  128OSM   H11F13701   2.147   0.417   3.755
  128OSM   H11G13702   2.214   0.276   3.676
  128OSM   C12F13703   2.180   0.252   3.887
  128OSM   H12F13704   2.109   0.288   3.965
  128OSM   H12G13705   2.278   0.298   3.914
  128OSM   C13F13706   2.174   0.098   3.902
  128OSM   H13F13707   2.251   0.065   3.829
  128OSM   H13G13708   2.077   0.065   3.860
  128OSM   C14F13709   2.181   0.044   4.050
  128OSM   H14F13710   2.264   0.102   4.097
  128OSM   H14G13711   2.223   6.737   4.048
  128OSM   C15F13712   2.044   0.038   4.121
  128OSM   H15F13713   1.968   6.768   4.076
  128OSM   H15G13714   2.000   0.140   4.116
  128OSM   C16F13715   2.058   0.007   4.273
  128OSM   H16F13716   2.120   0.089   4.316
  128OSM   H16G13717   2.116   6.713   4.303
  128OSM   C17F13718   1.927   6.791   4.350
  128OSM   H17F13719   1.939   6.714   4.430
  128OSM   H17G13720   1.846   6.762   4.280
  128OSM   C18F13721   1.885   0.135   4.416
  128OSM   H18F13722   1.905   0.218   4.345
  128OSM   H18G13723   1.945   0.153   4.508
  128OSM   H18H13724   1.776   0.126   4.436
  129OSM      N13725   4.030   0.171   1.810
  129OSM    C1513726   4.087   0.297   1.744
  129OSM   H15A13727   4.104   0.380   1.810
  129OSM   H15B13728   4.012   0.329   1.673
  129OSM   H15C13729   4.175   0.273   1.686
  129OSM    C1413730   3.892   0.205   1.844
  129OSM   H14A13731   3.838   0.224   1.752
  129OSM   H14B13732   3.877   0.287   1.913
  129OSM   H14C13733   3.846   0.119   1.892
  129OSM    C1313734   4.024   0.059   1.709
  129OSM   H13A13735   3.970   6.772   1.751
  129OSM   H13B13736   4.122   0.024   1.681
  129OSM   H13C13737   3.972   0.089   1.620
  129OSM    C1213738   4.116   0.133   1.931
  129OSM   H12A13739   4.134   0.213   2.001
  129OSM   H12B13740   4.213   0.096   1.901
  129OSM    C1113741   4.053   0.020   2.021
  129OSM   H11A13742   4.127   6.780   2.096
  129OSM   H11B13743   4.037   6.735   1.947
  129OSM      P13744   3.923   0.156   2.198
  129OSM    O1313745   4.051   0.233   2.206
  129OSM    O1413746   3.803   0.243   2.194
  129OSM    O1113747   3.915   0.065   2.322
  129OSM    O1213748   3.926   0.054   2.075
  129OSM    C1S13749   3.790   0.000   2.358
  129OSM    H1S13750   3.786   6.691   2.325
  129OSM    H1T13751   3.699   0.055   2.325
  129OSM     NF13752   3.676   6.685   2.548
  129OSM    HNF13753   3.586   6.727   2.546
  129OSM    C2S13754   3.788   6.769   2.513
  129OSM    H2S13755   3.880   6.717   2.545
  129OSM    C3S13756   3.795   0.109   2.598
  129OSM    H3S13757   3.707   0.174   2.577
  129OSM     O313758   3.902   0.195   2.556
  129OSM    HO313759   3.910   0.169   2.463
  129OSM    C4S13760   3.813   0.096   2.749
  129OSM    H4S13761   3.917   0.113   2.783
  129OSM    C5S13762   3.718   0.075   2.844
  129OSM    H5S13763   3.613   0.058   2.815
  129OSM    C6S13764   3.743   0.081   2.994
  129OSM    H6S13765   3.838   0.027   3.018
  129OSM    H6T13766   3.657   0.034   3.047
  129OSM    C7S13767   3.749   0.221   3.070
  129OSM    H7S13768   3.652   0.273   3.051
  129OSM    H7T13769   3.834   0.286   3.041
  129OSM    C8S13770   3.767   0.186   3.220
  129OSM    H8S13771   3.861   0.130   3.239
  129OSM    H8T13772   3.691   0.109   3.245
  129OSM    C9S13773   3.758   0.313   3.302
  129OSM    H9S13774   3.658   0.359   3.284
  129OSM    H9T13775   3.836   0.382   3.263
  129OSM   C10S13776   3.766   0.289   3.449
  129OSM   H10S13777   3.860   0.243   3.487
  129OSM   H10T13778   3.690   0.212   3.472
  129OSM   C11S13779   3.735   0.416   3.533
  129OSM   H11S13780   3.626   0.436   3.542
  129OSM   H11T13781   3.775   0.503   3.477
  129OSM   C12S13782   3.788   0.412   3.682
  129OSM   H12S13783   3.744   0.512   3.707
  129OSM   H12T13784   3.899   0.416   3.684
  129OSM   C13S13785   3.732   0.306   3.775
  129OSM   H13S13786   3.775   0.209   3.740
  129OSM   H13T13787   3.627   0.274   3.764
  129OSM   C14S13788   3.752   0.334   3.923
  129OSM   H14S13789   3.704   0.432   3.943
  129OSM   H14T13790   3.862   0.350   3.932
  129OSM   C15S13791   3.698   0.213   4.005
  129OSM   H15S13792   3.725   0.228   4.112
  129OSM   H15T13793   3.762   0.128   3.972
  129OSM   C16S13794   3.547   0.198   4.011
  129OSM   H16S13795   3.508   0.182   3.908
  129OSM   H16T13796   3.502   0.289   4.057
  129OSM   C17S13797   3.516   0.079   4.102
  129OSM   H17S13798   3.583   0.082   4.191
  129OSM   H17T13799   3.549   6.784   4.047
  129OSM   C18S13800   3.370   0.068   4.137
  129OSM   H18S13801   3.345   0.156   4.200
  129OSM   H18T13802   3.348   6.781   4.207
  129OSM   H18U13803   3.311   0.057   4.043
  129OSM    C1F13804   3.678   6.553   2.524
  129OSM     OF13805   3.770   6.489   2.476
  129OSM    C2F13806   3.551   6.478   2.554
  129OSM    H2F13807   3.594   6.376   2.557
  129OSM    H2G13808   3.485   6.496   2.467
  129OSM    C3F13809   3.480   6.513   2.682
  129OSM    H3F13810   3.392   6.446   2.688
  129OSM    H3G13811   3.463   6.623   2.685
  129OSM    C4F13812   3.556   6.473   2.807
  129OSM    H4F13813   3.665   6.495   2.802
  129OSM    H4G13814   3.574   6.364   2.823
  129OSM    C5F13815   3.500   6.533   2.935
  129OSM    H5F13816   3.396   6.495   2.948
  129OSM    H5G13817   3.483   6.641   2.914
  129OSM    C6F13818   3.574   6.512   3.058
  129OSM    H6F13819   3.675   6.557   3.045
  129OSM    H6G13820   3.570   6.409   3.099
  129OSM    C7F13821   3.499   6.593   3.172
  129OSM    H7F13822   3.393   6.561   3.168
  129OSM    H7G13823   3.502   6.699   3.141
  129OSM    C8F13824   3.562   6.573   3.313
  129OSM    H8F13825   3.565   6.462   3.320
  129OSM    H8G13826   3.489   6.620   3.381
  129OSM    C9F13827   3.691   6.637   3.339
  129OSM    H9F13828   3.744   6.639   3.243
  129OSM   C10F13829   3.718   6.709   3.447
  129OSM   H10F13830   3.820   6.750   3.447
  129OSM   C11F13831   3.636   6.747   3.565
  129OSM   H11F13832   3.542   6.782   3.518
  129OSM   H11G13833   3.675   0.047   3.606
  129OSM   C12F13834   3.613   6.631   3.654
  129OSM   H12F13835   3.710   6.586   3.686
  129OSM   H12G13836   3.548   6.558   3.603
  129OSM   C13F13837   3.544   6.665   3.790
  129OSM   H13F13838   3.613   6.734   3.842
  129OSM   H13G13839   3.543   6.567   3.844
  129OSM   C14F13840   3.395   6.700   3.788
  129OSM   H14F13841   3.363   6.791   3.731
  129OSM   H14G13842   3.370   6.719   3.894
  129OSM   C15F13843   3.303   6.578   3.745
  129OSM   H15F13844   3.353   6.486   3.784
  129OSM   H15G13845   3.295   6.578   3.634
  129OSM   C16F13846   3.169   6.585   3.821
  129OSM   H16F13847   3.105   6.670   3.789
  129OSM   H16G13848   3.190   6.600   3.929
  129OSM   C17F13849   3.081   6.468   3.789
  129OSM   H17F13850   3.072   6.441   3.681
  129OSM   H17G13851   2.973   6.484   3.810
  129OSM   C18F13852   3.111   6.337   3.865
  129OSM   H18F13853   3.218   6.312   3.850
  129OSM   H18G13854   3.053   6.250   3.826
  129OSM   H18H13855   3.087   6.332   3.973
  130OSM      N13856   3.227   3.786   1.722
  130OSM    C1513857   3.333   3.892   1.741
  130OSM   H15A13858   3.293   3.984   1.701
  130OSM   H15B13859   3.421   3.859   1.688
  130OSM   H15C13860   3.360   3.902   1.845
  130OSM    C1413861   3.096   3.824   1.786
  130OSM   H14A13862   3.119   3.852   1.888
  130OSM   H14B13863   3.017   3.752   1.768
  130OSM   H14C13864   3.059   3.915   1.741
  130OSM    C1313865   3.199   3.774   1.578
  130OSM   H13A13866   3.175   3.868   1.532
  130OSM   H13B13867   3.134   3.688   1.572
  130OSM   H13C13868   3.286   3.749   1.518
  130OSM    C1213869   3.268   3.648   1.783
  130OSM   H12A13870   3.350   3.614   1.722
  130OSM   H12B13871   3.181   3.585   1.792
  130OSM    C1113872   3.329   3.650   1.928
  130OSM   H11A13873   3.428   3.700   1.916
  130OSM   H11B13874   3.356   3.548   1.962
  130OSM      P13875   3.117   3.660   2.087
  130OSM    O1313876   3.035   3.781   2.127
  130OSM    O1413877   3.056   3.574   1.983
  130OSM    O1113878   3.175   3.576   2.215
  130OSM    O1213879   3.250   3.717   2.022
  130OSM    C1S13880   3.295   3.631   2.277
  130OSM    H1S13881   3.296   3.741   2.289
  130OSM    H1T13882   3.383   3.600   2.216
  130OSM     NF13883   3.420   3.669   2.500
  130OSM    HNF13884   3.500   3.621   2.535
  130OSM    C2S13885   3.324   3.587   2.420
  130OSM    H2S13886   3.229   3.588   2.479
  130OSM    C3S13887   3.359   3.435   2.422
  130OSM    H3S13888   3.458   3.421   2.374
  130OSM     O313889   3.286   3.340   2.350
  130OSM    HO313890   3.237   3.395   2.289
  130OSM    C4S13891   3.361   3.394   2.570
  130OSM    H4S13892   3.464   3.391   2.607
  130OSM    C5S13893   3.266   3.350   2.658
  130OSM    H5S13894   3.160   3.345   2.627
  130OSM    C6S13895   3.294   3.303   2.802
  130OSM    H6S13896   3.319   3.195   2.806
  130OSM    H6T13897   3.195   3.323   2.848
  130OSM    C7S13898   3.404   3.375   2.882
  130OSM    H7S13899   3.399   3.485   2.866
  130OSM    H7T13900   3.503   3.327   2.860
  130OSM    C8S13901   3.378   3.357   3.034
  130OSM    H8S13902   3.348   3.252   3.057
  130OSM    H8T13903   3.304   3.429   3.073
  130OSM    C9S13904   3.500   3.387   3.122
  130OSM    H9S13905   3.529   3.494   3.118
  130OSM    H9T13906   3.582   3.329   3.074
  130OSM   C10S13907   3.481   3.341   3.266
  130OSM   H10S13908   3.451   3.234   3.265
  130OSM   H10T13909   3.390   3.391   3.303
  130OSM   C11S13910   3.603   3.355   3.361
  130OSM   H11S13911   3.637   3.461   3.352
  130OSM   H11T13912   3.688   3.300   3.315
  130OSM   C12S13913   3.577   3.313   3.506
  130OSM   H12S13914   3.545   3.207   3.499
  130OSM   H12T13915   3.495   3.367   3.558
  130OSM   C13S13916   3.694   3.324   3.604
  130OSM   H13S13917   3.786   3.349   3.546
  130OSM   H13T13918   3.724   3.231   3.656
  130OSM   C14S13919   3.664   3.429   3.715
  130OSM   H14S13920   3.566   3.397   3.756
  130OSM   H14T13921   3.653   3.530   3.671
  130OSM   C15S13922   3.766   3.435   3.830
  130OSM   H15S13923   3.759   3.528   3.891
  130OSM   H15T13924   3.864   3.431   3.778
  130OSM   C16S13925   3.758   3.331   3.941
  130OSM   H16S13926   3.849   3.323   4.004
  130OSM   H16T13927   3.744   3.229   3.899
  130OSM   C17S13928   3.653   3.348   4.046
  130OSM   H17S13929   3.554   3.354   3.995
  130OSM   H17T13930   3.657   3.441   4.106
  130OSM   C18S13931   3.646   3.241   4.158
  130OSM   H18S13932   3.744   3.238   4.211
  130OSM   H18T13933   3.631   3.145   4.104
  130OSM   H18U13934   3.564   3.272   4.225
  130OSM    C1F13935   3.417   3.798   2.526
  130OSM     OF13936   3.319   3.871   2.503
  130OSM    C2F13937   3.535   3.854   2.590
  130OSM    H2F13938   3.625   3.795   2.562
  130OSM    H2G13939   3.530   3.838   2.700
  130OSM    C3F13940   3.563   4.004   2.569
  130OSM    H3F13941   3.468   4.061   2.571
  130OSM    H3G13942   3.588   4.027   2.463
  130OSM    C4F13943   3.671   4.074   2.662
  130OSM    H4F13944   3.710   4.166   2.615
  130OSM    H4G13945   3.763   4.013   2.679
  130OSM    C5F13946   3.604   4.109   2.790
  130OSM    H5F13947   3.551   4.017   2.823
  130OSM    H5G13948   3.525   4.188   2.790
  130OSM    C6F13949   3.690   4.156   2.911
  130OSM    H6F13950   3.711   4.263   2.890
  130OSM    H6G13951   3.796   4.121   2.913
  130OSM    C7F13952   3.618   4.134   3.046
  130OSM    H7F13953   3.615   4.024   3.065
  130OSM    H7G13954   3.514   4.169   3.033
  130OSM    C8F13955   3.682   4.207   3.166
  130OSM    H8F13956   3.606   4.194   3.246
  130OSM    H8G13957   3.677   4.315   3.140
  130OSM    C9F13958   3.826   4.171   3.211
  130OSM    H9F13959   3.908   4.169   3.138
  130OSM   C10F13960   3.864   4.143   3.334
  130OSM   H10F13961   3.970   4.115   3.346
  130OSM   C11F13962   3.785   4.131   3.464
  130OSM   H11F13963   3.755   4.024   3.457
  130OSM   H11G13964   3.689   4.181   3.439
  130OSM   C12F13965   3.846   4.173   3.599
  130OSM   H12F13966   3.769   4.158   3.677
  130OSM   H12G13967   3.870   4.281   3.607
  130OSM   C13F13968   3.962   4.089   3.646
  130OSM   H13F13969   4.043   4.116   3.574
  130OSM   H13G13970   3.936   3.981   3.640
  130OSM   C14F13971   4.014   4.125   3.779
  130OSM   H14F13972   4.118   4.087   3.789
  130OSM   H14G13973   3.954   4.063   3.849
  130OSM   C15F13974   4.018   4.272   3.812
  130OSM   H15F13975   3.919   4.312   3.840
  130OSM   H15G13976   4.054   4.333   3.726
  130OSM   C16F13977   4.112   4.295   3.934
  130OSM   H16F13978   4.207   4.255   3.891
  130OSM   H16G13979   4.073   4.239   4.021
  130OSM   C17F13980   4.136   4.439   3.988
  130OSM   H17F13981   4.051   4.463   4.055
  130OSM   H17G13982   4.135   4.515   3.906
  130OSM   C18F13983   4.270   4.446   4.062
  130OSM   H18F13984   4.361   4.404   4.014
  130OSM   H18G13985   4.250   4.390   4.156
  130OSM   H18H13986   4.283   4.553   4.092
  131OSM      N13987   0.721   6.721   1.778
  131OSM    C1513988   0.774   0.044   1.706
  131OSM   H15A13989   0.875   0.020   1.677
  131OSM   H15B13990   0.782   0.134   1.764
  131OSM   H15C13991   0.716   0.045   1.615
  131OSM    C1413992   0.589   6.765   1.837
  131OSM   H14A13993   0.548   6.674   1.876
  131OSM   H14B13994   0.521   6.796   1.759
  131OSM   H14C13995   0.601   0.047   1.910
  131OSM    C1313996   0.699   6.615   1.670
  131OSM   H13A13997   0.636   6.540   1.716
  131OSM   H13B13998   0.785   6.572   1.620
  131OSM   H13C13999   0.642   6.654   1.587
  131OSM    C1214000   0.823   6.668   1.882
  131OSM   H12A14001   0.771   6.593   1.941
  131OSM   H12B14002   0.844   6.741   1.960
  131OSM    C1114003   0.954   6.602   1.834
  131OSM   H11A14004   0.929   6.499   1.802
  131OSM   H11B14005   1.017   6.589   1.924
  131OSM      P14006   1.144   6.782   1.762
  131OSM    O1314007   1.256   6.744   1.673
  131OSM    O1414008   1.085   0.117   1.751
  131OSM    O1114009   1.186   6.746   1.913
  131OSM    O1214010   1.029   6.675   1.735
  131OSM    C1S14011   1.295   0.024   1.973
  131OSM    H1S14012   1.297   0.133   1.949
  131OSM    H1T14013   1.395   6.784   1.940
  131OSM     NF14014   1.373   0.097   2.208
  131OSM    HNF14015   1.465   0.062   2.226
  131OSM    C2S14016   1.297   0.002   2.129
  131OSM    H2S14017   1.194   0.017   2.165
  131OSM    C3S14018   1.331   6.648   2.160
  131OSM    H3S14019   1.439   6.627   2.143
  131OSM     O314020   1.267   6.553   2.078
  131OSM    HO314021   1.242   6.607   2.003
  131OSM    C4S14022   1.306   6.616   2.310
  131OSM    H4S14023   1.199   6.616   2.338
  131OSM    C5S14024   1.389   6.554   2.391
  131OSM    H5S14025   1.491   6.535   2.353
  131OSM    C6S14026   1.354   6.490   2.519
  131OSM    H6S14027   1.399   6.389   2.532
  131OSM    H6T14028   1.243   6.483   2.522
  131OSM    C7S14029   1.408   6.563   2.647
  131OSM    H7S14030   1.381   6.670   2.656
  131OSM    H7T14031   1.519   6.564   2.652
  131OSM    C8S14032   1.355   6.498   2.774
  131OSM    H8S14033   1.386   6.393   2.756
  131OSM    H8T14034   1.244   6.498   2.772
  131OSM    C9S14035   1.411   6.540   2.909
  131OSM    H9S14036   1.392   6.647   2.932
  131OSM    H9T14037   1.517   6.510   2.919
  131OSM   C10S14038   1.333   6.466   3.022
  131OSM   H10S14039   1.325   6.356   3.006
  131OSM   H10T14040   1.229   6.506   3.025
  131OSM   C11S14041   1.385   6.500   3.164
  131OSM   H11S14042   1.322   6.436   3.229
  131OSM   H11T14043   1.370   6.605   3.194
  131OSM   C12S14044   1.534   6.450   3.188
  131OSM   H12S14045   1.604   6.503   3.119
  131OSM   H12T14046   1.539   6.340   3.173
  131OSM   C13S14047   1.573   6.473   3.336
  131OSM   H13S14048   1.499   6.414   3.395
  131OSM   H13T14049   1.565   6.577   3.375
  131OSM   C14S14050   1.719   6.419   3.371
  131OSM   H14S14051   1.799   6.454   3.302
  131OSM   H14T14052   1.715   6.310   3.348
  131OSM   C15S14053   1.757   6.438   3.515
  131OSM   H15S14054   1.839   6.368   3.541
  131OSM   H15T14055   1.665   6.414   3.573
  131OSM   C16S14056   1.803   6.579   3.559
  131OSM   H16S14057   1.729   6.645   3.510
  131OSM   H16T14058   1.905   6.601   3.522
  131OSM   C17S14059   1.797   6.574   3.711
  131OSM   H17S14060   1.854   6.485   3.747
  131OSM   H17T14061   1.691   6.558   3.739
  131OSM   C18S14062   1.852   6.698   3.791
  131OSM   H18S14063   1.875   6.682   3.899
  131OSM   H18T14064   1.788   6.789   3.783
  131OSM   H18U14065   1.940   6.724   3.727
  131OSM    C1F14066   1.341   0.227   2.210
  131OSM     OF14067   1.227   0.259   2.178
  131OSM    C2F14068   1.448   0.317   2.250
  131OSM    H2F14069   1.489   0.369   2.161
  131OSM    H2G14070   1.531   0.251   2.285
  131OSM    C3F14071   1.402   0.422   2.358
  131OSM    H3F14072   1.306   0.470   2.329
  131OSM    H3G14073   1.470   0.508   2.375
  131OSM    C4F14074   1.371   0.350   2.490
  131OSM    H4F14075   1.443   0.272   2.523
  131OSM    H4G14076   1.274   0.301   2.465
  131OSM    C5F14077   1.334   0.452   2.602
  131OSM    H5F14078   1.269   0.533   2.562
  131OSM    H5G14079   1.436   0.490   2.623
  131OSM    C6F14080   1.268   0.397   2.729
  131OSM    H6F14081   1.323   0.308   2.767
  131OSM    H6G14082   1.166   0.366   2.700
  131OSM    C7F14083   1.275   0.493   2.852
  131OSM    H7F14084   1.231   0.593   2.833
  131OSM    H7G14085   1.382   0.505   2.879
  131OSM    C8F14086   1.201   0.448   2.977
  131OSM    H8F14087   1.232   0.345   3.006
  131OSM    H8G14088   1.098   0.435   2.937
  131OSM    C9F14089   1.214   0.553   3.084
  131OSM    H9F14090   1.249   0.646   3.039
  131OSM   C10F14091   1.188   0.542   3.217
  131OSM   H10F14092   1.192   0.636   3.274
  131OSM   C11F14093   1.138   0.423   3.294
  131OSM   H11F14094   1.221   0.365   3.339
  131OSM   H11G14095   1.103   0.343   3.225
  131OSM   C12F14096   1.020   0.455   3.390
  131OSM   H12F14097   0.988   0.358   3.434
  131OSM   H12G14098   0.942   0.519   3.343
  131OSM   C13F14099   1.071   0.538   3.516
  131OSM   H13F14100   1.086   0.642   3.480
  131OSM   H13G14101   1.175   0.512   3.546
  131OSM   C14F14102   0.961   0.536   3.629
  131OSM   H14F14103   0.966   0.444   3.692
  131OSM   H14G14104   0.861   0.535   3.582
  131OSM   C15F14105   0.996   0.650   3.728
  131OSM   H15F14106   1.010   0.747   3.676
  131OSM   H15G14107   1.096   0.626   3.770
  131OSM   C16F14108   0.904   0.636   3.844
  131OSM   H16F14109   0.896   0.529   3.875
  131OSM   H16G14110   0.797   0.661   3.828
  131OSM   C17F14111   0.951   0.705   3.964
  131OSM   H17F14112   1.034   0.647   4.010
  131OSM   H17G14113   0.863   0.690   4.030
  131OSM   C18F14114   0.955   0.856   3.950
  131OSM   H18F14115   0.973   0.909   4.046
  131OSM   H18G14116   0.851   0.885   3.922
  131OSM   H18H14117   1.035   0.899   3.886
  132OSM      N14118   5.570   6.522   2.470
  132OSM    C1514119   5.644   6.502   2.339
  132OSM   H15A14120   5.577   6.457   2.268
  132OSM   H15B14121   5.720   6.430   2.364
  132OSM   H15C14122   5.694   6.590   2.302
  132OSM    C1414123   5.456   6.620   2.463
  132OSM   H14A14124   5.497   6.714   2.429
  132OSM   H14B14125   5.420   6.636   2.564
  132OSM   H14C14126   5.376   6.588   2.398
  132OSM    C1314127   5.517   6.397   2.525
  132OSM   H13A14128   5.461   6.341   2.452
  132OSM   H13B14129   5.460   6.392   2.616
  132OSM   H13C14130   5.593   6.323   2.548
  132OSM    C1214131   5.666   6.584   2.574
  132OSM   H12A14132   5.603   6.599   2.661
  132OSM   H12B14133   5.701   6.677   2.532
  132OSM    C1114134   5.787   6.503   2.632
  132OSM   H11A14135   5.751   6.400   2.652
  132OSM   H11B14136   5.814   6.550   2.729
  132OSM      P14137   5.980   6.626   2.527
  132OSM    O1314138   6.056   6.622   2.402
  132OSM    O1414139   5.893   6.746   2.558
  132OSM    O1114140   6.077   6.611   2.647
  132OSM    O1214141   5.899   6.492   2.542
  132OSM    C1S14142   6.122   6.487   2.698
  132OSM    H1S14143   6.217   6.466   2.643
  132OSM    H1T14144   6.052   6.401   2.685
  132OSM     NF14145   6.244   6.367   2.879
  132OSM    HNF14146   6.173   6.300   2.898
  132OSM    C2S14147   6.175   6.497   2.850
  132OSM    H2S14148   6.249   6.579   2.861
  132OSM    C3S14149   6.061   6.529   2.950
  132OSM    H3S14150   5.977   6.458   2.934
  132OSM     O314151   6.012   6.659   2.918
  132OSM    HO314152   6.019   6.662   2.822
  132OSM    C4S14153   6.092   6.518   3.095
  132OSM    H4S14154   6.070   6.415   3.128
  132OSM    C5S14155   6.131   6.616   3.179
  132OSM    H5S14156   6.109   6.720   3.151
  132OSM    C6S14157   6.167   6.600   3.324
  132OSM    H6S14158   6.097   6.664   3.381
  132OSM    H6T14159   6.268   6.644   3.340
  132OSM    C7S14160   6.156   6.462   3.383
  132OSM    H7S14161   6.231   6.395   3.335
  132OSM    H7T14162   6.053   6.426   3.362
  132OSM    C8S14163   6.172   6.461   3.536
  132OSM    H8S14164   6.186   6.358   3.574
  132OSM    H8T14165   6.080   6.503   3.583
  132OSM    C9S14166   6.292   6.542   3.592
  132OSM    H9S14167   6.274   6.650   3.573
  132OSM    H9T14168   6.379   6.501   3.535
  132OSM   C10S14169   6.325   6.510   3.740
  132OSM   H10S14170   6.435   6.506   3.753
  132OSM   H10T14171   6.287   6.407   3.757
  132OSM   C11S14172   6.269   6.608   3.849
  132OSM   H11S14173   6.166   6.583   3.881
  132OSM   H11T14174   6.275   6.716   3.822
  132OSM   C12S14175   6.359   6.578   3.971
  132OSM   H12S14176   6.467   6.576   3.945
  132OSM   H12T14177   6.327   6.476   4.002
  132OSM   C13S14178   6.331   6.679   4.082
  132OSM   H13S14179   6.229   6.656   4.120
  132OSM   H13T14180   6.315   6.782   4.043
  132OSM   C14S14181   6.442   6.686   4.190
  132OSM   H14S14182   6.424   6.779   4.248
  132OSM   H14T14183   6.542   6.675   4.144
  132OSM   C15S14184   6.449   6.582   4.304
  132OSM   H15S14185   6.494   6.494   4.253
  132OSM   H15T14186   6.349   6.554   4.343
  132OSM   C16S14187   6.540   6.631   4.418
  132OSM   H16S14188   6.639   6.664   4.379
  132OSM   H16T14189   6.548   6.539   4.479
  132OSM   C17S14190   6.477   6.739   4.506
  132OSM   H17S14191   6.373   6.710   4.533
  132OSM   H17T14192   6.465   0.041   4.455
  132OSM   C18S14193   6.551   6.768   4.632
  132OSM   H18S14194   6.661   6.762   4.613
  132OSM   H18T14195   6.541   6.694   4.714
  132OSM   H18U14196   6.531   0.076   4.664
  132OSM    C1F14197   6.375   6.341   2.868
  132OSM     OF14198   6.448   6.395   2.787
  132OSM    C2F14199   6.439   6.245   2.960
  132OSM    H2F14200   6.548   6.268   2.962
  132OSM    H2G14201   6.407   6.143   2.929
  132OSM    C3F14202   6.390   6.261   3.107
  132OSM    H3F14203   6.281   6.244   3.116
  132OSM    H3G14204   6.406   6.366   3.140
  132OSM    C4F14205   6.461   6.177   3.209
  132OSM    H4F14206   6.564   6.216   3.221
  132OSM    H4G14207   6.458   6.074   3.167
  132OSM    C5F14208   6.399   6.167   3.349
  132OSM    H5F14209   6.295   6.136   3.328
  132OSM    H5G14210   6.391   6.271   3.388
  132OSM    C6F14211   6.467   6.076   3.454
  132OSM    H6F14212   6.577   6.091   3.450
  132OSM    H6G14213   6.468   5.971   3.420
  132OSM    C7F14214   6.425   6.094   3.602
  132OSM    H7F14215   6.314   6.096   3.604
  132OSM    H7G14216   6.455   6.198   3.628
  132OSM    C8F14217   6.469   5.985   3.704
  132OSM    H8F14218   6.416   5.890   3.682
  132OSM    H8G14219   6.439   6.019   3.806
  132OSM    C9F14220   6.621   5.953   3.701
  132OSM    H9F14221   6.652   5.925   3.599
  132OSM   C10F14222   6.711   5.958   3.807
  132OSM   H10F14223   0.020   5.933   3.785
  132OSM   C11F14224   6.676   5.992   3.952
  132OSM   H11F14225   6.586   6.056   3.967
  132OSM   H11G14226   6.759   6.058   3.986
  132OSM   C12F14227   6.666   5.868   4.043
  132OSM   H12F14228   6.649   5.901   4.148
  132OSM   H12G14229   6.757   5.805   4.037
  132OSM   C13F14230   6.546   5.781   3.992
  132OSM   H13F14231   6.569   5.757   3.886
  132OSM   H13G14232   6.452   5.840   3.991
  132OSM   C14F14233   6.516   5.667   4.083
  132OSM   H14F14234   6.602   5.597   4.088
  132OSM   H14G14235   6.431   5.612   4.035
  132OSM   C15F14236   6.469   5.707   4.222
  132OSM   H15F14237   6.373   5.762   4.226
  132OSM   H15G14238   6.538   5.780   4.270
  132OSM   C16F14239   6.479   5.593   4.322
  132OSM   H16F14240   6.578   5.544   4.311
  132OSM   H16G14241   6.400   5.519   4.295
  132OSM   C17F14242   6.463   5.648   4.464
  132OSM   H17F14243   6.393   5.734   4.464
  132OSM   H17G14244   6.560   5.680   4.507
  132OSM   C18F14245   6.400   5.539   4.551
  132OSM   H18F14246   6.480   5.492   4.612
  132OSM   H18G14247   6.353   5.455   4.496
  132OSM   H18H14248   6.320   5.573   4.620
  133OSM      N14249   4.667   3.208   2.356
  133OSM    C1514250   4.702   3.147   2.224
  133OSM   H15A14251   4.797   3.096   2.237
  133OSM   H15B14252   4.708   3.221   2.146
  133OSM   H15C14253   4.630   3.069   2.201
  133OSM    C1414254   4.766   3.328   2.395
  133OSM   H14A14255   4.859   3.281   2.425
  133OSM   H14B14256   4.709   3.373   2.475
  133OSM   H14C14257   4.773   3.397   2.313
  133OSM    C1314258   4.526   3.274   2.354
  133OSM   H13A14259   4.510   3.320   2.450
  133OSM   H13B14260   4.455   3.194   2.342
  133OSM   H13C14261   4.520   3.343   2.271
  133OSM    C1214262   4.665   3.103   2.465
  133OSM   H12A14263   4.586   3.032   2.443
  133OSM   H12B14264   4.657   3.149   2.563
  133OSM    C1114265   4.796   3.019   2.476
  133OSM   H11A14266   4.765   2.933   2.539
  133OSM   H11B14267   4.879   3.074   2.525
  133OSM      P14268   4.988   2.899   2.347
  133OSM    O1314269   4.987   2.765   2.272
  133OSM    O1414270   5.082   3.001   2.291
  133OSM    O1114271   5.028   2.882   2.497
  133OSM    O1214272   4.835   2.954   2.361
  133OSM    C1S14273   4.994   2.753   2.552
  133OSM    H1S14274   5.058   2.677   2.502
  133OSM    H1T14275   4.887   2.724   2.545
  133OSM     NF14276   5.042   2.596   2.746
  133OSM    HNF14277   4.967   2.545   2.789
  133OSM    C2S14278   5.036   2.735   2.705
  133OSM    H2S14279   5.139   2.777   2.710
  133OSM    C3S14280   4.956   2.818   2.809
  133OSM    H3S14281   4.856   2.772   2.820
  133OSM     O314282   4.945   2.955   2.763
  133OSM    HO314283   4.994   2.945   2.681
  133OSM    C4S14284   5.025   2.828   2.936
  133OSM    H4S14285   5.116   2.889   2.934
  133OSM    C5S14286   4.986   2.782   3.051
  133OSM    H5S14287   4.894   2.722   3.051
  133OSM    C6S14288   5.069   2.787   3.176
  133OSM    H6S14289   5.012   2.828   3.263
  133OSM    H6T14290   5.142   2.869   3.156
  133OSM    C7S14291   5.146   2.657   3.217
  133OSM    H7S14292   5.216   2.684   3.299
  133OSM    H7T14293   5.198   2.605   3.133
  133OSM    C8S14294   5.064   2.542   3.283
  133OSM    H8S14295   4.968   2.535   3.227
  133OSM    H8T14296   5.029   2.566   3.386
  133OSM    C9S14297   5.132   2.408   3.275
  133OSM    H9S14298   5.220   2.392   3.341
  133OSM    H9T14299   5.173   2.383   3.175
  133OSM   C10S14300   5.044   2.291   3.322
  133OSM   H10S14301   5.105   2.199   3.324
  133OSM   H10T14302   4.956   2.256   3.264
  133OSM   C11S14303   5.003   2.315   3.468
  133OSM   H11S14304   4.930   2.399   3.468
  133OSM   H11T14305   5.088   2.343   3.535
  133OSM   C12S14306   4.945   2.200   3.550
  133OSM   H12S14307   5.017   2.116   3.544
  133OSM   H12T14308   4.847   2.177   3.501
  133OSM   C13S14309   4.917   2.224   3.702
  133OSM   H13S14310   4.855   2.316   3.713
  133OSM   H13T14311   5.006   2.254   3.761
  133OSM   C14S14312   4.829   2.109   3.759
  133OSM   H14S14313   4.891   2.016   3.762
  133OSM   H14T14314   4.748   2.077   3.690
  133OSM   C15S14315   4.778   2.150   3.898
  133OSM   H15S14316   4.711   2.237   3.884
  133OSM   H15T14317   4.864   2.168   3.965
  133OSM   C16S14318   4.691   2.035   3.955
  133OSM   H16S14319   4.756   1.951   3.987
  133OSM   H16T14320   4.616   2.001   3.881
  133OSM   C17S14321   4.622   2.089   4.078
  133OSM   H17S14322   4.588   2.193   4.059
  133OSM   H17T14323   4.695   2.109   4.160
  133OSM   C18S14324   4.514   1.989   4.122
  133OSM   H18S14325   4.434   1.988   4.045
  133OSM   H18T14326   4.463   2.024   4.214
  133OSM   H18U14327   4.560   1.888   4.127
  133OSM    C1F14328   5.118   2.500   2.686
  133OSM     OF14329   5.212   2.530   2.612
  133OSM    C2F14330   5.090   2.357   2.714
  133OSM    H2F14331   5.175   2.297   2.675
  133OSM    H2G14332   4.993   2.328   2.667
  133OSM    C3F14333   5.083   2.332   2.872
  133OSM    H3F14334   5.002   2.394   2.917
  133OSM    H3G14335   5.172   2.379   2.919
  133OSM    C4F14336   5.046   2.189   2.917
  133OSM    H4F14337   5.048   2.173   3.027
  133OSM    H4G14338   5.128   2.121   2.884
  133OSM    C5F14339   4.912   2.141   2.864
  133OSM    H5F14340   4.912   2.122   2.755
  133OSM    H5G14341   4.833   2.219   2.875
  133OSM    C6F14342   4.862   2.010   2.941
  133OSM    H6F14343   4.951   1.944   2.937
  133OSM    H6G14344   4.778   1.957   2.891
  133OSM    C7F14345   4.795   2.042   3.078
  133OSM    H7F14346   4.719   2.123   3.073
  133OSM    H7G14347   4.881   2.069   3.143
  133OSM    C8F14348   4.732   1.921   3.150
  133OSM    H8F14349   4.664   1.859   3.088
  133OSM    H8G14350   4.683   1.950   3.245
  133OSM    C9F14351   4.842   1.821   3.175
  133OSM    H9F14352   4.882   1.786   3.079
  133OSM   C10F14353   4.881   1.778   3.301
  133OSM   H10F14354   4.958   1.699   3.301
  133OSM   C11F14355   4.845   1.835   3.439
  133OSM   H11F14356   4.790   1.931   3.427
  133OSM   H11G14357   4.946   1.860   3.478
  133OSM   C12F14358   4.758   1.752   3.530
  133OSM   H12F14359   4.660   1.714   3.495
  133OSM   H12G14360   4.724   1.816   3.614
  133OSM   C13F14361   4.840   1.627   3.582
  133OSM   H13F14362   4.945   1.664   3.587
  133OSM   H13G14363   4.830   1.552   3.500
  133OSM   C14F14364   4.786   1.557   3.707
  133OSM   H14F14365   4.851   1.467   3.712
  133OSM   H14G14366   4.680   1.527   3.692
  133OSM   C15F14367   4.811   1.642   3.833
  133OSM   H15F14368   4.775   1.746   3.826
  133OSM   H15G14369   4.917   1.663   3.859
  133OSM   C16F14370   4.744   1.560   3.953
  133OSM   H16F14371   4.772   1.454   3.934
  133OSM   H16G14372   4.635   1.566   3.936
  133OSM   C17F14373   4.776   1.631   4.079
  133OSM   H17F14374   4.711   1.721   4.087
  133OSM   H17G14375   4.884   1.660   4.074
  133OSM   C18F14376   4.747   1.542   4.204
  133OSM   H18F14377   4.786   1.587   4.297
  133OSM   H18G14378   4.791   1.440   4.202
  133OSM   H18H14379   4.636   1.533   4.206
  134OSM      N14380   5.920   5.269   1.880
  134OSM    C1514381   5.995   5.397   1.874
  134OSM   H15A14382   5.959   5.458   1.792
  134OSM   H15B14383   6.100   5.378   1.858
  134OSM   H15C14384   5.976   5.446   1.968
  134OSM    C1414385   5.951   5.201   1.750
  134OSM   H14A14386   6.055   5.173   1.748
  134OSM   H14B14387   5.927   5.268   1.669
  134OSM   H14C14388   5.897   5.110   1.731
  134OSM    C1314389   5.955   5.185   2.001
  134OSM   H13A14390   5.894   5.097   2.016
  134OSM   H13B14391   5.930   5.245   2.087
  134OSM   H13C14392   6.062   5.167   1.999
  134OSM    C1214393   5.777   5.298   1.889
  134OSM   H12A14394   5.753   5.359   1.804
  134OSM   H12B14395   5.756   5.358   1.976
  134OSM    C1114396   5.679   5.181   1.897
  134OSM   H11A14397   5.696   5.119   1.988
  134OSM   H11B14398   5.705   5.113   1.813
  134OSM      P14399   5.461   5.263   2.007
  134OSM    O1314400   5.356   5.358   1.962
  134OSM    O1414401   5.420   5.124   2.038
  134OSM    O1114402   5.553   5.324   2.114
  134OSM    O1214403   5.553   5.237   1.879
  134OSM    C1S14404   5.528   5.430   2.208
  134OSM    H1S14405   5.459   5.510   2.173
  134OSM    H1T14406   5.623   5.480   2.237
  134OSM     NF14407   5.395   5.458   2.417
  134OSM    HNF14408   5.437   5.490   2.501
  134OSM    C2S14409   5.467   5.365   2.339
  134OSM    H2S14410   5.394   5.292   2.301
  134OSM    C3S14411   5.588   5.290   2.414
  134OSM    H3S14412   5.662   5.367   2.445
  134OSM     O314413   5.660   5.193   2.342
  134OSM    HO314414   5.650   5.206   2.247
  134OSM    C4S14415   5.529   5.229   2.538
  134OSM    H4S14416   5.544   5.286   2.631
  134OSM    C5S14417   5.467   5.107   2.543
  134OSM    H5S14418   5.473   5.047   2.451
  134OSM    C6S14419   5.422   5.026   2.661
  134OSM    H6S14420   5.503   4.954   2.684
  134OSM    H6T14421   5.333   4.965   2.635
  134OSM    C7S14422   5.402   5.110   2.787
  134OSM    H7S14423   5.318   5.182   2.772
  134OSM    H7T14424   5.492   5.171   2.810
  134OSM    C8S14425   5.369   5.026   2.913
  134OSM    H8S14426   5.438   4.940   2.926
  134OSM    H8T14427   5.265   4.991   2.896
  134OSM    C9S14428   5.378   5.119   3.037
  134OSM    H9S14429   5.290   5.187   3.036
  134OSM    H9T14430   5.464   5.190   3.045
  134OSM   C10S14431   5.381   5.029   3.159
  134OSM   H10S14432   5.477   4.974   3.153
  134OSM   H10T14433   5.287   4.970   3.155
  134OSM   C11S14434   5.380   5.110   3.292
  134OSM   H11S14435   5.287   5.170   3.299
  134OSM   H11T14436   5.478   5.161   3.294
  134OSM   C12S14437   5.385   5.008   3.409
  134OSM   H12S14438   5.487   4.966   3.393
  134OSM   H12T14439   5.322   4.917   3.399
  134OSM   C13S14440   5.377   5.075   3.543
  134OSM   H13S14441   5.272   5.112   3.551
  134OSM   H13T14442   5.452   5.157   3.546
  134OSM   C14S14443   5.394   4.971   3.655
  134OSM   H14S14444   5.502   4.959   3.675
  134OSM   H14T14445   5.361   4.866   3.635
  134OSM   C15S14446   5.335   5.023   3.788
  134OSM   H15S14447   5.225   5.033   3.787
  134OSM   H15T14448   5.387   5.120   3.807
  134OSM   C16S14449   5.370   4.936   3.917
  134OSM   H16S14450   5.481   4.935   3.922
  134OSM   H16T14451   5.334   4.832   3.906
  134OSM   C17S14452   5.310   5.010   4.036
  134OSM   H17S14453   5.199   5.009   4.030
  134OSM   H17T14454   5.339   5.117   4.027
  134OSM   C18S14455   5.365   4.971   4.176
  134OSM   H18S14456   5.473   4.993   4.171
  134OSM   H18T14457   5.344   4.864   4.197
  134OSM   H18U14458   5.316   5.020   4.264
  134OSM    C1F14459   5.278   5.511   2.375
  134OSM     OF14460   5.220   5.473   2.276
  134OSM    C2F14461   5.217   5.619   2.459
  134OSM    H2F14462   5.245   5.709   2.399
  134OSM    H2G14463   5.265   5.625   2.559
  134OSM    C3F14464   5.068   5.615   2.487
  134OSM    H3F14465   5.020   5.630   2.387
  134OSM    H3G14466   5.044   5.703   2.550
  134OSM    C4F14467   5.038   5.476   2.553
  134OSM    H4F14468   5.121   5.452   2.623
  134OSM    H4G14469   5.033   5.383   2.492
  134OSM    C5F14470   4.903   5.482   2.619
  134OSM    H5F14471   4.822   5.503   2.545
  134OSM    H5G14472   4.901   5.569   2.688
  134OSM    C6F14473   4.865   5.354   2.690
  134OSM    H6F14474   4.938   5.350   2.773
  134OSM    H6G14475   4.867   5.267   2.620
  134OSM    C7F14476   4.729   5.368   2.762
  134OSM    H7F14477   4.704   5.266   2.798
  134OSM    H7G14478   4.645   5.394   2.694
  134OSM    C8F14479   4.734   5.467   2.888
  134OSM    H8F14480   4.627   5.483   2.917
  134OSM    H8G14481   4.777   5.564   2.855
  134OSM    C9F14482   4.810   5.413   3.008
  134OSM    H9F14483   4.918   5.395   3.001
  134OSM   C10F14484   4.758   5.390   3.121
  134OSM   H10F14485   4.819   5.341   3.199
  134OSM   C11F14486   4.608   5.401   3.153
  134OSM   H11F14487   4.568   5.313   3.208
  134OSM   H11G14488   4.537   5.395   3.068
  134OSM   C12F14489   4.582   5.525   3.243
  134OSM   H12F14490   4.476   5.528   3.276
  134OSM   H12G14491   4.602   5.614   3.179
  134OSM   C13F14492   4.679   5.531   3.369
  134OSM   H13F14493   4.663   5.622   3.429
  134OSM   H13G14494   4.786   5.518   3.342
  134OSM   C14F14495   4.627   5.424   3.463
  134OSM   H14F14496   4.629   5.323   3.418
  134OSM   H14G14497   4.521   5.452   3.484
  134OSM   C15F14498   4.699   5.427   3.596
  134OSM   H15F14499   4.698   5.532   3.631
  134OSM   H15G14500   4.805   5.397   3.582
  134OSM   C16F14501   4.627   5.338   3.704
  134OSM   H16F14502   4.621   5.236   3.662
  134OSM   H16G14503   4.521   5.373   3.710
  134OSM   C17F14504   4.694   5.327   3.841
  134OSM   H17F14505   4.681   5.431   3.877
  134OSM   H17G14506   4.797   5.284   3.840
  134OSM   C18F14507   4.615   5.242   3.945
  134OSM   H18F14508   4.513   5.286   3.947
  134OSM   H18G14509   4.659   5.253   4.047
  134OSM   H18H14510   4.616   5.138   3.906
  135OSM      N14511   0.484   0.751   1.707
  135OSM    C1514512   0.609   0.665   1.724
  135OSM   H15A14513   0.586   0.572   1.772
  135OSM   H15B14514   0.688   0.723   1.769
  135OSM   H15C14515   0.641   0.633   1.626
  135OSM    C1414516   0.516   0.870   1.623
  135OSM   H14A14517   0.428   0.933   1.620
  135OSM   H14B14518   0.541   0.834   1.524
  135OSM   H14C14519   0.595   0.934   1.660
  135OSM    C1314520   0.385   0.669   1.634
  135OSM   H13A14521   0.431   0.636   1.542
  135OSM   H13B14522   0.302   0.730   1.602
  135OSM   H13C14523   0.344   0.580   1.681
  135OSM    C1214524   0.441   0.792   1.844
  135OSM   H12A14525   0.524   0.846   1.886
  135OSM   H12B14526   0.432   0.702   1.903
  135OSM    C1114527   0.309   0.877   1.864
  135OSM   H11A14528   0.313   0.973   1.807
  135OSM   H11B14529   0.318   0.907   1.970
  135OSM      P14530   0.125   0.706   1.929
  135OSM    O1314531   6.795   0.658   1.875
  135OSM    O1414532   0.229   0.611   1.973
  135OSM    O1114533   0.095   0.810   2.045
  135OSM    O1214534   0.186   0.810   1.832
  135OSM    C1S14535   0.006   0.796   2.156
  135OSM    H1S14536   6.719   0.729   2.125
  135OSM    H1T14537   6.767   0.899   2.180
  135OSM     NF14538   6.777   0.684   2.370
  135OSM    HNF14539   6.744   0.747   2.440
  135OSM    C2S14540   0.073   0.737   2.279
  135OSM    H2S14541   0.131   0.649   2.245
  135OSM    C3S14542   0.171   0.840   2.338
  135OSM    H3S14543   0.134   0.944   2.340
  135OSM     O314544   0.280   0.869   2.250
  135OSM    HO314545   0.253   0.838   2.164
  135OSM    C4S14546   0.204   0.799   2.478
  135OSM    H4S14547   0.133   0.853   2.542
  135OSM    C5S14548   0.306   0.725   2.519
  135OSM    H5S14549   0.374   0.673   2.448
  135OSM    C6S14550   0.324   0.699   2.667
  135OSM    H6S14551   0.344   0.794   2.721
  135OSM    H6T14552   0.422   0.648   2.665
  135OSM    C7S14553   0.214   0.613   2.734
  135OSM    H7S14554   0.221   0.519   2.675
  135OSM    H7T14555   0.109   0.651   2.726
  135OSM    C8S14556   0.244   0.575   2.885
  135OSM    H8S14557   0.354   0.566   2.898
  135OSM    H8T14558   0.196   0.477   2.902
  135OSM    C9S14559   0.197   0.674   2.990
  135OSM    H9S14560   0.088   0.683   2.973
  135OSM    H9T14561   0.258   0.764   2.968
  135OSM   C10S14562   0.231   0.627   3.135
  135OSM   H10S14563   0.340   0.627   3.153
  135OSM   H10T14564   0.199   0.522   3.153
  135OSM   C11S14565   0.175   0.725   3.243
  135OSM   H11S14566   0.220   0.680   3.334
  135OSM   H11T14567   0.065   0.735   3.231
  135OSM   C12S14568   0.231   0.866   3.230
  135OSM   H12S14569   0.191   0.916   3.139
  135OSM   H12T14570   0.339   0.852   3.211
  135OSM   C13S14571   0.211   0.959   3.351
  135OSM   H13S14572   0.242   0.903   3.442
  135OSM   H13T14573   0.103   0.985   3.356
  135OSM   C14S14574   0.290   1.084   3.323
  135OSM   H14S14575   0.253   1.127   3.228
  135OSM   H14T14576   0.398   1.064   3.304
  135OSM   C15S14577   0.280   1.188   3.434
  135OSM   H15S14578   0.189   1.252   3.428
  135OSM   H15T14579   0.364   1.257   3.411
  135OSM   C16S14580   0.288   1.134   3.579
  135OSM   H16S14581   0.384   1.079   3.588
  135OSM   H16T14582   0.212   1.057   3.605
  135OSM   C17S14583   0.288   1.251   3.684
  135OSM   H17S14584   0.185   1.293   3.683
  135OSM   H17T14585   0.346   1.337   3.645
  135OSM   C18S14586   0.331   1.214   3.822
  135OSM   H18S14587   0.305   1.293   3.896
  135OSM   H18T14588   0.438   1.182   3.828
  135OSM   H18U14589   0.271   1.126   3.851
  135OSM    C1F14590   6.690   0.589   2.333
  135OSM     OF14591   6.710   0.507   2.246
  135OSM    C2F14592   6.558   0.582   2.405
  135OSM    H2F14593   6.490   0.576   2.318
  135OSM    H2G14594   6.533   0.676   2.459
  135OSM    C3F14595   6.560   0.474   2.510
  135OSM    H3F14596   6.614   0.382   2.479
  135OSM    H3G14597   6.453   0.442   2.515
  135OSM    C4F14598   6.622   0.508   2.643
  135OSM    H4F14599   6.560   0.591   2.684
  135OSM    H4G14600   6.725   0.546   2.626
  135OSM    C5F14601   6.633   0.389   2.734
  135OSM    H5F14602   6.698   0.315   2.682
  135OSM    H5G14603   6.532   0.348   2.756
  135OSM    C6F14604   6.702   0.429   2.867
  135OSM    H6F14605   6.639   0.511   2.908
  135OSM    H6G14606   0.006   0.466   2.836
  135OSM    C7F14607   6.722   0.298   2.952
  135OSM    H7F14608   6.780   0.220   2.897
  135OSM    H7G14609   6.621   0.259   2.978
  135OSM    C8F14610   0.001   0.325   3.083
  135OSM    H8F14611   6.759   0.424   3.116
  135OSM    H8G14612   0.103   0.342   3.043
  135OSM    C9F14613   0.002   0.217   3.193
  135OSM    H9F14614   6.779   0.111   3.169
  135OSM   C10F14615   0.031   0.244   3.319
  135OSM   H10F14616   0.034   0.156   3.385
  135OSM   C11F14617   0.065   0.376   3.379
  135OSM   H11F14618   6.786   0.457   3.376
  135OSM   H11G14619   0.156   0.420   3.332
  135OSM   C12F14620   0.078   0.356   3.532
  135OSM   H12F14621   0.148   0.272   3.554
  135OSM   H12G14622   6.780   0.320   3.578
  135OSM   C13F14623   0.139   0.475   3.607
  135OSM   H13F14624   0.068   0.558   3.584
  135OSM   H13G14625   0.237   0.516   3.574
  135OSM   C14F14626   0.130   0.454   3.753
  135OSM   H14F14627   0.191   0.365   3.783
  135OSM   H14G14628   0.024   0.434   3.780
  135OSM   C15F14629   0.182   0.573   3.840
  135OSM   H15F14630   0.289   0.596   3.819
  135OSM   H15G14631   0.171   0.550   3.948
  135OSM   C16F14632   0.094   0.700   3.823
  135OSM   H16F14633   6.795   0.674   3.873
  135OSM   H16G14634   0.073   0.720   3.716
  135OSM   C17F14635   0.140   0.825   3.898
  135OSM   H17F14636   0.056   0.893   3.870
  135OSM   H17G14637   0.231   0.864   3.847
  135OSM   C18F14638   0.146   0.806   4.048
  135OSM   H18F14639   0.217   0.725   4.074
  135OSM   H18G14640   0.056   0.763   4.096
  135OSM   H18H14641   0.180   0.899   4.100
  136OSM      N14642   1.528   4.671   2.304
  136OSM    C1514643   1.406   4.588   2.259
  136OSM   H15A14644   1.335   4.646   2.202
  136OSM   H15B14645   1.360   4.531   2.338
  136OSM   H15C14646   1.443   4.518   2.185
  136OSM    C1414647   1.577   4.757   2.184
  136OSM   H14A14648   1.647   4.831   2.220
  136OSM   H14B14649   1.494   4.811   2.141
  136OSM   H14C14650   1.631   4.692   2.118
  136OSM    C1314651   1.497   4.760   2.418
  136OSM   H13A14652   1.458   4.699   2.498
  136OSM   H13B14653   1.419   4.832   2.401
  136OSM   H13C14654   1.577   4.818   2.461
  136OSM    C1214655   1.629   4.562   2.346
  136OSM   H12A14656   1.638   4.485   2.270
  136OSM   H12B14657   1.596   4.507   2.432
  136OSM    C1114658   1.771   4.611   2.388
  136OSM   H11A14659   1.817   4.537   2.456
  136OSM   H11B14660   1.753   4.708   2.440
  136OSM      P14661   1.998   4.587   2.243
  136OSM    O1314662   2.011   4.479   2.143
  136OSM    O1414663   2.072   4.712   2.213
  136OSM    O1114664   2.052   4.534   2.379
  136OSM    O1214665   1.847   4.626   2.267
  136OSM    C1S14666   2.112   4.614   2.478
  136OSM    H1S14667   2.033   4.677   2.524
  136OSM    H1T14668   2.186   4.686   2.436
  136OSM     NF14669   2.198   4.582   2.704
  136OSM    HNF14670   2.284   4.632   2.712
  136OSM    C2S14671   2.186   4.523   2.579
  136OSM    H2S14672   2.136   4.425   2.597
  136OSM    C3S14673   2.319   4.482   2.515
  136OSM    H3S14674   2.386   4.570   2.504
  136OSM     O314675   2.302   4.436   2.382
  136OSM    HO314676   2.212   4.464   2.366
  136OSM    C4S14677   2.386   4.382   2.598
  136OSM    H4S14678   2.338   4.283   2.596
  136OSM    C5S14679   2.503   4.387   2.661
  136OSM    H5S14680   2.545   4.489   2.672
  136OSM    C6S14681   2.568   4.279   2.740
  136OSM    H6S14682   2.678   4.298   2.749
  136OSM    H6T14683   2.580   4.180   2.690
  136OSM    C7S14684   2.497   4.265   2.875
  136OSM    H7S14685   2.403   4.214   2.846
  136OSM    H7T14686   2.481   4.362   2.927
  136OSM    C8S14687   2.576   4.175   2.971
  136OSM    H8S14688   2.602   4.078   2.924
  136OSM    H8T14689   2.515   4.148   3.060
  136OSM    C9S14690   2.707   4.232   3.018
  136OSM    H9S14691   2.701   4.315   3.093
  136OSM    H9T14692   2.767   4.269   2.932
  136OSM   C10S14693   2.793   4.128   3.094
  136OSM   H10S14694   2.878   4.193   3.120
  136OSM   H10T14695   2.825   4.047   3.025
  136OSM   C11S14696   2.732   4.066   3.221
  136OSM   H11S14697   2.642   4.009   3.190
  136OSM   H11T14698   2.690   4.150   3.280
  136OSM   C12S14699   2.838   4.001   3.305
  136OSM   H12S14700   2.916   4.071   3.342
  136OSM   H12T14701   2.889   3.922   3.245
  136OSM   C13S14702   2.777   3.937   3.433
  136OSM   H13S14703   2.697   3.866   3.403
  136OSM   H13T14704   2.725   4.007   3.502
  136OSM   C14S14705   2.887   3.863   3.504
  136OSM   H14S14706   2.960   3.945   3.522
  136OSM   H14T14707   2.926   3.793   3.427
  136OSM   C15S14708   2.863   3.785   3.639
  136OSM   H15S14709   2.777   3.718   3.619
  136OSM   H15T14710   2.833   3.868   3.706
  136OSM   C16S14711   2.994   3.713   3.688
  136OSM   H16S14712   3.078   3.783   3.702
  136OSM   H16T14713   3.020   3.641   3.607
  136OSM   C17S14714   2.978   3.634   3.816
  136OSM   H17S14715   2.935   3.700   3.895
  136OSM   H17T14716   3.076   3.594   3.852
  136OSM   C18S14717   2.887   3.513   3.794
  136OSM   H18S14718   2.784   3.547   3.773
  136OSM   H18T14719   2.880   3.450   3.884
  136OSM   H18U14720   2.916   3.453   3.705
  136OSM    C1F14721   2.107   4.579   2.792
  136OSM     OF14722   1.996   4.535   2.769
  136OSM    C2F14723   2.144   4.646   2.921
  136OSM    H2F14724   2.080   4.737   2.916
  136OSM    H2G14725   2.251   4.673   2.908
  136OSM    C3F14726   2.115   4.561   3.048
  136OSM    H3F14727   2.007   4.558   3.070
  136OSM    H3G14728   2.160   4.610   3.137
  136OSM    C4F14729   2.176   4.425   3.041
  136OSM    H4F14730   2.287   4.429   3.032
  136OSM    H4G14731   2.133   4.367   2.956
  136OSM    C5F14732   2.155   4.346   3.181
  136OSM    H5F14733   2.164   4.240   3.150
  136OSM    H5G14734   2.049   4.366   3.206
  136OSM    C6F14735   2.242   4.381   3.298
  136OSM    H6F14736   2.255   4.490   3.312
  136OSM    H6G14737   2.346   4.345   3.284
  136OSM    C7F14738   2.179   4.336   3.429
  136OSM    H7F14739   2.167   4.225   3.432
  136OSM    H7G14740   2.083   4.390   3.446
  136OSM    C8F14741   2.277   4.346   3.556
  136OSM    H8F14742   2.322   4.447   3.543
  136OSM    H8G14743   2.357   4.273   3.531
  136OSM    C9F14744   2.216   4.325   3.693
  136OSM    H9F14745   2.124   4.266   3.682
  136OSM   C10F14746   2.264   4.346   3.816
  136OSM   H10F14747   2.201   4.316   3.901
  136OSM   C11F14748   2.399   4.406   3.839
  136OSM   H11F14749   2.390   4.514   3.860
  136OSM   H11G14750   2.468   4.386   3.754
  136OSM   C12F14751   2.475   4.342   3.955
  136OSM   H12F14752   2.573   4.394   3.964
  136OSM   H12G14753   2.497   4.234   3.945
  136OSM   C13F14754   2.396   4.366   4.094
  136OSM   H13F14755   2.453   4.308   4.169
  136OSM   H13G14756   2.290   4.333   4.084
  136OSM   C14F14757   2.398   4.514   4.132
  136OSM   H14F14758   2.351   4.568   4.047
  136OSM   H14G14759   2.499   4.558   4.146
  136OSM   C15F14760   2.311   4.555   4.260
  136OSM   H15F14761   2.210   4.518   4.230
  136OSM   H15G14762   2.305   4.665   4.267
  136OSM   C16F14763   2.348   4.486   4.389
  136OSM   H16F14764   2.355   4.376   4.378
  136OSM   H16G14765   2.268   4.502   4.465
  136OSM   C17F14766   2.483   4.541   4.440
  136OSM   H17F14767   2.496   4.647   4.409
  136OSM   H17G14768   2.569   4.497   4.384
  136OSM   C18F14769   2.505   4.521   4.586
  136OSM   H18F14770   2.480   4.419   4.621
  136OSM   H18G14771   2.442   4.582   4.654
  136OSM   H18H14772   2.611   4.553   4.601
  137OSM      N14773   1.162   1.302   1.892
  137OSM    C1514774   1.303   1.292   1.834
  137OSM   H15A14775   1.378   1.255   1.903
  137OSM   H15B14776   1.344   1.381   1.788
  137OSM   H15C14777   1.308   1.212   1.762
  137OSM    C1414778   1.068   1.324   1.782
  137OSM   H14A14779   0.966   1.341   1.815
  137OSM   H14B14780   1.070   1.237   1.717
  137OSM   H14C14781   1.088   1.412   1.722
  137OSM    C1314782   1.117   1.177   1.966
  137OSM   H13A14783   1.162   1.173   2.065
  137OSM   H13B14784   1.157   1.092   1.914
  137OSM   H13C14785   1.011   1.160   1.968
  137OSM    C1214786   1.160   1.425   1.979
  137OSM   H12A14787   1.185   1.511   1.919
  137OSM   H12B14788   1.231   1.409   2.058
  137OSM    C1114789   1.023   1.448   2.042
  137OSM   H11A14790   1.039   1.519   2.126
  137OSM   H11B14791   0.966   1.362   2.084
  137OSM      P14792   0.955   1.664   1.911
  137OSM    O1314793   1.089   1.676   1.849
  137OSM    O1414794   0.848   1.714   1.822
  137OSM    O1114795   0.956   1.732   2.051
  137OSM    O1214796   0.930   1.507   1.948
  137OSM    C1S14797   0.841   1.753   2.135
  137OSM    H1S14798   0.800   1.654   2.165
  137OSM    H1T14799   0.759   1.807   2.084
  137OSM     NF14800   0.768   1.808   2.362
  137OSM    HNF14801   0.717   1.893   2.376
  137OSM    C2S14802   0.882   1.816   2.269
  137OSM    H2S14803   0.956   1.745   2.312
  137OSM    C3S14804   0.952   1.960   2.252
  137OSM    H3S14805   0.891   2.037   2.200
  137OSM     O314806   1.062   1.956   2.159
  137OSM    HO314807   1.052   1.877   2.106
  137OSM    C4S14808   0.983   2.007   2.388
  137OSM    H4S14809   1.079   1.965   2.422
  137OSM    C5S14810   0.909   2.092   2.464
  137OSM    H5S14811   0.822   2.142   2.419
  137OSM    C6S14812   0.948   2.131   2.602
  137OSM    H6S14813   0.871   2.113   2.679
  137OSM    H6T14814   0.960   2.241   2.609
  137OSM    C7S14815   1.072   2.062   2.670
  137OSM    H7S14816   1.162   2.076   2.606
  137OSM    H7T14817   1.067   1.951   2.675
  137OSM    C8S14818   1.085   2.109   2.818
  137OSM    H8S14819   0.996   2.080   2.878
  137OSM    H8T14820   1.088   2.220   2.818
  137OSM    C9S14821   1.212   2.059   2.878
  137OSM    H9S14822   1.302   2.101   2.828
  137OSM    H9T14823   1.218   1.948   2.883
  137OSM   C10S14824   1.236   2.115   3.024
  137OSM   H10S14825   1.164   2.060   3.088
  137OSM   H10T14826   1.197   2.219   3.029
  137OSM   C11S14827   1.384   2.109   3.069
  137OSM   H11S14828   1.454   2.164   3.002
  137OSM   H11T14829   1.427   2.007   3.073
  137OSM   C12S14830   1.390   2.150   3.215
  137OSM   H12S14831   1.487   2.136   3.269
  137OSM   H12T14832   1.312   2.088   3.264
  137OSM   C13S14833   1.361   2.300   3.229
  137OSM   H13S14834   1.251   2.291   3.238
  137OSM   H13T14835   1.390   2.365   3.144
  137OSM   C14S14836   1.410   2.356   3.362
  137OSM   H14S14837   1.498   2.415   3.329
  137OSM   H14T14838   1.447   2.274   3.428
  137OSM   C15S14839   1.303   2.443   3.435
  137OSM   H15S14840   1.225   2.379   3.480
  137OSM   H15T14841   1.249   2.516   3.371
  137OSM   C16S14842   1.367   2.530   3.544
  137OSM   H16S14843   1.365   2.638   3.518
  137OSM   H16T14844   1.475   2.508   3.546
  137OSM   C17S14845   1.298   2.513   3.680
  137OSM   H17S14846   1.360   2.553   3.763
  137OSM   H17T14847   1.277   2.406   3.703
  137OSM   C18S14848   1.154   2.567   3.690
  137OSM   H18S14849   1.106   2.560   3.790
  137OSM   H18T14850   1.090   2.524   3.610
  137OSM   H18U14851   1.152   2.678   3.689
  137OSM    C1F14852   0.722   1.693   2.415
  137OSM     OF14853   0.786   1.591   2.404
  137OSM    C2F14854   0.599   1.699   2.486
  137OSM    H2F14855   0.530   1.642   2.421
  137OSM    H2G14856   0.559   1.799   2.510
  137OSM    C3F14857   0.603   1.613   2.617
  137OSM    H3F14858   0.654   1.516   2.597
  137OSM    H3G14859   0.501   1.602   2.659
  137OSM    C4F14860   0.702   1.662   2.721
  137OSM    H4F14861   0.803   1.638   2.682
  137OSM    H4G14862   0.683   1.612   2.818
  137OSM    C5F14863   0.693   1.816   2.761
  137OSM    H5F14864   0.588   1.841   2.787
  137OSM    H5G14865   0.724   1.875   2.672
  137OSM    C6F14866   0.785   1.853   2.874
  137OSM    H6F14867   0.788   1.963   2.881
  137OSM    H6G14868   0.886   1.819   2.841
  137OSM    C7F14869   0.744   1.796   3.007
  137OSM    H7F14870   0.735   1.686   3.010
  137OSM    H7G14871   0.644   1.840   3.027
  137OSM    C8F14872   0.858   1.837   3.106
  137OSM    H8F14873   0.890   1.940   3.081
  137OSM    H8G14874   0.942   1.765   3.103
  137OSM    C9F14875   0.802   1.835   3.244
  137OSM    H9F14876   0.702   1.879   3.255
  137OSM   C10F14877   0.866   1.786   3.355
  137OSM   H10F14878   0.804   1.799   3.445
  137OSM   C11F14879   0.995   1.710   3.371
  137OSM   H11F14880   1.035   1.682   3.271
  137OSM   H11G14881   0.964   1.609   3.404
  137OSM   C12F14882   1.092   1.767   3.470
  137OSM   H12F14883   1.185   1.707   3.477
  137OSM   H12G14884   1.048   1.778   3.572
  137OSM   C13F14885   1.129   1.908   3.431
  137OSM   H13F14886   1.038   1.964   3.402
  137OSM   H13G14887   1.183   1.917   3.334
  137OSM   C14F14888   1.213   1.989   3.533
  137OSM   H14F14889   1.248   2.084   3.486
  137OSM   H14G14890   1.307   1.944   3.572
  137OSM   C15F14891   1.132   2.024   3.656
  137OSM   H15F14892   1.106   1.931   3.711
  137OSM   H15G14893   1.029   2.060   3.637
  137OSM   C16F14894   1.212   2.129   3.739
  137OSM   H16F14895   1.254   2.219   3.689
  137OSM   H16G14896   1.308   2.078   3.763
  137OSM   C17F14897   1.151   2.160   3.875
  137OSM   H17F14898   1.125   2.065   3.928
  137OSM   H17G14899   1.049   2.199   3.854
  137OSM   C18F14900   1.228   2.259   3.962
  137OSM   H18F14901   1.192   2.258   4.067
  137OSM   H18G14902   1.206   2.363   3.930
  137OSM   H18H14903   1.338   2.244   3.965
  138OSM      N14904   6.350   6.140   2.377
  138OSM    C1514905   6.239   6.199   2.297
  138OSM   H15A14906   6.255   6.202   2.191
  138OSM   H15B14907   6.217   6.299   2.331
  138OSM   H15C14908   6.163   6.125   2.321
  138OSM    C1414909   6.360   5.990   2.358
  138OSM   H14A14910   6.433   5.947   2.425
  138OSM   H14B14911   6.379   5.974   2.253
  138OSM   H14C14912   6.270   5.931   2.373
  138OSM    C1314913   6.477   6.197   2.315
  138OSM   H13A14914   6.481   6.161   2.213
  138OSM   H13B14915   6.566   6.167   2.369
  138OSM   H13C14916   6.464   6.304   2.318
  138OSM    C1214917   6.350   6.186   2.522
  138OSM   H12A14918   6.372   6.292   2.519
  138OSM   H12B14919   6.430   6.136   2.573
  138OSM    C1114920   6.218   6.164   2.592
  138OSM   H11A14921   6.134   6.222   2.547
  138OSM   H11B14922   6.217   6.187   2.701
  138OSM      P14923   6.029   5.987   2.585
  138OSM    O1314924   5.957   6.050   2.473
  138OSM    O1414925   6.019   5.837   2.602
  138OSM    O1114926   5.974   6.039   2.725
  138OSM    O1214927   6.180   6.027   2.590
  138OSM    C1S14928   5.837   6.080   2.736
  138OSM    H1S14929   5.770   6.003   2.694
  138OSM    H1T14930   5.821   6.176   2.683
  138OSM     NF14931   5.664   6.153   2.878
  138OSM    HNF14932   5.653   6.252   2.877
  138OSM    C2S14933   5.801   6.108   2.885
  138OSM    H2S14934   5.821   6.011   2.934
  138OSM    C3S14935   5.894   6.210   2.959
  138OSM    H3S14936   5.858   6.310   2.926
  138OSM     O314937   6.035   6.197   2.933
  138OSM    HO314938   6.026   6.134   2.862
  138OSM    C4S14939   5.872   6.220   3.110
  138OSM    H4S14940   5.792   6.293   3.130
  138OSM    C5S14941   5.928   6.158   3.214
  138OSM    H5S14942   6.005   6.084   3.188
  138OSM    C6S14943   5.894   6.176   3.362
  138OSM    H6S14944   5.982   6.226   3.407
  138OSM    H6T14945   5.877   6.076   3.407
  138OSM    C7S14946   5.768   6.265   3.408
  138OSM    H7S14947   5.671   6.231   3.365
  138OSM    H7T14948   5.787   6.370   3.376
  138OSM    C8S14949   5.731   6.276   3.558
  138OSM    H8S14950   5.694   6.176   3.590
  138OSM    H8T14951   5.660   6.360   3.573
  138OSM    C9S14952   5.848   6.317   3.648
  138OSM    H9S14953   5.898   6.413   3.624
  138OSM    H9T14954   5.927   6.244   3.618
  138OSM   C10S14955   5.812   6.291   3.797
  138OSM   H10S14956   5.787   6.183   3.807
  138OSM   H10T14957   5.724   6.350   3.830
  138OSM   C11S14958   5.931   6.312   3.888
  138OSM   H11S14959   5.896   6.292   3.992
  138OSM   H11T14960   5.989   6.406   3.886
  138OSM   C12S14961   6.033   6.200   3.871
  138OSM   H12S14962   6.064   6.197   3.765
  138OSM   H12T14963   5.996   6.097   3.893
  138OSM   C13S14964   6.160   6.218   3.952
  138OSM   H13S14965   6.204   6.319   3.940
  138OSM   H13T14966   6.240   6.148   3.918
  138OSM   C14S14967   6.132   6.185   4.096
  138OSM   H14S14968   6.105   6.077   4.105
  138OSM   H14T14969   6.048   6.243   4.139
  138OSM   C15S14970   6.264   6.219   4.181
  138OSM   H15S14971   6.224   6.246   4.281
  138OSM   H15T14972   6.285   6.321   4.141
  138OSM   C16S14973   6.376   6.119   4.193
  138OSM   H16S14974   6.435   6.100   4.101
  138OSM   H16T14975   6.319   6.029   4.224
  138OSM   C17S14976   6.477   6.164   4.304
  138OSM   H17S14977   6.532   6.256   4.276
  138OSM   H17T14978   6.562   6.092   4.310
  138OSM   C18S14979   6.411   6.162   4.437
  138OSM   H18S14980   6.359   6.065   4.454
  138OSM   H18T14981   6.339   6.245   4.449
  138OSM   H18U14982   6.495   6.172   4.509
  138OSM    C1F14983   5.555   6.082   2.860
  138OSM     OF14984   5.561   5.957   2.850
  138OSM    C2F14985   5.425   6.146   2.832
  138OSM    H2F14986   5.382   6.098   2.742
  138OSM    H2G14987   5.445   6.255   2.822
  138OSM    C3F14988   5.334   6.118   2.947
  138OSM    H3F14989   5.304   6.011   2.950
  138OSM    H3G14990   5.244   6.183   2.948
  138OSM    C4F14991   5.397   6.168   3.087
  138OSM    H4F14992   5.440   6.269   3.075
  138OSM    H4G14993   5.485   6.108   3.120
  138OSM    C5F14994   5.298   6.164   3.203
  138OSM    H5F14995   5.233   6.075   3.189
  138OSM    H5G14996   5.248   6.262   3.192
  138OSM    C6F14997   5.370   6.154   3.334
  138OSM    H6F14998   5.442   6.237   3.346
  138OSM    H6G14999   5.432   6.062   3.337
  138OSM    C7F15000   5.290   6.142   3.462
  138OSM    H7F15001   5.206   6.072   3.441
  138OSM    H7G15002   5.244   6.240   3.484
  138OSM    C8F15003   5.372   6.082   3.579
  138OSM    H8F15004   5.461   6.146   3.597
  138OSM    H8G15005   5.410   5.982   3.551
  138OSM    C9F15006   5.285   6.088   3.700
  138OSM    H9F15007   5.176   6.104   3.694
  138OSM   C10F15008   5.328   6.060   3.825
  138OSM   H10F15009   5.256   6.073   3.906
  138OSM   C11F15010   5.473   6.035   3.862
  138OSM   H11F15011   5.516   6.113   3.930
  138OSM   H11G15012   5.544   6.044   3.777
  138OSM   C12F15013   5.495   5.906   3.941
  138OSM   H12F15014   5.602   5.897   3.967
  138OSM   H12G15015   5.463   5.819   3.880
  138OSM   C13F15016   5.429   5.901   4.077
  138OSM   H13F15017   5.323   5.875   4.056
  138OSM   H13G15018   5.442   5.996   4.133
  138OSM   C14F15019   5.496   5.798   4.159
  138OSM   H14F15020   5.606   5.809   4.157
  138OSM   H14G15021   5.480   5.696   4.117
  138OSM   C15F15022   5.450   5.805   4.309
  138OSM   H15F15023   5.357   5.745   4.320
  138OSM   H15G15024   5.416   5.909   4.330
  138OSM   C16F15025   5.551   5.762   4.409
  138OSM   H16F15026   5.641   5.828   4.405
  138OSM   H16G15027   5.596   5.667   4.374
  138OSM   C17F15028   5.501   5.764   4.552
  138OSM   H17F15029   5.415   5.696   4.569
  138OSM   H17G15030   5.474   5.870   4.571
  138OSM   C18F15031   5.616   5.705   4.648
  138OSM   H18F15032   5.703   5.773   4.636
  138OSM   H18G15033   5.643   5.598   4.645
  138OSM   H18H15034   5.589   5.727   4.754
  139OSM      N15035   1.225   0.704   1.662
  139OSM    C1515036   1.197   0.846   1.613
  139OSM   H15A15037   1.238   0.864   1.515
  139OSM   H15B15038   1.234   0.920   1.684
  139OSM   H15C15039   1.093   0.871   1.602
  139OSM    C1415040   1.192   0.606   1.561
  139OSM   H14A15041   1.243   0.515   1.587
  139OSM   H14B15042   1.235   0.631   1.465
  139OSM   H14C15043   1.088   0.576   1.551
  139OSM    C1315044   1.369   0.684   1.685
  139OSM   H13A15045   1.406   0.758   1.755
  139OSM   H13B15046   1.424   0.692   1.592
  139OSM   H13C15047   1.401   0.589   1.723
  139OSM    C1215048   1.146   0.669   1.789
  139OSM   H12A15049   1.173   0.568   1.815
  139OSM   H12B15050   1.041   0.669   1.763
  139OSM    C1115051   1.162   0.761   1.912
  139OSM   H11A15052   1.102   0.718   1.995
  139OSM   H11B15053   1.113   0.857   1.887
  139OSM      P15054   1.393   0.666   2.024
  139OSM    O1315055   1.333   0.533   2.000
  139OSM    O1415056   1.533   0.680   1.983
  139OSM    O1115057   1.384   0.698   2.175
  139OSM    O1215058   1.296   0.781   1.963
  139OSM    C1S15059   1.282   0.776   2.245
  139OSM    H1S15060   1.201   0.705   2.270
  139OSM    H1T15061   1.240   0.855   2.179
  139OSM     NF15062   1.211   0.905   2.436
  139OSM    HNF15063   1.221   1.004   2.440
  139OSM    C2S15064   1.323   0.842   2.377
  139OSM    H2S15065   1.358   0.764   2.448
  139OSM    C3S15066   1.439   0.940   2.351
  139OSM    H3S15067   1.411   1.019   2.277
  139OSM     O315068   1.546   0.877   2.285
  139OSM    HO315069   1.502   0.803   2.244
  139OSM    C4S15070   1.488   1.009   2.476
  139OSM    H4S15071   1.510   0.930   2.550
  139OSM    C5S15072   1.489   1.143   2.501
  139OSM    H5S15073   1.437   1.211   2.433
  139OSM    C6S15074   1.541   1.203   2.631
  139OSM    H6S15075   1.519   1.312   2.626
  139OSM    H6T15076   1.651   1.191   2.629
  139OSM    C7S15077   1.491   1.151   2.766
  139OSM    H7S15078   1.536   1.205   2.852
  139OSM    H7T15079   1.530   1.048   2.771
  139OSM    C8S15080   1.340   1.154   2.792
  139OSM    H8S15081   1.281   1.102   2.713
  139OSM    H8T15082   1.311   1.259   2.816
  139OSM    C9S15083   1.310   1.082   2.922
  139OSM    H9S15084   1.374   1.134   2.997
  139OSM    H9T15085   1.340   0.977   2.905
  139OSM   C10S15086   1.166   1.075   2.953
  139OSM   H10S15087   1.105   1.031   2.871
  139OSM   H10T15088   1.130   1.177   2.975
  139OSM   C11S15089   1.133   0.986   3.076
  139OSM   H11S15090   1.192   1.022   3.163
  139OSM   H11T15091   1.156   0.877   3.068
  139OSM   C12S15092   0.982   0.998   3.107
  139OSM   H12S15093   0.918   0.957   3.026
  139OSM   H12T15094   0.962   1.107   3.114
  139OSM   C13S15095   0.950   0.919   3.238
  139OSM   H13S15096   1.034   0.930   3.309
  139OSM   H13T15097   0.936   0.811   3.215
  139OSM   C14S15098   0.831   0.981   3.311
  139OSM   H14S15099   0.743   0.970   3.245
  139OSM   H14T15100   0.833   1.088   3.344
  139OSM   C15S15101   0.802   0.901   3.440
  139OSM   H15S15102   0.867   0.936   3.523
  139OSM   H15T15103   0.818   0.792   3.428
  139OSM   C16S15104   0.648   0.923   3.480
  139OSM   H16S15105   0.578   0.900   3.397
  139OSM   H16T15106   0.625   1.031   3.493
  139OSM   C17S15107   0.616   0.825   3.593
  139OSM   H17S15108   0.690   0.841   3.674
  139OSM   H17T15109   0.631   0.721   3.556
  139OSM   C18S15110   0.470   0.828   3.647
  139OSM   H18S15111   0.439   0.728   3.686
  139OSM   H18T15112   0.405   0.857   3.562
  139OSM   H18U15113   0.464   0.904   3.728
  139OSM    C1F15114   1.104   0.845   2.488
  139OSM     OF15115   1.077   0.724   2.481
  139OSM    C2F15116   1.016   0.928   2.573
  139OSM    H2F15117   0.982   1.019   2.518
  139OSM    H2G15118   1.074   0.978   2.654
  139OSM    C3F15119   0.904   0.841   2.627
  139OSM    H3F15120   0.945   0.762   2.692
  139OSM    H3G15121   0.859   0.781   2.545
  139OSM    C4F15122   0.810   0.913   2.724
  139OSM    H4F15123   0.762   1.001   2.676
  139OSM    H4G15124   0.866   0.956   2.810
  139OSM    C5F15125   0.702   0.831   2.792
  139OSM    H5F15126   0.740   0.778   2.882
  139OSM    H5G15127   0.676   0.748   2.723
  139OSM    C6F15128   0.571   0.911   2.829
  139OSM    H6F15129   0.502   0.834   2.872
  139OSM    H6G15130   0.525   0.953   2.738
  139OSM    C7F15131   0.597   1.026   2.924
  139OSM    H7F15132   0.665   1.102   2.879
  139OSM    H7G15133   0.653   0.986   3.011
  139OSM    C8F15134   0.468   1.083   2.977
  139OSM    H8F15135   0.493   1.159   3.054
  139OSM    H8G15136   0.403   1.008   3.026
  139OSM    C9F15137   0.383   1.141   2.869
  139OSM    H9F15138   0.364   1.080   2.780
  139OSM   C10F15139   0.310   1.255   2.884
  139OSM   H10F15140   0.254   1.286   2.794
  139OSM   C11F15141   0.313   1.359   2.990
  139OSM   H11F15142   0.383   1.330   3.071
  139OSM   H11G15143   0.211   1.376   3.029
  139OSM   C12F15144   0.371   1.491   2.920
  139OSM   H12F15145   0.323   1.506   2.822
  139OSM   H12G15146   0.481   1.473   2.922
  139OSM   C13F15147   0.342   1.618   3.001
  139OSM   H13F15148   0.233   1.638   3.011
  139OSM   H13G15149   0.376   1.707   2.944
  139OSM   C14F15150   0.406   1.617   3.145
  139OSM   H14F15151   0.514   1.593   3.135
  139OSM   H14G15152   0.354   1.534   3.198
  139OSM   C15F15153   0.401   1.749   3.217
  139OSM   H15F15154   0.297   1.787   3.210
  139OSM   H15G15155   0.458   1.825   3.158
  139OSM   C16F15156   0.453   1.741   3.364
  139OSM   H16F15157   0.562   1.723   3.371
  139OSM   H16G15158   0.404   1.653   3.411
  139OSM   C17F15159   0.405   1.852   3.452
  139OSM   H17F15160   0.294   1.853   3.451
  139OSM   H17G15161   0.446   1.946   3.409
  139OSM   C18F15162   0.459   1.843   3.598
  139OSM   H18F15163   0.431   1.741   3.632
  139OSM   H18G15164   0.402   1.919   3.656
  139OSM   H18H15165   0.569   1.858   3.595
  140OSM      N15166   4.864   6.373   1.989
  140OSM    C1515167   4.928   6.344   1.858
  140OSM   H15A15168   4.894   6.252   1.814
  140OSM   H15B15169   5.036   6.344   1.867
  140OSM   H15C15170   4.919   6.432   1.796
  140OSM    C1415171   4.714   6.385   1.965
  140OSM   H14A15172   4.651   6.410   2.049
  140OSM   H14B15173   4.680   6.287   1.935
  140OSM   H14C15174   4.689   6.455   1.886
  140OSM    C1315175   4.898   6.264   2.087
  140OSM   H13A15176   5.005   6.265   2.102
  140OSM   H13B15177   4.876   6.164   2.055
  140OSM   H13C15178   4.853   6.292   2.181
  140OSM    C1215179   4.928   6.504   2.032
  140OSM   H12A15180   4.920   6.571   1.948
  140OSM   H12B15181   5.030   6.476   2.053
  140OSM    C1115182   4.874   6.558   2.169
  140OSM   H11A15183   4.766   6.581   2.166
  140OSM   H11B15184   4.920   6.659   2.170
  140OSM      P15185   5.073   6.500   2.345
  140OSM    O1315186   5.092   6.417   2.465
  140OSM    O1415187   5.167   6.479   2.232
  140OSM    O1115188   5.083   6.649   2.397
  140OSM    O1215189   4.922   6.485   2.288
  140OSM    C1S15190   5.027   6.691   2.524
  140OSM    H1S15191   5.067   6.618   2.599
  140OSM    H1T15192   4.917   6.679   2.516
  140OSM     NF15193   5.030   0.056   2.707
  140OSM    HNF15194   4.945   0.106   2.721
  140OSM    C2S15195   5.058   0.036   2.568
  140OSM    H2S15196   5.168   0.047   2.564
  140OSM    C3S15197   4.989   0.140   2.471
  140OSM    H3S15198   4.878   0.138   2.474
  140OSM     O315199   5.020   0.113   2.327
  140OSM    HO315200   5.050   0.022   2.316
  140OSM    C4S15201   5.038   0.279   2.517
  140OSM    H4S15202   4.966   0.325   2.587
  140OSM    C5S15203   5.152   0.341   2.484
  140OSM    H5S15204   5.222   0.286   2.419
  140OSM    C6S15205   5.200   0.479   2.529
  140OSM    H6S15206   5.225   0.546   2.444
  140OSM    H6T15207   5.298   0.478   2.582
  140OSM    C7S15208   5.117   0.552   2.628
  140OSM    H7S15209   5.009   0.540   2.606
  140OSM    H7T15210   5.155   0.657   2.624
  140OSM    C8S15211   5.150   0.496   2.774
  140OSM    H8S15212   5.253   0.530   2.798
  140OSM    H8T15213   5.150   0.385   2.770
  140OSM    C9S15214   5.048   0.535   2.885
  140OSM    H9S15215   4.953   0.536   2.828
  140OSM    H9T15216   5.073   0.641   2.906
  140OSM   C10S15217   5.054   0.439   3.002
  140OSM   H10S15218   5.154   0.435   3.050
  140OSM   H10T15219   5.031   0.333   2.978
  140OSM   C11S15220   4.950   0.474   3.114
  140OSM   H11S15221   4.848   0.461   3.073
  140OSM   H11T15222   4.966   0.583   3.130
  140OSM   C12S15223   4.946   0.390   3.246
  140OSM   H12S15224   4.868   0.434   3.312
  140OSM   H12T15225   5.046   0.413   3.288
  140OSM   C13S15226   4.927   0.234   3.242
  140OSM   H13S15227   5.000   0.202   3.165
  140OSM   H13T15228   4.830   0.195   3.205
  140OSM   C14S15229   4.968   0.159   3.370
  140OSM   H14S15230   5.067   0.206   3.390
  140OSM   H14T15231   4.978   0.048   3.365
  140OSM   C15S15232   4.880   0.191   3.493
  140OSM   H15S15233   4.775   0.159   3.476
  140OSM   H15T15234   4.889   0.301   3.505
  140OSM   C16S15235   4.922   0.118   3.618
  140OSM   H16S15236   5.031   0.137   3.631
  140OSM   H16T15237   4.932   0.008   3.608
  140OSM   C17S15238   4.852   0.150   3.746
  140OSM   H17S15239   4.743   0.132   3.738
  140OSM   H17T15240   4.863   0.257   3.771
  140OSM   C18S15241   4.912   0.064   3.861
  140OSM   H18S15242   4.872   0.104   3.957
  140OSM   H18T15243   5.023   0.067   3.851
  140OSM   H18U15244   4.877   6.755   3.854
  140OSM    C1F15245   5.111   0.010   2.805
  140OSM     OF15246   5.219   6.769   2.769
  140OSM    C2F15247   5.067   0.009   2.949
  140OSM    H2F15248   4.961   0.043   2.944
  140OSM    H2G15249   5.115   0.096   3.000
  140OSM    C3F15250   5.090   6.672   3.030
  140OSM    H3F15251   5.198   6.649   3.022
  140OSM    H3G15252   5.045   6.579   2.988
  140OSM    C4F15253   5.047   6.684   3.173
  140OSM    H4F15254   4.950   6.737   3.175
  140OSM    H4G15255   5.114   6.749   3.233
  140OSM    C5F15256   5.038   6.555   3.248
  140OSM    H5F15257   5.140   6.511   3.250
  140OSM    H5G15258   4.962   6.489   3.202
  140OSM    C6F15259   4.985   6.574   3.389
  140OSM    H6F15260   4.886   6.623   3.378
  140OSM    H6G15261   5.041   6.658   3.437
  140OSM    C7F15262   4.976   6.453   3.480
  140OSM    H7F15263   5.077   6.408   3.477
  140OSM    H7G15264   4.911   6.380   3.427
  140OSM    C8F15265   4.953   6.469   3.635
  140OSM    H8F15266   4.885   6.555   3.652
  140OSM    H8G15267   5.046   6.513   3.678
  140OSM    C9F15268   4.887   6.364   3.718
  140OSM    H9F15269   4.788   6.328   3.686
  140OSM   C10F15270   4.926   6.321   3.840
  140OSM   H10F15271   4.874   6.242   3.897
  140OSM   C11F15272   5.042   6.372   3.912
  140OSM   H11F15273   5.047   6.482   3.896
  140OSM   H11G15274   5.136   6.326   3.875
  140OSM   C12F15275   5.029   6.366   4.066
  140OSM   H12F15276   4.926   6.404   4.082
  140OSM   H12G15277   5.107   6.437   4.102
  140OSM   C13F15278   5.046   6.229   4.123
  140OSM   H13F15279   5.148   6.191   4.098
  140OSM   H13G15280   4.974   6.163   4.070
  140OSM   C14F15281   5.040   6.227   4.278
  140OSM   H14F15282   4.939   6.257   4.312
  140OSM   H14G15283   5.117   6.300   4.313
  140OSM   C15F15284   5.080   6.096   4.341
  140OSM   H15F15285   5.131   6.113   4.438
  140OSM   H15G15286   5.143   6.043   4.266
  140OSM   C16F15287   4.955   6.007   4.366
  140OSM   H16F15288   4.889   5.990   4.278
  140OSM   H16G15289   4.895   6.073   4.432
  140OSM   C17F15290   4.994   5.870   4.415
  140OSM   H17F15291   5.070   5.876   4.495
  140OSM   H17G15292   5.040   5.803   4.340
  140OSM   C18F15293   4.876   5.790   4.472
  140OSM   H18F15294   4.809   5.770   4.385
  140OSM   H18G15295   4.817   5.860   4.536
  140OSM   H18H15296   4.917   5.697   4.516
  141OSM      N15297   1.001   3.412   1.902
  141OSM    C1515298   1.006   3.418   1.749
  141OSM   H15A15299   0.907   3.406   1.708
  141OSM   H15B15300   1.075   3.345   1.709
  141OSM   H15C15301   1.035   3.516   1.713
  141OSM    C1415302   0.984   3.266   1.936
  141OSM   H14A15303   0.990   3.263   2.044
  141OSM   H14B15304   1.064   3.201   1.903
  141OSM   H14C15305   0.882   3.245   1.907
  141OSM    C1315306   1.120   3.476   1.955
  141OSM   H13A15307   1.126   3.442   2.057
  141OSM   H13B15308   1.117   3.584   1.955
  141OSM   H13C15309   1.213   3.440   1.913
  141OSM    C1215310   0.873   3.492   1.957
  141OSM   H12A15311   0.791   3.469   1.891
  141OSM   H12B15312   0.890   3.596   1.930
  141OSM    C1115313   0.830   3.480   2.107
  141OSM   H11A15314   0.817   3.377   2.146
  141OSM   H11B15315   0.729   3.525   2.103
  141OSM      P15316   0.904   3.713   2.191
  141OSM    O1315317   1.018   3.765   2.264
  141OSM    O1415318   0.887   3.763   2.055
  141OSM    O1115319   0.772   3.747   2.275
  141OSM    O1215320   0.918   3.558   2.194
  141OSM    C1S15321   0.729   3.676   2.390
  141OSM    H1S15322   0.800   3.592   2.407
  141OSM    H1T15323   0.630   3.636   2.356
  141OSM     NF15324   0.727   3.681   2.627
  141OSM    HNF15325   0.639   3.665   2.671
  141OSM    C2S15326   0.712   3.768   2.511
  141OSM    H2S15327   0.798   3.837   2.505
  141OSM    C3S15328   0.585   3.847   2.504
  141OSM    H3S15329   0.503   3.771   2.500
  141OSM     O315330   0.570   3.921   2.385
  141OSM    HO315331   0.643   3.898   2.327
  141OSM    C4S15332   0.575   3.936   2.620
  141OSM    H4S15333   0.657   4.008   2.634
  141OSM    C5S15334   0.473   3.944   2.710
  141OSM    H5S15335   0.389   3.875   2.697
  141OSM    C6S15336   0.471   4.034   2.832
  141OSM    H6S15337   0.365   4.054   2.857
  141OSM    H6T15338   0.522   4.132   2.822
  141OSM    C7S15339   0.528   3.964   2.957
  141OSM    H7S15340   0.624   3.910   2.940
  141OSM    H7T15341   0.451   3.888   2.980
  141OSM    C8S15342   0.541   4.054   3.079
  141OSM    H8S15343   0.447   4.112   3.093
  141OSM    H8T15344   0.625   4.126   3.064
  141OSM    C9S15345   0.566   3.962   3.202
  141OSM    H9S15346   0.649   3.890   3.186
  141OSM    H9T15347   0.475   3.900   3.204
  141OSM   C10S15348   0.597   4.036   3.338
  141OSM   H10S15349   0.538   4.129   3.354
  141OSM   H10T15350   0.704   4.067   3.337
  141OSM   C11S15351   0.559   3.953   3.462
  141OSM   H11S15352   0.613   3.858   3.444
  141OSM   H11T15353   0.450   3.943   3.444
  141OSM   C12S15354   0.574   4.021   3.600
  141OSM   H12S15355   0.513   4.114   3.605
  141OSM   H12T15356   0.675   4.063   3.619
  141OSM   C13S15357   0.513   3.942   3.722
  141OSM   H13S15358   0.554   3.975   3.820
  141OSM   H13T15359   0.539   3.834   3.710
  141OSM   C14S15360   0.357   3.958   3.737
  141OSM   H14S15361   0.325   3.955   3.631
  141OSM   H14T15362   0.329   4.059   3.773
  141OSM   C15S15363   0.287   3.843   3.815
  141OSM   H15S15364   0.332   3.742   3.808
  141OSM   H15T15365   0.183   3.844   3.775
  141OSM   C16S15366   0.271   3.894   3.956
  141OSM   H16S15367   0.188   3.833   3.997
  141OSM   H16T15368   0.222   3.994   3.957
  141OSM   C17S15369   0.393   3.886   4.047
  141OSM   H17S15370   0.472   3.963   4.030
  141OSM   H17T15371   0.445   3.792   4.020
  141OSM   C18S15372   0.352   3.886   4.193
  141OSM   H18S15373   0.299   3.981   4.216
  141OSM   H18T15374   0.445   3.886   4.252
  141OSM   H18U15375   0.290   3.799   4.221
  141OSM    C1F15376   0.838   3.622   2.672
  141OSM     OF15377   0.938   3.622   2.600
  141OSM    C2F15378   0.847   3.564   2.807
  141OSM    H2F15379   0.747   3.517   2.816
  141OSM    H2G15380   0.861   3.654   2.872
  141OSM    C3F15381   0.960   3.467   2.818
  141OSM    H3F15382   1.035   3.479   2.736
  141OSM    H3G15383   0.915   3.366   2.808
  141OSM    C4F15384   1.028   3.476   2.956
  141OSM    H4F15385   1.087   3.570   2.966
  141OSM    H4G15386   1.095   3.387   2.959
  141OSM    C5F15387   0.930   3.483   3.068
  141OSM    H5F15388   0.847   3.411   3.055
  141OSM    H5G15389   0.882   3.584   3.072
  141OSM    C6F15390   0.988   3.456   3.206
  141OSM    H6F15391   1.042   3.360   3.191
  141OSM    H6G15392   0.911   3.444   3.286
  141OSM    C7F15393   1.107   3.551   3.231
  141OSM    H7F15394   1.100   3.644   3.171
  141OSM    H7G15395   1.203   3.509   3.196
  141OSM    C8F15396   1.122   3.588   3.384
  141OSM    H8F15397   1.021   3.615   3.423
  141OSM    H8G15398   1.192   3.673   3.402
  141OSM    C9F15399   1.174   3.467   3.460
  141OSM    H9F15400   1.274   3.429   3.438
  141OSM   C10F15401   1.110   3.414   3.568
  141OSM   H10F15402   1.151   3.330   3.626
  141OSM   C11F15403   0.982   3.473   3.631
  141OSM   H11F15404   0.948   3.398   3.706
  141OSM   H11G15405   0.908   3.485   3.549
  141OSM   C12F15406   1.003   3.610   3.698
  141OSM   H12F15407   1.067   3.673   3.632
  141OSM   H12G15408   1.051   3.587   3.795
  141OSM   C13F15409   0.869   3.678   3.713
  141OSM   H13F15410   0.790   3.614   3.760
  141OSM   H13G15411   0.838   3.710   3.612
  141OSM   C14F15412   0.862   3.811   3.794
  141OSM   H14F15413   0.753   3.832   3.791
  141OSM   H14G15414   0.911   3.893   3.737
  141OSM   C15F15415   0.938   3.808   3.926
  141OSM   H15F15416   0.914   3.904   3.977
  141OSM   H15G15417   1.048   3.804   3.914
  141OSM   C16F15418   0.894   3.701   4.031
  141OSM   H16F15419   0.930   3.722   4.134
  141OSM   H16G15420   0.915   3.594   4.010
  141OSM   C17F15421   0.737   3.708   4.048
  141OSM   H17F15422   0.695   3.686   3.948
  141OSM   H17G15423   0.707   3.811   4.076
  141OSM   C18F15424   0.696   3.608   4.158
  141OSM   H18F15425   0.719   3.507   4.118
  141OSM   H18G15426   0.587   3.626   4.158
  141OSM   H18H15427   0.747   3.620   4.256
  142OSM      N15428   1.911   5.050   2.055
  142OSM    C1515429   1.779   5.072   1.983
  142OSM   H15A15430   1.697   5.033   2.042
  142OSM   H15B15431   1.782   5.033   1.883
  142OSM   H15C15432   1.759   5.178   1.972
  142OSM    C1415433   1.950   4.907   2.028
  142OSM   H14A15434   1.873   4.837   2.059
  142OSM   H14B15435   2.039   4.874   2.079
  142OSM   H14C15436   1.967   4.888   1.923
  142OSM    C1315437   2.023   5.121   1.989
  142OSM   H13A15438   2.042   5.070   1.896
  142OSM   H13B15439   2.114   5.122   2.048
  142OSM   H13C15440   2.001   5.226   1.973
  142OSM    C1215441   1.897   5.094   2.197
  142OSM   H12A15442   1.865   5.197   2.193
  142OSM   H12B15443   1.998   5.092   2.235
  142OSM    C1115444   1.812   5.008   2.290
  142OSM   H11A15445   1.819   5.035   2.397
  142OSM   H11B15446   1.846   4.902   2.283
  142OSM      P15447   1.588   5.137   2.304
  142OSM    O1315448   1.664   5.265   2.282
  142OSM    O1415449   1.450   5.134   2.253
  142OSM    O1115450   1.571   5.115   2.461
  142OSM    O1215451   1.675   5.018   2.248
  142OSM    C1S15452   1.656   5.173   2.561
  142OSM    H1S15453   1.737   5.233   2.515
  142OSM    H1T15454   1.706   5.083   2.602
  142OSM     NF15455   1.679   5.273   2.788
  142OSM    HNF15456   1.679   5.198   2.854
  142OSM    C2S15457   1.581   5.232   2.682
  142OSM    H2S15458   1.517   5.320   2.660
  142OSM    C3S15459   1.484   5.126   2.734
  142OSM    H3S15460   1.535   5.027   2.732
  142OSM     O315461   1.383   5.121   2.636
  142OSM    HO315462   1.431   5.136   2.554
  142OSM    C4S15463   1.431   5.147   2.872
  142OSM    H4S15464   1.510   5.114   2.941
  142OSM    C5S15465   1.314   5.201   2.917
  142OSM    H5S15466   1.248   5.240   2.838
  142OSM    C6S15467   1.262   5.221   3.059
  142OSM    H6S15468   1.169   5.165   3.081
  142OSM    H6T15469   1.240   5.329   3.071
  142OSM    C7S15470   1.359   5.172   3.170
  142OSM    H7S15471   1.450   5.234   3.158
  142OSM    H7T15472   1.379   5.063   3.162
  142OSM    C8S15473   1.308   5.209   3.315
  142OSM    H8S15474   1.207   5.166   3.329
  142OSM    H8T15475   1.295   5.319   3.325
  142OSM    C9S15476   1.408   5.165   3.421
  142OSM    H9S15477   1.505   5.215   3.404
  142OSM    H9T15478   1.421   5.055   3.414
  142OSM   C10S15479   1.355   5.187   3.566
  142OSM   H10S15480   1.261   5.129   3.573
  142OSM   H10T15481   1.348   5.297   3.584
  142OSM   C11S15482   1.451   5.148   3.681
  142OSM   H11S15483   1.550   5.192   3.655
  142OSM   H11T15484   1.450   5.037   3.679
  142OSM   C12S15485   1.408   5.200   3.819
  142OSM   H12S15486   1.321   5.141   3.854
  142OSM   H12T15487   1.387   5.306   3.793
  142OSM   C13S15488   1.521   5.179   3.921
  142OSM   H13S15489   1.601   5.253   3.903
  142OSM   H13T15490   1.565   5.079   3.901
  142OSM   C14S15491   1.488   5.191   4.067
  142OSM   H14S15492   1.441   5.101   4.113
  142OSM   H14T15493   1.432   5.279   4.105
  142OSM   C15S15494   1.629   5.205   4.134
  142OSM   H15S15495   1.689   5.274   4.070
  142OSM   H15T15496   1.686   5.110   4.133
  142OSM   C16S15497   1.619   5.245   4.277
  142OSM   H16S15498   1.534   5.315   4.294
  142OSM   H16T15499   1.706   5.310   4.303
  142OSM   C17S15500   1.584   5.126   4.368
  142OSM   H17S15501   1.486   5.087   4.332
  142OSM   H17T15502   1.574   5.169   4.470
  142OSM   C18S15503   1.685   5.011   4.383
  142OSM   H18S15504   1.723   4.975   4.285
  142OSM   H18T15505   1.648   4.926   4.445
  142OSM   H18U15506   1.773   5.052   4.437
  142OSM    C1F15507   1.773   5.365   2.784
  142OSM     OF15508   1.781   5.441   2.687
  142OSM    C2F15509   1.881   5.367   2.891
  142OSM    H2F15510   1.948   5.280   2.882
  142OSM    H2G15511   1.836   5.339   2.988
  142OSM    C3F15512   1.962   5.505   2.893
  142OSM    H3F15513   2.022   5.525   2.801
  142OSM    H3G15514   2.045   5.478   2.962
  142OSM    C4F15515   1.879   5.628   2.941
  142OSM    H4F15516   1.804   5.652   2.862
  142OSM    H4G15517   1.954   5.710   2.946
  142OSM    C5F15518   1.811   5.607   3.081
  142OSM    H5F15519   1.730   5.532   3.081
  142OSM    H5G15520   1.760   5.705   3.097
  142OSM    C6F15521   1.916   5.586   3.192
  142OSM    H6F15522   1.962   5.684   3.216
  142OSM    H6G15523   1.999   5.522   3.154
  142OSM    C7F15524   1.856   5.503   3.313
  142OSM    H7F15525   1.941   5.472   3.378
  142OSM    H7G15526   1.816   5.407   3.274
  142OSM    C8F15527   1.748   5.569   3.395
  142OSM    H8F15528   1.662   5.602   3.332
  142OSM    H8G15529   1.803   5.656   3.434
  142OSM    C9F15530   1.697   5.471   3.497
  142OSM    H9F15531   1.666   5.373   3.460
  142OSM   C10F15532   1.665   5.498   3.624
  142OSM   H10F15533   1.628   5.423   3.696
  142OSM   C11F15534   1.703   5.623   3.700
  142OSM   H11F15535   1.608   5.680   3.716
  142OSM   H11G15536   1.771   5.690   3.644
  142OSM   C12F15537   1.759   5.597   3.844
  142OSM   H12F15538   1.702   5.512   3.887
  142OSM   H12G15539   1.750   5.678   3.920
  142OSM   C13F15540   1.906   5.548   3.842
  142OSM   H13F15541   1.963   5.643   3.852
  142OSM   H13G15542   1.931   5.494   3.749
  142OSM   C14F15543   1.939   5.463   3.965
  142OSM   H14F15544   2.047   5.463   3.988
  142OSM   H14G15545   1.894   5.362   3.949
  142OSM   C15F15546   1.884   5.516   4.097
  142OSM   H15F15547   1.774   5.503   4.099
  142OSM   H15G15548   1.904   5.625   4.094
  142OSM   C16F15549   1.945   5.455   4.226
  142OSM   H16F15550   1.949   5.344   4.226
  142OSM   H16G15551   1.879   5.486   4.310
  142OSM   C17F15552   2.091   5.516   4.250
  142OSM   H17F15553   2.082   5.623   4.278
  142OSM   H17G15554   2.156   5.509   4.161
  142OSM   C18F15555   2.158   5.445   4.366
  142OSM   H18F15556   2.264   5.476   4.379
  142OSM   H18G15557   2.168   5.340   4.332
  142OSM   H18H15558   2.100   5.443   4.460
  143OSM      N15559   1.017   4.109   2.039
  143OSM    C1515560   1.045   4.247   1.979
  143OSM   H15A15561   1.056   4.315   2.062
  143OSM   H15B15562   0.969   4.283   1.912
  143OSM   H15C15563   1.139   4.247   1.926
  143OSM    C1415564   0.890   4.127   2.121
  143OSM   H14A15565   0.801   4.143   2.061
  143OSM   H14B15566   0.891   4.212   2.188
  143OSM   H14C15567   0.866   4.031   2.164
  143OSM    C1315568   0.997   4.009   1.925
  143OSM   H13A15569   1.075   4.029   1.852
  143OSM   H13B15570   0.902   4.040   1.884
  143OSM   H13C15571   0.979   3.905   1.944
  143OSM    C1215572   1.134   4.071   2.127
  143OSM   H12A15573   1.214   4.029   2.068
  143OSM   H12B15574   1.099   3.992   2.191
  143OSM    C1115575   1.201   4.157   2.233
  143OSM   H11A15576   1.254   4.239   2.179
  143OSM   H11B15577   1.277   4.107   2.296
  143OSM      P15578   1.062   4.362   2.326
  143OSM    O1315579   1.123   4.427   2.212
  143OSM    O1415580   0.913   4.367   2.334
  143OSM    O1115581   1.144   4.414   2.461
  143OSM    O1215582   1.107   4.212   2.321
  143OSM    C1S15583   1.079   4.481   2.568
  143OSM    H1S15584   0.969   4.463   2.573
  143OSM    H1T15585   1.087   4.591   2.557
  143OSM     NF15586   1.061   4.502   2.822
  143OSM    HNF15587   1.106   4.563   2.887
  143OSM    C2S15588   1.142   4.446   2.707
  143OSM    H2S15589   1.125   4.336   2.711
  143OSM    C3S15590   1.290   4.466   2.723
  143OSM    H3S15591   1.309   4.575   2.724
  143OSM     O315592   1.365   4.420   2.612
  143OSM    HO315593   1.303   4.429   2.540
  143OSM    C4S15594   1.336   4.401   2.849
  143OSM    H4S15595   1.309   4.295   2.851
  143OSM    C5S15596   1.396   4.464   2.952
  143OSM    H5S15597   1.431   4.568   2.942
  143OSM    C6S15598   1.434   4.412   3.084
  143OSM    H6S15599   1.451   4.303   3.073
  143OSM    H6T15600   1.348   4.442   3.148
  143OSM    C7S15601   1.559   4.474   3.138
  143OSM    H7S15602   1.551   4.584   3.124
  143OSM    H7T15603   1.642   4.440   3.072
  143OSM    C8S15604   1.585   4.432   3.284
  143OSM    H8S15605   1.602   4.323   3.273
  143OSM    H8T15606   1.494   4.446   3.347
  143OSM    C9S15607   1.704   4.507   3.353
  143OSM    H9S15608   1.687   4.617   3.353
  143OSM    H9T15609   1.786   4.491   3.280
  143OSM   C10S15610   1.750   4.451   3.484
  143OSM   H10S15611   1.859   4.452   3.505
  143OSM   H10T15612   1.734   4.342   3.471
  143OSM   C11S15613   1.680   4.512   3.606
  143OSM   H11S15614   1.573   4.496   3.632
  143OSM   H11T15615   1.689   4.622   3.590
  143OSM   C12S15616   1.748   4.478   3.739
  143OSM   H12S15617   1.858   4.490   3.726
  143OSM   H12T15618   1.730   4.370   3.758
  143OSM   C13S15619   1.698   4.565   3.850
  143OSM   H13S15620   1.593   4.532   3.866
  143OSM   H13T15621   1.712   4.669   3.816
  143OSM   C14S15622   1.770   4.563   3.983
  143OSM   H14S15623   1.881   4.567   3.975
  143OSM   H14T15624   1.746   4.460   4.017
  143OSM   C15S15625   1.715   4.663   4.088
  143OSM   H15S15626   1.710   4.766   4.046
  143OSM   H15T15627   1.790   4.661   4.170
  143OSM   C16S15628   1.589   4.610   4.155
  143OSM   H16S15629   1.603   4.517   4.214
  143OSM   H16T15630   1.511   4.594   4.078
  143OSM   C17S15631   1.536   4.707   4.268
  143OSM   H17S15632   1.511   4.805   4.222
  143OSM   H17T15633   1.630   4.717   4.326
  143OSM   C18S15634   1.422   4.658   4.353
  143OSM   H18S15635   1.379   4.732   4.424
  143OSM   H18T15636   1.457   4.570   4.413
  143OSM   H18U15637   1.329   4.639   4.296
  143OSM    C1F15638   0.928   4.470   2.838
  143OSM     OF15639   0.876   4.381   2.771
  143OSM    C2F15640   0.867   4.527   2.955
  143OSM    H2F15641   0.833   4.632   2.940
  143OSM    H2G15642   0.934   4.519   3.043
  143OSM    C3F15643   0.740   4.440   2.980
  143OSM    H3F15644   0.776   4.336   2.992
  143OSM    H3G15645   0.676   4.460   2.891
  143OSM    C4F15646   0.663   4.468   3.111
  143OSM    H4F15647   0.572   4.405   3.121
  143OSM    H4G15648   0.634   4.575   3.122
  143OSM    C5F15649   0.751   4.429   3.233
  143OSM    H5F15650   0.839   4.496   3.242
  143OSM    H5G15651   0.797   4.328   3.226
  143OSM    C6F15652   0.677   4.431   3.370
  143OSM    H6F15653   0.584   4.371   3.362
  143OSM    H6G15654   0.638   4.534   3.388
  143OSM    C7F15655   0.756   4.387   3.495
  143OSM    H7F15656   0.854   4.439   3.502
  143OSM    H7G15657   0.769   4.278   3.482
  143OSM    C8F15658   0.684   4.414   3.625
  143OSM    H8F15659   0.599   4.342   3.618
  143OSM    H8G15660   0.632   4.512   3.633
  143OSM    C9F15661   0.782   4.385   3.740
  143OSM    H9F15662   0.883   4.428   3.734
  143OSM   C10F15663   0.763   4.317   3.853
  143OSM   H10F15664   0.845   4.295   3.923
  143OSM   C11F15665   0.630   4.259   3.893
  143OSM   H11F15666   0.630   4.171   3.960
  143OSM   H11G15667   0.570   4.215   3.811
  143OSM   C12F15668   0.512   4.348   3.953
  143OSM   H12F15669   0.416   4.305   3.916
  143OSM   H12G15670   0.515   4.448   3.906
  143OSM   C13F15671   0.508   4.365   4.104
  143OSM   H13F15672   0.428   4.441   4.114
  143OSM   H13G15673   0.607   4.400   4.142
  143OSM   C14F15674   0.466   4.242   4.181
  143OSM   H14F15675   0.556   4.177   4.184
  143OSM   H14G15676   0.386   4.195   4.119
  143OSM   C15F15677   0.430   4.262   4.333
  143OSM   H15F15678   0.509   4.316   4.389
  143OSM   H15G15679   0.434   4.155   4.362
  143OSM   C16F15680   0.287   4.316   4.347
  143OSM   H16F15681   0.219   4.243   4.299
  143OSM   H16G15682   0.286   4.422   4.311
  143OSM   C17F15683   0.239   4.320   4.491
  143OSM   H17F15684   0.312   4.354   4.567
  143OSM   H17G15685   0.219   4.219   4.533
  143OSM   C18F15686   0.107   4.397   4.505
  143OSM   H18F15687   0.098   4.410   4.615
  143OSM   H18G15688   0.026   4.336   4.459
  143OSM   H18H15689   0.119   4.501   4.469
  144OSM      N15690   0.638   5.297   2.011
  144OSM    C1515691   0.503   5.243   1.976
  144OSM   H15A15692   0.425   5.317   1.964
  144OSM   H15B15693   0.479   5.168   2.050
  144OSM   H15C15694   0.514   5.203   1.876
  144OSM    C1415695   0.666   5.397   1.898
  144OSM   H14A15696   0.764   5.439   1.910
  144OSM   H14B15697   0.589   5.473   1.899
  144OSM   H14C15698   0.664   5.339   1.807
  144OSM    C1315699   0.638   5.378   2.138
  144OSM   H13A15700   0.616   5.309   2.218
  144OSM   H13B15701   0.569   5.461   2.137
  144OSM   H13C15702   0.739   5.410   2.162
  144OSM    C1215703   0.739   5.181   2.016
  144OSM   H12A15704   0.834   5.227   2.039
  144OSM   H12B15705   0.750   5.144   1.915
  144OSM    C1115706   0.711   5.064   2.106
  144OSM   H11A15707   0.791   4.986   2.101
  144OSM   H11B15708   0.621   5.010   2.071
  144OSM      P15709   0.687   5.001   2.357
  144OSM    O1315710   0.570   4.915   2.350
  144OSM    O1415711   0.821   4.936   2.357
  144OSM    O1115712   0.681   5.085   2.485
  144OSM    O1215713   0.691   5.103   2.240
  144OSM    C1S15714   0.698   5.229   2.471
  144OSM    H1S15715   0.613   5.272   2.414
  144OSM    H1T15716   0.794   5.257   2.422
  144OSM     NF15717   0.682   5.446   2.591
  144OSM    HNF15718   0.772   5.489   2.603
  144OSM    C2S15719   0.688   5.298   2.609
  144OSM    H2S15720   0.588   5.260   2.640
  144OSM    C3S15721   0.804   5.251   2.695
  144OSM    H3S15722   0.893   5.299   2.648
  144OSM     O315723   0.827   5.110   2.698
  144OSM    HO315724   0.809   5.085   2.607
  144OSM    C4S15725   0.803   5.306   2.835
  144OSM    H4S15726   0.886   5.377   2.846
  144OSM    C5S15727   0.737   5.260   2.944
  144OSM    H5S15728   0.659   5.185   2.926
  144OSM    C6S15729   0.765   5.308   3.085
  144OSM    H6S15730   0.665   5.312   3.133
  144OSM    H6T15731   0.796   5.414   3.082
  144OSM    C7S15732   0.848   5.204   3.155
  144OSM    H7S15733   0.947   5.190   3.105
  144OSM    H7T15734   0.794   5.107   3.149
  144OSM    C8S15735   0.870   5.220   3.306
  144OSM    H8S15736   0.939   5.145   3.350
  144OSM    H8T15737   0.771   5.210   3.355
  144OSM    C9S15738   0.923   5.368   3.348
  144OSM    H9S15739   0.840   5.441   3.334
  144OSM    H9T15740   1.003   5.392   3.274
  144OSM   C10S15741   0.980   5.375   3.490
  144OSM   H10S15742   1.014   5.479   3.509
  144OSM   H10T15743   1.069   5.309   3.495
  144OSM   C11S15744   0.879   5.340   3.598
  144OSM   H11S15745   0.889   5.230   3.602
  144OSM   H11T15746   0.780   5.386   3.577
  144OSM   C12S15747   0.922   5.390   3.735
  144OSM   H12S15748   0.900   5.498   3.744
  144OSM   H12T15749   1.030   5.365   3.742
  144OSM   C13S15750   0.840   5.314   3.841
  144OSM   H13S15751   0.862   5.366   3.937
  144OSM   H13T15752   0.888   5.213   3.839
  144OSM   C14S15753   0.686   5.311   3.829
  144OSM   H14S15754   0.661   5.261   3.733
  144OSM   H14T15755   0.634   5.409   3.829
  144OSM   C15S15756   0.614   5.224   3.936
  144OSM   H15S15757   0.678   5.137   3.962
  144OSM   H15T15758   0.516   5.191   3.896
  144OSM   C16S15759   0.585   5.305   4.066
  144OSM   H16S15760   0.542   5.400   4.027
  144OSM   H16T15761   0.680   5.323   4.121
  144OSM   C17S15762   0.485   5.244   4.169
  144OSM   H17S15763   0.483   5.316   4.254
  144OSM   H17T15764   0.515   5.148   4.216
  144OSM   C18S15765   0.347   5.229   4.106
  144OSM   H18S15766   0.282   5.183   4.184
  144OSM   H18T15767   0.350   5.164   4.016
  144OSM   H18U15768   0.298   5.323   4.075
  144OSM    C1F15769   0.589   5.516   2.525
  144OSM     OF15770   0.490   5.466   2.473
  144OSM    C2F15771   0.609   5.662   2.512
  144OSM    H2F15772   0.596   5.704   2.410
  144OSM    H2G15773   0.709   5.703   2.537
  144OSM    C3F15774   0.501   5.743   2.587
  144OSM    H3F15775   0.399   5.706   2.564
  144OSM    H3G15776   0.496   5.852   2.564
  144OSM    C4F15777   0.535   5.747   2.740
  144OSM    H4F15778   0.621   5.817   2.739
  144OSM    H4G15779   0.563   5.644   2.769
  144OSM    C5F15780   0.421   5.802   2.838
  144OSM    H5F15781   0.338   5.728   2.842
  144OSM    H5G15782   0.380   5.901   2.807
  144OSM    C6F15783   0.482   5.828   2.972
  144OSM    H6F15784   0.562   5.905   2.970
  144OSM    H6G15785   0.542   5.736   2.988
  144OSM    C7F15786   0.393   5.871   3.089
  144OSM    H7F15787   0.305   5.807   3.110
  144OSM    H7G15788   0.373   5.976   3.062
  144OSM    C8F15789   0.469   5.866   3.231
  144OSM    H8F15790   0.420   5.940   3.298
  144OSM    H8G15791   0.563   5.916   3.198
  144OSM    C9F15792   0.486   5.719   3.281
  144OSM    H9F15793   0.536   5.655   3.207
  144OSM   C10F15794   0.452   5.685   3.404
  144OSM   H10F15795   0.472   5.584   3.442
  144OSM   C11F15796   0.378   5.765   3.507
  144OSM   H11F15797   0.269   5.785   3.491
  144OSM   H11G15798   0.434   5.859   3.520
  144OSM   C12F15799   0.394   5.708   3.650
  144OSM   H12F15800   0.503   5.688   3.663
  144OSM   H12G15801   0.330   5.618   3.661
  144OSM   C13F15802   0.330   5.797   3.760
  144OSM   H13F15803   0.222   5.821   3.743
  144OSM   H13G15804   0.375   5.899   3.763
  144OSM   C14F15805   0.340   5.725   3.899
  144OSM   H14F15806   0.449   5.715   3.915
  144OSM   H14G15807   0.320   5.616   3.890
  144OSM   C15F15808   0.279   5.789   4.028
  144OSM   H15F15809   0.180   5.828   3.996
  144OSM   H15G15810   0.341   5.878   4.051
  144OSM   C16F15811   0.284   5.711   4.153
  144OSM   H16F15812   0.252   5.773   4.240
  144OSM   H16G15813   0.393   5.695   4.165
  144OSM   C17F15814   0.203   5.583   4.146
  144OSM   H17F15815   0.258   5.517   4.076
  144OSM   H17G15816   0.106   5.609   4.099
  144OSM   C18F15817   0.181   5.495   4.274
  144OSM   H18F15818   0.108   5.539   4.345
  144OSM   H18G15819   0.280   5.485   4.322
  144OSM   H18H15820   0.152   5.393   4.241
  145SAPE     N15821   1.083   0.592   6.552
  145SAPE   HN115822   1.033   0.512   6.509
  145SAPE   HN215823   1.170   0.562   6.600
  145SAPE   HN315824   1.019   0.641   6.617
  145SAPE   C1215825   1.132   0.695   6.444
  145SAPE  H12A15826   1.226   0.656   6.399
  145SAPE  H12B15827   1.161   0.786   6.500
  145SAPE   C1115828   1.029   0.734   6.340
  145SAPE  H11A15829   1.046   0.685   6.241
  145SAPE  H11B15830   1.053   0.842   6.324
  145SAPE     P15831   0.782   0.685   6.303
  145SAPE   O1315832   0.767   0.537   6.291
  145SAPE   O1415833   0.665   0.750   6.361
  145SAPE   O1215834   0.903   0.722   6.398
  145SAPE   O1115835   0.818   0.744   6.162
  145SAPE    C115836   0.767   0.874   6.123
  145SAPE    HA15837   0.676   0.904   6.180
  145SAPE    HB15838   0.839   0.958   6.130
  145SAPE    C215839   0.737   0.865   5.974
  145SAPE    HS15840   0.710   0.966   5.935
  145SAPE   O2115841   0.629   0.776   5.956
  145SAPE   C2115842   0.566   0.773   5.837
  145SAPE   O2215843   0.581   0.856   5.751
  145SAPE   C2215844   0.456   0.660   5.836
  145SAPE   H2R15845   0.501   0.563   5.805
  145SAPE   H2S15846   0.426   0.641   5.942
  145SAPE    C315847   0.873   0.807   5.904
  145SAPE    HX15848   0.890   0.704   5.943
  145SAPE    HY15849   0.951   0.874   5.943
  145SAPE   O3115850   0.855   0.796   5.763
  145SAPE   C3115851   0.888   0.899   5.692
  145SAPE   O3215852   0.953   0.995   5.743
  145SAPE   C3215853   0.858   0.888   5.544
  145SAPE   H2X15854   0.747   0.883   5.537
  145SAPE   H2Y15855   0.898   0.786   5.523
  145SAPE   C2315856   0.337   0.700   5.736
  145SAPE   H3R15857   0.302   0.802   5.763
  145SAPE   H3S15858   0.268   0.614   5.747
  145SAPE   C2415859   0.369   0.689   5.580
  145SAPE   H4R15860   0.439   0.774   5.566
  145SAPE   H4S15861   0.284   0.725   5.517
  145SAPE   C2515862   0.420   0.558   5.534
  145SAPE   H5R15863   0.515   0.534   5.583
  145SAPE   C2615864   0.365   0.475   5.441
  145SAPE   H6R15865   0.418   0.383   5.411
  145SAPE   C2715866   0.236   0.521   5.368
  145SAPE   H7R15867   0.258   0.595   5.288
  145SAPE   H7S15868   0.165   0.569   5.439
  145SAPE   C2815869   0.170   0.404   5.299
  145SAPE   H8R15870   0.133   0.330   5.372
  145SAPE   C2915871   0.170   0.374   5.165
  145SAPE   H9R15872   0.116   0.286   5.126
  145SAPE  C21015873   0.213   0.476   5.060
  145SAPE  H10R15874   0.202   0.583   5.091
  145SAPE  H10S15875   0.136   0.471   4.980
  145SAPE  C21115876   0.346   0.453   5.003
  145SAPE  H11R15877   0.418   0.400   5.067
  145SAPE  C21215878   0.388   0.477   4.873
  145SAPE  H12R15879   0.497   0.473   4.858
  145SAPE  C21315880   0.311   0.550   4.765
  145SAPE  H13R15881   0.361   0.647   4.749
  145SAPE  H13S15882   0.204   0.558   4.793
  145SAPE  C21415883   0.324   0.475   4.631
  145SAPE  H14R15884   0.324   0.365   4.638
  145SAPE  C21515885   0.317   0.519   4.505
  145SAPE  H15R15886   0.330   0.452   4.419
  145SAPE  C21615887   0.296   0.665   4.469
  145SAPE  H16R15888   0.271   0.724   4.560
  145SAPE  H16S15889   0.214   0.682   4.396
  145SAPE  C21715890   0.418   0.735   4.403
  145SAPE  H17R15891   0.388   0.836   4.368
  145SAPE  H17S15892   0.466   0.678   4.321
  145SAPE  C21815893   0.522   0.746   4.514
  145SAPE  H18R15894   0.521   0.649   4.568
  145SAPE  H18S15895   0.495   0.828   4.584
  145SAPE  C21915896   0.667   0.769   4.467
  145SAPE  H19R15897   0.673   0.869   4.419
  145SAPE  H19S15898   0.677   0.686   4.394
  145SAPE  C22015899   0.778   0.764   4.570
  145SAPE  H20R15900   0.758   0.684   4.645
  145SAPE  H20S15901   0.766   0.864   4.616
  145SAPE  H20T15902   0.877   0.749   4.523
  145SAPE   C3315903   0.902   1.007   5.455
  145SAPE   H3X15904   0.889   0.978   5.349
  145SAPE   H3Y15905   1.010   1.023   5.472
  145SAPE   C3415906   0.810   1.130   5.477
  145SAPE   H4X15907   0.833   1.183   5.572
  145SAPE   H4Y15908   0.704   1.098   5.485
  145SAPE   C3515909   0.823   1.230   5.372
  145SAPE   H5X15910   0.784   1.323   5.419
  145SAPE   H5Y15911   0.756   1.212   5.286
  145SAPE   C3615912   0.963   1.263   5.325
  145SAPE   H6X15913   1.025   1.178   5.288
  145SAPE   H6Y15914   1.019   1.320   5.402
  145SAPE   C3715915   0.950   1.364   5.208
  145SAPE   H7X15916   1.041   1.425   5.191
  145SAPE   H7Y15917   0.866   1.434   5.226
  145SAPE   C3815918   0.908   1.299   5.075
  145SAPE   H8X15919   0.845   1.372   5.019
  145SAPE   H8Y15920   0.833   1.219   5.092
  145SAPE   C3915921   1.020   1.248   4.983
  145SAPE   H9X15922   1.077   1.166   5.033
  145SAPE   H9Y15923   1.088   1.333   4.959
  145SAPE  C31015924   0.959   1.188   4.851
  145SAPE  H10X15925   0.873   1.124   4.880
  145SAPE  H10Y15926   1.029   1.107   4.823
  145SAPE  C31115927   0.924   1.285   4.745
  145SAPE  H11X15928   1.012   1.347   4.717
  145SAPE  H11Y15929   0.844   1.357   4.773
  145SAPE  C31215930   0.867   1.214   4.626
  145SAPE  H12X15931   0.867   1.289   4.543
  145SAPE  H12Y15932   0.766   1.170   4.638
  145SAPE  C31315933   0.959   1.105   4.572
  145SAPE  H13X15934   0.932   1.008   4.619
  145SAPE  H13Y15935   1.065   1.123   4.599
  145SAPE  C31415936   0.951   1.107   4.417
  145SAPE  H14X15937   0.848   1.100   4.378
  145SAPE  H14Y15938   0.997   1.012   4.380
  145SAPE  C31515939   1.040   1.211   4.354
  145SAPE  H15X15940   1.017   1.308   4.403
  145SAPE  H15Y15941   1.008   1.227   4.249
  145SAPE  C31615942   1.194   1.195   4.357
  145SAPE  H16X15943   1.212   1.092   4.320
  145SAPE  H16Y15944   1.247   1.222   4.450
  145SAPE  C31715945   1.253   1.300   4.253
  145SAPE  H17X15946   1.210   1.401   4.274
  145SAPE  H17Y15947   1.217   1.263   4.155
  145SAPE  C31815948   1.407   1.301   4.255
  145SAPE  H18X15949   1.447   1.202   4.226
  145SAPE  H18Y15950   1.442   1.333   4.355
  145SAPE  H18Z15951   1.441   1.377   4.181
  146SAPE     N15952   3.831   6.590   6.983
  146SAPE   HN115953   3.841   6.517   7.057
  146SAPE   HN215954   3.781   6.551   6.900
  146SAPE   HN315955   3.925   6.608   6.940
  146SAPE   C1215956   3.771   6.723   7.031
  146SAPE  H12A15957   3.842   6.771   7.102
  146SAPE  H12B15958   3.674   6.705   7.084
  146SAPE   C1115959   3.762   0.019   6.908
  146SAPE  H11A15960   3.699   6.770   6.829
  146SAPE  H11B15961   3.864   0.031   6.865
  146SAPE     P15962   3.697   0.255   6.825
  146SAPE   O1315963   3.549   0.286   6.805
  146SAPE   O1415964   3.791   0.370   6.850
  146SAPE   O1215965   3.713   0.149   6.940
  146SAPE   O1115966   3.742   0.178   6.689
  146SAPE    C115967   3.871   0.189   6.631
  146SAPE    HA15968   3.907   0.294   6.619
  146SAPE    HB15969   3.947   0.135   6.692
  146SAPE    C215970   3.868   0.121   6.487
  146SAPE    HS15971   3.972   0.101   6.452
  146SAPE   O2115972   3.780   0.200   6.397
  146SAPE   C2115973   3.834   0.307   6.349
  146SAPE   O2215974   3.946   0.349   6.376
  146SAPE   C2215975   3.747   0.367   6.240
  146SAPE   H2R15976   3.733   0.295   6.157
  146SAPE   H2S15977   3.650   0.393   6.288
  146SAPE    C315978   3.816   6.770   6.502
  146SAPE    HX15979   3.706   6.765   6.516
  146SAPE    HY15980   3.861   6.712   6.586
  146SAPE   O3115981   3.867   6.704   6.381
  146SAPE   C3115982   3.777   6.706   6.275
  146SAPE   O3215983   3.660   6.739   6.281
  146SAPE   C3215984   3.860   6.650   6.155
  146SAPE   H2X15985   3.906   6.557   6.195
  146SAPE   H2Y15986   3.938   6.727   6.135
  146SAPE   C2315987   3.806   0.496   6.185
  146SAPE   H3R15988   3.871   0.544   6.261
  146SAPE   H3S15989   3.720   0.562   6.162
  146SAPE   C2415990   3.893   0.476   6.061
  146SAPE   H4R15991   3.829   0.416   5.993
  146SAPE   H4S15992   3.979   0.424   6.109
  146SAPE   C2515993   3.943   0.605   5.997
  146SAPE   H5R15994   4.002   0.669   6.064
  146SAPE   C2615995   3.913   0.640   5.867
  146SAPE   H6R15996   3.957   0.735   5.831
  146SAPE   C2715997   3.818   0.580   5.768
  146SAPE   H7R15998   3.857   0.480   5.739
  146SAPE   H7S15999   3.817   0.642   5.676
  146SAPE   C2816000   3.682   0.566   5.818
  146SAPE   H8R16001   3.667   0.594   5.923
  146SAPE   C2916002   3.570   0.529   5.746
  146SAPE   H9R16003   3.473   0.518   5.796
  146SAPE  C21016004   3.571   0.488   5.596
  146SAPE  H10R16005   3.518   0.392   5.582
  146SAPE  H10S16006   3.676   0.466   5.568
  146SAPE  C21116007   3.504   0.594   5.512
  146SAPE  H11R16008   3.431   0.662   5.559
  146SAPE  C21216009   3.542   0.637   5.385
  146SAPE  H12R16010   3.491   0.724   5.342
  146SAPE  C21316011   3.641   0.566   5.297
  146SAPE  H13R16012   3.592   0.473   5.260
  146SAPE  H13S16013   3.733   0.535   5.351
  146SAPE  C21416014   3.679   0.650   5.177
  146SAPE  H14R16015   3.703   0.757   5.188
  146SAPE  C21516016   3.680   0.615   5.048
  146SAPE  H15R16017   3.703   0.679   4.962
  146SAPE  C21616018   3.655   0.477   5.006
  146SAPE  H16R16019   3.701   0.396   5.067
  146SAPE  H16S16020   3.714   0.477   4.912
  146SAPE  C21716021   3.505   0.438   4.981
  146SAPE  H17R16022   3.511   0.337   4.935
  146SAPE  H17S16023   3.467   0.498   4.895
  146SAPE  C21816024   3.411   0.426   5.100
  146SAPE  H18R16025   3.410   0.526   5.147
  146SAPE  H18S16026   3.449   0.351   5.172
  146SAPE  C21916027   3.271   0.392   5.052
  146SAPE  H19R16028   3.272   0.292   5.004
  146SAPE  H19S16029   3.242   0.453   4.964
  146SAPE  C22016030   3.159   0.398   5.167
  146SAPE  H20R16031   3.146   0.503   5.200
  146SAPE  H20S16032   3.196   0.340   5.253
  146SAPE  H20T16033   3.062   0.360   5.128
  146SAPE   C3316034   3.768   6.631   6.032
  146SAPE   H3X16035   3.696   6.715   6.027
  146SAPE   H3Y16036   3.713   6.536   6.046
  146SAPE   C3416037   3.845   6.631   5.893
  146SAPE   H4X16038   3.920   6.712   5.889
  146SAPE   H4Y16039   3.764   6.633   5.817
  146SAPE   C3516040   3.923   6.505   5.857
  146SAPE   H5X16041   3.843   6.431   5.836
  146SAPE   H5Y16042   3.991   6.475   5.940
  146SAPE   C3616043   4.024   6.528   5.740
  146SAPE   H6X16044   4.090   6.440   5.751
  146SAPE   H6Y16045   4.078   6.622   5.762
  146SAPE   C3716046   3.945   6.536   5.614
  146SAPE   H7X16047   3.925   6.641   5.583
  146SAPE   H7Y16048   3.847   6.484   5.612
  146SAPE   C3816049   4.026   6.484   5.488
  146SAPE   H8X16050   4.078   6.393   5.525
  146SAPE   H8Y16051   4.108   6.557   5.467
  146SAPE   C3916052   3.945   6.462   5.361
  146SAPE   H9X16053   3.900   6.558   5.329
  146SAPE   H9Y16054   3.866   6.385   5.375
  146SAPE  C31016055   4.033   6.401   5.251
  146SAPE  H10X16056   3.967   6.343   5.184
  146SAPE  H10Y16057   4.112   6.333   5.290
  146SAPE  C31116058   4.093   6.508   5.161
  146SAPE  H11X16059   4.150   6.570   5.234
  146SAPE  H11Y16060   4.017   6.573   5.114
  146SAPE  C31216061   4.199   6.467   5.061
  146SAPE  H12X16062   4.281   6.415   5.115
  146SAPE  H12Y16063   4.240   6.553   5.004
  146SAPE  C31316064   4.151   6.356   4.959
  146SAPE  H13X16065   4.116   6.272   5.023
  146SAPE  H13Y16066   4.242   6.320   4.907
  146SAPE  C31416067   4.034   6.406   4.853
  146SAPE  H14X16068   3.955   6.454   4.915
  146SAPE  H14Y16069   3.995   6.312   4.810
  146SAPE  C31516070   4.093   6.500   4.750
  146SAPE  H15X16071   4.180   6.559   4.787
  146SAPE  H15Y16072   4.010   6.569   4.726
  146SAPE  C31616073   4.138   6.431   4.622
  146SAPE  H16X16074   4.050   6.369   4.593
  146SAPE  H16Y16075   4.218   6.367   4.664
  146SAPE  C31716076   4.191   6.529   4.514
  146SAPE  H17X16077   4.234   6.462   4.437
  146SAPE  H17Y16078   4.248   6.615   4.557
  146SAPE  C31816079   4.079   6.603   4.437
  146SAPE  H18X16080   3.990   6.542   4.412
  146SAPE  H18Y16081   4.121   6.640   4.341
  146SAPE  H18Z16082   4.048   6.693   4.494
  147SAPE     N16083   4.767   5.098   6.890
  147SAPE   HN116084   4.699   5.176   6.876
  147SAPE   HN216085   4.754   5.042   6.804
  147SAPE   HN316086   4.742   5.039   6.972
  147SAPE   C1216087   4.903   5.151   6.886
  147SAPE  H12A16088   4.960   5.059   6.865
  147SAPE  H12B16089   4.922   5.201   6.984
  147SAPE   C1116090   4.934   5.253   6.772
  147SAPE  H11A16091   4.939   5.193   6.678
  147SAPE  H11B16092   5.031   5.303   6.791
  147SAPE     P16093   4.828   5.463   6.663
  147SAPE   O1316094   4.685   5.497   6.643
  147SAPE   O1416095   4.933   5.562   6.704
  147SAPE   O1216096   4.826   5.343   6.768
  147SAPE   O1116097   4.873   5.397   6.532
  147SAPE    C116098   4.790   5.319   6.451
  147SAPE    HA16099   4.799   5.218   6.495
  147SAPE    HB16100   4.682   5.346   6.458
  147SAPE    C216101   4.837   5.320   6.308
  147SAPE    HS16102   4.947   5.333   6.316
  147SAPE   O2116103   4.759   5.423   6.250
  147SAPE   C2116104   4.824   5.536   6.221
  147SAPE   O2216105   4.946   5.553   6.227
  147SAPE   C2216106   4.719   5.642   6.171
  147SAPE   H2R16107   4.629   5.585   6.137
  147SAPE   H2S16108   4.701   5.712   6.255
  147SAPE    C316109   4.808   5.182   6.250
  147SAPE    HX16110   4.711   5.132   6.270
  147SAPE    HY16111   4.878   5.132   6.320
  147SAPE   O3116112   4.847   5.164   6.114
  147SAPE   C3116113   4.750   5.188   6.024
  147SAPE   O3216114   4.633   5.207   6.047
  147SAPE   C3216115   4.804   5.201   5.888
  147SAPE   H2X16116   4.895   5.137   5.893
  147SAPE   H2Y16117   4.827   5.309   5.872
  147SAPE   C2316118   4.768   5.736   6.057
  147SAPE   H3R16119   4.849   5.798   6.101
  147SAPE   H3S16120   4.678   5.796   6.032
  147SAPE   C2416121   4.829   5.660   5.936
  147SAPE   H4R16122   4.899   5.576   5.957
  147SAPE   H4S16123   4.886   5.736   5.879
  147SAPE   C2516124   4.716   5.601   5.859
  147SAPE   H5R16125   4.650   5.535   5.919
  147SAPE   C2616126   4.677   5.620   5.731
  147SAPE   H6R16127   4.601   5.550   5.692
  147SAPE   C2716128   4.742   5.698   5.628
  147SAPE   H7R16129   4.773   5.626   5.549
  147SAPE   H7S16130   4.836   5.746   5.662
  147SAPE   C2816131   4.656   5.809   5.582
  147SAPE   H8R16132   4.565   5.824   5.641
  147SAPE   C2916133   4.670   5.881   5.471
  147SAPE   H9R16134   4.604   5.968   5.452
  147SAPE  C21016135   4.786   5.884   5.367
  147SAPE  H10R16136   4.879   5.858   5.421
  147SAPE  H10S16137   4.802   5.985   5.325
  147SAPE  C21116138   4.754   5.778   5.262
  147SAPE  H11R16139   4.672   5.712   5.294
  147SAPE  C21216140   4.835   5.761   5.155
  147SAPE  H12R16141   4.826   5.672   5.092
  147SAPE  C21316142   4.949   5.854   5.113
  147SAPE  H13R16143   5.049   5.807   5.121
  147SAPE  H13S16144   4.948   5.937   5.187
  147SAPE  C21416145   4.923   5.916   4.978
  147SAPE  H14R16146   4.846   5.995   4.970
  147SAPE  C21516147   4.984   5.889   4.864
  147SAPE  H15R16148   4.989   5.940   4.767
  147SAPE  C21616149   5.089   5.781   4.857
  147SAPE  H16R16150   5.175   5.800   4.924
  147SAPE  H16S16151   5.132   5.791   4.755
  147SAPE  C21716152   5.029   5.638   4.879
  147SAPE  H17R16153   4.921   5.637   4.855
  147SAPE  H17S16154   5.036   5.617   4.988
  147SAPE  C21816155   5.122   5.547   4.801
  147SAPE  H18R16156   5.230   5.564   4.822
  147SAPE  H18S16157   5.112   5.558   4.691
  147SAPE  C21916158   5.089   5.399   4.831
  147SAPE  H19R16159   4.979   5.388   4.817
  147SAPE  H19S16160   5.123   5.384   4.935
  147SAPE  C22016161   5.165   5.304   4.742
  147SAPE  H20R16162   5.275   5.299   4.759
  147SAPE  H20S16163   5.150   5.337   4.637
  147SAPE  H20T16164   5.123   5.202   4.757
  147SAPE   C3316165   4.712   5.147   5.778
  147SAPE   H3X16166   4.621   5.210   5.771
  147SAPE   H3Y16167   4.677   5.042   5.781
  147SAPE   C3416168   4.778   5.171   5.639
  147SAPE   H4X16169   4.873   5.113   5.632
  147SAPE   H4Y16170   4.805   5.279   5.641
  147SAPE   C3516171   4.692   5.153   5.512
  147SAPE   H5X16172   4.597   5.210   5.521
  147SAPE   H5Y16173   4.669   5.045   5.498
  147SAPE   C3616174   4.768   5.210   5.394
  147SAPE   H6X16175   4.740   5.159   5.300
  147SAPE   H6Y16176   4.876   5.188   5.407
  147SAPE   C3716177   4.757   5.365   5.383
  147SAPE   H7X16178   4.768   5.414   5.482
  147SAPE   H7Y16179   4.655   5.401   5.356
  147SAPE   C3816180   4.846   5.419   5.268
  147SAPE   H8X16181   4.952   5.386   5.275
  147SAPE   H8Y16182   4.857   5.530   5.275
  147SAPE   C3916183   4.797   5.382   5.129
  147SAPE   H9X16184   4.809   5.274   5.109
  147SAPE   H9Y16185   4.862   5.440   5.059
  147SAPE  C31016186   4.654   5.427   5.103
  147SAPE  H10X16187   4.639   5.533   5.132
  147SAPE  H10Y16188   4.586   5.368   5.168
  147SAPE  C31116189   4.614   5.422   4.957
  147SAPE  H11X16190   4.662   5.506   4.903
  147SAPE  H11Y16191   4.504   5.438   4.947
  147SAPE  C31216192   4.662   5.299   4.874
  147SAPE  H12X16193   4.612   5.206   4.908
  147SAPE  H12Y16194   4.765   5.275   4.909
  147SAPE  C31316195   4.661   5.303   4.725
  147SAPE  H13X16196   4.732   5.223   4.692
  147SAPE  H13Y16197   4.698   5.400   4.687
  147SAPE  C31416198   4.518   5.272   4.661
  147SAPE  H14X16199   4.442   5.341   4.702
  147SAPE  H14Y16200   4.490   5.168   4.689
  147SAPE  C31516201   4.519   5.259   4.509
  147SAPE  H15X16202   4.426   5.208   4.474
  147SAPE  H15Y16203   4.605   5.189   4.495
  147SAPE  C31616204   4.549   5.394   4.440
  147SAPE  H16X16205   4.658   5.411   4.445
  147SAPE  H16Y16206   4.488   5.475   4.486
  147SAPE  C31716207   4.507   5.386   4.296
  147SAPE  H17X16208   4.396   5.382   4.301
  147SAPE  H17Y16209   4.537   5.293   4.242
  147SAPE  C31816210   4.533   5.510   4.220
  147SAPE  H18X16211   4.476   5.595   4.262
  147SAPE  H18Y16212   4.497   5.505   4.115
  147SAPE  H18Z16213   4.642   5.534   4.211
  148SAPE     N16214   1.964   6.793   6.830
  148SAPE   HN116215   2.050   0.042   6.865
  148SAPE   HN216216   1.907   0.069   6.783
  148SAPE   HN316217   1.915   6.770   6.920
  148SAPE   C1216218   1.986   6.673   6.729
  148SAPE  H12A16219   2.089   6.634   6.742
  148SAPE  H12B16220   1.995   6.710   6.624
  148SAPE   C1116221   1.881   6.566   6.752
  148SAPE  H11A16222   1.902   6.514   6.848
  148SAPE  H11B16223   1.894   6.503   6.662
  148SAPE     P16224   1.633   6.503   6.755
  148SAPE   O1316225   1.668   6.391   6.851
  148SAPE   O1416226   1.502   6.572   6.773
  148SAPE   O1216227   1.749   6.612   6.754
  148SAPE   O1116228   1.641   6.438   6.611
  148SAPE    C116229   1.535   6.431   6.525
  148SAPE    HA16230   1.477   6.337   6.543
  148SAPE    HB16231   1.466   6.518   6.522
  148SAPE    C216232   1.588   6.445   6.379
  148SAPE    HS16233   1.663   6.364   6.363
  148SAPE   O2116234   1.647   6.571   6.359
  148SAPE   C2116235   1.780   6.590   6.373
  148SAPE   O2216236   1.863   6.503   6.408
  148SAPE   C2216237   1.826   6.731   6.334
  148SAPE   H2R16238   1.733   6.776   6.292
  148SAPE   H2S16239   1.855   6.792   6.422
  148SAPE    C316240   1.463   6.434   6.287
  148SAPE    HX16241   1.399   6.524   6.304
  148SAPE    HY16242   1.414   6.338   6.313
  148SAPE   O3116243   1.500   6.432   6.143
  148SAPE   C3116244   1.515   6.313   6.092
  148SAPE   O3216245   1.500   6.203   6.145
  148SAPE   C3216246   1.569   6.329   5.951
  148SAPE   H2X16247   1.678   6.350   5.960
  148SAPE   H2Y16248   1.531   6.419   5.897
  148SAPE   C2316249   1.938   6.735   6.238
  148SAPE   H3R16250   2.002   6.645   6.242
  148SAPE   H3S16251   2.007   0.015   6.279
  148SAPE   C2416252   1.900   6.767   6.095
  148SAPE   H4R16253   1.990   6.756   6.031
  148SAPE   H4S16254   1.851   0.070   6.101
  148SAPE   C2516255   1.798   6.669   6.033
  148SAPE   H5R16256   1.764   6.585   6.096
  148SAPE   C2616257   1.738   6.695   5.915
  148SAPE   H6R16258   1.666   6.621   5.881
  148SAPE   C2716259   1.771   0.012   5.823
  148SAPE   H7R16260   1.754   6.771   5.720
  148SAPE   H7S16261   1.875   0.046   5.839
  148SAPE   C2816262   1.698   0.136   5.842
  148SAPE   H8R16263   1.699   0.186   5.940
  148SAPE   C2916264   1.640   0.214   5.744
  148SAPE   H9R16265   1.578   0.299   5.774
  148SAPE  C21016266   1.632   0.184   5.598
  148SAPE  H10R16267   1.690   0.094   5.570
  148SAPE  H10S16268   1.688   0.260   5.540
  148SAPE  C21116269   1.487   0.170   5.549
  148SAPE  H11R16270   1.412   0.153   5.627
  148SAPE  C21216271   1.449   0.182   5.419
  148SAPE  H12R16272   1.341   0.174   5.400
  148SAPE  C21316273   1.530   0.195   5.297
  148SAPE  H13R16274   1.488   0.166   5.199
  148SAPE  H13S16275   1.613   0.122   5.309
  148SAPE  C21416276   1.610   0.316   5.268
  148SAPE  H14R16277   1.686   0.342   5.343
  148SAPE  C21516278   1.613   0.385   5.144
  148SAPE  H15R16279   1.668   0.480   5.142
  148SAPE  C21616280   1.508   0.363   5.039
  148SAPE  H16R16281   1.457   0.456   5.006
  148SAPE  H16S16282   1.423   0.303   5.079
  148SAPE  C21716283   1.553   0.292   4.913
  148SAPE  H17R16284   1.585   0.188   4.934
  148SAPE  H17S16285   1.645   0.339   4.870
  148SAPE  C21816286   1.443   0.287   4.796
  148SAPE  H18R16287   1.401   0.386   4.766
  148SAPE  H18S16288   1.359   0.227   4.836
  148SAPE  C21916289   1.488   0.222   4.666
  148SAPE  H19R16290   1.540   0.302   4.609
  148SAPE  H19S16291   1.396   0.217   4.602
  148SAPE  C22016292   1.565   0.090   4.671
  148SAPE  H20R16293   1.594   0.047   4.573
  148SAPE  H20S16294   1.508   0.015   4.730
  148SAPE  H20T16295   1.653   0.113   4.735
  148SAPE   C3316296   1.554   6.211   5.865
  148SAPE   H3X16297   1.447   6.180   5.861
  148SAPE   H3Y16298   1.607   6.126   5.912
  148SAPE   C3416299   1.604   6.233   5.721
  148SAPE   H4X16300   1.597   6.132   5.676
  148SAPE   H4Y16301   1.713   6.251   5.738
  148SAPE   C3516302   1.548   6.339   5.637
  148SAPE   H5X16303   1.543   6.437   5.689
  148SAPE   H5Y16304   1.442   6.319   5.612
  148SAPE   C3616305   1.603   6.353   5.498
  148SAPE   H6X16306   1.646   6.265   5.445
  148SAPE   H6Y16307   1.690   6.422   5.500
  148SAPE   C3716308   1.501   6.405   5.400
  148SAPE   H7X16309   1.440   6.490   5.437
  148SAPE   H7Y16310   1.430   6.320   5.390
  148SAPE   C3816311   1.566   6.431   5.268
  148SAPE   H8X16312   1.629   6.341   5.249
  148SAPE   H8Y16313   1.627   6.523   5.272
  148SAPE   C3916314   1.470   6.440   5.144
  148SAPE   H9X16315   1.376   6.486   5.182
  148SAPE   H9Y16316   1.447   6.339   5.103
  148SAPE  C31016317   1.529   6.535   5.034
  148SAPE  H10X16318   1.637   6.515   5.020
  148SAPE  H10Y16319   1.530   6.644   5.059
  148SAPE  C31116320   1.469   6.519   4.892
  148SAPE  H11X16321   1.459   6.409   4.877
  148SAPE  H11Y16322   1.546   6.553   4.820
  148SAPE  C31216323   1.331   6.592   4.868
  148SAPE  H12X16324   1.339   6.700   4.895
  148SAPE  H12Y16325   1.266   6.546   4.946
  148SAPE  C31316326   1.279   6.575   4.722
  148SAPE  H13X16327   1.253   6.468   4.707
  148SAPE  H13Y16328   1.369   6.599   4.660
  148SAPE  C31416329   1.163   6.671   4.686
  148SAPE  H14X16330   1.198   6.776   4.678
  148SAPE  H14Y16331   1.089   6.670   4.769
  148SAPE  C31516332   1.104   6.631   4.544
  148SAPE  H15X16333   1.050   6.720   4.505
  148SAPE  H15Y16334   1.025   6.554   4.547
  148SAPE  C31616335   1.206   6.613   4.427
  148SAPE  H16X16336   1.265   6.521   4.447
  148SAPE  H16Y16337   1.282   6.693   4.435
  148SAPE  C31716338   1.154   6.621   4.282
  148SAPE  H17X16339   1.242   6.631   4.214
  148SAPE  H17Y16340   1.081   6.704   4.272
  148SAPE  C31816341   1.084   6.495   4.235
  148SAPE  H18X16342   1.153   6.409   4.220
  148SAPE  H18Y16343   1.029   6.514   4.140
  148SAPE  H18Z16344   1.013   6.458   4.311
  149SAPE     N16345   1.872   1.679   6.511
  149SAPE   HN116346   1.976   1.667   6.511
  149SAPE   HN216347   1.841   1.634   6.599
  149SAPE   HN316348   1.832   1.616   6.439
  149SAPE   C1216349   1.833   1.824   6.497
  149SAPE  H12A16350   1.883   1.865   6.407
  149SAPE  H12B16351   1.864   1.883   6.586
  149SAPE   C1116352   1.674   1.839   6.502
  149SAPE  H11A16353   1.634   1.826   6.399
  149SAPE  H11B16354   1.656   1.941   6.543
  149SAPE     P16355   1.459   1.718   6.596
  149SAPE   O1316356   1.430   1.615   6.698
  149SAPE   O1416357   1.395   1.852   6.622
  149SAPE   O1216358   1.616   1.742   6.588
  149SAPE   O1116359   1.429   1.647   6.454
  149SAPE    C116360   1.489   1.527   6.417
  149SAPE    HA16361   1.593   1.537   6.380
  149SAPE    HB16362   1.492   1.451   6.498
  149SAPE    C216363   1.410   1.468   6.294
  149SAPE    HS16364   1.317   1.415   6.326
  149SAPE   O2116365   1.507   1.380   6.217
  149SAPE   C2116366   1.528   1.253   6.271
  149SAPE   O2216367   1.468   1.214   6.369
  149SAPE   C2216368   1.616   1.164   6.190
  149SAPE   H2R16369   1.582   1.172   6.084
  149SAPE   H2S16370   1.718   1.208   6.191
  149SAPE    C316371   1.359   1.587   6.206
  149SAPE    HX16372   1.440   1.663   6.217
  149SAPE    HY16373   1.267   1.627   6.254
  149SAPE   O3116374   1.338   1.554   6.065
  149SAPE   C3116375   1.319   1.668   5.997
  149SAPE   O3216376   1.327   1.780   6.042
  149SAPE   C3216377   1.291   1.639   5.846
  149SAPE   H2X16378   1.252   1.536   5.839
  149SAPE   H2Y16379   1.385   1.639   5.786
  149SAPE   C2316380   1.633   1.014   6.233
  149SAPE   H3R16381   1.531   0.976   6.258
  149SAPE   H3S16382   1.704   1.012   6.318
  149SAPE   C2416383   1.690   0.920   6.127
  149SAPE   H4R16384   1.703   0.814   6.160
  149SAPE   H4S16385   1.790   0.964   6.104
  149SAPE   C2516386   1.601   0.917   6.007
  149SAPE   H5R16387   1.495   0.921   6.035
  149SAPE   C2616388   1.628   0.909   5.873
  149SAPE   H6R16389   1.545   0.913   5.800
  149SAPE   C2716390   1.761   0.904   5.806
  149SAPE   H7R16391   1.748   0.839   5.717
  149SAPE   H7S16392   1.832   0.846   5.868
  149SAPE   C2816393   1.824   1.039   5.788
  149SAPE   H8R16394   1.853   1.091   5.881
  149SAPE   C2916395   1.834   1.108   5.669
  149SAPE   H9R16396   1.878   1.208   5.667
  149SAPE  C21016397   1.784   1.060   5.536
  149SAPE  H10R16398   1.708   0.979   5.541
  149SAPE  H10S16399   1.869   1.019   5.478
  149SAPE  C21116400   1.730   1.178   5.458
  149SAPE  H11R16401   1.663   1.251   5.507
  149SAPE  C21216402   1.732   1.187   5.324
  149SAPE  H12R16403   1.692   1.280   5.281
  149SAPE  C21316404   1.792   1.077   5.233
  149SAPE  H13R16405   1.739   1.080   5.136
  149SAPE  H13S16406   1.792   0.973   5.272
  149SAPE  C21416407   1.933   1.105   5.194
  149SAPE  H14R16408   2.002   1.110   5.280
  149SAPE  C21516409   1.988   1.105   5.073
  149SAPE  H15R16410   2.096   1.122   5.064
  149SAPE  C21616411   1.915   1.080   4.945
  149SAPE  H16R16412   1.818   1.133   4.946
  149SAPE  H16S16413   1.894   0.972   4.926
  149SAPE  C21716414   1.998   1.145   4.828
  149SAPE  H17R16415   2.013   1.250   4.863
  149SAPE  H17S16416   1.931   1.153   4.740
  149SAPE  C21816417   2.134   1.082   4.794
  149SAPE  H18R16418   2.125   0.971   4.788
  149SAPE  H18S16419   2.208   1.112   4.872
  149SAPE  C21916420   2.174   1.138   4.658
  149SAPE  H19R16421   2.153   1.247   4.648
  149SAPE  H19S16422   2.107   1.090   4.584
  149SAPE  C22016423   2.319   1.130   4.615
  149SAPE  H20R16424   2.343   1.026   4.582
  149SAPE  H20S16425   2.389   1.153   4.698
  149SAPE  H20T16426   2.332   1.199   4.529
  149SAPE   C3316427   1.196   1.741   5.777
  149SAPE   H3X16428   1.254   1.835   5.763
  149SAPE   H3Y16429   1.108   1.761   5.841
  149SAPE   C3416430   1.162   1.688   5.640
  149SAPE   H4X16431   1.070   1.626   5.648
  149SAPE   H4Y16432   1.247   1.624   5.611
  149SAPE   C3516433   1.133   1.802   5.536
  149SAPE   H5X16434   1.097   1.895   5.586
  149SAPE   H5Y16435   1.045   1.761   5.484
  149SAPE   C3616436   1.250   1.835   5.440
  149SAPE   H6X16437   1.307   1.744   5.411
  149SAPE   H6Y16438   1.318   1.912   5.482
  149SAPE   C3716439   1.211   1.899   5.305
  149SAPE   H7X16440   1.297   1.958   5.265
  149SAPE   H7Y16441   1.126   1.967   5.326
  149SAPE   C3816442   1.157   1.810   5.200
  149SAPE   H8X16443   1.120   1.891   5.134
  149SAPE   H8Y16444   1.078   1.745   5.243
  149SAPE   C3916445   1.257   1.733   5.120
  149SAPE   H9X16446   1.293   1.658   5.194
  149SAPE   H9Y16447   1.345   1.795   5.091
  149SAPE  C31016448   1.200   1.665   4.996
  149SAPE  H10X16449   1.129   1.589   5.033
  149SAPE  H10Y16450   1.278   1.617   4.933
  149SAPE  C31116451   1.132   1.757   4.898
  149SAPE  H11X16452   1.037   1.791   4.945
  149SAPE  H11Y16453   1.095   1.701   4.809
  149SAPE  C31216454   1.216   1.883   4.862
  149SAPE  H12X16455   1.315   1.862   4.817
  149SAPE  H12Y16456   1.234   1.946   4.952
  149SAPE  C31316457   1.141   1.982   4.773
  149SAPE  H13X16458   1.066   2.025   4.843
  149SAPE  H13Y16459   1.103   1.924   4.686
  149SAPE  C31416460   1.231   2.101   4.723
  149SAPE  H14X16461   1.320   2.064   4.667
  149SAPE  H14Y16462   1.257   2.169   4.807
  149SAPE  C31516463   1.150   2.178   4.612
  149SAPE  H15X16464   1.221   2.261   4.592
  149SAPE  H15Y16465   1.064   2.223   4.666
  149SAPE  C31616466   1.117   2.089   4.494
  149SAPE  H16X16467   1.056   1.998   4.509
  149SAPE  H16Y16468   1.209   2.047   4.448
  149SAPE  C31716469   1.057   2.168   4.382
  149SAPE  H17X16470   1.118   2.259   4.366
  149SAPE  H17Y16471   0.958   2.205   4.414
  149SAPE  C31816472   1.044   2.088   4.249
  149SAPE  H18X16473   0.977   2.135   4.174
  149SAPE  H18Y16474   1.000   1.991   4.279
  149SAPE  H18Z16475   1.143   2.061   4.208
  150SAPE     N16476   4.683   2.909   6.907
  150SAPE   HN116477   4.673   2.811   6.939
  150SAPE   HN216478   4.770   2.949   6.949
  150SAPE   HN316479   4.617   2.960   6.970
  150SAPE   C1216480   4.683   2.939   6.762
  150SAPE  H12A16481   4.732   3.039   6.756
  150SAPE  H12B16482   4.576   2.934   6.734
  150SAPE   C1116483   4.766   2.835   6.684
  150SAPE  H11A16484   4.873   2.856   6.705
  150SAPE  H11B16485   4.754   2.839   6.573
  150SAPE     P16486   4.809   2.572   6.668
  150SAPE   O1316487   4.920   2.533   6.753
  150SAPE   O1416488   4.709   2.459   6.659
  150SAPE   O1216489   4.739   2.703   6.722
  150SAPE   O1116490   4.873   2.617   6.523
  150SAPE    C116491   4.822   2.567   6.399
  150SAPE    HA16492   4.713   2.573   6.381
  150SAPE    HB16493   4.873   2.632   6.325
  150SAPE    C216494   4.889   2.434   6.362
  150SAPE    HS16495   4.870   2.361   6.443
  150SAPE   O2116496   5.030   2.446   6.336
  150SAPE   C2116497   5.106   2.343   6.355
  150SAPE   O2216498   5.071   2.234   6.384
  150SAPE   C2216499   5.251   2.380   6.323
  150SAPE   H2R16500   5.247   2.466   6.253
  150SAPE   H2S16501   5.295   2.411   6.421
  150SAPE    C316502   4.808   2.355   6.250
  150SAPE    HX16503   4.701   2.349   6.279
  150SAPE    HY16504   4.853   2.253   6.249
  150SAPE   O3116505   4.835   2.401   6.113
  150SAPE   C3116506   4.743   2.370   6.024
  150SAPE   O3216507   4.645   2.307   6.051
  150SAPE   C3216508   4.779   2.426   5.885
  150SAPE   H2X16509   4.890   2.433   5.886
  150SAPE   H2Y16510   4.746   2.531   5.881
  150SAPE   C2316511   5.329   2.258   6.274
  150SAPE   H3R16512   5.298   2.160   6.316
  150SAPE   H3S16513   5.433   2.266   6.313
  150SAPE   C2416514   5.350   2.239   6.128
  150SAPE   H4R16515   5.431   2.163   6.118
  150SAPE   H4S16516   5.381   2.334   6.079
  150SAPE   C2516517   5.233   2.198   6.044
  150SAPE   H5R16518   5.140   2.252   6.066
  150SAPE   C2616519   5.236   2.127   5.933
  150SAPE   H6R16520   5.138   2.108   5.885
  150SAPE   C2716521   5.356   2.050   5.890
  150SAPE   H7R16522   5.322   1.960   5.836
  150SAPE   H7S16523   5.420   2.010   5.972
  150SAPE   C2816524   5.444   2.120   5.790
  150SAPE   H8R16525   5.551   2.122   5.817
  150SAPE   C2916526   5.414   2.148   5.662
  150SAPE   H9R16527   5.482   2.200   5.593
  150SAPE  C21016528   5.278   2.131   5.609
  150SAPE  H10R16529   5.197   2.107   5.681
  150SAPE  H10S16530   5.269   2.039   5.548
  150SAPE  C21116531   5.244   2.253   5.524
  150SAPE  H11R16532   5.222   2.345   5.580
  150SAPE  C21216533   5.231   2.259   5.386
  150SAPE  H12R16534   5.211   2.359   5.344
  150SAPE  C21316535   5.256   2.145   5.297
  150SAPE  H13R16536   5.174   2.152   5.221
  150SAPE  H13S16537   5.265   2.046   5.346
  150SAPE  C21416538   5.389   2.163   5.218
  150SAPE  H14R16539   5.481   2.163   5.278
  150SAPE  C21516540   5.402   2.191   5.085
  150SAPE  H15R16541   5.502   2.182   5.040
  150SAPE  C21616542   5.295   2.206   4.980
  150SAPE  H16R16543   5.289   2.314   4.953
  150SAPE  H16S16544   5.193   2.196   5.022
  150SAPE  C21716545   5.311   2.127   4.844
  150SAPE  H17R16546   5.310   2.020   4.872
  150SAPE  H17S16547   5.410   2.149   4.799
  150SAPE  C21816548   5.184   2.138   4.750
  150SAPE  H18R16549   5.100   2.176   4.813
  150SAPE  H18S16550   5.173   2.037   4.707
  150SAPE  C21916551   5.204   2.247   4.641
  150SAPE  H19R16552   5.293   2.230   4.577
  150SAPE  H19S16553   5.216   2.342   4.696
  150SAPE  C22016554   5.086   2.248   4.545
  150SAPE  H20R16555   5.080   2.150   4.494
  150SAPE  H20S16556   5.100   2.333   4.474
  150SAPE  H20T16557   4.998   2.280   4.604
  150SAPE   C3316558   4.733   2.334   5.771
  150SAPE   H3X16559   4.632   2.301   5.803
  150SAPE   H3Y16560   4.794   2.241   5.777
  150SAPE   C3416561   4.749   2.404   5.628
  150SAPE   H4X16562   4.675   2.487   5.629
  150SAPE   H4Y16563   4.734   2.325   5.552
  150SAPE   C3516564   4.891   2.456   5.599
  150SAPE   H5X16565   4.958   2.371   5.622
  150SAPE   H5Y16566   4.907   2.538   5.672
  150SAPE   C3616567   4.911   2.507   5.453
  150SAPE   H6X16568   5.019   2.531   5.449
  150SAPE   H6Y16569   4.861   2.606   5.443
  150SAPE   C3716570   4.885   2.401   5.343
  150SAPE   H7X16571   4.778   2.376   5.328
  150SAPE   H7Y16572   4.924   2.304   5.380
  150SAPE   C3816573   4.946   2.431   5.205
  150SAPE   H8X16574   5.047   2.387   5.218
  150SAPE   H8Y16575   4.950   2.542   5.195
  150SAPE   C3916576   4.879   2.359   5.089
  150SAPE   H9X16577   4.775   2.398   5.084
  150SAPE   H9Y16578   4.884   2.252   5.118
  150SAPE  C31016579   4.955   2.382   4.958
  150SAPE  H10X16580   4.913   2.314   4.881
  150SAPE  H10Y16581   5.066   2.379   4.971
  150SAPE  C31116582   4.919   2.522   4.906
  150SAPE  H11X16583   4.944   2.603   4.979
  150SAPE  H11Y16584   4.810   2.519   4.889
  150SAPE  C31216585   4.979   2.558   4.769
  150SAPE  H12X16586   4.937   2.484   4.698
  150SAPE  H12Y16587   5.089   2.567   4.770
  150SAPE  C31316588   4.918   2.685   4.708
  150SAPE  H13X16589   4.953   2.774   4.765
  150SAPE  H13Y16590   4.807   2.676   4.716
  150SAPE  C31416591   4.952   2.707   4.557
  150SAPE  H14X16592   4.868   2.768   4.519
  150SAPE  H14Y16593   4.950   2.604   4.514
  150SAPE  C31516594   5.091   2.769   4.533
  150SAPE  H15X16595   5.131   2.749   4.431
  150SAPE  H15Y16596   5.168   2.719   4.596
  150SAPE  C31616597   5.095   2.922   4.560
  150SAPE  H16X16598   5.200   2.956   4.551
  150SAPE  H16Y16599   5.064   2.947   4.663
  150SAPE  C31716600   5.010   3.001   4.470
  150SAPE  H17X16601   4.902   2.975   4.469
  150SAPE  H17Y16602   5.055   2.976   4.372
  150SAPE  C31816603   5.022   3.151   4.492
  150SAPE  H18X16604   4.985   3.186   4.591
  150SAPE  H18Y16605   4.965   3.195   4.408
  150SAPE  H18Z16606   5.126   3.190   4.489
  151SAPE     N16607   4.022   6.359   6.699
  151SAPE   HN116608   4.123   6.357   6.722
  151SAPE   HN216609   3.980   6.444   6.742
  151SAPE   HN316610   3.981   6.270   6.735
  151SAPE   C1216611   3.995   6.378   6.552
  151SAPE  H12A16612   3.889   6.412   6.546
  151SAPE  H12B16613   4.010   6.282   6.498
  151SAPE   C1116614   4.082   6.485   6.482
  151SAPE  H11A16615   4.047   6.509   6.379
  151SAPE  H11B16616   4.185   6.443   6.475
  151SAPE     P16617   4.216   6.691   6.557
  151SAPE   O1316618   4.189   0.031   6.612
  151SAPE   O1416619   4.303   6.611   6.643
  151SAPE   O1216620   4.077   6.613   6.555
  151SAPE   O1116621   4.267   6.707   6.407
  151SAPE    C116622   4.196   6.779   6.310
  151SAPE    HA16623   4.090   6.746   6.308
  151SAPE    HB16624   4.203   0.093   6.321
  151SAPE    C216625   4.258   6.761   6.173
  151SAPE    HS16626   4.367   6.786   6.179
  151SAPE   O2116627   4.185   0.042   6.080
  151SAPE   C2116628   4.247   0.134   5.998
  151SAPE   O2216629   4.369   0.151   5.994
  151SAPE   C2216630   4.156   0.210   5.905
  151SAPE   H2R16631   4.056   0.167   5.928
  151SAPE   H2S16632   4.162   0.316   5.937
  151SAPE    C316633   4.244   6.616   6.127
  151SAPE    HX16634   4.139   6.583   6.117
  151SAPE    HY16635   4.301   6.558   6.203
  151SAPE   O3116636   4.308   6.597   5.997
  151SAPE   C3116637   4.445   6.587   5.991
  151SAPE   O3216638   4.521   6.582   6.087
  151SAPE   C3216639   4.496   6.585   5.844
  151SAPE   H2X16640   4.450   6.491   5.806
  151SAPE   H2Y16641   4.606   6.575   5.846
  151SAPE   C2316642   4.197   0.199   5.758
  151SAPE   H3R16643   4.221   0.093   5.737
  151SAPE   H3S16644   4.292   0.257   5.747
  151SAPE   C2416645   4.083   0.261   5.670
  151SAPE   H4R16646   4.095   0.366   5.705
  151SAPE   H4S16647   3.986   0.221   5.706
  151SAPE   C2516648   4.110   0.239   5.523
  151SAPE   H5R16649   4.195   0.296   5.483
  151SAPE   C2616650   4.033   0.173   5.437
  151SAPE   H6R16651   4.068   0.177   5.333
  151SAPE   C2716652   3.904   0.091   5.443
  151SAPE   H7R16653   3.884   0.051   5.545
  151SAPE   H7S16654   3.926   0.008   5.372
  151SAPE   C2816655   3.779   0.171   5.389
  151SAPE   H8R16656   3.728   0.224   5.470
  151SAPE   C2916657   3.741   0.176   5.259
  151SAPE   H9R16658   3.648   0.234   5.247
  151SAPE  C21016659   3.801   0.107   5.140
  151SAPE  H10R16660   3.823   0.001   5.165
  151SAPE  H10S16661   3.895   0.159   5.108
  151SAPE  C21116662   3.697   0.109   5.029
  151SAPE  H11R16663   3.592   0.112   5.062
  151SAPE  C21216664   3.732   0.107   4.901
  151SAPE  H12R16665   3.649   0.133   4.834
  151SAPE  C21316666   3.866   0.111   4.833
  151SAPE  H13R16667   3.869   0.026   4.761
  151SAPE  H13S16668   3.950   0.086   4.900
  151SAPE  C21416669   3.902   0.240   4.774
  151SAPE  H14R16670   3.939   0.314   4.846
  151SAPE  C21516671   3.859   0.286   4.655
  151SAPE  H15R16672   3.909   0.379   4.626
  151SAPE  C21616673   3.801   0.200   4.548
  151SAPE  H16R16674   3.777   0.093   4.566
  151SAPE  H16S16675   3.874   0.192   4.465
  151SAPE  C21716676   3.680   0.274   4.492
  151SAPE  H17R16677   3.634   0.205   4.418
  151SAPE  H17S16678   3.714   0.367   4.441
  151SAPE  C21816679   3.569   0.305   4.593
  151SAPE  H18R16680   3.599   0.392   4.657
  151SAPE  H18S16681   3.560   0.226   4.670
  151SAPE  C21916682   3.431   0.329   4.535
  151SAPE  H19R16683   3.393   0.237   4.485
  151SAPE  H19S16684   3.444   0.401   4.451
  151SAPE  C22016685   3.341   0.387   4.632
  151SAPE  H20R16686   3.237   0.395   4.595
  151SAPE  H20S16687   3.368   0.489   4.668
  151SAPE  H20T16688   3.336   0.322   4.722
  151SAPE   C3316689   4.429   6.684   5.750
  151SAPE   H3X16690   4.423   6.784   5.798
  151SAPE   H3Y16691   4.325   6.648   5.736
  151SAPE   C3416692   4.503   6.681   5.615
  151SAPE   H4X16693   4.469   6.595   5.553
  151SAPE   H4Y16694   4.613   6.671   5.620
  151SAPE   C3516695   4.483   0.018   5.539
  151SAPE   H5X16696   4.512   0.095   5.613
  151SAPE   H5Y16697   4.377   0.047   5.520
  151SAPE   C3616698   4.555   0.024   5.408
  151SAPE   H6X16699   4.664   0.035   5.425
  151SAPE   H6Y16700   4.530   0.117   5.353
  151SAPE   C3716701   4.541   6.697   5.314
  151SAPE   H7X16702   4.432   6.683   5.299
  151SAPE   H7Y16703   4.577   6.602   5.358
  151SAPE   C3816704   4.598   6.724   5.176
  151SAPE   H8X16705   4.709   6.730   5.186
  151SAPE   H8Y16706   4.569   0.029   5.141
  151SAPE   C3916707   4.556   6.613   5.078
  151SAPE   H9X16708   4.447   6.600   5.096
  151SAPE   H9Y16709   4.599   6.515   5.108
  151SAPE  C31016710   4.581   6.642   4.932
  151SAPE  H10X16711   4.689   6.667   4.919
  151SAPE  H10Y16712   4.530   6.736   4.903
  151SAPE  C31116713   4.540   6.532   4.843
  151SAPE  H11X16714   4.432   6.546   4.825
  151SAPE  H11Y16715   4.572   6.436   4.889
  151SAPE  C31216716   4.617   6.539   4.711
  151SAPE  H12X16717   4.568   6.459   4.652
  151SAPE  H12Y16718   4.722   6.507   4.729
  151SAPE  C31316719   4.616   6.678   4.653
  151SAPE  H13X16720   4.693   6.750   4.689
  151SAPE  H13Y16721   4.513   6.718   4.666
  151SAPE  C31416722   4.636   6.667   4.499
  151SAPE  H14X16723   4.600   6.757   4.444
  151SAPE  H14Y16724   4.586   6.581   4.450
  151SAPE  C31516725   4.785   6.671   4.472
  151SAPE  H15X16726   4.828   6.587   4.530
  151SAPE  H15Y16727   4.825   6.770   4.504
  151SAPE  C31616728   4.819   6.649   4.327
  151SAPE  H16X16729   4.745   6.697   4.260
  151SAPE  H16Y16730   4.810   6.539   4.317
  151SAPE  C31716731   4.958   6.708   4.293
  151SAPE  H17X16732   4.954   0.018   4.326
  151SAPE  H17Y16733   4.977   6.706   4.184
  151SAPE  C31816734   5.076   6.639   4.354
  151SAPE  H18X16735   5.149   6.710   4.397
  151SAPE  H18Y16736   5.128   6.586   4.271
  151SAPE  H18Z16737   5.046   6.568   4.434
  152SAPE     N16738   0.149   1.180   6.356
  152SAPE   HN116739   0.220   1.248   6.391
  152SAPE   HN216740   0.170   1.079   6.359
  152SAPE   HN316741   0.132   1.201   6.255
  152SAPE   C1216742   0.022   1.199   6.434
  152SAPE  H12A16743   0.042   1.157   6.534
  152SAPE  H12B16744   6.738   1.143   6.380
  152SAPE   C1116745   6.782   1.351   6.447
  152SAPE  H11A16746   6.788   1.395   6.346
  152SAPE  H11B16747   0.047   1.402   6.524
  152SAPE     P16748   6.563   1.485   6.547
  152SAPE   O1316749   6.418   1.450   6.549
  152SAPE   O1416750   6.628   1.523   6.676
  152SAPE   O1216751   6.648   1.355   6.491
  152SAPE   O1116752   6.603   1.590   6.438
  152SAPE    C116753   6.499   1.645   6.353
  152SAPE    HA16754   6.413   1.687   6.410
  152SAPE    HB16755   6.559   1.722   6.299
  152SAPE    C216756   6.454   1.555   6.238
  152SAPE    HS16757   6.410   1.465   6.287
  152SAPE   O2116758   6.556   1.507   6.150
  152SAPE   C2116759   6.528   1.415   6.062
  152SAPE   O2216760   6.441   1.329   6.079
  152SAPE   C2216761   6.619   1.440   5.937
  152SAPE   H2R16762   6.575   1.535   5.902
  152SAPE   H2S16763   6.725   1.455   5.965
  152SAPE    C316764   6.345   1.617   6.147
  152SAPE    HX16765   6.265   1.668   6.205
  152SAPE    HY16766   6.296   1.536   6.089
  152SAPE   O3116767   6.407   1.714   6.049
  152SAPE   C3116768   6.346   1.837   6.030
  152SAPE   O3216769   6.242   1.871   6.082
  152SAPE   C3216770   6.435   1.927   5.940
  152SAPE   H2X16771   6.533   1.926   5.992
  152SAPE   H2Y16772   6.389   2.028   5.947
  152SAPE   C2316773   6.600   1.336   5.833
  152SAPE   H3R16774   6.492   1.336   5.806
  152SAPE   H3S16775   6.631   1.234   5.866
  152SAPE   C2416776   6.666   1.373   5.699
  152SAPE   H4R16777   6.776   1.377   5.715
  152SAPE   H4S16778   6.640   1.480   5.686
  152SAPE   C2516779   6.640   1.287   5.583
  152SAPE   H5R16780   6.644   1.178   5.598
  152SAPE   C2616781   6.601   1.329   5.458
  152SAPE   H6R16782   6.575   1.253   5.382
  152SAPE   C2716783   6.575   1.468   5.404
  152SAPE   H7R16784   6.574   1.535   5.493
  152SAPE   H7S16785   6.472   1.466   5.364
  152SAPE   C2816786   6.684   1.501   5.305
  152SAPE   H8R16787   6.788   1.477   5.332
  152SAPE   C2916788   6.663   1.564   5.189
  152SAPE   H9R16789   6.749   1.575   5.122
  152SAPE  C21016790   6.529   1.600   5.133
  152SAPE  H10R16791   6.472   1.648   5.215
  152SAPE  H10S16792   6.472   1.507   5.111
  152SAPE  C21116793   6.520   1.704   5.025
  152SAPE  H11R16794   6.513   1.809   5.058
  152SAPE  C21216795   6.512   1.682   4.890
  152SAPE  H12R16796   6.512   1.764   4.816
  152SAPE  C21316797   6.500   1.547   4.821
  152SAPE  H13R16798   6.429   1.487   4.883
  152SAPE  H13S16799   6.598   1.495   4.820
  152SAPE  C21416800   6.451   1.552   4.681
  152SAPE  H14R16801   6.344   1.530   4.671
  152SAPE  C21516802   6.520   1.595   4.576
  152SAPE  H15R16803   6.471   1.594   4.478
  152SAPE  C21616804   6.656   1.668   4.572
  152SAPE  H16R16805   6.724   1.628   4.494
  152SAPE  H16S16806   6.705   1.640   4.668
  152SAPE  C21716807   6.644   1.814   4.560
  152SAPE  H17R16808   6.744   1.861   4.575
  152SAPE  H17S16809   6.581   1.853   4.643
  152SAPE  C21816810   6.592   1.859   4.422
  152SAPE  H18R16811   6.481   1.850   4.427
  152SAPE  H18S16812   6.619   1.788   4.341
  152SAPE  C21916813   6.623   2.002   4.379
  152SAPE  H19R16814   6.733   2.008   4.359
  152SAPE  H19S16815   6.598   2.067   4.465
  152SAPE  C22016816   6.545   2.055   4.266
  152SAPE  H20R16817   6.564   2.002   4.171
  152SAPE  H20S16818   6.562   2.164   4.258
  152SAPE  H20T16819   6.436   2.044   4.288
  152SAPE   C3316820   6.419   1.875   5.798
  152SAPE   H3X16821   6.313   1.894   5.771
  152SAPE   H3Y16822   6.446   1.768   5.792
  152SAPE   C3416823   6.499   1.942   5.681
  152SAPE   H4X16824   6.603   1.905   5.689
  152SAPE   H4Y16825   6.490   2.050   5.707
  152SAPE   C3516826   6.424   1.926   5.549
  152SAPE   H5X16827   6.322   1.961   5.575
  152SAPE   H5Y16828   6.423   1.822   5.509
  152SAPE   C3616829   6.480   2.017   5.436
  152SAPE   H6X16830   6.590   2.003   5.427
  152SAPE   H6Y16831   6.451   2.123   5.454
  152SAPE   C3716832   6.436   1.984   5.295
  152SAPE   H7X16833   6.325   1.983   5.302
  152SAPE   H7Y16834   6.466   1.885   5.256
  152SAPE   C3816835   6.497   2.084   5.190
  152SAPE   H8X16836   6.486   2.191   5.217
  152SAPE   H8Y16837   6.445   2.067   5.092
  152SAPE   C3916838   6.651   2.066   5.153
  152SAPE   H9X16839   6.681   1.960   5.137
  152SAPE   H9Y16840   6.712   2.117   5.229
  152SAPE  C31016841   6.668   2.142   5.015
  152SAPE  H10X16842   6.668   2.249   5.041
  152SAPE  H10Y16843   6.592   2.117   4.938
  152SAPE  C31116844   0.014   2.113   4.966
  152SAPE  H11X16845   0.034   2.007   4.936
  152SAPE  H11Y16846   0.074   2.127   5.058
  152SAPE  C31216847   0.057   2.211   4.862
  152SAPE  H12X16848   0.006   2.309   4.875
  152SAPE  H12Y16849   0.029   2.179   4.759
  152SAPE  C31316850   0.212   2.231   4.853
  152SAPE  H13X16851   0.256   2.130   4.844
  152SAPE  H13Y16852   0.246   2.274   4.949
  152SAPE  C31416853   0.266   2.329   4.745
  152SAPE  H14X16854   0.376   2.314   4.739
  152SAPE  H14Y16855   0.263   2.429   4.793
  152SAPE  C31516856   0.204   2.320   4.604
  152SAPE  H15X16857   0.096   2.344   4.612
  152SAPE  H15Y16858   0.221   2.219   4.562
  152SAPE  C31616859   0.262   2.429   4.506
  152SAPE  H16X16860   0.229   2.403   4.403
  152SAPE  H16Y16861   0.371   2.412   4.513
  152SAPE  C31716862   0.214   2.567   4.544
  152SAPE  H17X16863   0.245   2.583   4.649
  152SAPE  H17Y16864   0.104   2.576   4.531
  152SAPE  C31816865   0.281   2.665   4.445
  152SAPE  H18X16866   0.246   2.641   4.342
  152SAPE  H18Y16867   0.390   2.645   4.452
  152SAPE  H18Z16868   0.268   2.774   4.463
  153SAPE     N16869   6.169   1.357   6.498
  153SAPE   HN116870   6.260   1.404   6.517
  153SAPE   HN216871   6.108   1.432   6.460
  153SAPE   HN316872   6.138   1.336   6.595
  153SAPE   C1216873   6.176   1.224   6.428
  153SAPE  H12A16874   6.216   1.236   6.325
  153SAPE  H12B16875   6.075   1.182   6.447
  153SAPE   C1116876   6.261   1.121   6.508
  153SAPE  H11A16877   6.368   1.148   6.503
  153SAPE  H11B16878   6.260   1.022   6.460
  153SAPE     P16879   6.124   0.993   6.701
  153SAPE   O1316880   6.183   0.923   6.816
  153SAPE   O1416881   5.992   1.065   6.728
  153SAPE   O1216882   6.221   1.103   6.641
  153SAPE   O1116883   6.089   0.893   6.585
  153SAPE    C116884   6.036   0.766   6.638
  153SAPE    HA16885   6.118   0.709   6.688
  153SAPE    HB16886   5.944   0.771   6.701
  153SAPE    C216887   5.981   0.670   6.524
  153SAPE    HS16888   6.073   0.623   6.483
  153SAPE   O2116889   5.906   0.747   6.419
  153SAPE   C2116890   5.977   0.793   6.315
  153SAPE   O2216891   6.094   0.766   6.290
  153SAPE   C2216892   5.894   0.872   6.224
  153SAPE   H2R16893   5.791   0.882   6.264
  153SAPE   H2S16894   5.922   0.977   6.200
  153SAPE    C316895   5.890   0.555   6.583
  153SAPE    HX16896   5.796   0.602   6.617
  153SAPE    HY16897   5.924   0.492   6.669
  153SAPE   O3116898   5.855   0.463   6.476
  153SAPE   C3116899   5.946   0.380   6.439
  153SAPE   O3216900   6.059   0.367   6.486
  153SAPE   C3216901   5.892   0.307   6.311
  153SAPE   H2X16902   5.789   0.269   6.328
  153SAPE   H2Y16903   5.954   0.223   6.272
  153SAPE   C2316904   5.883   0.802   6.086
  153SAPE   H3R16905   5.857   0.697   6.112
  153SAPE   H3S16906   5.985   0.792   6.042
  153SAPE   C2416907   5.774   0.847   5.984
  153SAPE   H4R16908   5.758   0.762   5.915
  153SAPE   H4S16909   5.803   0.938   5.926
  153SAPE   C2516910   5.643   0.878   6.052
  153SAPE   H5R16911   5.595   0.789   6.094
  153SAPE   C2616912   5.591   0.996   6.078
  153SAPE   H6R16913   5.490   0.999   6.121
  153SAPE   C2716914   5.643   1.127   6.043
  153SAPE   H7R16915   5.690   1.125   5.943
  153SAPE   H7S16916   5.723   1.161   6.112
  153SAPE   C2816917   5.539   1.230   6.057
  153SAPE   H8R16918   5.490   1.233   6.155
  153SAPE   C2916919   5.502   1.326   5.974
  153SAPE   H9R16920   5.413   1.388   5.992
  153SAPE  C21016921   5.557   1.348   5.836
  153SAPE  H10R16922   5.613   1.259   5.800
  153SAPE  H10S16923   5.634   1.425   5.855
  153SAPE  C21116924   5.465   1.390   5.722
  153SAPE  H11R16925   5.380   1.321   5.711
  153SAPE  C21216926   5.463   1.497   5.639
  153SAPE  H12R16927   5.385   1.493   5.561
  153SAPE  C21316928   5.554   1.625   5.654
  153SAPE  H13R16929   5.648   1.592   5.604
  153SAPE  H13S16930   5.568   1.649   5.761
  153SAPE  C21416931   5.494   1.755   5.596
  153SAPE  H14R16932   5.440   1.826   5.660
  153SAPE  C21516933   5.505   1.793   5.473
  153SAPE  H15R16934   5.469   1.896   5.455
  153SAPE  C21616935   5.578   1.713   5.370
  153SAPE  H16R16936   5.585   1.603   5.383
  153SAPE  H16S16937   5.682   1.752   5.366
  153SAPE  C21716938   5.526   1.742   5.219
  153SAPE  H17R16939   5.514   1.852   5.207
  153SAPE  H17S16940   5.422   1.704   5.205
  153SAPE  C21816941   5.621   1.680   5.116
  153SAPE  H18R16942   5.612   1.570   5.131
  153SAPE  H18S16943   5.724   1.714   5.138
  153SAPE  C21916944   5.585   1.712   4.969
  153SAPE  H19R16945   5.643   1.648   4.900
  153SAPE  H19S16946   5.618   1.815   4.944
  153SAPE  C22016947   5.436   1.701   4.934
  153SAPE  H20R16948   5.411   1.710   4.826
  153SAPE  H20S16949   5.374   1.778   4.985
  153SAPE  H20T16950   5.395   1.601   4.962
  153SAPE   C3316951   5.883   0.407   6.197
  153SAPE   H3X16952   5.980   0.459   6.176
  153SAPE   H3Y16953   5.813   0.487   6.231
  153SAPE   C3416954   5.826   0.344   6.063
  153SAPE   H4X16955   5.740   0.276   6.084
  153SAPE   H4Y16956   5.895   0.280   6.004
  153SAPE   C3516957   5.776   0.442   5.958
  153SAPE   H5X16958   5.860   0.503   5.918
  153SAPE   H5Y16959   5.709   0.515   6.009
  153SAPE   C3616960   5.701   0.373   5.840
  153SAPE   H6X16961   5.610   0.318   5.872
  153SAPE   H6Y16962   5.777   0.300   5.805
  153SAPE   C3716963   5.660   0.475   5.734
  153SAPE   H7X16964   5.751   0.537   5.718
  153SAPE   H7Y16965   5.583   0.547   5.771
  153SAPE   C3816966   5.617   0.404   5.605
  153SAPE   H8X16967   5.535   0.331   5.621
  153SAPE   H8Y16968   5.705   0.348   5.565
  153SAPE   C3916969   5.565   0.488   5.488
  153SAPE   H9X16970   5.644   0.553   5.444
  153SAPE   H9Y16971   5.498   0.563   5.537
  153SAPE  C31016972   5.494   0.411   5.381
  153SAPE  H10X16973   5.455   0.316   5.424
  153SAPE  H10Y16974   5.569   0.382   5.303
  153SAPE  C31116975   5.366   0.471   5.318
  153SAPE  H11X16976   5.328   0.386   5.257
  153SAPE  H11Y16977   5.392   0.555   5.249
  153SAPE  C31216978   5.262   0.519   5.428
  153SAPE  H12X16979   5.317   0.592   5.491
  153SAPE  H12Y16980   5.228   0.428   5.482
  153SAPE  C31316981   5.138   0.591   5.374
  153SAPE  H13X16982   5.071   0.620   5.457
  153SAPE  H13Y16983   5.090   0.516   5.307
  153SAPE  C31416984   5.169   0.722   5.290
  153SAPE  H14X16985   5.240   0.695   5.210
  153SAPE  H14Y16986   5.224   0.791   5.358
  153SAPE  C31516987   5.055   0.809   5.225
  153SAPE  H15X16988   4.968   0.821   5.293
  153SAPE  H15Y16989   5.013   0.751   5.141
  153SAPE  C31616990   5.108   0.946   5.185
  153SAPE  H16X16991   5.203   0.941   5.128
  153SAPE  H16Y16992   5.129   0.996   5.281
  153SAPE  C31716993   5.005   1.024   5.095
  153SAPE  H17X16994   4.976   1.121   5.139
  153SAPE  H17Y16995   4.910   0.966   5.090
  153SAPE  C31816996   5.057   1.051   4.955
  153SAPE  H18X16997   5.074   0.946   4.921
  153SAPE  H18Y16998   5.154   1.100   4.979
  153SAPE  H18Z16999   4.986   1.108   4.892
  154SAPE     N17000   3.751   0.858   6.726
  154SAPE   HN117001   3.822   0.923   6.765
  154SAPE   HN217002   3.702   0.911   6.651
  154SAPE   HN317003   3.673   0.850   6.795
  154SAPE   C1217004   3.808   0.723   6.701
  154SAPE  H12A17005   3.794   0.674   6.799
  154SAPE  H12B17006   3.916   0.740   6.685
  154SAPE   C1117007   3.742   0.651   6.583
  154SAPE  H11A17008   3.765   0.546   6.611
  154SAPE  H11B17009   3.797   0.682   6.491
  154SAPE     P17010   3.498   0.565   6.526
  154SAPE   O1317011   3.562   0.432   6.545
  154SAPE   O1417012   3.372   0.586   6.595
  154SAPE   O1217013   3.602   0.677   6.566
  154SAPE   O1117014   3.480   0.589   6.382
  154SAPE    C117015   3.427   0.710   6.320
  154SAPE    HA17016   3.462   0.799   6.376
  154SAPE    HB17017   3.462   0.724   6.215
  154SAPE    C217018   3.274   0.720   6.309
  154SAPE    HS17019   3.224   0.721   6.408
  154SAPE   O2117020   3.221   0.615   6.220
  154SAPE   C2117021   3.198   0.502   6.281
  154SAPE   O2217022   3.182   0.477   6.399
  154SAPE   C2217023   3.197   0.390   6.170
  154SAPE   H2R17024   3.101   0.339   6.188
  154SAPE   H2S17025   3.197   0.437   6.069
  154SAPE    C317026   3.234   0.857   6.248
  154SAPE    HX17027   3.272   0.926   6.326
  154SAPE    HY17028   3.126   0.880   6.243
  154SAPE   O3117029   3.302   0.870   6.120
  154SAPE   C3117030   3.219   0.828   6.023
  154SAPE   O3217031   3.100   0.804   6.035
  154SAPE   C3217032   3.306   0.833   5.891
  154SAPE   H2X17033   3.388   0.759   5.902
  154SAPE   H2Y17034   3.344   0.937   5.894
  154SAPE   C2317035   3.318   0.294   6.178
  154SAPE   H3R17036   3.334   0.251   6.280
  154SAPE   H3S17037   3.414   0.349   6.175
  154SAPE   C2417038   3.316   0.181   6.071
  154SAPE   H4R17039   3.264   0.224   5.982
  154SAPE   H4S17040   3.257   0.094   6.108
  154SAPE   C2517041   3.455   0.139   6.051
  154SAPE   H5R17042   3.523   0.170   6.132
  154SAPE   C2617043   3.523   0.107   5.937
  154SAPE   H6R17044   3.631   0.090   5.948
  154SAPE   C2717045   3.466   0.094   5.800
  154SAPE   H7R17046   3.428   0.192   5.765
  154SAPE   H7S17047   3.378   0.026   5.802
  154SAPE   C2817048   3.565   0.044   5.694
  154SAPE   H8R17049   3.668   0.047   5.734
  154SAPE   C2917050   3.535   0.026   5.566
  154SAPE   H9R17051   3.607   6.767   5.503
  154SAPE  C21017052   3.402   0.042   5.498
  154SAPE  H10R17053   3.363   0.132   5.551
  154SAPE  H10S17054   3.340   6.753   5.534
  154SAPE  C21117055   3.411   0.055   5.345
  154SAPE  H11R17056   3.406   0.161   5.317
  154SAPE  C21217057   3.449   6.759   5.246
  154SAPE  H12R17058   3.450   6.788   5.140
  154SAPE  C21317059   3.446   6.610   5.272
  154SAPE  H13R17060   3.349   6.567   5.237
  154SAPE  H13S17061   3.443   6.593   5.381
  154SAPE  C21417062   3.572   6.545   5.225
  154SAPE  H14R17063   3.668   6.574   5.268
  154SAPE  C21517064   3.572   6.444   5.138
  154SAPE  H15R17065   3.671   6.398   5.126
  154SAPE  C21617066   3.453   6.385   5.063
  154SAPE  H16R17067   3.385   6.470   5.041
  154SAPE  H16S17068   3.402   6.315   5.132
  154SAPE  C21717069   3.507   6.317   4.934
  154SAPE  H17R17070   3.424   6.281   4.869
  154SAPE  H17S17071   3.558   6.220   4.955
  154SAPE  C21817072   3.589   6.414   4.843
  154SAPE  H18R17073   3.657   6.480   4.902
  154SAPE  H18S17074   3.520   6.483   4.790
  154SAPE  C21917075   3.658   6.345   4.733
  154SAPE  H19R17076   3.581   6.297   4.669
  154SAPE  H19S17077   3.726   6.271   4.781
  154SAPE  C22017078   3.733   6.440   4.651
  154SAPE  H20R17079   3.673   6.496   4.576
  154SAPE  H20S17080   3.810   6.388   4.590
  154SAPE  H20T17081   3.779   6.522   4.710
  154SAPE   C3317082   3.230   0.821   5.754
  154SAPE   H3X17083   3.129   0.867   5.768
  154SAPE   H3Y17084   3.208   0.714   5.735
  154SAPE   C3417085   3.299   0.885   5.640
  154SAPE   H4X17086   3.406   0.854   5.639
  154SAPE   H4Y17087   3.293   0.995   5.651
  154SAPE   C3517088   3.230   0.844   5.513
  154SAPE   H5X17089   3.121   0.854   5.527
  154SAPE   H5Y17090   3.227   0.736   5.486
  154SAPE   C3617091   3.287   0.927   5.394
  154SAPE   H6X17092   3.396   0.931   5.416
  154SAPE   H6Y17093   3.249   1.032   5.389
  154SAPE   C3717094   3.273   0.861   5.253
  154SAPE   H7X17095   3.172   0.881   5.210
  154SAPE   H7Y17096   3.288   0.751   5.262
  154SAPE   C3817097   3.372   0.920   5.154
  154SAPE   H8X17098   3.473   0.921   5.200
  154SAPE   H8Y17099   3.339   1.024   5.136
  154SAPE   C3917100   3.373   0.843   5.016
  154SAPE   H9X17101   3.271   0.867   4.979
  154SAPE   H9Y17102   3.382   0.734   5.037
  154SAPE  C31017103   3.480   0.888   4.916
  154SAPE  H10X17104   3.577   0.857   4.960
  154SAPE  H10Y17105   3.481   0.999   4.912
  154SAPE  C31117106   3.468   0.816   4.784
  154SAPE  H11X17107   3.384   0.839   4.715
  154SAPE  H11Y17108   3.477   0.707   4.805
  154SAPE  C31217109   3.585   0.850   4.687
  154SAPE  H12X17110   3.678   0.833   4.746
  154SAPE  H12Y17111   3.585   0.958   4.663
  154SAPE  C31317112   3.592   0.767   4.555
  154SAPE  H13X17113   3.497   0.773   4.499
  154SAPE  H13Y17114   3.595   0.661   4.587
  154SAPE  C31417115   3.704   0.820   4.465
  154SAPE  H14X17116   3.796   0.838   4.524
  154SAPE  H14Y17117   3.682   0.914   4.410
  154SAPE  C31517118   3.724   0.710   4.354
  154SAPE  H15X17119   3.622   0.688   4.316
  154SAPE  H15Y17120   3.766   0.612   4.388
  154SAPE  C31617121   3.817   0.774   4.243
  154SAPE  H16X17122   3.919   0.791   4.285
  154SAPE  H16Y17123   3.772   0.873   4.217
  154SAPE  C31717124   3.845   0.686   4.127
  154SAPE  H17X17125   3.755   0.645   4.076
  154SAPE  H17Y17126   3.902   0.602   4.173
  154SAPE  C31817127   3.922   0.752   4.019
  154SAPE  H18X17128   4.012   0.801   4.064
  154SAPE  H18Y17129   3.864   0.835   3.974
  154SAPE  H18Z17130   3.945   0.680   3.937
  155SAPE     N17131   5.139   5.966   6.735
  155SAPE   HN117132   5.106   5.970   6.636
  155SAPE   HN217133   5.114   5.877   6.781
  155SAPE   HN317134   5.085   6.042   6.782
  155SAPE   C1217135   5.284   5.996   6.746
  155SAPE  H12A17136   5.302   6.105   6.743
  155SAPE  H12B17137   5.328   5.938   6.662
  155SAPE   C1117138   5.345   5.952   6.882
  155SAPE  H11A17139   5.283   6.007   6.957
  155SAPE  H11B17140   5.450   5.984   6.893
  155SAPE     P17141   5.444   5.701   6.913
  155SAPE   O1317142   5.581   5.751   6.932
  155SAPE   O1417143   5.386   5.600   7.004
  155SAPE   O1217144   5.333   5.815   6.918
  155SAPE   O1117145   5.435   5.654   6.763
  155SAPE    C117146   5.319   5.606   6.705
  155SAPE    HA17147   5.294   5.503   6.741
  155SAPE    HB17148   5.232   5.663   6.744
  155SAPE    C217149   5.326   5.606   6.552
  155SAPE    HS17150   5.405   5.528   6.539
  155SAPE   O2117151   5.362   5.734   6.501
  155SAPE   C2117152   5.465   5.721   6.410
  155SAPE   O2217153   5.513   5.609   6.375
  155SAPE   C2217154   5.531   5.859   6.390
  155SAPE   H2R17155   5.537   5.909   6.489
  155SAPE   H2S17156   5.629   5.836   6.342
  155SAPE    C317157   5.200   5.548   6.489
  155SAPE    HX17158   5.121   5.622   6.512
  155SAPE    HY17159   5.185   5.454   6.547
  155SAPE   O3117160   5.209   5.546   6.347
  155SAPE   C3117161   5.240   5.438   6.296
  155SAPE   O3217162   5.237   5.329   6.356
  155SAPE   C3217163   5.308   5.464   6.160
  155SAPE   H2X17164   5.418   5.479   6.167
  155SAPE   H2Y17165   5.269   5.554   6.109
  155SAPE   C2317166   5.452   5.959   6.299
  155SAPE   H3R17167   5.506   6.053   6.324
  155SAPE   H3S17168   5.348   5.978   6.333
  155SAPE   C2417169   5.463   5.924   6.153
  155SAPE   H4R17170   5.409   5.829   6.133
  155SAPE   H4S17171   5.569   5.899   6.131
  155SAPE   C2517172   5.408   6.040   6.076
  155SAPE   H5R17173   5.425   6.131   6.135
  155SAPE   C2617174   5.331   6.036   5.967
  155SAPE   H6R17175   5.286   6.129   5.930
  155SAPE   C2717176   5.298   5.911   5.886
  155SAPE   H7R17177   5.306   5.818   5.947
  155SAPE   H7S17178   5.364   5.910   5.796
  155SAPE   C2817179   5.154   5.918   5.831
  155SAPE   H8R17180   5.078   5.919   5.910
  155SAPE   C2917181   5.114   5.930   5.707
  155SAPE   H9R17182   5.005   5.929   5.698
  155SAPE  C21017183   5.197   5.948   5.580
  155SAPE  H10R17184   5.165   5.903   5.483
  155SAPE  H10S17185   5.295   5.902   5.604
  155SAPE  C21117186   5.233   6.089   5.537
  155SAPE  H11R17187   5.211   6.167   5.610
  155SAPE  C21217188   5.287   6.110   5.415
  155SAPE  H12R17189   5.308   6.212   5.381
  155SAPE  C21317190   5.340   6.010   5.317
  155SAPE  H13R17191   5.352   5.909   5.359
  155SAPE  H13S17192   5.441   6.049   5.293
  155SAPE  C21417193   5.251   6.011   5.190
  155SAPE  H14R17194   5.148   5.979   5.209
  155SAPE  C21517195   5.287   6.045   5.063
  155SAPE  H15R17196   5.213   6.046   4.982
  155SAPE  C21617197   5.427   6.086   5.025
  155SAPE  H16R17198   5.431   6.060   4.917
  155SAPE  H16S17199   5.500   6.013   5.065
  155SAPE  C21717200   5.455   6.232   5.041
  155SAPE  H17R17201   5.470   6.246   5.151
  155SAPE  H17S17202   5.373   6.299   5.009
  155SAPE  C21817203   5.580   6.277   4.963
  155SAPE  H18R17204   5.667   6.218   4.996
  155SAPE  H18S17205   5.603   6.380   4.999
  155SAPE  C21917206   5.565   6.277   4.811
  155SAPE  H19R17207   5.518   6.181   4.782
  155SAPE  H19S17208   5.663   6.294   4.761
  155SAPE  C22017209   5.482   6.397   4.763
  155SAPE  H20R17210   5.490   6.398   4.653
  155SAPE  H20S17211   5.513   6.495   4.804
  155SAPE  H20T17212   5.376   6.377   4.790
  155SAPE   C3317213   5.269   5.353   6.056
  155SAPE   H3X17214   5.163   5.363   6.027
  155SAPE   H3Y17215   5.279   5.255   6.108
  155SAPE   C3417216   5.368   5.347   5.935
  155SAPE   H4X17217   5.357   5.255   5.874
  155SAPE   H4Y17218   5.472   5.326   5.967
  155SAPE   C3517219   5.373   5.480   5.857
  155SAPE   H5X17220   5.461   5.467   5.790
  155SAPE   H5Y17221   5.386   5.571   5.919
  155SAPE   C3617222   5.234   5.507   5.785
  155SAPE   H6X17223   5.243   5.604   5.732
  155SAPE   H6Y17224   5.163   5.504   5.871
  155SAPE   C3717225   5.187   5.405   5.688
  155SAPE   H7X17226   5.175   5.312   5.749
  155SAPE   H7Y17227   5.270   5.370   5.623
  155SAPE   C3817228   5.062   5.448   5.601
  155SAPE   H8X17229   4.983   5.482   5.671
  155SAPE   H8Y17230   5.028   5.357   5.548
  155SAPE   C3917231   5.094   5.557   5.503
  155SAPE   H9X17232   5.118   5.653   5.554
  155SAPE   H9Y17233   5.003   5.566   5.439
  155SAPE  C31017234   5.203   5.533   5.406
  155SAPE  H10X17235   5.190   5.431   5.364
  155SAPE  H10Y17236   5.297   5.548   5.462
  155SAPE  C31117237   5.200   5.632   5.292
  155SAPE  H11X17238   5.198   5.736   5.331
  155SAPE  H11Y17239   5.113   5.628   5.222
  155SAPE  C31217240   5.318   5.626   5.201
  155SAPE  H12X17241   5.406   5.680   5.242
  155SAPE  H12Y17242   5.298   5.676   5.103
  155SAPE  C31317243   5.356   5.481   5.159
  155SAPE  H13X17244   5.267   5.431   5.115
  155SAPE  H13Y17245   5.396   5.421   5.244
  155SAPE  C31417246   5.464   5.489   5.052
  155SAPE  H14X17247   5.557   5.541   5.083
  155SAPE  H14Y17248   5.427   5.531   4.956
  155SAPE  C31517249   5.508   5.348   5.003
  155SAPE  H15X17250   5.421   5.285   4.977
  155SAPE  H15Y17251   5.549   5.302   5.095
  155SAPE  C31617252   5.617   5.344   4.897
  155SAPE  H16X17253   5.579   5.380   4.799
  155SAPE  H16Y17254   5.650   5.240   4.874
  155SAPE  C31717255   5.742   5.431   4.918
  155SAPE  H17X17256   5.794   5.413   5.014
  155SAPE  H17Y17257   5.696   5.531   4.931
  155SAPE  C31817258   5.855   5.426   4.813
  155SAPE  H18X17259   5.898   5.325   4.796
  155SAPE  H18Y17260   5.933   5.502   4.833
  155SAPE  H18Z17261   5.790   5.448   4.726
  156SAPE     N17262   0.372   0.093   6.618
  156SAPE   HN117263   0.447   0.033   6.578
  156SAPE   HN217264   0.346   0.158   6.541
  156SAPE   HN317265   0.415   0.159   6.685
  156SAPE   C1217266   0.247   0.008   6.653
  156SAPE  H12A17267   0.281   6.700   6.669
  156SAPE  H12B17268   0.188   0.004   6.559
  156SAPE   C1117269   0.178   0.068   6.779
  156SAPE  H11A17270   0.259   0.073   6.855
  156SAPE  H11B17271   0.100   0.001   6.821
  156SAPE     P17272   0.034   0.265   6.865
  156SAPE   O1317273   6.758   0.168   6.945
  156SAPE   O1417274   0.104   0.378   6.941
  156SAPE   O1217275   0.129   0.198   6.757
  156SAPE   O1117276   6.718   0.329   6.773
  156SAPE    C117277   6.742   0.405   6.656
  156SAPE    HA17278   6.661   0.481   6.646
  156SAPE    HB17279   0.035   0.466   6.681
  156SAPE    C217280   6.749   0.307   6.534
  156SAPE    HS17281   0.051   0.254   6.528
  156SAPE   O2117282   6.741   0.381   6.411
  156SAPE   C2117283   0.055   0.449   6.382
  156SAPE   O2217284   0.159   0.442   6.435
  156SAPE   C2217285   0.028   0.552   6.265
  156SAPE   H2R17286   6.716   0.558   6.240
  156SAPE   H2S17287   0.060   0.649   6.308
  156SAPE    C317288   6.631   0.204   6.530
  156SAPE    HX17289   6.539   0.264   6.544
  156SAPE    HY17290   6.652   0.136   6.615
  156SAPE   O3117291   6.629   0.126   6.407
  156SAPE   C3117292   6.580   6.795   6.406
  156SAPE   O3217293   6.538   6.740   6.505
  156SAPE   C3217294   6.597   6.735   6.266
  156SAPE   H2X17295   6.523   6.652   6.261
  156SAPE   H2Y17296   6.701   6.698   6.265
  156SAPE   C2317297   0.110   0.511   6.144
  156SAPE   H3R17298   0.083   0.410   6.109
  156SAPE   H3S17299   0.218   0.519   6.170
  156SAPE   C2417300   0.073   0.599   6.021
  156SAPE   H4R17301   0.138   0.562   5.939
  156SAPE   H4S17302   0.103   0.702   6.049
  156SAPE   C2517303   6.721   0.609   5.982
  156SAPE   H5R17304   6.669   0.697   6.022
  156SAPE   C2617305   6.656   0.528   5.895
  156SAPE   H6R17306   6.547   0.546   5.891
  156SAPE   C2717307   6.706   0.403   5.826
  156SAPE   H7R17308   6.625   0.327   5.819
  156SAPE   H7S17309   6.778   0.344   5.887
  156SAPE   C2817310   6.762   0.440   5.693
  156SAPE   H8R17311   0.073   0.460   5.699
  156SAPE   C2917312   6.683   0.452   5.586
  156SAPE   H9R17313   6.720   0.475   5.485
  156SAPE  C21017314   6.537   0.416   5.575
  156SAPE  H10R17315   6.496   0.382   5.673
  156SAPE  H10S17316   6.521   0.344   5.492
  156SAPE  C21117317   6.479   0.548   5.526
  156SAPE  H11R17318   6.465   0.621   5.607
  156SAPE  C21217319   6.434   0.580   5.401
  156SAPE  H12R17320   6.408   0.686   5.386
  156SAPE  C21317321   6.436   0.498   5.277
  156SAPE  H13R17322   6.348   0.538   5.223
  156SAPE  H13S17323   6.401   0.395   5.297
  156SAPE  C21417324   6.572   0.486   5.198
  156SAPE  H14R17325   6.649   0.435   5.258
  156SAPE  C21517326   6.597   0.547   5.084
  156SAPE  H15R17327   6.689   0.520   5.031
  156SAPE  C21617328   6.508   0.631   5.008
  156SAPE  H16R17329   6.538   0.737   5.027
  156SAPE  H16S17330   6.400   0.623   5.035
  156SAPE  C21717331   6.518   0.613   4.854
  156SAPE  H17R17332   6.616   0.652   4.818
  156SAPE  H17S17333   6.439   0.681   4.815
  156SAPE  C21817334   6.501   0.476   4.794
  156SAPE  H18R17335   6.416   0.419   4.838
  156SAPE  H18S17336   6.594   0.419   4.814
  156SAPE  C21917337   6.470   0.498   4.641
  156SAPE  H19R17338   6.550   0.545   4.579
  156SAPE  H19S17339   6.384   0.569   4.637
  156SAPE  C22017340   6.438   0.369   4.567
  156SAPE  H20R17341   6.458   0.390   4.460
  156SAPE  H20S17342   6.332   0.340   4.580
  156SAPE  H20T17343   6.510   0.288   4.593
  156SAPE   C3317344   6.579   0.033   6.144
  156SAPE   H3X17345   6.664   0.102   6.161
  156SAPE   H3Y17346   6.483   0.088   6.139
  156SAPE   C3417347   6.601   6.746   6.015
  156SAPE   H4X17348   6.542   6.651   6.018
  156SAPE   H4Y17349   6.705   6.706   6.011
  156SAPE   C3517350   6.577   0.038   5.891
  156SAPE   H5X17351   6.656   0.116   5.894
  156SAPE   H5Y17352   6.484   0.098   5.891
  156SAPE   C3617353   6.585   6.761   5.753
  156SAPE   H6X17354   6.491   6.710   5.723
  156SAPE   H6Y17355   6.661   6.680   5.762
  156SAPE   C3717356   6.637   0.050   5.639
  156SAPE   H7X17357   6.737   0.091   5.665
  156SAPE   H7Y17358   6.567   0.135   5.623
  156SAPE   C3817359   6.624   6.756   5.513
  156SAPE   H8X17360   6.521   6.715   5.506
  156SAPE   H8Y17361   6.696   6.671   5.516
  156SAPE   C3917362   6.666   0.039   5.385
  156SAPE   H9X17363   6.768   0.083   5.379
  156SAPE   H9Y17364   6.599   0.125   5.366
  156SAPE  C31017365   6.641   6.746   5.261
  156SAPE  H10X17366   6.542   6.696   5.267
  156SAPE  H10Y17367   6.710   6.659   5.257
  156SAPE  C31117368   6.648   0.030   5.132
  156SAPE  H11X17369   6.600   0.129   5.150
  156SAPE  H11Y17370   6.582   6.775   5.060
  156SAPE  C31217371   6.788   0.032   5.066
  156SAPE  H12X17372   0.021   6.721   5.058
  156SAPE  H12Y17373   0.065   0.085   5.131
  156SAPE  C31317374   6.787   0.087   4.930
  156SAPE  H13X17375   6.744   0.190   4.925
  156SAPE  H13Y17376   6.720   0.019   4.873
  156SAPE  C31417377   0.130   0.086   4.863
  156SAPE  H14X17378   0.209   0.105   4.939
  156SAPE  H14Y17379   0.137   0.165   4.786
  156SAPE  C31517380   0.172   6.752   4.801
  156SAPE  H15X17381   0.091   6.692   4.753
  156SAPE  H15Y17382   0.217   6.687   4.880
  156SAPE  C31617383   0.278   6.768   4.695
  156SAPE  H16X17384   0.379   6.790   4.736
  156SAPE  H16Y17385   0.241   0.060   4.638
  156SAPE  C31717386   0.301   6.651   4.596
  156SAPE  H17X17387   0.203   6.606   4.569
  156SAPE  H17Y17388   0.350   6.581   4.667
  156SAPE  C31817389   0.374   6.695   4.472
  156SAPE  H18X17390   0.474   6.742   4.488
  156SAPE  H18Y17391   0.319   6.774   4.417
  156SAPE  H18Z17392   0.370   6.605   4.406
  157SAPE     N17393   0.472   6.090   6.939
  157SAPE   HN117394   0.370   6.086   6.960
  157SAPE   HN217395   0.490   6.136   6.848
  157SAPE   HN317396   0.507   5.992   6.938
  157SAPE   C1217397   0.553   6.178   7.023
  157SAPE  H12A17398   0.662   6.169   7.004
  157SAPE  H12B17399   0.518   6.149   7.125
  157SAPE   C1117400   0.528   6.327   6.990
  157SAPE  H11A17401   0.606   6.372   7.055
  157SAPE  H11B17402   0.425   6.360   7.016
  157SAPE     P17403   0.520   6.474   6.771
  157SAPE   O1317404   0.519   6.592   6.857
  157SAPE   O1417405   0.607   6.481   6.645
  157SAPE   O1217406   0.550   6.342   6.851
  157SAPE   O1117407   0.368   6.452   6.726
  157SAPE    C117408   0.351   6.358   6.621
  157SAPE    HA17409   0.395   6.397   6.526
  157SAPE    HB17410   0.384   6.257   6.653
  157SAPE    C217411   0.201   6.319   6.605
  157SAPE    HS17412   0.167   6.272   6.700
  157SAPE   O2117413   0.184   6.216   6.500
  157SAPE   C2117414   0.066   6.154   6.488
  157SAPE   O2217415   6.765   6.174   6.555
  157SAPE   C2217416   0.086   6.040   6.397
  157SAPE   H2R17417   0.185   6.042   6.346
  157SAPE   H2S17418   0.079   5.947   6.458
  157SAPE    C317419   0.119   6.443   6.579
  157SAPE    HX17420   0.131   6.514   6.664
  157SAPE    HY17421   0.013   6.411   6.590
  157SAPE   O3117422   0.154   6.497   6.447
  157SAPE   C3117423   0.064   6.473   6.353
  157SAPE   O3217424   6.753   6.416   6.361
  157SAPE   C3217425   0.128   6.517   6.220
  157SAPE   H2X17426   0.119   6.627   6.230
  157SAPE   H2Y17427   0.062   6.468   6.145
  157SAPE   C2317428   6.775   6.038   6.290
  157SAPE   H3R17429   6.673   6.046   6.335
  157SAPE   H3S17430   6.769   5.937   6.244
  157SAPE   C2417431   6.791   6.129   6.169
  157SAPE   H4R17432   6.792   6.235   6.200
  157SAPE   H4S17433   6.700   6.103   6.110
  157SAPE   C2517434   0.135   6.105   6.098
  157SAPE   H5R17435   0.220   6.156   6.145
  157SAPE   C2617436   0.149   6.026   5.984
  157SAPE   H6R17437   0.249   6.007   5.944
  157SAPE   C2717438   0.044   5.947   5.911
  157SAPE   H7R17439   6.771   5.895   5.981
  157SAPE   H7S17440   0.098   5.874   5.846
  157SAPE   C2817441   6.753   6.037   5.820
  157SAPE   H8R17442   6.711   6.128   5.865
  157SAPE   C2917443   6.739   6.008   5.689
  157SAPE   H9R17444   6.697   6.082   5.619
  157SAPE  C21017445   6.774   5.889   5.607
  157SAPE  H10R17446   6.756   5.798   5.668
  157SAPE  H10S17447   0.086   5.884   5.585
  157SAPE  C21117448   6.688   5.876   5.480
  157SAPE  H11R17449   6.586   5.838   5.496
  157SAPE  C21217450   6.733   5.891   5.353
  157SAPE  H12R17451   6.655   5.884   5.276
  157SAPE  C21317452   0.078   5.928   5.301
  157SAPE  H13R17453   0.125   5.834   5.266
  157SAPE  H13S17454   0.147   5.956   5.383
  157SAPE  C21417455   0.070   6.029   5.182
  157SAPE  H14R17456   0.078   6.135   5.210
  157SAPE  C21517457   0.092   5.996   5.050
  157SAPE  H15R17458   0.077   6.073   4.973
  157SAPE  C21617459   0.106   5.853   5.004
  157SAPE  H16R17460   0.022   5.798   5.051
  157SAPE  H16S17461   0.198   5.802   5.038
  157SAPE  C21717462   0.086   5.858   4.849
  157SAPE  H17R17463   0.005   5.926   4.814
  157SAPE  H17S17464   0.071   5.757   4.805
  157SAPE  C21817465   0.219   5.897   4.784
  157SAPE  H18R17466   0.293   5.826   4.827
  157SAPE  H18S17467   0.256   5.992   4.828
  157SAPE  C21917468   0.224   5.879   4.629
  157SAPE  H19R17469   0.141   5.942   4.588
  157SAPE  H19S17470   0.199   5.772   4.617
  157SAPE  C22017471   0.364   5.904   4.559
  157SAPE  H20R17472   0.437   5.821   4.572
  157SAPE  H20S17473   0.406   5.988   4.618
  157SAPE  H20T17474   0.362   5.918   4.448
  157SAPE   C3317475   0.272   6.465   6.194
  157SAPE   H3X17476   0.275   6.357   6.219
  157SAPE   H3Y17477   0.341   6.523   6.259
  157SAPE   C3417478   0.318   6.489   6.047
  157SAPE   H4X17479   0.428   6.492   6.062
  157SAPE   H4Y17480   0.279   6.592   6.028
  157SAPE   C3517481   0.280   6.390   5.938
  157SAPE   H5X17482   0.172   6.371   5.953
  157SAPE   H5Y17483   0.329   6.295   5.967
  157SAPE   C3617484   0.324   6.423   5.798
  157SAPE   H6X17485   0.426   6.384   5.780
  157SAPE   H6Y17486   0.323   6.534   5.787
  157SAPE   C3717487   0.222   6.350   5.702
  157SAPE   H7X17488   0.118   6.360   5.741
  157SAPE   H7Y17489   0.251   6.243   5.706
  157SAPE   C3817490   0.231   6.411   5.561
  157SAPE   H8X17491   0.336   6.415   5.525
  157SAPE   H8Y17492   0.194   6.515   5.571
  157SAPE   C3917493   0.133   6.338   5.470
  157SAPE   H9X17494   0.032   6.335   5.517
  157SAPE   H9Y17495   0.159   6.231   5.460
  157SAPE  C31017496   0.112   6.399   5.333
  157SAPE  H10X17497   0.071   6.502   5.343
  157SAPE  H10Y17498   0.049   6.331   5.272
  157SAPE  C31117499   0.248   6.414   5.258
  157SAPE  H11X17500   0.309   6.322   5.272
  157SAPE  H11Y17501   0.296   6.496   5.316
  157SAPE  C31217502   0.232   6.461   5.111
  157SAPE  H12X17503   0.336   6.473   5.073
  157SAPE  H12Y17504   0.191   6.564   5.107
  157SAPE  C31317505   0.174   6.358   5.013
  157SAPE  H13X17506   0.074   6.341   5.059
  157SAPE  H13Y17507   0.235   6.267   5.026
  157SAPE  C31417508   0.162   6.417   4.873
  157SAPE  H14X17509   0.263   6.441   4.831
  157SAPE  H14Y17510   0.099   6.508   4.873
  157SAPE  C31517511   0.115   6.312   4.780
  157SAPE  H15X17512   0.028   6.255   4.820
  157SAPE  H15Y17513   0.190   6.232   4.764
  157SAPE  C31617514   0.077   6.363   4.638
  157SAPE  H16X17515   0.175   6.380   4.589
  157SAPE  H16Y17516   0.014   6.455   4.631
  157SAPE  C31717517   0.018   6.243   4.553
  157SAPE  H17X17518   6.711   6.215   4.583
  157SAPE  H17Y17519   0.078   6.151   4.573
  157SAPE  C31817520   0.025   6.292   4.405
  157SAPE  H18X17521   0.131   6.307   4.374
  157SAPE  H18Y17522   6.771   6.391   4.398
  157SAPE  H18Z17523   6.779   6.221   4.331
  158SAPE     N17524   2.546   4.860   7.054
  158SAPE   HN117525   2.574   4.876   6.955
  158SAPE   HN217526   2.606   4.917   7.117
  158SAPE   HN317527   2.546   4.764   7.093
  158SAPE   C1217528   2.395   4.890   7.043
  158SAPE  H12A17529   2.353   4.857   7.140
  158SAPE  H12B17530   2.355   4.821   6.965
  158SAPE   C1117531   2.373   5.036   6.994
  158SAPE  H11A17532   2.425   5.111   7.057
  158SAPE  H11B17533   2.269   5.064   7.022
  158SAPE     P17534   2.545   5.083   6.791
  158SAPE   O1317535   2.602   5.205   6.856
  158SAPE   O1417536   2.620   4.958   6.798
  158SAPE   O1217537   2.398   5.056   6.854
  158SAPE   O1117538   2.515   5.119   6.639
  158SAPE    C117539   2.553   5.025   6.540
  158SAPE    HA17540   2.551   4.920   6.575
  158SAPE    HB17541   2.476   5.032   6.460
  158SAPE    C217542   2.694   5.047   6.490
  158SAPE    HS17543   2.763   5.016   6.571
  158SAPE   O2117544   2.703   5.193   6.462
  158SAPE   C2117545   2.825   5.251   6.470
  158SAPE   O2217546   2.923   5.192   6.516
  158SAPE   C2217547   2.828   5.385   6.405
  158SAPE   H2R17548   2.735   5.442   6.423
  158SAPE   H2S17549   2.906   5.451   6.449
  158SAPE    C317550   2.726   4.955   6.364
  158SAPE    HX17551   2.641   4.971   6.294
  158SAPE    HY17552   2.711   4.850   6.395
  158SAPE   O3117553   2.851   4.997   6.304
  158SAPE   C3117554   2.953   4.919   6.343
  158SAPE   O3217555   2.955   4.808   6.393
  158SAPE   C3217556   3.086   4.989   6.307
  158SAPE   H2X17557   3.132   5.004   6.407
  158SAPE   H2Y17558   3.064   5.089   6.265
  158SAPE   C2317559   2.844   5.385   6.246
  158SAPE   H3R17560   2.935   5.324   6.229
  158SAPE   H3S17561   2.849   5.491   6.215
  158SAPE   C2417562   2.715   5.325   6.173
  158SAPE   H4R17563   2.712   5.219   6.206
  158SAPE   H4S17564   2.745   5.318   6.066
  158SAPE   C2517565   2.581   5.391   6.192
  158SAPE   H5R17566   2.528   5.331   6.267
  158SAPE   C2617567   2.533   5.502   6.134
  158SAPE   H6R17568   2.426   5.524   6.132
  158SAPE   C2717569   2.595   5.588   6.029
  158SAPE   H7R17570   2.587   5.547   5.926
  158SAPE   H7S17571   2.704   5.605   6.044
  158SAPE   C2817572   2.540   5.729   6.023
  158SAPE   H8R17573   2.483   5.765   6.110
  158SAPE   C2917574   2.547   5.812   5.918
  158SAPE   H9R17575   2.495   5.908   5.935
  158SAPE  C21017576   2.618   5.797   5.790
  158SAPE  H10R17577   2.669   5.698   5.791
  158SAPE  H10S17578   2.701   5.871   5.792
  158SAPE  C21117579   2.531   5.827   5.670
  158SAPE  H11R17580   2.435   5.774   5.671
  158SAPE  C21217581   2.560   5.901   5.564
  158SAPE  H12R17582   2.483   5.909   5.487
  158SAPE  C21317583   2.679   5.985   5.535
  158SAPE  H13R17584   2.756   5.973   5.615
  158SAPE  H13S17585   2.646   6.091   5.544
  158SAPE  C21417586   2.748   5.985   5.398
  158SAPE  H14R17587   2.849   5.943   5.396
  158SAPE  C21517588   2.694   6.033   5.287
  158SAPE  H15R17589   2.746   6.002   5.195
  158SAPE  C21617590   2.566   6.103   5.261
  158SAPE  H16R17591   2.568   6.197   5.320
  158SAPE  H16S17592   2.477   6.041   5.288
  158SAPE  C21717593   2.571   6.143   5.111
  158SAPE  H17R17594   2.647   6.219   5.085
  158SAPE  H17S17595   2.478   6.201   5.094
  158SAPE  C21817596   2.588   6.033   5.001
  158SAPE  H18R17597   2.507   5.959   5.016
  158SAPE  H18S17598   2.688   5.985   5.001
  158SAPE  C21917599   2.572   6.082   4.860
  158SAPE  H19R17600   2.658   6.148   4.835
  158SAPE  H19S17601   2.482   6.147   4.851
  158SAPE  C22017602   2.554   5.968   4.754
  158SAPE  H20R17603   2.649   5.910   4.745
  158SAPE  H20S17604   2.514   6.005   4.657
  158SAPE  H20T17605   2.477   5.896   4.788
  158SAPE   C3317606   3.185   4.904   6.221
  158SAPE   H3X17607   3.197   4.807   6.275
  158SAPE   H3Y17608   3.282   4.957   6.231
  158SAPE   C3417609   3.130   4.885   6.082
  158SAPE   H4X17610   3.098   4.986   6.051
  158SAPE   H4Y17611   3.034   4.830   6.070
  158SAPE   C3517612   3.237   4.843   5.986
  158SAPE   H5X17613   3.281   4.747   6.020
  158SAPE   H5Y17614   3.317   4.919   5.990
  158SAPE   C3617615   3.197   4.842   5.838
  158SAPE   H6X17616   3.285   4.858   5.772
  158SAPE   H6Y17617   3.133   4.930   5.815
  158SAPE   C3717618   3.121   4.724   5.793
  158SAPE   H7X17619   3.031   4.715   5.857
  158SAPE   H7Y17620   3.182   4.633   5.809
  158SAPE   C3817621   3.073   4.733   5.644
  158SAPE   H8X17622   2.982   4.796   5.635
  158SAPE   H8Y17623   3.042   4.630   5.618
  158SAPE   C3917624   3.178   4.784   5.542
  158SAPE   H9X17625   3.276   4.734   5.560
  158SAPE   H9Y17626   3.208   4.890   5.556
  158SAPE  C31017627   3.139   4.768   5.396
  158SAPE  H10X17628   3.029   4.751   5.400
  158SAPE  H10Y17629   3.195   4.684   5.352
  158SAPE  C31117630   3.172   4.897   5.316
  158SAPE  H11X17631   3.281   4.917   5.303
  158SAPE  H11Y17632   3.133   4.985   5.372
  158SAPE  C31217633   3.098   4.901   5.180
  158SAPE  H12X17634   2.991   4.883   5.206
  158SAPE  H12Y17635   3.120   4.814   5.114
  158SAPE  C31317636   3.132   5.024   5.100
  158SAPE  H13X17637   3.243   5.033   5.095
  158SAPE  H13Y17638   3.075   5.110   5.141
  158SAPE  C31417639   3.077   5.006   4.954
  158SAPE  H14X17640   2.974   4.963   4.954
  158SAPE  H14Y17641   3.150   4.942   4.900
  158SAPE  C31517642   3.070   5.141   4.883
  158SAPE  H15X17643   3.164   5.201   4.889
  158SAPE  H15Y17644   2.999   5.202   4.943
  158SAPE  C31617645   3.037   5.116   4.731
  158SAPE  H16X17646   2.951   5.046   4.720
  158SAPE  H16Y17647   3.114   5.057   4.676
  158SAPE  C31717648   3.005   5.254   4.667
  158SAPE  H17X17649   3.104   5.304   4.658
  158SAPE  H17Y17650   2.952   5.319   4.740
  158SAPE  C31817651   2.928   5.259   4.537
  158SAPE  H18X17652   3.004   5.250   4.456
  158SAPE  H18Y17653   2.880   5.360   4.535
  158SAPE  H18Z17654   2.863   5.170   4.526
  159SAPE     N17655   5.341   2.992   2.294
  159SAPE   HN117656   5.374   3.091   2.300
  159SAPE   HN217657   5.362   2.956   2.198
  159SAPE   HN317658   5.238   2.994   2.310
  159SAPE   C1217659   5.402   2.903   2.400
  159SAPE  H12A17660   5.374   2.939   2.501
  159SAPE  H12B17661   5.513   2.911   2.400
  159SAPE   C1117662   5.362   2.759   2.368
  159SAPE  H11A17663   5.251   2.747   2.375
  159SAPE  H11B17664   5.396   2.683   2.442
  159SAPE     P17665   5.541   2.610   2.236
  159SAPE   O1317666   5.503   2.481   2.283
  159SAPE   O1417667   5.601   2.614   2.105
  159SAPE   O1217668   5.416   2.708   2.246
  159SAPE   O1117669   5.636   2.666   2.345
  159SAPE    C117670   5.701   2.588   2.445
  159SAPE    HA17671   5.638   2.499   2.468
  159SAPE    HB17672   5.794   2.539   2.409
  159SAPE    C217673   5.744   2.661   2.579
  159SAPE    HS17674   5.804   2.592   2.643
  159SAPE   O2117675   5.621   2.707   2.636
  159SAPE   C2117676   5.581   2.619   2.718
  159SAPE   O2217677   5.628   2.506   2.745
  159SAPE   C2217678   5.454   2.668   2.792
  159SAPE   H2R17679   5.386   2.727   2.727
  159SAPE   H2S17680   5.402   2.573   2.818
  159SAPE    C317681   5.831   2.783   2.557
  159SAPE    HX17682   5.758   2.844   2.500
  159SAPE    HY17683   5.918   2.766   2.491
  159SAPE   O3117684   5.863   2.848   2.683
  159SAPE   C3117685   5.955   2.786   2.758
  159SAPE   O3217686   6.019   2.686   2.725
  159SAPE   C3217687   5.938   2.838   2.903
  159SAPE   H2X17688   5.863   2.767   2.944
  159SAPE   H2Y17689   5.892   2.938   2.894
  159SAPE   C2317690   5.485   2.738   2.923
  159SAPE   H3R17691   5.555   2.675   2.982
  159SAPE   H3S17692   5.395   2.741   2.987
  159SAPE   C2417693   5.531   2.885   2.911
  159SAPE   H4R17694   5.451   2.940   2.857
  159SAPE   H4S17695   5.619   2.895   2.845
  159SAPE   C2517696   5.569   2.952   3.042
  159SAPE   H5R17697   5.641   2.893   3.101
  159SAPE   C2617698   5.507   3.056   3.089
  159SAPE   H6R17699   5.539   3.093   3.188
  159SAPE   C2717700   5.392   3.131   3.046
  159SAPE   H7R17701   5.332   3.128   3.139
  159SAPE   H7S17702   5.339   3.084   2.960
  159SAPE   C2817703   5.410   3.269   3.005
  159SAPE   H8R17704   5.499   3.278   2.942
  159SAPE   C2917705   5.355   3.385   3.054
  159SAPE   H9R17706   5.382   3.481   3.009
  159SAPE  C21017707   5.234   3.396   3.149
  159SAPE  H10R17708   5.177   3.301   3.143
  159SAPE  H10S17709   5.168   3.478   3.113
  159SAPE  C21117710   5.263   3.426   3.292
  159SAPE  H11R17711   5.324   3.515   3.311
  159SAPE  C21217712   5.220   3.363   3.407
  159SAPE  H12R17713   5.227   3.404   3.508
  159SAPE  C21317714   5.123   3.244   3.401
  159SAPE  H13R17715   5.147   3.174   3.318
  159SAPE  H13S17716   5.022   3.281   3.374
  159SAPE  C21417717   5.117   3.178   3.542
  159SAPE  H14R17718   5.080   3.241   3.624
  159SAPE  C21517719   5.167   3.056   3.566
  159SAPE  H15R17720   5.179   3.019   3.669
  159SAPE  C21617721   5.228   2.958   3.462
  159SAPE  H16R17722   5.223   2.983   3.353
  159SAPE  H16S17723   5.198   2.852   3.467
  159SAPE  C21717724   5.385   2.953   3.485
  159SAPE  H17R17725   5.405   2.953   3.595
  159SAPE  H17S17726   5.429   3.052   3.459
  159SAPE  C21817727   5.464   2.847   3.412
  159SAPE  H18R17728   5.453   2.850   3.301
  159SAPE  H18S17729   5.449   2.747   3.456
  159SAPE  C21917730   5.608   2.877   3.428
  159SAPE  H19R17731   5.623   2.883   3.538
  159SAPE  H19S17732   5.650   2.965   3.375
  159SAPE  C22017733   5.700   2.768   3.370
  159SAPE  H20R17734   5.697   2.678   3.435
  159SAPE  H20S17735   5.805   2.805   3.366
  159SAPE  H20T17736   5.675   2.747   3.264
  159SAPE   C3317737   6.071   2.846   2.979
  159SAPE   H3X17738   6.144   2.926   2.954
  159SAPE   H3Y17739   6.113   2.743   2.974
  159SAPE   C3417740   6.048   2.873   3.127
  159SAPE   H4X17741   6.124   2.821   3.190
  159SAPE   H4Y17742   5.946   2.836   3.150
  159SAPE   C3517743   6.057   3.018   3.161
  159SAPE   H5X17744   6.015   3.098   3.095
  159SAPE   H5Y17745   6.166   3.037   3.163
  159SAPE   C3617746   6.005   3.040   3.306
  159SAPE   H6X17747   5.904   2.998   3.327
  159SAPE   H6Y17748   5.991   3.147   3.334
  159SAPE   C3717749   6.105   2.996   3.417
  159SAPE   H7X17750   6.202   3.048   3.406
  159SAPE   H7Y17751   6.121   2.887   3.406
  159SAPE   C3817752   6.045   3.018   3.556
  159SAPE   H8X17753   5.944   3.066   3.550
  159SAPE   H8Y17754   6.116   3.077   3.617
  159SAPE   C3917755   6.027   2.883   3.632
  159SAPE   H9X17756   6.128   2.838   3.643
  159SAPE   H9Y17757   5.966   2.817   3.566
  159SAPE  C31017758   5.963   2.913   3.770
  159SAPE  H10X17759   5.859   2.947   3.751
  159SAPE  H10Y17760   6.013   2.985   3.838
  159SAPE  C31117761   5.951   2.782   3.856
  159SAPE  H11X17762   6.044   2.721   3.857
  159SAPE  H11Y17763   5.864   2.727   3.815
  159SAPE  C31217764   5.919   2.808   3.998
  159SAPE  H12X17765   5.825   2.866   4.010
  159SAPE  H12Y17766   6.000   2.869   4.042
  159SAPE  C31317767   5.897   2.691   4.090
  159SAPE  H13X17768   5.826   2.625   4.037
  159SAPE  H13Y17769   5.854   2.746   4.176
  159SAPE  C31417770   6.031   2.605   4.113
  159SAPE  H14X17771   6.097   2.670   4.174
  159SAPE  H14Y17772   6.080   2.582   4.016
  159SAPE  C31517773   6.016   2.469   4.192
  159SAPE  H15X17774   6.115   2.425   4.214
  159SAPE  H15Y17775   5.958   2.408   4.119
  159SAPE  C31617776   5.923   2.472   4.322
  159SAPE  H16X17777   5.817   2.450   4.296
  159SAPE  H16Y17778   5.907   2.578   4.352
  159SAPE  C31717779   5.973   2.371   4.430
  159SAPE  H17X17780   5.970   2.270   4.384
  159SAPE  H17Y17781   5.890   2.367   4.504
  159SAPE  C31817782   6.116   2.394   4.497
  159SAPE  H18X17783   6.125   2.331   4.588
  159SAPE  H18Y17784   6.110   2.499   4.533
  159SAPE  H18Z17785   6.192   2.372   4.420
  160SAPE     N17786   5.111   1.886   1.839
  160SAPE   HN117787   5.148   1.804   1.891
  160SAPE   HN217788   5.025   1.862   1.786
  160SAPE   HN317789   5.180   1.900   1.762
  160SAPE   C1217790   5.103   2.002   1.931
  160SAPE  H12A17791   5.056   2.080   1.867
  160SAPE  H12B17792   5.203   2.025   1.973
  160SAPE   C1117793   5.017   1.982   2.058
  160SAPE  H11A17794   5.038   2.061   2.133
  160SAPE  H11B17795   5.054   1.887   2.101
  160SAPE     P17796   4.788   1.860   2.087
  160SAPE   O1317797   4.643   1.888   2.078
  160SAPE   O1417798   4.834   1.742   2.010
  160SAPE   O1217799   4.872   1.987   2.037
  160SAPE   O1117800   4.817   1.843   2.244
  160SAPE    C117801   4.826   1.954   2.330
  160SAPE    HA17802   4.910   2.023   2.307
  160SAPE    HB17803   4.737   2.021   2.322
  160SAPE    C217804   4.831   1.897   2.475
  160SAPE    HS17805   4.823   1.984   2.544
  160SAPE   O2117806   4.955   1.830   2.498
  160SAPE   C2117807   5.056   1.917   2.518
  160SAPE   O2217808   5.057   2.033   2.505
  160SAPE   C2217809   5.178   1.834   2.550
  160SAPE   H2R17810   5.154   1.725   2.550
  160SAPE   H2S17811   5.255   1.859   2.474
  160SAPE    C317812   4.713   1.799   2.512
  160SAPE    HX17813   4.716   1.722   2.432
  160SAPE    HY17814   4.613   1.847   2.512
  160SAPE   O3117815   4.740   1.744   2.641
  160SAPE   C3117816   4.778   1.614   2.654
  160SAPE   O3217817   4.807   1.544   2.558
  160SAPE   C3217818   4.786   1.583   2.801
  160SAPE   H2X17819   4.684   1.555   2.836
  160SAPE   H2Y17820   4.815   1.677   2.852
  160SAPE   C2317821   5.241   1.873   2.692
  160SAPE   H3R17822   5.180   1.834   2.777
  160SAPE   H3S17823   5.242   1.983   2.705
  160SAPE   C2417824   5.387   1.832   2.715
  160SAPE   H4R17825   5.430   1.870   2.810
  160SAPE   H4S17826   5.446   1.880   2.633
  160SAPE   C2517827   5.399   1.687   2.697
  160SAPE   H5R17828   5.387   1.656   2.592
  160SAPE   C2617829   5.388   1.589   2.787
  160SAPE   H6R17830   5.409   1.488   2.750
  160SAPE   C2717831   5.390   1.606   2.942
  160SAPE   H7R17832   5.438   1.700   2.977
  160SAPE   H7S17833   5.433   1.515   2.988
  160SAPE   C2817834   5.247   1.617   2.995
  160SAPE   H8R17835   5.166   1.646   2.926
  160SAPE   C2917836   5.203   1.589   3.124
  160SAPE   H9R17837   5.096   1.576   3.146
  160SAPE  C21017838   5.297   1.551   3.235
  160SAPE  H10R17839   5.265   1.622   3.314
  160SAPE  H10S17840   5.400   1.578   3.204
  160SAPE  C21117841   5.297   1.402   3.266
  160SAPE  H11R17842   5.286   1.335   3.179
  160SAPE  C21217843   5.283   1.342   3.388
  160SAPE  H12R17844   5.298   1.234   3.405
  160SAPE  C21317845   5.275   1.416   3.522
  160SAPE  H13R17846   5.294   1.524   3.508
  160SAPE  H13S17847   5.350   1.362   3.583
  160SAPE  C21417848   5.146   1.393   3.585
  160SAPE  H14R17849   5.055   1.394   3.523
  160SAPE  C21517850   5.132   1.362   3.713
  160SAPE  H15R17851   5.029   1.365   3.750
  160SAPE  C21617852   5.240   1.342   3.819
  160SAPE  H16R17853   5.345   1.372   3.794
  160SAPE  H16S17854   5.238   1.240   3.862
  160SAPE  C21717855   5.205   1.429   3.936
  160SAPE  H17R17856   5.103   1.402   3.969
  160SAPE  H17S17857   5.219   1.534   3.903
  160SAPE  C21817858   5.306   1.420   4.061
  160SAPE  H18R17859   5.316   1.518   4.113
  160SAPE  H18S17860   5.405   1.404   4.013
  160SAPE  C21917861   5.259   1.305   4.145
  160SAPE  H19R17862   5.251   1.213   4.083
  160SAPE  H19S17863   5.155   1.316   4.183
  160SAPE  C22017864   5.339   1.278   4.274
  160SAPE  H20R17865   5.309   1.351   4.352
  160SAPE  H20S17866   5.445   1.287   4.240
  160SAPE  H20T17867   5.326   1.171   4.299
  160SAPE   C3317868   4.875   1.456   2.845
  160SAPE   H3X17869   4.981   1.459   2.814
  160SAPE   H3Y17870   4.813   1.374   2.802
  160SAPE   C3417871   4.867   1.440   3.004
  160SAPE   H4X17872   4.764   1.438   3.044
  160SAPE   H4Y17873   4.914   1.531   3.049
  160SAPE   C3517874   4.944   1.316   3.048
  160SAPE   H5X17875   5.042   1.321   2.995
  160SAPE   H5Y17876   4.904   1.221   3.007
  160SAPE   C3617877   4.958   1.283   3.193
  160SAPE   H6X17878   5.019   1.354   3.252
  160SAPE   H6Y17879   5.019   1.190   3.204
  160SAPE   C3717880   4.817   1.254   3.259
  160SAPE   H7X17881   4.759   1.171   3.214
  160SAPE   H7Y17882   4.759   1.348   3.271
  160SAPE   C3817883   4.842   1.209   3.407
  160SAPE   H8X17884   4.921   1.281   3.437
  160SAPE   H8Y17885   4.885   1.108   3.393
  160SAPE   C3917886   4.721   1.196   3.503
  160SAPE   H9X17887   4.653   1.117   3.466
  160SAPE   H9Y17888   4.669   1.294   3.507
  160SAPE  C31017889   4.774   1.171   3.643
  160SAPE  H10X17890   4.856   1.245   3.656
  160SAPE  H10Y17891   4.815   1.068   3.649
  160SAPE  C31117892   4.673   1.195   3.759
  160SAPE  H11X17893   4.576   1.145   3.735
  160SAPE  H11Y17894   4.646   1.303   3.753
  160SAPE  C31217895   4.727   1.136   3.893
  160SAPE  H12X17896   4.819   1.191   3.922
  160SAPE  H12Y17897   4.765   1.032   3.883
  160SAPE  C31317898   4.625   1.154   4.014
  160SAPE  H13X17899   4.532   1.104   3.979
  160SAPE  H13Y17900   4.598   1.262   4.010
  160SAPE  C31417901   4.686   1.085   4.136
  160SAPE  H14X17902   4.708   1.162   4.213
  160SAPE  H14Y17903   4.783   1.042   4.103
  160SAPE  C31517904   4.596   0.970   4.184
  160SAPE  H15X17905   4.559   0.903   4.103
  160SAPE  H15Y17906   4.498   1.011   4.216
  160SAPE  C31617907   4.659   0.882   4.295
  160SAPE  H16X17908   4.755   0.846   4.251
  160SAPE  H16Y17909   4.592   0.799   4.324
  160SAPE  C31717910   4.682   0.961   4.428
  160SAPE  H17X17911   4.636   0.902   4.510
  160SAPE  H17Y17912   4.619   1.053   4.433
  160SAPE  C31817913   4.827   0.989   4.466
  160SAPE  H18X17914   4.883   0.894   4.482
  160SAPE  H18Y17915   4.830   1.049   4.559
  160SAPE  H18Z17916   4.886   1.049   4.393
  161SAPE     N17917   2.020   4.019   2.311
  161SAPE   HN117918   1.973   3.998   2.220
  161SAPE   HN217919   2.050   3.929   2.354
  161SAPE   HN317920   1.958   4.072   2.375
  161SAPE   C1217921   2.137   4.105   2.291
  161SAPE  H12A17922   2.206   4.092   2.378
  161SAPE  H12B17923   2.110   4.212   2.281
  161SAPE   C1117924   2.211   4.071   2.156
  161SAPE  H11A17925   2.303   4.133   2.148
  161SAPE  H11B17926   2.145   4.105   2.074
  161SAPE     P17927   2.364   3.879   2.066
  161SAPE   O1317928   2.326   3.799   1.947
  161SAPE   O1417929   2.454   3.994   2.048
  161SAPE   O1217930   2.233   3.930   2.146
  161SAPE   O1117931   2.423   3.774   2.165
  161SAPE    C117932   2.345   3.696   2.249
  161SAPE    HA17933   2.239   3.696   2.215
  161SAPE    HB17934   2.372   3.588   2.240
  161SAPE    C217935   2.346   3.756   2.392
  161SAPE    HS17936   2.291   3.852   2.385
  161SAPE   O2117937   2.483   3.767   2.439
  161SAPE   C2117938   2.509   3.880   2.507
  161SAPE   O2217939   2.431   3.970   2.522
  161SAPE   C2217940   2.653   3.885   2.565
  161SAPE   H2R17941   2.717   3.806   2.518
  161SAPE   H2S17942   2.695   3.980   2.524
  161SAPE    C317943   2.264   3.673   2.494
  161SAPE    HX17944   2.316   3.580   2.523
  161SAPE    HY17945   2.175   3.632   2.442
  161SAPE   O3117946   2.233   3.734   2.619
  161SAPE   C3117947   2.141   3.824   2.608
  161SAPE   O3217948   2.081   3.856   2.507
  161SAPE   C3217949   2.131   3.897   2.733
  161SAPE   H2X17950   2.029   3.879   2.773
  161SAPE   H2Y17951   2.129   4.006   2.711
  161SAPE   C2317952   2.676   3.886   2.714
  161SAPE   H3R17953   2.590   3.944   2.754
  161SAPE   H3S17954   2.767   3.949   2.727
  161SAPE   C2417955   2.697   3.747   2.782
  161SAPE   H4R17956   2.787   3.701   2.736
  161SAPE   H4S17957   2.612   3.683   2.752
  161SAPE   C2517958   2.723   3.751   2.928
  161SAPE   H5R17959   2.812   3.810   2.955
  161SAPE   C2617960   2.667   3.672   3.022
  161SAPE   H6R17961   2.688   3.698   3.127
  161SAPE   C2717962   2.546   3.575   3.005
  161SAPE   H7R17963   2.515   3.569   2.899
  161SAPE   H7S17964   2.455   3.601   3.065
  161SAPE   C2817965   2.588   3.427   3.029
  161SAPE   H8R17966   2.631   3.367   2.947
  161SAPE   C2917967   2.578   3.371   3.154
  161SAPE   H9R17968   2.632   3.276   3.165
  161SAPE  C21017969   2.524   3.437   3.278
  161SAPE  H10R17970   2.461   3.362   3.330
  161SAPE  H10S17971   2.453   3.521   3.260
  161SAPE  C21117972   2.638   3.489   3.364
  161SAPE  H11R17973   2.700   3.572   3.327
  161SAPE  C21217974   2.662   3.455   3.494
  161SAPE  H12R17975   2.740   3.510   3.550
  161SAPE  C21317976   2.597   3.345   3.576
  161SAPE  H13R17977   2.675   3.288   3.631
  161SAPE  H13S17978   2.540   3.275   3.512
  161SAPE  C21417979   2.493   3.410   3.665
  161SAPE  H14R17980   2.452   3.503   3.623
  161SAPE  C21517981   2.456   3.368   3.787
  161SAPE  H15R17982   2.387   3.425   3.850
  161SAPE  C21617983   2.506   3.245   3.852
  161SAPE  H16R17984   2.553   3.173   3.782
  161SAPE  H16S17985   2.424   3.195   3.907
  161SAPE  C21717986   2.614   3.294   3.953
  161SAPE  H17R17987   2.593   3.391   4.004
  161SAPE  H17S17988   2.714   3.310   3.908
  161SAPE  C21817989   2.643   3.191   4.063
  161SAPE  H18R17990   2.651   3.089   4.019
  161SAPE  H18S17991   2.547   3.182   4.118
  161SAPE  C21917992   2.762   3.217   4.154
  161SAPE  H19R17993   2.859   3.193   4.106
  161SAPE  H19S17994   2.752   3.134   4.227
  161SAPE  C22017995   2.766   3.352   4.228
  161SAPE  H20R17996   2.873   3.368   4.251
  161SAPE  H20S17997   2.699   3.344   4.317
  161SAPE  H20T17998   2.736   3.431   4.156
  161SAPE   C3317999   2.241   3.886   2.838
  161SAPE   H3X18000   2.338   3.916   2.792
  161SAPE   H3Y18001   2.236   3.780   2.869
  161SAPE   C3418002   2.216   3.961   2.964
  161SAPE   H4X18003   2.121   3.933   3.013
  161SAPE   H4Y18004   2.212   4.073   2.962
  161SAPE   C3518005   2.322   3.911   3.068
  161SAPE   H5X18006   2.423   3.933   3.028
  161SAPE   H5Y18007   2.314   3.801   3.085
  161SAPE   C3618008   2.300   3.979   3.202
  161SAPE   H6X18009   2.193   3.971   3.233
  161SAPE   H6Y18010   2.329   4.086   3.198
  161SAPE   C3718011   2.368   3.914   3.328
  161SAPE   H7X18012   2.476   3.892   3.314
  161SAPE   H7Y18013   2.337   3.809   3.344
  161SAPE   C3818014   2.337   3.980   3.465
  161SAPE   H8X18015   2.228   3.992   3.477
  161SAPE   H8Y18016   2.381   4.082   3.472
  161SAPE   C3918017   2.403   3.903   3.581
  161SAPE   H9X18018   2.514   3.901   3.576
  161SAPE   H9Y18019   2.364   3.800   3.572
  161SAPE  C31018020   2.368   3.969   3.717
  161SAPE  H10X18021   2.266   4.010   3.703
  161SAPE  H10Y18022   2.441   4.052   3.724
  161SAPE  C31118023   2.374   3.886   3.842
  161SAPE  H11X18024   2.313   3.795   3.825
  161SAPE  H11Y18025   2.311   3.934   3.919
  161SAPE  C31218026   2.512   3.851   3.899
  161SAPE  H12X18027   2.575   3.942   3.888
  161SAPE  H12Y18028   2.555   3.766   3.842
  161SAPE  C31318029   2.505   3.802   4.053
  161SAPE  H13X18030   2.456   3.702   4.051
  161SAPE  H13Y18031   2.431   3.865   4.107
  161SAPE  C31418032   2.641   3.805   4.119
  161SAPE  H14X18033   2.658   3.910   4.153
  161SAPE  H14Y18034   2.730   3.773   4.061
  161SAPE  C31518035   2.633   3.736   4.253
  161SAPE  H15X18036   2.611   3.627   4.242
  161SAPE  H15Y18037   2.550   3.777   4.314
  161SAPE  C31618038   2.768   3.753   4.336
  161SAPE  H16X18039   2.803   3.857   4.349
  161SAPE  H16Y18040   2.852   3.713   4.275
  161SAPE  C31718041   2.766   3.674   4.465
  161SAPE  H17X18042   2.742   3.572   4.428
  161SAPE  H17Y18043   2.687   3.711   4.534
  161SAPE  C31818044   2.892   3.691   4.554
  161SAPE  H18X18045   2.874   3.649   4.655
  161SAPE  H18Y18046   2.926   3.795   4.574
  161SAPE  H18Z18047   2.976   3.635   4.507
  162SAPE     N18048   2.579   0.027   2.153
  162SAPE   HN118049   2.578   6.773   2.061
  162SAPE   HN218050   2.482   0.064   2.166
  162SAPE   HN318051   2.638   0.112   2.152
  162SAPE   C1218052   2.622   6.748   2.274
  162SAPE  H12A18053   2.561   6.656   2.274
  162SAPE  H12B18054   2.597   0.017   2.360
  162SAPE   C1118055   2.771   6.711   2.268
  162SAPE  H11A18056   2.786   6.636   2.349
  162SAPE  H11B18057   2.844   6.794   2.283
  162SAPE     P18058   2.772   6.498   2.101
  162SAPE   O1318059   2.626   6.466   2.081
  162SAPE   O1418060   2.853   6.455   1.987
  162SAPE   O1218061   2.795   6.652   2.138
  162SAPE   O1118062   2.819   6.424   2.230
  162SAPE    C118063   2.957   6.449   2.272
  162SAPE    HA18064   3.016   6.419   2.183
  162SAPE    HB18065   2.967   6.554   2.308
  162SAPE    C218066   2.994   6.362   2.390
  162SAPE    HS18067   2.939   6.267   2.374
  162SAPE   O2118068   2.951   6.417   2.514
  162SAPE   C2118069   2.895   6.335   2.602
  162SAPE   O2218070   2.880   6.215   2.591
  162SAPE   C2218071   2.841   6.432   2.712
  162SAPE   H2R18072   2.905   6.522   2.719
  162SAPE   H2S18073   2.738   6.461   2.681
  162SAPE    C318074   3.147   6.339   2.397
  162SAPE    HX18075   3.191   6.440   2.404
  162SAPE    HY18076   3.173   6.292   2.299
  162SAPE   O3118077   3.194   6.283   2.515
  162SAPE   C3118078   3.273   6.172   2.513
  162SAPE   O3218079   3.291   6.102   2.415
  162SAPE   C3218080   3.329   6.138   2.643
  162SAPE   H2X18081   3.417   6.204   2.660
  162SAPE   H2Y18082   3.375   6.037   2.645
  162SAPE   C2318083   2.839   6.385   2.858
  162SAPE   H3R18084   2.946   6.381   2.890
  162SAPE   H3S18085   2.793   6.285   2.867
  162SAPE   C2418086   2.766   6.479   2.955
  162SAPE   H4R18087   2.778   6.589   2.947
  162SAPE   H4S18088   2.802   6.448   3.056
  162SAPE   C2518089   2.618   6.464   2.948
  162SAPE   H5R18090   2.561   6.538   2.890
  162SAPE   C2618091   2.536   6.370   3.000
  162SAPE   H6R18092   2.428   6.382   2.988
  162SAPE   C2718093   2.579   6.246   3.084
  162SAPE   H7R18094   2.688   6.230   3.074
  162SAPE   H7S18095   2.521   6.164   3.037
  162SAPE   C2818096   2.550   6.269   3.234
  162SAPE   H8R18097   2.580   6.366   3.275
  162SAPE   C2918098   2.485   6.185   3.318
  162SAPE   H9R18099   2.481   6.210   3.426
  162SAPE  C21018100   2.418   6.055   3.279
  162SAPE  H10R18101   2.473   6.013   3.192
  162SAPE  H10S18102   2.319   6.074   3.231
  162SAPE  C21118103   2.422   5.969   3.402
  162SAPE  H11R18104   2.516   5.916   3.425
  162SAPE  C21218105   2.317   5.959   3.492
  162SAPE  H12R18106   2.321   5.895   3.582
  162SAPE  C21318107   2.182   6.014   3.460
  162SAPE  H13R18108   2.158   6.010   3.352
  162SAPE  H13S18109   2.178   6.119   3.497
  162SAPE  C21418110   2.071   5.944   3.540
  162SAPE  H14R18111   2.009   5.869   3.489
  162SAPE  C21518112   2.035   5.963   3.667
  162SAPE  H15R18113   1.950   5.903   3.702
  162SAPE  C21618114   2.082   6.062   3.766
  162SAPE  H16R18115   1.995   6.131   3.776
  162SAPE  H16S18116   2.169   6.116   3.724
  162SAPE  C21718117   2.112   6.006   3.909
  162SAPE  H17R18118   2.016   5.961   3.944
  162SAPE  H17S18119   2.141   6.083   3.983
  162SAPE  C21818120   2.225   5.899   3.911
  162SAPE  H18R18121   2.324   5.949   3.913
  162SAPE  H18S18122   2.212   5.827   3.828
  162SAPE  C21918123   2.226   5.804   4.040
  162SAPE  H19R18124   2.315   5.737   4.040
  162SAPE  H19S18125   2.132   5.743   4.041
  162SAPE  C22018126   2.214   5.881   4.174
  162SAPE  H20R18127   2.212   5.801   4.252
  162SAPE  H20S18128   2.118   5.935   4.181
  162SAPE  H20T18129   2.299   5.950   4.196
  162SAPE   C3318130   3.222   6.150   2.751
  162SAPE   H3X18131   3.122   6.122   2.713
  162SAPE   H3Y18132   3.219   6.255   2.786
  162SAPE   C3418133   3.234   6.043   2.857
  162SAPE   H4X18134   3.336   6.041   2.901
  162SAPE   H4Y18135   3.213   5.949   2.802
  162SAPE   C3518136   3.136   6.047   2.972
  162SAPE   H5X18137   3.163   5.968   3.046
  162SAPE   H5Y18138   3.035   6.026   2.931
  162SAPE   C3618139   3.124   6.180   3.047
  162SAPE   H6X18140   3.039   6.174   3.118
  162SAPE   H6Y18141   3.101   6.254   2.967
  162SAPE   C3718142   3.258   6.221   3.122
  162SAPE   H7X18143   3.277   6.329   3.108
  162SAPE   H7Y18144   3.339   6.156   3.081
  162SAPE   C3818145   3.234   6.183   3.272
  162SAPE   H8X18146   3.215   6.075   3.258
  162SAPE   H8Y18147   3.156   6.239   3.328
  162SAPE   C3918148   3.362   6.200   3.357
  162SAPE   H9X18149   3.407   6.302   3.347
  162SAPE   H9Y18150   3.429   6.115   3.334
  162SAPE  C31018151   3.333   6.193   3.505
  162SAPE  H10X18152   3.267   6.278   3.533
  162SAPE  H10Y18153   3.425   6.197   3.567
  162SAPE  C31118154   3.253   6.064   3.534
  162SAPE  H11X18155   3.268   5.983   3.460
  162SAPE  H11Y18156   3.143   6.084   3.531
  162SAPE  C31218157   3.280   6.008   3.682
  162SAPE  H12X18158   3.276   6.093   3.753
  162SAPE  H12Y18159   3.385   5.972   3.684
  162SAPE  C31318160   3.192   5.894   3.733
  162SAPE  H13X18161   3.220   5.794   3.694
  162SAPE  H13Y18162   3.089   5.910   3.696
  162SAPE  C31418163   3.187   5.898   3.888
  162SAPE  H14X18164   3.140   5.996   3.912
  162SAPE  H14Y18165   3.289   5.884   3.930
  162SAPE  C31518166   3.103   5.782   3.930
  162SAPE  H15X18167   3.118   5.699   3.857
  162SAPE  H15Y18168   2.997   5.813   3.921
  162SAPE  C31618169   3.124   5.762   4.080
  162SAPE  H16X18170   3.135   5.860   4.131
  162SAPE  H16Y18171   3.220   5.712   4.102
  162SAPE  C31718172   3.009   5.694   4.148
  162SAPE  H17X18173   2.981   5.598   4.100
  162SAPE  H17Y18174   2.916   5.756   4.146
  162SAPE  C31818175   3.026   5.672   4.297
  162SAPE  H18X18176   3.012   5.768   4.352
  162SAPE  H18Y18177   3.129   5.640   4.324
  162SAPE  H18Z18178   2.951   5.605   4.344
  163SAPE     N18179   0.993   3.418   2.421
  163SAPE   HN118180   0.999   3.481   2.338
  163SAPE   HN218181   0.897   3.378   2.415
  163SAPE   HN318182   1.004   3.491   2.495
  163SAPE   C1218183   1.098   3.308   2.424
  163SAPE  H12A18184   1.052   3.215   2.464
  163SAPE  H12B18185   1.181   3.340   2.491
  163SAPE   C1118186   1.149   3.278   2.278
  163SAPE  H11A18187   1.061   3.239   2.222
  163SAPE  H11B18188   1.205   3.182   2.287
  163SAPE     P18189   1.361   3.415   2.224
  163SAPE   O1318190   1.413   3.384   2.090
  163SAPE   O1418191   1.391   3.548   2.276
  163SAPE   O1218192   1.210   3.395   2.223
  163SAPE   O1118193   1.416   3.304   2.325
  163SAPE    C118194   1.558   3.273   2.334
  163SAPE    HA18195   1.586   3.187   2.270
  163SAPE    HB18196   1.624   3.354   2.296
  163SAPE    C218197   1.583   3.251   2.482
  163SAPE    HS18198   1.498   3.184   2.507
  163SAPE   O2118199   1.575   3.372   2.566
  163SAPE   C2118200   1.485   3.362   2.660
  163SAPE   O2218201   1.413   3.266   2.688
  163SAPE   C2218202   1.486   3.491   2.733
  163SAPE   H2R18203   1.590   3.508   2.768
  163SAPE   H2S18204   1.458   3.571   2.661
  163SAPE    C318205   1.715   3.180   2.504
  163SAPE    HX18206   1.789   3.231   2.439
  163SAPE    HY18207   1.700   3.082   2.452
  163SAPE   O3118208   1.767   3.172   2.635
  163SAPE   C3118209   1.741   3.058   2.698
  163SAPE   O3218210   1.682   2.964   2.655
  163SAPE   C3218211   1.783   3.080   2.843
  163SAPE   H2X18212   1.852   3.167   2.845
  163SAPE   H2Y18213   1.833   2.987   2.879
  163SAPE   C2318214   1.374   3.501   2.845
  163SAPE   H3R18215   1.349   3.400   2.884
  163SAPE   H3S18216   1.279   3.539   2.801
  163SAPE   C2418217   1.426   3.584   2.960
  163SAPE   H4R18218   1.343   3.631   3.017
  163SAPE   H4S18219   1.484   3.670   2.921
  163SAPE   C2518220   1.528   3.513   3.042
  163SAPE   H5R18221   1.577   3.431   2.987
  163SAPE   C2618222   1.542   3.535   3.175
  163SAPE   H6R18223   1.617   3.487   3.239
  163SAPE   C2718224   1.465   3.643   3.250
  163SAPE   H7R18225   1.385   3.601   3.314
  163SAPE   H7S18226   1.413   3.716   3.185
  163SAPE   C2818227   1.559   3.722   3.341
  163SAPE   H8R18228   1.618   3.788   3.276
  163SAPE   C2918229   1.561   3.729   3.474
  163SAPE   H9R18230   1.638   3.797   3.514
  163SAPE  C21018231   1.472   3.664   3.578
  163SAPE  H10R18232   1.416   3.588   3.519
  163SAPE  H10S18233   1.401   3.743   3.612
  163SAPE  C21118234   1.545   3.600   3.697
  163SAPE  H11R18235   1.653   3.600   3.678
  163SAPE  C21218236   1.495   3.574   3.821
  163SAPE  H12R18237   1.564   3.527   3.892
  163SAPE  C21318238   1.347   3.601   3.857
  163SAPE  H13R18239   1.285   3.519   3.815
  163SAPE  H13S18240   1.309   3.691   3.804
  163SAPE  C21418241   1.326   3.615   4.007
  163SAPE  H14R18242   1.378   3.695   4.062
  163SAPE  C21518243   1.242   3.541   4.082
  163SAPE  H15R18244   1.243   3.567   4.189
  163SAPE  C21618245   1.164   3.416   4.054
  163SAPE  H16R18246   1.091   3.424   3.970
  163SAPE  H16S18247   1.114   3.382   4.147
  163SAPE  C21718248   1.262   3.296   4.016
  163SAPE  H17R18249   1.347   3.291   4.087
  163SAPE  H17S18250   1.310   3.312   3.917
  163SAPE  C21818251   1.180   3.163   4.033
  163SAPE  H18R18252   1.075   3.186   4.007
  163SAPE  H18S18253   1.180   3.129   4.139
  163SAPE  C21918254   1.225   3.045   3.948
  163SAPE  H19R18255   1.180   2.964   4.010
  163SAPE  H19S18256   1.336   3.042   3.949
  163SAPE  C22018257   1.174   3.034   3.806
  163SAPE  H20R18258   1.216   3.106   3.733
  163SAPE  H20S18259   1.065   3.057   3.804
  163SAPE  H20T18260   1.192   2.934   3.763
  163SAPE   C3318261   1.663   3.125   2.934
  163SAPE   H3X18262   1.574   3.062   2.911
  163SAPE   H3Y18263   1.639   3.228   2.901
  163SAPE   C3418264   1.703   3.117   3.082
  163SAPE   H4X18265   1.775   3.200   3.091
  163SAPE   H4Y18266   1.749   3.016   3.094
  163SAPE   C3518267   1.583   3.142   3.162
  163SAPE   H5X18268   1.518   3.053   3.150
  163SAPE   H5Y18269   1.525   3.228   3.120
  163SAPE   C3618270   1.618   3.168   3.309
  163SAPE   H6X18271   1.686   3.253   3.332
  163SAPE   H6Y18272   1.667   3.076   3.348
  163SAPE   C3718273   1.492   3.204   3.395
  163SAPE   H7X18274   1.453   3.102   3.419
  163SAPE   H7Y18275   1.414   3.268   3.348
  163SAPE   C3818276   1.531   3.256   3.536
  163SAPE   H8X18277   1.444   3.311   3.578
  163SAPE   H8Y18278   1.606   3.335   3.512
  163SAPE   C3918279   1.579   3.146   3.640
  163SAPE   H9X18280   1.663   3.098   3.585
  163SAPE   H9Y18281   1.505   3.064   3.644
  163SAPE  C31018282   1.613   3.210   3.771
  163SAPE  H10X18283   1.521   3.236   3.828
  163SAPE  H10Y18284   1.676   3.300   3.752
  163SAPE  C31118285   1.693   3.115   3.868
  163SAPE  H11X18286   1.789   3.077   3.826
  163SAPE  H11Y18287   1.644   3.017   3.885
  163SAPE  C31218288   1.728   3.183   4.003
  163SAPE  H12X18289   1.628   3.217   4.037
  163SAPE  H12Y18290   1.792   3.273   3.987
  163SAPE  C31318291   1.771   3.086   4.113
  163SAPE  H13X18292   1.874   3.050   4.093
  163SAPE  H13Y18293   1.713   2.991   4.108
  163SAPE  C31418294   1.773   3.150   4.256
  163SAPE  H14X18295   1.672   3.132   4.299
  163SAPE  H14Y18296   1.793   3.259   4.245
  163SAPE  C31518297   1.873   3.069   4.338
  163SAPE  H15X18298   1.971   3.083   4.286
  163SAPE  H15Y18299   1.847   2.961   4.331
  163SAPE  C31618300   1.885   3.101   4.489
  163SAPE  H16X18301   1.971   3.038   4.520
  163SAPE  H16Y18302   1.797   3.080   4.554
  163SAPE  C31718303   1.923   3.247   4.506
  163SAPE  H17X18304   1.858   3.308   4.440
  163SAPE  H17Y18305   2.029   3.254   4.474
  163SAPE  C31818306   1.910   3.307   4.646
  163SAPE  H18X18307   1.803   3.321   4.674
  163SAPE  H18Y18308   1.969   3.401   4.646
  163SAPE  H18Z18309   1.966   3.242   4.717
  164SAPE     N18310   6.221   3.903   2.386
  164SAPE   HN118311   6.232   3.801   2.370
  164SAPE   HN218312   6.226   3.897   2.490
  164SAPE   HN318313   6.127   3.918   2.343
  164SAPE   C1218314   6.327   3.977   2.313
  164SAPE  H12A18315   6.325   3.943   2.207
  164SAPE  H12B18316   6.424   3.958   2.364
  164SAPE   C1118317   6.308   4.127   2.316
  164SAPE  H11A18318   6.400   4.176   2.277
  164SAPE  H11B18319   6.284   4.162   2.419
  164SAPE     P18320   6.161   4.313   2.196
  164SAPE   O1318321   6.250   4.384   2.092
  164SAPE   O1418322   6.017   4.316   2.168
  164SAPE   O1218323   6.204   4.163   2.224
  164SAPE   O1118324   6.191   4.382   2.336
  164SAPE    C118325   6.090   4.391   2.430
  164SAPE    HA18326   6.027   4.475   2.392
  164SAPE    HB18327   6.027   4.301   2.442
  164SAPE    C218328   6.142   4.396   2.572
  164SAPE    HS18329   6.197   4.493   2.578
  164SAPE   O2118330   6.222   4.278   2.606
  164SAPE   C2118331   6.334   4.301   2.666
  164SAPE   O2218332   6.387   4.413   2.665
  164SAPE   C2218333   6.397   4.172   2.721
  164SAPE   H2R18334   6.330   4.093   2.682
  164SAPE   H2S18335   6.497   4.168   2.674
  164SAPE    C318336   6.022   4.408   2.671
  164SAPE    HX18337   5.954   4.328   2.636
  164SAPE    HY18338   5.979   4.509   2.653
  164SAPE   O3118339   6.078   4.403   2.803
  164SAPE   C3118340   5.987   4.380   2.904
  164SAPE   O3218341   5.871   4.362   2.882
  164SAPE   C3218342   6.066   4.376   3.037
  164SAPE   H2X18343   6.074   4.477   3.084
  164SAPE   H2Y18344   6.169   4.340   3.020
  164SAPE   C2318345   6.409   4.184   2.873
  164SAPE   H3R18346   6.315   4.233   2.908
  164SAPE   H3S18347   6.494   4.253   2.890
  164SAPE   C2418348   6.436   4.049   2.952
  164SAPE   H4R18349   6.515   4.000   2.891
  164SAPE   H4S18350   6.347   3.982   2.957
  164SAPE   C2518351   6.491   4.081   3.092
  164SAPE   H5R18352   6.585   4.136   3.082
  164SAPE   C2618353   6.441   4.044   3.217
  164SAPE   H6R18354   6.505   4.051   3.306
  164SAPE   C2718355   6.312   3.965   3.241
  164SAPE   H7R18356   6.266   3.958   3.140
  164SAPE   H7S18357   6.243   4.004   3.319
  164SAPE   C2818358   6.333   3.826   3.292
  164SAPE   H8R18359   6.335   3.752   3.211
  164SAPE   C2918360   6.349   3.789   3.424
  164SAPE   H9R18361   6.363   3.681   3.440
  164SAPE  C21018362   6.355   3.887   3.536
  164SAPE  H10R18363   6.251   3.892   3.574
  164SAPE  H10S18364   6.395   3.983   3.498
  164SAPE  C21118365   6.442   3.843   3.653
  164SAPE  H11R18366   6.500   3.750   3.642
  164SAPE  C21218367   6.445   3.911   3.767
  164SAPE  H12R18368   6.495   3.861   3.852
  164SAPE  C21318369   6.362   4.031   3.802
  164SAPE  H13R18370   6.267   3.997   3.848
  164SAPE  H13S18371   6.329   4.088   3.712
  164SAPE  C21418372   6.420   4.129   3.899
  164SAPE  H14R18373   6.457   4.222   3.853
  164SAPE  C21518374   6.431   4.116   4.032
  164SAPE  H15R18375   6.472   4.196   4.096
  164SAPE  C21618376   6.364   4.004   4.116
  164SAPE  H16R18377   6.326   3.920   4.055
  164SAPE  H16S18378   6.272   4.054   4.154
  164SAPE  C21718379   6.442   3.948   4.237
  164SAPE  H17R18380   6.368   3.904   4.307
  164SAPE  H17S18381   6.490   4.035   4.287
  164SAPE  C21818382   6.549   3.841   4.189
  164SAPE  H18R18383   6.506   3.765   4.121
  164SAPE  H18S18384   6.579   3.781   4.278
  164SAPE  C21918385   6.681   3.892   4.116
  164SAPE  H19R18386   6.663   3.940   4.018
  164SAPE  H19S18387   6.727   3.795   4.087
  164SAPE  C22018388   6.786   3.974   4.195
  164SAPE  H20R18389   6.736   4.068   4.226
  164SAPE  H20S18390   0.083   3.983   4.136
  164SAPE  H20T18391   0.015   3.916   4.287
  164SAPE   C3318392   6.001   4.275   3.131
  164SAPE   H3X18393   6.019   4.174   3.090
  164SAPE   H3Y18394   5.894   4.297   3.150
  164SAPE   C3418395   6.057   4.288   3.275
  164SAPE   H4X18396   6.056   4.395   3.306
  164SAPE   H4Y18397   6.160   4.247   3.280
  164SAPE   C3518398   5.989   4.194   3.381
  164SAPE   H5X18399   6.010   4.086   3.364
  164SAPE   H5Y18400   5.882   4.222   3.381
  164SAPE   C3618401   6.023   4.208   3.533
  164SAPE   H6X18402   5.963   4.295   3.564
  164SAPE   H6Y18403   6.130   4.232   3.551
  164SAPE   C3718404   5.980   4.091   3.615
  164SAPE   H7X18405   6.028   3.998   3.578
  164SAPE   H7Y18406   5.874   4.076   3.588
  164SAPE   C3818407   5.994   4.119   3.771
  164SAPE   H8X18408   6.102   4.132   3.793
  164SAPE   H8Y18409   5.950   4.031   3.822
  164SAPE   C3918410   5.911   4.245   3.817
  164SAPE   H9X18411   5.805   4.228   3.787
  164SAPE   H9Y18412   5.936   4.341   3.767
  164SAPE  C31018413   5.918   4.271   3.966
  164SAPE  H10X18414   5.862   4.188   4.013
  164SAPE  H10Y18415   5.862   4.363   3.995
  164SAPE  C31118416   6.058   4.288   4.018
  164SAPE  H11X18417   6.101   4.389   4.003
  164SAPE  H11Y18418   6.129   4.217   3.970
  164SAPE  C31218419   6.080   4.278   4.174
  164SAPE  H12X18420   6.185   4.296   4.203
  164SAPE  H12Y18421   6.059   4.174   4.206
  164SAPE  C31318422   5.993   4.374   4.254
  164SAPE  H13X18423   5.894   4.383   4.205
  164SAPE  H13Y18424   6.025   4.480   4.253
  164SAPE  C31418425   5.973   4.341   4.399
  164SAPE  H14X18426   5.935   4.237   4.394
  164SAPE  H14Y18427   5.889   4.401   4.438
  164SAPE  C31518428   6.099   4.338   4.476
  164SAPE  H15X18429   6.158   4.420   4.431
  164SAPE  H15Y18430   6.166   4.253   4.450
  164SAPE  C31618431   6.079   4.358   4.631
  164SAPE  H16X18432   6.016   4.277   4.674
  164SAPE  H16Y18433   6.025   4.454   4.640
  164SAPE  C31718434   6.209   4.375   4.712
  164SAPE  H17X18435   6.302   4.338   4.662
  164SAPE  H17Y18436   6.205   4.313   4.804
  164SAPE  C31818437   6.236   4.531   4.755
  164SAPE  H18X18438   6.156   4.544   4.831
  164SAPE  H18Y18439   6.223   4.606   4.674
  164SAPE  H18Z18440   6.334   4.542   4.806
  165SAPE     N18441   5.761   0.554   2.283
  165SAPE   HN118442   5.779   0.656   2.297
  165SAPE   HN218443   5.746   0.511   2.376
  165SAPE   HN318444   5.856   0.515   2.264
  165SAPE   C1218445   5.656   0.500   2.195
  165SAPE  H12A18446   5.666   0.555   2.099
  165SAPE  H12B18447   5.557   0.528   2.238
  165SAPE   C1118448   5.656   0.347   2.175
  165SAPE  H11A18449   5.753   0.315   2.133
  165SAPE  H11B18450   5.585   0.315   2.095
  165SAPE     P18451   5.619   0.134   2.297
  165SAPE   O1318452   5.503   0.099   2.214
  165SAPE   O1418453   5.745   0.076   2.252
  165SAPE   O1218454   5.621   0.287   2.294
  165SAPE   O1118455   5.581   0.090   2.440
  165SAPE    C118456   5.487   0.150   2.525
  165SAPE    HA18457   5.399   0.172   2.461
  165SAPE    HB18458   5.451   0.076   2.600
  165SAPE    C218459   5.533   0.278   2.600
  165SAPE    HS18460   5.504   0.364   2.535
  165SAPE   O2118461   5.672   0.268   2.631
  165SAPE   C2118462   5.754   0.366   2.591
  165SAPE   O2218463   5.719   0.464   2.526
  165SAPE   C2218464   5.893   0.331   2.637
  165SAPE   H2R18465   5.905   0.222   2.652
  165SAPE   H2S18466   5.963   0.350   2.553
  165SAPE    C318467   5.462   0.305   2.731
  165SAPE    HX18468   5.354   0.290   2.710
  165SAPE    HY18469   5.483   0.405   2.774
  165SAPE   O3118470   5.496   0.204   2.825
  165SAPE   C3118471   5.425   0.202   2.937
  165SAPE   O3218472   5.342   0.282   2.974
  165SAPE   C3218473   5.471   0.084   3.019
  165SAPE   H2X18474   5.579   0.099   3.039
  165SAPE   H2Y18475   5.455   6.789   2.957
  165SAPE   C2318476   5.955   0.414   2.758
  165SAPE   H3R18477   5.944   0.522   2.733
  165SAPE   H3S18478   6.064   0.397   2.764
  165SAPE   C2418479   5.890   0.393   2.898
  165SAPE   H4R18480   5.784   0.426   2.905
  165SAPE   H4S18481   5.936   0.468   2.966
  165SAPE   C2518482   5.891   0.252   2.947
  165SAPE   H5R18483   5.913   0.170   2.878
  165SAPE   C2618484   5.866   0.221   3.075
  165SAPE   H6R18485   5.872   0.112   3.089
  165SAPE   C2718486   5.826   0.311   3.188
  165SAPE   H7R18487   5.716   0.303   3.204
  165SAPE   H7S18488   5.851   0.419   3.181
  165SAPE   C2818489   5.902   0.243   3.306
  165SAPE   H8R18490   6.006   0.277   3.298
  165SAPE   C2918491   5.866   0.157   3.402
  165SAPE   H9R18492   5.952   0.119   3.460
  165SAPE  C21018493   5.729   0.091   3.417
  165SAPE  H10R18494   5.741   6.779   3.396
  165SAPE  H10S18495   5.665   0.118   3.330
  165SAPE  C21118496   5.658   0.112   3.543
  165SAPE  H11R18497   5.560   0.163   3.537
  165SAPE  C21218498   5.698   0.071   3.664
  165SAPE  H12R18499   5.633   0.102   3.747
  165SAPE  C21318500   5.810   6.788   3.706
  165SAPE  H13R18501   5.884   0.059   3.755
  165SAPE  H13S18502   5.878   6.748   3.628
  165SAPE  C21418503   5.761   6.671   3.786
  165SAPE  H14R18504   5.711   6.605   3.714
  165SAPE  C21518505   5.782   6.622   3.913
  165SAPE  H15R18506   5.729   6.535   3.954
  165SAPE  C21618507   5.858   6.692   4.015
  165SAPE  H16R18508   5.783   6.759   4.062
  165SAPE  H16S18509   5.934   6.756   3.964
  165SAPE  C21718510   5.910   6.601   4.123
  165SAPE  H17R18511   5.995   6.536   4.092
  165SAPE  H17S18512   5.833   6.528   4.159
  165SAPE  C21818513   5.955   6.688   4.241
  165SAPE  H18R18514   5.877   6.763   4.269
  165SAPE  H18S18515   6.054   6.733   4.220
  165SAPE  C21918516   5.983   6.611   4.378
  165SAPE  H19R18517   6.053   6.527   4.359
  165SAPE  H19S18518   5.890   6.574   4.428
  165SAPE  C22018519   6.059   6.698   4.477
  165SAPE  H20R18520   5.994   6.784   4.505
  165SAPE  H20S18521   6.160   6.733   4.444
  165SAPE  H20T18522   6.082   6.642   4.570
  165SAPE   C3318523   5.396   0.083   3.157
  165SAPE   H3X18524   5.288   0.061   3.142
  165SAPE   H3Y18525   5.413   0.185   3.198
  165SAPE   C3418526   5.433   6.755   3.241
  165SAPE   H4X18527   5.540   6.729   3.250
  165SAPE   H4Y18528   5.386   6.664   3.196
  165SAPE   C3518529   5.369   6.764   3.382
  165SAPE   H5X18530   5.258   6.768   3.377
  165SAPE   H5Y18531   5.408   0.060   3.430
  165SAPE   C3618532   5.403   6.633   3.468
  165SAPE   H6X18533   5.514   6.630   3.462
  165SAPE   H6Y18534   5.371   6.543   3.412
  165SAPE   C3718535   5.334   6.637   3.602
  165SAPE   H7X18536   5.227   6.616   3.582
  165SAPE   H7Y18537   5.339   6.739   3.646
  165SAPE   C3818538   5.404   6.531   3.691
  165SAPE   H8X18539   5.513   6.549   3.678
  165SAPE   H8Y18540   5.388   6.427   3.656
  165SAPE   C3918541   5.370   6.559   3.843
  165SAPE   H9X18542   5.259   6.557   3.851
  165SAPE   H9Y18543   5.407   6.656   3.884
  165SAPE  C31018544   5.442   6.452   3.932
  165SAPE  H10X18545   5.542   6.440   3.885
  165SAPE  H10Y18546   5.378   6.362   3.944
  165SAPE  C31118547   5.465   6.512   4.070
  165SAPE  H11X18548   5.372   6.559   4.109
  165SAPE  H11Y18549   5.539   6.590   4.046
  165SAPE  C31218550   5.528   6.417   4.174
  165SAPE  H12X18551   5.563   6.475   4.262
  165SAPE  H12Y18552   5.609   6.363   4.122
  165SAPE  C31318553   5.433   6.308   4.229
  165SAPE  H13X18554   5.391   6.245   4.148
  165SAPE  H13Y18555   5.337   6.350   4.264
  165SAPE  C31418556   5.497   6.224   4.345
  165SAPE  H14X18557   5.432   6.135   4.354
  165SAPE  H14Y18558   5.492   6.297   4.428
  165SAPE  C31518559   5.646   6.189   4.332
  165SAPE  H15X18560   5.708   6.273   4.294
  165SAPE  H15Y18561   5.648   6.115   4.250
  165SAPE  C31618562   5.706   6.141   4.465
  165SAPE  H16X18563   5.630   6.069   4.501
  165SAPE  H16Y18564   5.713   6.225   4.538
  165SAPE  C31718565   5.841   6.077   4.460
  165SAPE  H17X18566   5.838   6.002   4.379
  165SAPE  H17Y18567   5.853   6.022   4.556
  165SAPE  C31818568   5.959   6.177   4.432
  165SAPE  H18X18569   5.977   6.248   4.516
  165SAPE  H18Y18570   5.948   6.228   4.334
  165SAPE  H18Z18571   6.053   6.120   4.416
  166SAPE     N18572   0.340   4.954   2.481
  166SAPE   HN118573   0.433   4.941   2.437
  166SAPE   HN218574   0.343   4.907   2.574
  166SAPE   HN318575   0.279   4.901   2.416
  166SAPE   C1218576   0.302   5.097   2.486
  166SAPE  H12A18577   0.383   5.147   2.544
  166SAPE  H12B18578   0.206   5.120   2.536
  166SAPE   C1118579   0.304   5.162   2.340
  166SAPE  H11A18580   0.403   5.168   2.288
  166SAPE  H11B18581   0.283   5.267   2.370
  166SAPE     P18582   0.070   5.159   2.249
  166SAPE   O1318583   0.081   5.298   2.195
  166SAPE   O1418584   6.778   5.071   2.171
  166SAPE   O1218585   0.215   5.093   2.259
  166SAPE   O1118586   0.031   5.178   2.401
  166SAPE    C118587   6.743   5.281   2.458
  166SAPE    HA18588   6.670   5.318   2.382
  166SAPE    HB18589   6.676   5.227   2.527
  166SAPE    C218590   0.027   5.388   2.544
  166SAPE    HS18591   0.082   5.452   2.471
  166SAPE   O2118592   0.123   5.330   2.638
  166SAPE   C2118593   0.212   5.423   2.684
  166SAPE   O2218594   0.219   5.541   2.642
  166SAPE   C2218595   0.295   5.352   2.784
  166SAPE   H2R18596   0.288   5.241   2.784
  166SAPE   H2S18597   0.397   5.371   2.745
  166SAPE    C318598   6.717   5.482   2.614
  166SAPE    HX18599   6.654   5.521   2.531
  166SAPE    HY18600   6.773   5.571   2.651
  166SAPE   O3118601   6.656   5.419   2.726
  166SAPE   C3118602   6.532   5.380   2.712
  166SAPE   O3218603   6.468   5.381   2.606
  166SAPE   C3218604   6.478   5.325   2.839
  166SAPE   H2X18605   6.510   5.219   2.830
  166SAPE   H2Y18606   6.368   5.327   2.846
  166SAPE   C2318607   0.301   5.411   2.925
  166SAPE   H3R18608   0.326   5.519   2.914
  166SAPE   H3S18609   0.395   5.365   2.963
  166SAPE   C2418610   0.183   5.371   3.012
  166SAPE   H4R18611   0.172   5.262   3.026
  166SAPE   H4S18612   0.102   5.400   2.942
  166SAPE   C2518613   0.174   5.444   3.143
  166SAPE   H5R18614   0.165   5.551   3.122
  166SAPE   C2618615   0.158   5.404   3.271
  166SAPE   H6R18616   0.151   5.482   3.348
  166SAPE   C2718617   0.156   5.263   3.324
  166SAPE   H7R18618   0.158   5.191   3.240
  166SAPE   H7S18619   0.064   5.238   3.381
  166SAPE   C2818620   0.269   5.245   3.429
  166SAPE   H8R18621   0.366   5.243   3.377
  166SAPE   C2918622   0.264   5.261   3.562
  166SAPE   H9R18623   0.356   5.258   3.622
  166SAPE  C21018624   0.134   5.273   3.638
  166SAPE  H10R18625   0.108   5.196   3.714
  166SAPE  H10S18626   0.043   5.257   3.577
  166SAPE  C21118627   0.131   5.411   3.693
  166SAPE  H11R18628   0.218   5.431   3.757
  166SAPE  C21218629   0.026   5.497   3.680
  166SAPE  H12R18630   0.035   5.598   3.723
  166SAPE  C21318631   6.700   5.464   3.598
  166SAPE  H13R18632   6.645   5.376   3.638
  166SAPE  H13S18633   6.738   5.434   3.497
  166SAPE  C21418634   6.615   5.587   3.576
  166SAPE  H14R18635   6.521   5.589   3.633
  166SAPE  C21518636   6.630   5.672   3.468
  166SAPE  H15R18637   6.555   5.751   3.452
  166SAPE  C21618638   6.755   5.677   3.388
  166SAPE  H16R18639   6.763   5.583   3.329
  166SAPE  H16S18640   0.043   5.688   3.460
  166SAPE  C21718641   6.762   5.782   3.278
  166SAPE  H17R18642   0.059   5.775   3.219
  166SAPE  H17S18643   6.753   5.889   3.308
  166SAPE  C21818644   6.648   5.762   3.173
  166SAPE  H18R18645   6.559   5.792   3.233
  166SAPE  H18S18646   6.641   5.653   3.151
  166SAPE  C21918647   6.651   5.846   3.043
  166SAPE  H19R18648   6.660   5.951   3.079
  166SAPE  H19S18649   6.555   5.840   2.987
  166SAPE  C22018650   6.764   5.811   2.942
  166SAPE  H20R18651   6.754   5.886   2.861
  166SAPE  H20S18652   6.751   5.708   2.901
  166SAPE  H20T18653   0.068   5.814   2.991
  166SAPE   C3318654   6.536   5.384   2.962
  166SAPE   H3X18655   6.534   5.491   2.993
  166SAPE   H3Y18656   6.645   5.367   2.955
  166SAPE   C3418657   6.480   5.314   3.094
  166SAPE   H4X18658   6.488   5.205   3.076
  166SAPE   H4Y18659   6.370   5.335   3.098
  166SAPE   C3518660   6.546   5.341   3.225
  166SAPE   H5X18661   6.546   5.449   3.251
  166SAPE   H5Y18662   6.654   5.320   3.214
  166SAPE   C3618663   6.488   5.257   3.341
  166SAPE   H6X18664   6.566   5.246   3.420
  166SAPE   H6Y18665   6.465   5.156   3.301
  166SAPE   C3718666   6.370   5.321   3.419
  166SAPE   H7X18667   6.277   5.335   3.359
  166SAPE   H7Y18668   6.393   5.418   3.467
  166SAPE   C3818669   6.332   5.221   3.532
  166SAPE   H8X18670   6.429   5.210   3.585
  166SAPE   H8Y18671   6.305   5.127   3.480
  166SAPE   C3918672   6.222   5.262   3.621
  166SAPE   H9X18673   6.125   5.243   3.571
  166SAPE   H9Y18674   6.223   5.373   3.625
  166SAPE  C31018675   6.236   5.191   3.755
  166SAPE  H10X18676   6.329   5.219   3.809
  166SAPE  H10Y18677   6.228   5.081   3.742
  166SAPE  C31118678   6.120   5.236   3.856
  166SAPE  H11X18679   6.024   5.214   3.803
  166SAPE  H11Y18680   6.135   5.346   3.849
  166SAPE  C31218681   6.119   5.187   4.002
  166SAPE  H12X18682   6.082   5.273   4.062
  166SAPE  H12Y18683   6.228   5.171   4.020
  166SAPE  C31318684   6.029   5.064   4.021
  166SAPE  H13X18685   6.039   5.003   3.928
  166SAPE  H13Y18686   5.926   5.106   4.015
  166SAPE  C31418687   6.041   4.984   4.148
  166SAPE  H14X18688   6.144   4.944   4.161
  166SAPE  H14Y18689   5.975   4.894   4.146
  166SAPE  C31518690   6.003   5.069   4.270
  166SAPE  H15X18691   5.911   5.123   4.241
  166SAPE  H15Y18692   6.083   5.140   4.299
  166SAPE  C31618693   5.987   4.986   4.403
  166SAPE  H16X18694   6.078   4.927   4.426
  166SAPE  H16Y18695   5.903   4.916   4.387
  166SAPE  C31718696   5.963   5.072   4.532
  166SAPE  H17X18697   5.902   5.018   4.607
  166SAPE  H17Y18698   5.905   5.157   4.489
  166SAPE  C31818699   6.094   5.139   4.590
  166SAPE  H18X18700   6.148   5.184   4.504
  166SAPE  H18Y18701   6.155   5.065   4.646
  166SAPE  H18Z18702   6.061   5.224   4.654
  167SAPE     N18703   5.839   3.522   2.240
  167SAPE   HN118704   5.801   3.435   2.198
  167SAPE   HN218705   5.767   3.597   2.240
  167SAPE   HN318706   5.919   3.559   2.186
  167SAPE   C1218707   5.895   3.499   2.392
  167SAPE  H12A18708   5.801   3.480   2.448
  167SAPE  H12B18709   5.942   3.595   2.423
  167SAPE   C1118710   5.988   3.382   2.395
  167SAPE  H11A18711   5.931   3.301   2.346
  167SAPE  H11B18712   6.009   3.338   2.494
  167SAPE     P18713   6.219   3.495   2.404
  167SAPE   O1318714   6.348   3.436   2.366
  167SAPE   O1418715   6.209   3.641   2.380
  167SAPE   O1218716   6.107   3.413   2.322
  167SAPE   O1118717   6.195   3.457   2.555
  167SAPE    C118718   6.270   3.540   2.641
  167SAPE    HA18719   6.378   3.529   2.617
  167SAPE    HB18720   6.259   3.650   2.628
  167SAPE    C218721   6.259   3.504   2.794
  167SAPE    HS18722   6.184   3.576   2.833
  167SAPE   O2118723   6.391   3.523   2.856
  167SAPE   C2118724   6.415   3.653   2.872
  167SAPE   O2218725   6.330   3.737   2.864
  167SAPE   C2218726   6.552   3.682   2.926
  167SAPE   H2R18727   6.557   3.793   2.919
  167SAPE   H2S18728   6.556   3.645   3.030
  167SAPE    C318729   6.207   3.362   2.811
  167SAPE    HX18730   6.102   3.358   2.773
  167SAPE    HY18731   6.201   3.342   2.920
  167SAPE   O3118732   6.296   3.254   2.757
  167SAPE   C3118733   6.230   3.141   2.733
  167SAPE   O3218734   6.114   3.120   2.752
  167SAPE   C3218735   6.342   3.048   2.674
  167SAPE   H2X18736   6.368   3.091   2.575
  167SAPE   H2Y18737   6.288   2.957   2.642
  167SAPE   C2318738   6.667   3.629   2.840
  167SAPE   H3R18739   6.668   3.685   2.743
  167SAPE   H3S18740   6.644   3.523   2.816
  167SAPE   C2418741   0.011   3.642   2.906
  167SAPE   H4R18742   0.072   3.570   2.847
  167SAPE   H4S18743   0.017   3.607   3.012
  167SAPE   C2518744   0.076   3.773   2.882
  167SAPE   H5R18745   0.095   3.798   2.776
  167SAPE   C2618746   0.121   3.861   2.972
  167SAPE   H6R18747   0.171   3.955   2.944
  167SAPE   C2718748   0.120   3.840   3.119
  167SAPE   H7R18749   0.187   3.915   3.165
  167SAPE   H7S18750   0.167   3.749   3.161
  167SAPE   C2818751   6.778   3.844   3.191
  167SAPE   H8R18752   6.688   3.838   3.127
  167SAPE   C2918753   6.752   3.870   3.320
  167SAPE   H9R18754   6.645   3.860   3.344
  167SAPE  C21018755   0.055   3.886   3.433
  167SAPE  H10R18756   0.078   3.994   3.442
  167SAPE  H10S18757   0.156   3.843   3.413
  167SAPE  C21118758   6.791   3.838   3.566
  167SAPE  H11R18759   6.729   3.913   3.616
  167SAPE  C21218760   6.790   3.718   3.626
  167SAPE  H12R18761   6.756   3.713   3.730
  167SAPE  C21318762   0.074   3.598   3.566
  167SAPE  H13R18763   0.163   3.576   3.629
  167SAPE  H13S18764   0.106   3.614   3.461
  167SAPE  C21418765   6.786   3.475   3.577
  167SAPE  H14R18766   6.785   3.428   3.676
  167SAPE  C21518767   6.710   3.418   3.484
  167SAPE  H15R18768   6.647   3.331   3.508
  167SAPE  C21618769   6.687   3.470   3.338
  167SAPE  H16R18770   6.745   3.407   3.268
  167SAPE  H16S18771   6.720   3.576   3.327
  167SAPE  C21718772   6.541   3.440   3.297
  167SAPE  H17R18773   6.535   3.480   3.193
  167SAPE  H17S18774   6.465   3.498   3.353
  167SAPE  C21818775   6.503   3.289   3.295
  167SAPE  H18R18776   6.486   3.263   3.401
  167SAPE  H18S18777   6.583   3.226   3.251
  167SAPE  C21918778   6.365   3.268   3.222
  167SAPE  H19R18779   6.350   3.158   3.215
  167SAPE  H19S18780   6.378   3.303   3.117
  167SAPE  C22018781   6.240   3.319   3.289
  167SAPE  H20R18782   6.232   3.285   3.394
  167SAPE  H20S18783   6.145   3.299   3.236
  167SAPE  H20T18784   6.254   3.429   3.303
  167SAPE   C3318785   6.460   3.030   2.770
  167SAPE   H3X18786   6.506   3.129   2.787
  167SAPE   H3Y18787   6.532   2.953   2.736
  167SAPE   C3418788   6.419   2.971   2.906
  167SAPE   H4X18789   6.370   2.874   2.880
  167SAPE   H4Y18790   6.349   3.037   2.963
  167SAPE   C3518791   6.543   2.961   2.998
  167SAPE   H5X18792   6.577   3.059   3.037
  167SAPE   H5Y18793   6.628   2.911   2.947
  167SAPE   C3618794   6.504   2.886   3.131
  167SAPE   H6X18795   6.458   2.791   3.096
  167SAPE   H6Y18796   6.430   2.952   3.181
  167SAPE   C3718797   6.629   2.881   3.226
  167SAPE   H7X18798   6.671   2.979   3.257
  167SAPE   H7Y18799   6.709   2.826   3.171
  167SAPE   C3818800   6.609   2.784   3.347
  167SAPE   H8X18801   6.586   2.685   3.303
  167SAPE   H8Y18802   6.510   2.799   3.395
  167SAPE   C3918803   6.720   2.772   3.447
  167SAPE   H9X18804   6.714   2.870   3.497
  167SAPE   H9Y18805   0.017   2.757   3.388
  167SAPE  C31018806   6.709   2.668   3.552
  167SAPE  H10X18807   6.714   2.567   3.505
  167SAPE  H10Y18808   6.604   2.656   3.586
  167SAPE  C31118809   0.003   2.672   3.674
  167SAPE  H11X18810   6.741   2.738   3.742
  167SAPE  H11Y18811   0.096   2.728   3.649
  167SAPE  C31218812   0.026   2.531   3.736
  167SAPE  H12X18813   0.119   2.483   3.699
  167SAPE  H12Y18814   6.741   2.458   3.718
  167SAPE  C31318815   0.053   2.541   3.884
  167SAPE  H13X18816   6.769   2.603   3.928
  167SAPE  H13Y18817   0.146   2.599   3.905
  167SAPE  C31418818   0.084   2.405   3.949
  167SAPE  H14X18819   0.168   2.364   3.889
  167SAPE  H14Y18820   6.792   2.339   3.936
  167SAPE  C31518821   0.110   2.410   4.108
  167SAPE  H15X18822   0.042   2.486   4.152
  167SAPE  H15Y18823   0.210   2.454   4.126
  167SAPE  C31618824   0.093   2.270   4.177
  167SAPE  H16X18825   6.789   2.242   4.137
  167SAPE  H16Y18826   0.069   2.267   4.285
  167SAPE  C31718827   0.201   2.170   4.137
  167SAPE  H17X18828   0.214   2.172   4.027
  167SAPE  H17Y18829   0.166   2.066   4.157
  167SAPE  C31818830   0.336   2.196   4.206
  167SAPE  H18X18831   0.326   2.248   4.303
  167SAPE  H18Y18832   0.391   2.269   4.142
  167SAPE  H18Z18833   0.394   2.102   4.215
  168SAPE     N18834   2.315   5.415   2.523
  168SAPE   HN118835   2.320   5.461   2.616
  168SAPE   HN218836   2.387   5.340   2.517
  168SAPE   HN318837   2.333   5.488   2.450
  168SAPE   C1218838   2.177   5.352   2.510
  168SAPE  H12A18839   2.166   5.302   2.411
  168SAPE  H12B18840   2.111   5.441   2.510
  168SAPE   C1118841   2.139   5.262   2.629
  168SAPE  H11A18842   2.043   5.211   2.607
  168SAPE  H11B18843   2.121   5.322   2.721
  168SAPE     P18844   2.226   5.017   2.680
  168SAPE   O1318845   2.137   4.953   2.577
  168SAPE   O1418846   2.362   4.968   2.680
  168SAPE   O1218847   2.245   5.172   2.652
  168SAPE   O1118848   2.155   4.997   2.823
  168SAPE    C118849   2.185   5.087   2.931
  168SAPE    HA18850   2.188   5.189   2.888
  168SAPE    HB18851   2.086   5.106   2.980
  168SAPE    C218852   2.291   5.059   3.041
  168SAPE    HS18853   2.305   5.146   3.109
  168SAPE   O2118854   2.421   5.044   2.982
  168SAPE   C2118855   2.490   5.155   2.947
  168SAPE   O2218856   2.461   5.270   2.974
  168SAPE   C2218857   2.621   5.107   2.879
  168SAPE   H2R18858   2.650   5.007   2.918
  168SAPE   H2S18859   2.605   5.086   2.771
  168SAPE    C318860   2.246   4.926   3.119
  168SAPE    HX18861   2.212   4.867   3.032
  168SAPE    HY18862   2.166   4.967   3.185
  168SAPE   O3118863   2.350   4.868   3.199
  168SAPE   C3118864   2.387   4.942   3.300
  168SAPE   O3218865   2.345   5.055   3.327
  168SAPE   C3218866   2.510   4.881   3.367
  168SAPE   H2X18867   2.578   4.969   3.363
  168SAPE   H2Y18868   2.554   4.797   3.310
  168SAPE   C2318869   2.739   5.209   2.889
  168SAPE   H3R18870   2.707   5.304   2.841
  168SAPE   H3S18871   2.824   5.160   2.836
  168SAPE   C2418872   2.787   5.243   3.026
  168SAPE   H4R18873   2.716   5.297   3.093
  168SAPE   H4S18874   2.875   5.307   3.004
  168SAPE   C2518875   2.846   5.126   3.096
  168SAPE   H5R18876   2.890   5.056   3.023
  168SAPE   C2618877   2.871   5.118   3.231
  168SAPE   H6R18878   2.929   5.032   3.268
  168SAPE   C2718879   2.839   5.227   3.340
  168SAPE   H7R18880   2.867   5.330   3.310
  168SAPE   H7S18881   2.897   5.211   3.434
  168SAPE   C2818882   2.696   5.221   3.389
  168SAPE   H8R18883   2.622   5.214   3.307
  168SAPE   C2918884   2.654   5.205   3.518
  168SAPE   H9R18885   2.546   5.209   3.540
  168SAPE  C21018886   2.745   5.211   3.637
  168SAPE  H10R18887   2.845   5.168   3.614
  168SAPE  H10S18888   2.706   5.139   3.712
  168SAPE  C21118889   2.761   5.343   3.698
  168SAPE  H11R18890   2.749   5.431   3.633
  168SAPE  C21218891   2.772   5.357   3.835
  168SAPE  H12R18892   2.796   5.453   3.884
  168SAPE  C21318893   2.792   5.238   3.932
  168SAPE  H13R18894   2.819   5.140   3.888
  168SAPE  H13S18895   2.693   5.215   3.977
  168SAPE  C21418896   2.897   5.280   4.041
  168SAPE  H14R18897   2.853   5.293   4.141
  168SAPE  C21518898   3.031   5.308   4.024
  168SAPE  H15R18899   3.094   5.341   4.108
  168SAPE  C21618900   3.108   5.292   3.896
  168SAPE  H16R18901   3.039   5.274   3.810
  168SAPE  H16S18902   3.180   5.209   3.909
  168SAPE  C21718903   3.179   5.417   3.865
  168SAPE  H17R18904   3.260   5.438   3.938
  168SAPE  H17S18905   3.119   5.510   3.875
  168SAPE  C21818906   3.236   5.425   3.723
  168SAPE  H18R18907   3.305   5.342   3.699
  168SAPE  H18S18908   3.299   5.516   3.726
  168SAPE  C21918909   3.128   5.436   3.609
  168SAPE  H19R18910   3.048   5.505   3.642
  168SAPE  H19S18911   3.082   5.337   3.593
  168SAPE  C22018912   3.173   5.486   3.475
  168SAPE  H20R18913   3.256   5.428   3.430
  168SAPE  H20S18914   3.209   5.591   3.469
  168SAPE  H20T18915   3.087   5.473   3.406
  168SAPE   C3318916   2.474   4.822   3.505
  168SAPE   H3X18917   2.406   4.734   3.501
  168SAPE   H3Y18918   2.423   4.897   3.570
  168SAPE   C3418919   2.609   4.800   3.576
  168SAPE   H4X18920   2.682   4.882   3.558
  168SAPE   H4Y18921   2.653   4.711   3.527
  168SAPE   C3518922   2.592   4.795   3.726
  168SAPE   H5X18923   2.531   4.711   3.765
  168SAPE   H5Y18924   2.536   4.886   3.756
  168SAPE   C3618925   2.730   4.789   3.794
  168SAPE   H6X18926   2.780   4.888   3.802
  168SAPE   H6Y18927   2.801   4.726   3.737
  168SAPE   C3718928   2.727   4.737   3.937
  168SAPE   H7X18929   2.832   4.723   3.969
  168SAPE   H7Y18930   2.695   4.631   3.948
  168SAPE   C3818931   2.659   4.819   4.049
  168SAPE   H8X18932   2.549   4.798   4.050
  168SAPE   H8Y18933   2.666   4.920   4.005
  168SAPE   C3918934   2.723   4.802   4.185
  168SAPE   H9X18935   2.827   4.839   4.173
  168SAPE   H9Y18936   2.731   4.696   4.217
  168SAPE  C31018937   2.651   4.882   4.300
  168SAPE  H10X18938   2.550   4.836   4.308
  168SAPE  H10Y18939   2.634   4.987   4.270
  168SAPE  C31118940   2.711   4.872   4.441
  168SAPE  H11X18941   2.802   4.934   4.452
  168SAPE  H11Y18942   2.734   4.764   4.454
  168SAPE  C31218943   2.611   4.910   4.544
  168SAPE  H12X18944   2.644   4.863   4.639
  168SAPE  H12Y18945   2.514   4.869   4.510
  168SAPE  C31318946   2.604   5.058   4.586
  168SAPE  H13X18947   2.593   5.119   4.494
  168SAPE  H13Y18948   2.698   5.091   4.635
  168SAPE  C31418949   2.473   5.073   4.674
  168SAPE  H14X18950   2.486   5.029   4.775
  168SAPE  H14Y18951   2.406   4.996   4.631
  168SAPE  C31518952   2.416   5.216   4.684
  168SAPE  H15X18953   2.369   5.247   4.588
  168SAPE  H15Y18954   2.498   5.282   4.720
  168SAPE  C31618955   2.324   5.221   4.812
  168SAPE  H16X18956   2.380   5.191   4.904
  168SAPE  H16Y18957   2.237   5.154   4.798
  168SAPE  C31718958   2.243   5.351   4.841
  168SAPE  H17X18959   2.176   5.365   4.753
  168SAPE  H17Y18960   2.314   5.436   4.846
  168SAPE  C31818961   2.172   5.360   4.976
  168SAPE  H18X18962   2.247   5.352   5.057
  168SAPE  H18Y18963   2.095   5.280   4.980
  168SAPE  H18Z18964   2.117   5.456   4.984
  169SAPE     N18965   6.200   2.666   2.155
  169SAPE   HN118966   6.168   2.567   2.156
  169SAPE   HN218967   6.114   2.725   2.153
  169SAPE   HN318968   6.251   2.687   2.067
  169SAPE   C1218969   6.296   2.699   2.260
  169SAPE  H12A18970   6.255   2.678   2.361
  169SAPE  H12B18971   6.324   2.806   2.255
  169SAPE   C1118972   6.435   2.625   2.249
  169SAPE  H11A18973   6.426   2.521   2.286
  169SAPE  H11B18974   6.489   2.684   2.326
  169SAPE     P18975   6.520   2.512   2.038
  169SAPE   O1318976   6.391   2.458   1.977
  169SAPE   O1418977   6.629   2.535   1.941
  169SAPE   O1218978   6.493   2.641   2.119
  169SAPE   O1118979   6.576   2.424   2.153
  169SAPE    C118980   6.695   2.465   2.214
  169SAPE    HA18981   6.779   2.429   2.150
  169SAPE    HB18982   6.711   2.574   2.232
  169SAPE    C218983   6.703   2.399   2.356
  169SAPE    HS18984   6.658   2.298   2.345
  169SAPE   O2118985   6.623   2.479   2.443
  169SAPE   C2118986   6.542   2.416   2.532
  169SAPE   O2218987   6.538   2.295   2.545
  169SAPE   C2218988   6.434   2.515   2.581
  169SAPE   H2R18989   6.483   2.614   2.570
  169SAPE   H2S18990   6.352   2.501   2.507
  169SAPE    C318991   0.054   2.379   2.415
  169SAPE    HX18992   0.103   2.477   2.432
  169SAPE    HY18993   0.116   2.326   2.339
  169SAPE   O3118994   0.065   2.297   2.534
  169SAPE   C3118995   0.069   2.361   2.643
  169SAPE   O3218996   0.062   2.483   2.657
  169SAPE   C3218997   0.105   2.259   2.757
  169SAPE   H2X18998   0.116   2.159   2.712
  169SAPE   H2Y18999   0.023   2.265   2.832
  169SAPE   C2319000   6.382   2.477   2.722
  169SAPE   H3R19001   6.409   2.371   2.744
  169SAPE   H3S19002   6.272   2.486   2.706
  169SAPE   C2419003   6.426   2.567   2.837
  169SAPE   H4R19004   6.372   2.535   2.929
  169SAPE   H4S19005   6.407   2.675   2.818
  169SAPE   C2519006   6.575   2.551   2.872
  169SAPE   H5R19007   6.640   2.595   2.794
  169SAPE   C2619008   6.635   2.499   2.992
  169SAPE   H6R19009   6.744   2.488   3.002
  169SAPE   C2719010   6.565   2.430   3.107
  169SAPE   H7R19011   6.498   2.347   3.077
  169SAPE   H7S19012   6.486   2.499   3.144
  169SAPE   C2819013   6.658   2.397   3.221
  169SAPE   H8R19014   6.766   2.384   3.214
  169SAPE   C2919015   6.606   2.378   3.345
  169SAPE   H9R19016   6.667   2.345   3.430
  169SAPE  C21019017   6.453   2.389   3.374
  169SAPE  H10R19018   6.432   2.331   3.466
  169SAPE  H10S19019   6.394   2.341   3.293
  169SAPE  C21119020   6.382   2.522   3.398
  169SAPE  H11R19021   6.386   2.588   3.309
  169SAPE  C21219022   6.316   2.562   3.507
  169SAPE  H12R19023   6.268   2.661   3.509
  169SAPE  C21319024   6.297   2.498   3.639
  169SAPE  H13R19025   6.272   2.390   3.628
  169SAPE  H13S19026   6.205   2.536   3.688
  169SAPE  C21419027   6.411   2.509   3.736
  169SAPE  H14R19028   6.504   2.457   3.708
  169SAPE  C21519029   6.429   2.599   3.836
  169SAPE  H15R19030   6.515   2.587   3.903
  169SAPE  C21619031   6.325   2.692   3.889
  169SAPE  H16R19032   6.285   2.659   3.987
  169SAPE  H16S19033   6.248   2.703   3.810
  169SAPE  C21719034   6.401   2.822   3.917
  169SAPE  H17R19035   6.493   2.810   3.978
  169SAPE  H17S19036   6.329   2.884   3.974
  169SAPE  C21819037   6.445   2.919   3.798
  169SAPE  H18R19038   6.344   2.952   3.767
  169SAPE  H18S19039   6.506   2.868   3.720
  169SAPE  C21919040   6.513   3.044   3.855
  169SAPE  H19R19041   6.592   3.010   3.925
  169SAPE  H19S19042   6.438   3.103   3.912
  169SAPE  C22019043   6.570   3.131   3.750
  169SAPE  H20R19044   6.491   3.173   3.684
  169SAPE  H20S19045   6.638   3.072   3.685
  169SAPE  H20T19046   6.615   3.226   3.787
  169SAPE   C3319047   0.236   2.307   2.820
  169SAPE   H3X19048   0.230   2.410   2.859
  169SAPE   H3Y19049   0.319   2.303   2.747
  169SAPE   C3419050   0.289   2.211   2.929
  169SAPE   H4X19051   0.388   2.254   2.954
  169SAPE   H4Y19052   0.314   2.114   2.880
  169SAPE   C3519053   0.204   2.197   3.050
  169SAPE   H5X19054   0.103   2.164   3.019
  169SAPE   H5Y19055   0.191   2.302   3.086
  169SAPE   C3619056   0.258   2.105   3.159
  169SAPE   H6X19057   0.346   2.152   3.208
  169SAPE   H6Y19058   0.294   2.014   3.106
  169SAPE   C3719059   0.163   2.054   3.264
  169SAPE   H7X19060   0.196   1.962   3.317
  169SAPE   H7Y19061   0.062   2.039   3.220
  169SAPE   C3819062   0.132   2.156   3.375
  169SAPE   H8X19063   0.112   2.258   3.335
  169SAPE   H8Y19064   0.228   2.162   3.431
  169SAPE   C3919065   0.010   2.106   3.453
  169SAPE   H9X19066   0.015   1.995   3.463
  169SAPE   H9Y19067   6.721   2.128   3.384
  169SAPE  C31019068   0.003   2.181   3.585
  169SAPE  H10X19069   0.036   2.286   3.567
  169SAPE  H10Y19070   0.082   2.141   3.652
  169SAPE  C31119071   6.657   2.181   3.658
  169SAPE  H11X19072   6.576   2.233   3.603
  169SAPE  H11Y19073   6.682   2.229   3.755
  169SAPE  C31219074   6.597   2.045   3.682
  169SAPE  H12X19075   6.678   1.971   3.699
  169SAPE  H12Y19076   6.528   2.006   3.605
  169SAPE  C31319077   6.531   2.046   3.824
  169SAPE  H13X19078   6.474   2.142   3.826
  169SAPE  H13Y19079   6.611   2.042   3.901
  169SAPE  C31419080   6.440   1.921   3.841
  169SAPE  H14X19081   6.500   1.828   3.831
  169SAPE  H14Y19082   6.358   1.922   3.765
  169SAPE  C31519083   6.377   1.902   3.979
  169SAPE  H15X19084   6.335   1.997   4.019
  169SAPE  H15Y19085   6.456   1.868   4.050
  169SAPE  C31619086   6.276   1.778   3.988
  169SAPE  H16X19087   6.315   1.687   3.938
  169SAPE  H16Y19088   6.180   1.810   3.942
  169SAPE  C31719089   6.246   1.740   4.140
  169SAPE  H17X19090   6.142   1.703   4.147
  169SAPE  H17Y19091   6.256   1.828   4.207
  169SAPE  C31819092   6.342   1.629   4.191
  169SAPE  H18X19093   6.283   1.576   4.269
  169SAPE  H18Y19094   6.440   1.655   4.236
  169SAPE  H18Z19095   6.345   1.545   4.118
  170SAPE     N19096   0.163   4.060   1.909
  170SAPE   HN119097   0.102   3.993   1.857
  170SAPE   HN219098   0.112   4.122   1.974
  170SAPE   HN319099   0.229   4.116   1.852
  170SAPE   C1219100   0.246   3.973   2.006
  170SAPE  H12A19101   0.275   4.030   2.097
  170SAPE  H12B19102   0.336   3.938   1.953
  170SAPE   C1119103   0.173   3.851   2.051
  170SAPE  H11A19104   0.152   3.781   1.967
  170SAPE  H11B19105   0.074   3.887   2.089
  170SAPE     P19106   0.375   3.678   2.115
  170SAPE   O1319107   0.338   3.603   1.997
  170SAPE   O1419108   0.496   3.764   2.098
  170SAPE   O1219109   0.260   3.781   2.151
  170SAPE   O1119110   0.405   3.580   2.237
  170SAPE    C119111   0.317   3.588   2.352
  170SAPE    HA19112   0.338   3.689   2.394
  170SAPE    HB19113   0.209   3.587   2.325
  170SAPE    C219114   0.352   3.492   2.463
  170SAPE    HS19115   0.462   3.481   2.465
  170SAPE   O2119116   0.276   3.375   2.426
  170SAPE   C2119117   0.330   3.265   2.471
  170SAPE   O2219118   0.443   3.247   2.519
  170SAPE   C2219119   0.226   3.155   2.437
  170SAPE   H2R19120   0.128   3.206   2.445
  170SAPE   H2S19121   0.234   3.112   2.335
  170SAPE    C319122   0.309   3.543   2.603
  170SAPE    HX19123   0.198   3.550   2.600
  170SAPE    HY19124   0.343   3.647   2.619
  170SAPE   O3119125   0.325   3.458   2.713
  170SAPE   C3119126   0.441   3.487   2.782
  170SAPE   O3219127   0.518   3.579   2.757
  170SAPE   C3219128   0.447   3.405   2.909
  170SAPE   H2X19129   0.510   3.315   2.892
  170SAPE   H2Y19130   0.343   3.372   2.927
  170SAPE   C2319131   0.214   3.032   2.532
  170SAPE   H3R19132   0.302   2.969   2.505
  170SAPE   H3S19133   0.129   2.972   2.491
  170SAPE   C2419134   0.199   3.058   2.677
  170SAPE   H4R19135   0.127   3.143   2.673
  170SAPE   H4S19136   0.302   3.091   2.702
  170SAPE   C2519137   0.149   2.937   2.752
  170SAPE   H5R19138   0.158   2.838   2.704
  170SAPE   C2619139   0.113   2.933   2.883
  170SAPE   H6R19140   0.105   2.831   2.924
  170SAPE   C2719141   0.116   3.047   2.986
  170SAPE   H7R19142   0.035   3.032   3.061
  170SAPE   H7S19143   0.086   3.140   2.933
  170SAPE   C2819144   0.253   3.060   3.048
  170SAPE   H8R19145   0.337   3.021   2.989
  170SAPE   C2919146   0.284   3.086   3.180
  170SAPE   H9R19147   0.388   3.078   3.217
  170SAPE  C21019148   0.189   3.112   3.291
  170SAPE  H10R19149   0.187   3.013   3.341
  170SAPE  H10S19150   0.085   3.120   3.252
  170SAPE  C21119151   0.227   3.232   3.374
  170SAPE  H11R19152   0.253   3.323   3.317
  170SAPE  C21219153   0.255   3.234   3.506
  170SAPE  H12R19154   0.262   3.332   3.556
  170SAPE  C21319155   0.258   3.112   3.594
  170SAPE  H13R19156   0.324   3.143   3.678
  170SAPE  H13S19157   0.310   3.035   3.532
  170SAPE  C21419158   0.121   3.070   3.642
  170SAPE  H14R19159   0.031   3.099   3.585
  170SAPE  C21519160   0.104   2.995   3.746
  170SAPE  H15R19161   0.002   2.968   3.780
  170SAPE  C21619162   0.215   2.929   3.831
  170SAPE  H16R19163   0.313   2.947   3.783
  170SAPE  H16S19164   0.204   2.818   3.825
  170SAPE  C21719165   0.225   2.988   3.976
  170SAPE  H17R19166   0.226   3.099   3.970
  170SAPE  H17S19167   0.319   2.945   4.018
  170SAPE  C21819168   0.114   2.930   4.075
  170SAPE  H18R19169   0.137   2.821   4.077
  170SAPE  H18S19170   0.020   2.940   4.016
  170SAPE  C21919171   0.098   2.992   4.212
  170SAPE  H19R19172   0.027   2.932   4.273
  170SAPE  H19S19173   0.049   3.092   4.207
  170SAPE  C22019174   0.234   3.010   4.275
  170SAPE  H20R19175   0.303   2.929   4.245
  170SAPE  H20S19176   0.231   3.027   4.385
  170SAPE  H20T19177   0.273   3.103   4.227
  170SAPE   C3319178   0.500   3.473   3.037
  170SAPE   H3X19179   0.430   3.555   3.064
  170SAPE   H3Y19180   0.595   3.523   3.007
  170SAPE   C3419181   0.536   3.384   3.149
  170SAPE   H4X19182   0.628   3.331   3.116
  170SAPE   H4Y19183   0.446   3.322   3.165
  170SAPE   C3519184   0.575   3.455   3.285
  170SAPE   H5X19185   0.503   3.534   3.313
  170SAPE   H5Y19186   0.668   3.511   3.262
  170SAPE   C3619187   0.604   3.362   3.406
  170SAPE   H6X19188   0.710   3.329   3.402
  170SAPE   H6Y19189   0.537   3.273   3.397
  170SAPE   C3719190   0.556   3.421   3.535
  170SAPE   H7X19191   0.446   3.433   3.529
  170SAPE   H7Y19192   0.620   3.509   3.556
  170SAPE   C3819193   0.587   3.334   3.666
  170SAPE   H8X19194   0.696   3.313   3.674
  170SAPE   H8Y19195   0.515   3.249   3.659
  170SAPE   C3919196   0.555   3.397   3.802
  170SAPE   H9X19197   0.627   3.479   3.824
  170SAPE   H9Y19198   0.581   3.320   3.878
  170SAPE  C31019199   0.411   3.432   3.840
  170SAPE  H10X19200   0.349   3.353   3.793
  170SAPE  H10Y19201   0.391   3.535   3.806
  170SAPE  C31119202   0.384   3.423   3.991
  170SAPE  H11X19203   0.454   3.493   4.042
  170SAPE  H11Y19204   0.402   3.318   4.025
  170SAPE  C31219205   0.239   3.462   4.004
  170SAPE  H12X19206   0.175   3.419   3.924
  170SAPE  H12Y19207   0.232   3.568   3.972
  170SAPE  C31319208   0.179   3.453   4.139
  170SAPE  H13X19209   0.240   3.512   4.211
  170SAPE  H13Y19210   0.182   3.348   4.174
  170SAPE  C31419211   0.027   3.488   4.142
  170SAPE  H14X19212   0.017   3.595   4.168
  170SAPE  H14Y19213   6.769   3.434   4.223
  170SAPE  C31519214   6.740   3.474   4.011
  170SAPE  H15X19215   6.763   3.378   3.960
  170SAPE  H15Y19216   6.767   3.565   3.952
  170SAPE  C31619217   6.592   3.487   4.023
  170SAPE  H16X19218   6.557   3.569   4.090
  170SAPE  H16Y19219   6.541   3.398   4.067
  170SAPE  C31719220   6.526   3.523   3.890
  170SAPE  H17X19221   6.562   3.460   3.806
  170SAPE  H17Y19222   6.577   3.618   3.859
  170SAPE  C31819223   6.372   3.539   3.906
  170SAPE  H18X19224   6.359   3.606   3.994
  170SAPE  H18Y19225   6.332   3.437   3.928
  170SAPE  H18Z19226   6.327   3.574   3.811
  171SAPE     N19227   0.609   2.348   1.578
  171SAPE   HN119228   0.710   2.331   1.559
  171SAPE   HN219229   0.557   2.338   1.488
  171SAPE   HN319230   0.604   2.444   1.617
  171SAPE   C1219231   0.553   2.237   1.672
  171SAPE  H12A19232   0.581   2.141   1.623
  171SAPE  H12B19233   0.443   2.242   1.660
  171SAPE   C1119234   0.610   2.261   1.808
  171SAPE  H11A19235   0.720   2.247   1.801
  171SAPE  H11B19236   0.585   2.177   1.877
  171SAPE     P19237   0.460   2.415   1.954
  171SAPE   O1319238   0.458   2.557   1.997
  171SAPE   O1419239   0.349   2.369   1.869
  171SAPE   O1219240   0.588   2.392   1.866
  171SAPE   O1119241   0.469   2.315   2.079
  171SAPE    C119242   0.587   2.313   2.163
  171SAPE    HA19243   0.633   2.212   2.158
  171SAPE    HB19244   0.669   2.380   2.129
  171SAPE    C219245   0.549   2.363   2.307
  171SAPE    HS19246   0.634   2.327   2.370
  171SAPE   O2119247   0.425   2.290   2.344
  171SAPE   C2119248   0.447   2.163   2.371
  171SAPE   O2219249   0.554   2.104   2.379
  171SAPE   C2219250   0.313   2.096   2.398
  171SAPE   H2R19251   0.245   2.161   2.456
  171SAPE   H2S19252   0.267   2.081   2.298
  171SAPE    C319253   0.537   2.514   2.322
  171SAPE    HX19254   0.452   2.553   2.262
  171SAPE    HY19255   0.625   2.557   2.269
  171SAPE   O3119256   0.544   2.557   2.459
  171SAPE   C3119257   0.435   2.630   2.500
  171SAPE   O3219258   0.336   2.654   2.436
  171SAPE   C3219259   0.454   2.684   2.646
  171SAPE   H2X19260   0.429   2.792   2.643
  171SAPE   H2Y19261   0.563   2.680   2.666
  171SAPE   C2319262   0.344   1.963   2.472
  171SAPE   H3R19263   0.405   1.968   2.564
  171SAPE   H3S19264   0.395   1.894   2.401
  171SAPE   C2419265   0.206   1.894   2.492
  171SAPE   H4R19266   0.162   1.874   2.392
  171SAPE   H4S19267   0.140   1.967   2.543
  171SAPE   C2519268   0.214   1.766   2.570
  171SAPE   H5R19269   0.253   1.680   2.513
  171SAPE   C2619270   0.182   1.742   2.699
  171SAPE   H6R19271   0.188   1.637   2.729
  171SAPE   C2719272   0.140   1.831   2.812
  171SAPE   H7R19273   0.189   1.928   2.789
  171SAPE   H7S19274   0.196   1.822   2.907
  171SAPE   C2819275   6.792   1.859   2.828
  171SAPE   H8R19276   6.754   1.889   2.729
  171SAPE   C2919277   6.712   1.834   2.929
  171SAPE   H9R19278   6.605   1.850   2.908
  171SAPE  C21019279   6.746   1.798   3.069
  171SAPE  H10R19280   6.670   1.842   3.138
  171SAPE  H10S19281   0.046   1.841   3.104
  171SAPE  C21119282   6.763   1.644   3.081
  171SAPE  H11R19283   6.752   1.595   2.984
  171SAPE  C21219284   0.014   1.566   3.180
  171SAPE  H12R19285   0.025   1.458   3.167
  171SAPE  C21319286   0.065   1.610   3.315
  171SAPE  H13R19287   0.111   1.710   3.301
  171SAPE  H13S19288   0.143   1.542   3.353
  171SAPE  C21419289   6.758   1.628   3.425
  171SAPE  H14R19290   6.656   1.624   3.384
  171SAPE  C21519291   6.786   1.654   3.549
  171SAPE  H15R19292   6.704   1.680   3.617
  171SAPE  C21619293   0.122   1.644   3.622
  171SAPE  H16R19294   0.177   1.740   3.607
  171SAPE  H16S19295   0.181   1.558   3.585
  171SAPE  C21719296   0.112   1.631   3.779
  171SAPE  H17R19297   0.206   1.590   3.821
  171SAPE  H17S19298   0.030   1.560   3.804
  171SAPE  C21819299   0.088   1.765   3.842
  171SAPE  H18R19300   6.794   1.802   3.789
  171SAPE  H18S19301   0.170   1.834   3.811
  171SAPE  C21919302   0.062   1.766   3.995
  171SAPE  H19R19303   0.037   1.870   4.026
  171SAPE  H19S19304   0.154   1.726   4.042
  171SAPE  C22019305   6.740   1.680   4.047
  171SAPE  H20R19306   6.641   1.726   4.022
  171SAPE  H20S19307   6.745   1.659   4.156
  171SAPE  H20T19308   6.729   1.579   4.000
  171SAPE   C3319309   0.376   2.601   2.760
  171SAPE   H3X19310   0.417   2.498   2.769
  171SAPE   H3Y19311   0.269   2.596   2.731
  171SAPE   C3419312   0.391   2.668   2.902
  171SAPE   H4X19313   0.335   2.764   2.889
  171SAPE   H4Y19314   0.495   2.689   2.935
  171SAPE   C3519315   0.328   2.588   3.020
  171SAPE   H5X19316   0.377   2.488   3.027
  171SAPE   H5Y19317   0.219   2.576   3.001
  171SAPE   C3619318   0.331   2.685   3.145
  171SAPE   H6X19319   0.239   2.748   3.137
  171SAPE   H6Y19320   0.417   2.755   3.141
  171SAPE   C3719321   0.325   2.591   3.271
  171SAPE   H7X19322   0.385   2.499   3.256
  171SAPE   H7Y19323   0.219   2.562   3.291
  171SAPE   C3819324   0.381   2.655   3.397
  171SAPE   H8X19325   0.339   2.756   3.414
  171SAPE   H8Y19326   0.489   2.666   3.376
  171SAPE   C3919327   0.366   2.575   3.519
  171SAPE   H9X19328   0.418   2.478   3.507
  171SAPE   H9Y19329   0.260   2.549   3.536
  171SAPE  C31019330   0.418   2.646   3.642
  171SAPE  H10X19331   0.329   2.703   3.678
  171SAPE  H10Y19332   0.493   2.725   3.620
  171SAPE  C31119333   0.468   2.543   3.740
  171SAPE  H11X19334   0.574   2.531   3.709
  171SAPE  H11Y19335   0.415   2.447   3.721
  171SAPE  C31219336   0.461   2.595   3.885
  171SAPE  H12X19337   0.358   2.593   3.927
  171SAPE  H12Y19338   0.515   2.690   3.901
  171SAPE  C31319339   0.546   2.492   3.984
  171SAPE  H13X19340   0.647   2.479   3.940
  171SAPE  H13Y19341   0.495   2.395   3.969
  171SAPE  C31419342   0.556   2.543   4.125
  171SAPE  H14X19343   0.457   2.568   4.168
  171SAPE  H14Y19344   0.605   2.643   4.126
  171SAPE  C31519345   0.630   2.450   4.226
  171SAPE  H15X19346   0.727   2.420   4.180
  171SAPE  H15Y19347   0.568   2.361   4.248
  171SAPE  C31619348   0.666   2.520   4.354
  171SAPE  H16X19349   0.577   2.539   4.418
  171SAPE  H16Y19350   0.714   2.615   4.323
  171SAPE  C31719351   0.760   2.434   4.445
  171SAPE  H17X19352   0.858   2.423   4.395
  171SAPE  H17Y19353   0.719   2.334   4.469
  171SAPE  C31819354   0.798   2.513   4.569
  171SAPE  H18X19355   0.873   2.457   4.628
  171SAPE  H18Y19356   0.709   2.534   4.631
  171SAPE  H18Z19357   0.846   2.611   4.545
  172SAPE     N19358   0.739   4.365   2.524
  172SAPE   HN119359   0.740   4.468   2.533
  172SAPE   HN219360   0.783   4.316   2.605
  172SAPE   HN319361   0.799   4.344   2.442
  172SAPE   C1219362   0.594   4.320   2.498
  172SAPE  H12A19363   0.589   4.211   2.477
  172SAPE  H12B19364   0.564   4.372   2.405
  172SAPE   C1119365   0.506   4.357   2.618
  172SAPE  H11A19366   0.556   4.313   2.707
  172SAPE  H11B19367   0.401   4.321   2.610
  172SAPE     P19368   0.385   4.590   2.562
  172SAPE   O1319369   0.416   4.592   2.415
  172SAPE   O1419370   0.251   4.544   2.603
  172SAPE   O1219371   0.504   4.503   2.628
  172SAPE   O1119372   0.416   4.736   2.620
  172SAPE    C119373   0.529   4.789   2.698
  172SAPE    HA19374   0.611   4.714   2.687
  172SAPE    HB19375   0.562   4.888   2.659
  172SAPE    C219376   0.507   4.789   2.849
  172SAPE    HS19377   0.520   4.683   2.878
  172SAPE   O2119378   0.377   4.826   2.898
  172SAPE   C2119379   0.315   4.914   2.833
  172SAPE   O2219380   0.366   5.002   2.762
  172SAPE   C2219381   0.170   4.900   2.854
  172SAPE   H2R19382   0.114   4.986   2.811
  172SAPE   H2S19383   0.140   4.803   2.809
  172SAPE    C319384   0.625   4.864   2.921
  172SAPE    HX19385   0.618   4.973   2.902
  172SAPE    HY19386   0.725   4.834   2.882
  172SAPE   O3119387   0.631   4.817   3.055
  172SAPE   C3119388   0.583   4.904   3.152
  172SAPE   O3219389   0.539   5.015   3.130
  172SAPE   C3219390   0.620   4.843   3.286
  172SAPE   H2X19391   0.731   4.847   3.296
  172SAPE   H2Y19392   0.588   4.737   3.277
  172SAPE   C2319393   0.150   4.882   3.008
  172SAPE   H3R19394   0.192   4.977   3.045
  172SAPE   H3S19395   0.213   4.803   3.055
  172SAPE   C2419396   0.003   4.854   3.045
  172SAPE   H4R19397   0.002   4.751   3.085
  172SAPE   H4S19398   6.755   4.858   2.943
  172SAPE   C2519399   6.741   4.961   3.129
  172SAPE   H5R19400   6.706   5.050   3.074
  172SAPE   C2619401   6.699   4.948   3.258
  172SAPE   H6R19402   6.654   5.033   3.312
  172SAPE   C2719403   6.741   4.830   3.352
  172SAPE   H7R19404   6.774   4.740   3.296
  172SAPE   H7S19405   6.647   4.790   3.397
  172SAPE   C2819406   0.051   4.880   3.446
  172SAPE   H8R19407   0.152   4.901   3.406
  172SAPE   C2919408   0.033   4.905   3.571
  172SAPE   H9R19409   0.115   4.942   3.634
  172SAPE  C21019410   6.703   4.895   3.648
  172SAPE  H10R19411   6.724   4.858   3.751
  172SAPE  H10S19412   6.631   4.819   3.614
  172SAPE  C21119413   6.621   5.019   3.664
  172SAPE  H11R19414   6.551   5.045   3.584
  172SAPE  C21219415   6.611   5.095   3.769
  172SAPE  H12R19416   6.548   5.184   3.762
  172SAPE  C21319417   6.694   5.086   3.896
  172SAPE  H13R19418   6.787   5.026   3.881
  172SAPE  H13S19419   6.642   5.018   3.967
  172SAPE  C21419420   6.731   5.214   3.950
  172SAPE  H14R19421   0.006   5.271   3.888
  172SAPE  C21519422   6.714   5.258   4.076
  172SAPE  H15R19423   6.762   5.354   4.098
  172SAPE  C21619424   6.641   5.180   4.182
  172SAPE  H16R19425   6.701   5.152   4.272
  172SAPE  H16S19426   6.607   5.077   4.156
  172SAPE  C21719427   6.515   5.251   4.236
  172SAPE  H17R19428   6.455   5.305   4.160
  172SAPE  H17S19429   6.552   5.330   4.306
  172SAPE  C21819430   6.413   5.159   4.296
  172SAPE  H18R19431   6.392   5.093   4.208
  172SAPE  H18S19432   6.327   5.220   4.331
  172SAPE  C21919433   6.465   5.058   4.401
  172SAPE  H19R19434   6.542   4.994   4.352
  172SAPE  H19S19435   6.377   4.991   4.413
  172SAPE  C22019436   6.508   5.093   4.542
  172SAPE  H20R19437   6.569   5.185   4.534
  172SAPE  H20S19438   6.587   5.019   4.567
  172SAPE  H20T19439   6.423   5.109   4.612
  172SAPE   C3319440   0.553   4.912   3.410
  172SAPE   H3X19441   0.445   4.931   3.393
  172SAPE   H3Y19442   0.600   5.011   3.428
  172SAPE   C3419443   0.591   4.844   3.539
  172SAPE   H4X19444   0.697   4.867   3.562
  172SAPE   H4Y19445   0.582   4.734   3.526
  172SAPE   C3519446   0.514   4.879   3.667
  172SAPE   H5X19447   0.412   4.837   3.652
  172SAPE   H5Y19448   0.499   4.989   3.678
  172SAPE   C3619449   0.570   4.819   3.796
  172SAPE   H6X19450   0.659   4.872   3.836
  172SAPE   H6Y19451   0.611   4.721   3.767
  172SAPE   C3719452   0.464   4.800   3.905
  172SAPE   H7X19453   0.385   4.730   3.872
  172SAPE   H7Y19454   0.424   4.900   3.934
  172SAPE   C3819455   0.526   4.739   4.037
  172SAPE   H8X19456   0.610   4.669   4.020
  172SAPE   H8Y19457   0.449   4.678   4.089
  172SAPE   C3919458   0.566   4.854   4.131
  172SAPE   H9X19459   0.476   4.913   4.158
  172SAPE   H9Y19460   0.631   4.932   4.085
  172SAPE  C31019461   0.621   4.802   4.262
  172SAPE  H10X19462   0.716   4.747   4.241
  172SAPE  H10Y19463   0.546   4.723   4.287
  172SAPE  C31119464   0.642   4.918   4.366
  172SAPE  H11X19465   0.541   4.953   4.396
  172SAPE  H11Y19466   0.701   4.995   4.312
  172SAPE  C31219467   0.720   4.851   4.480
  172SAPE  H12X19468   0.754   4.925   4.555
  172SAPE  H12Y19469   0.810   4.799   4.440
  172SAPE  C31319470   0.640   4.750   4.564
  172SAPE  H13X19471   0.586   4.682   4.495
  172SAPE  H13Y19472   0.571   4.809   4.628
  172SAPE  C31419473   0.732   4.659   4.650
  172SAPE  H14X19474   0.808   4.723   4.699
  172SAPE  H14Y19475   0.790   4.593   4.583
  172SAPE  C31519476   0.655   4.573   4.752
  172SAPE  H15X19477   0.611   4.646   4.823
  172SAPE  H15Y19478   0.723   4.505   4.807
  172SAPE  C31619479   0.550   4.472   4.698
  172SAPE  H16X19480   0.608   4.412   4.624
  172SAPE  H16Y19481   0.471   4.527   4.643
  172SAPE  C31719482   0.473   4.392   4.806
  172SAPE  H17X19483   0.550   4.335   4.862
  172SAPE  H17Y19484   0.406   4.320   4.755
  172SAPE  C31819485   0.390   4.478   4.903
  172SAPE  H18X19486   0.329   4.411   4.968
  172SAPE  H18Y19487   0.318   4.526   4.834
  172SAPE  H18Z19488   0.454   4.548   4.962
  173SLPC     N19489   6.424   6.617   7.249
  173SLPC   C1319490   6.375   6.614   7.385
  173SLPC  H13A19491   6.453   6.652   7.448
  173SLPC  H13B19492   6.286   6.674   7.401
  173SLPC  H13C19493   6.353   6.513   7.415
  173SLPC   C1419494   6.559   6.553   7.253
  173SLPC  H14A19495   6.619   6.602   7.327
  173SLPC  H14B19496   6.547   6.447   7.273
  173SLPC  H14C19497   6.601   6.556   7.154
  173SLPC   C1519498   6.446   6.762   7.213
  173SLPC  H15A19499   6.477   6.761   7.110
  173SLPC  H15B19500   6.354   0.022   7.224
  173SLPC  H15C19501   6.524   0.002   7.278
  173SLPC   C1219502   6.337   6.550   7.150
  173SLPC  H12A19503   6.401   6.514   7.071
  173SLPC  H12B19504   6.266   6.615   7.101
  173SLPC   C1119505   6.270   6.422   7.208
  173SLPC  H11A19506   6.346   6.367   7.267
  173SLPC  H11B19507   6.239   6.362   7.121
  173SLPC     P19508   6.013   6.495   7.224
  173SLPC   O1319509   5.907   6.443   7.311
  173SLPC   O1419510   6.012   6.635   7.199
  173SLPC   O1219511   6.153   6.459   7.286
  173SLPC   O1119512   6.009   6.404   7.091
  173SLPC    C119513   6.007   6.462   6.962
  173SLPC    HA19514   5.973   6.567   6.953
  173SLPC    HB19515   6.107   6.465   6.914
  173SLPC    C219516   5.912   6.372   6.873
  173SLPC    HS19517   5.935   6.265   6.892
  173SLPC   O2119518   5.946   6.399   6.740
  173SLPC   C2119519   5.867   6.321   6.659
  173SLPC   O2219520   5.801   6.222   6.690
  173SLPC   C2219521   5.891   6.372   6.519
  173SLPC   H2R19522   5.884   6.481   6.538
  173SLPC   H2S19523   5.993   6.339   6.489
  173SLPC    C319524   5.764   6.389   6.929
  173SLPC    HX19525   5.783   6.375   7.038
  173SLPC    HY19526   5.693   6.315   6.887
  173SLPC   O3119527   5.712   6.524   6.914
  173SLPC   C3119528   5.621   6.549   6.816
  173SLPC   O3219529   5.553   6.464   6.760
  173SLPC   C3219530   5.606   6.698   6.772
  173SLPC   H2X19531   5.624   6.766   6.858
  173SLPC   H2Y19532   5.501   6.713   6.741
  173SLPC   C2319533   5.785   6.298   6.435
  173SLPC   H3R19534   5.686   6.319   6.481
  173SLPC   H3S19535   5.810   6.190   6.441
  173SLPC   C2419536   5.796   6.346   6.293
  173SLPC   H4R19537   5.903   6.365   6.268
  173SLPC   H4S19538   5.755   6.447   6.273
  173SLPC   C2519539   5.724   6.257   6.185
  173SLPC   H5R19540   5.615   6.247   6.204
  173SLPC   H5S19541   5.771   6.157   6.198
  173SLPC   C2619542   5.754   6.318   6.043
  173SLPC   H6R19543   5.707   6.416   6.023
  173SLPC   H6S19544   5.705   6.239   5.982
  173SLPC   C2719545   5.892   6.326   5.983
  173SLPC   H7R19546   5.946   6.232   6.007
  173SLPC   H7S19547   5.946   6.410   6.032
  173SLPC   C2819548   5.905   6.325   5.827
  173SLPC   H8R19549   5.841   6.409   5.790
  173SLPC   H8S19550   5.874   6.226   5.787
  173SLPC   C2919551   6.034   6.353   5.767
  173SLPC   H9R19552   6.110   6.374   5.843
  173SLPC  C21019553   6.067   6.349   5.636
  173SLPC  H10R19554   6.169   6.371   5.600
  173SLPC  C21119555   5.978   6.299   5.530
  173SLPC  H11R19556   5.922   6.393   5.514
  173SLPC  H11S19557   5.911   6.218   5.563
  173SLPC  C21219558   6.047   6.251   5.404
  173SLPC  H12R19559   6.143   6.201   5.420
  173SLPC  C21319560   5.992   6.251   5.277
  173SLPC  H13R19561   6.052   6.212   5.192
  173SLPC  C21419562   5.860   6.304   5.231
  173SLPC  H14R19563   5.797   6.334   5.318
  173SLPC  H14S19564   5.799   6.235   5.168
  173SLPC  C21519565   5.884   6.428   5.139
  173SLPC  H15R19566   5.953   6.500   5.187
  173SLPC  H15S19567   5.795   6.491   5.119
  173SLPC  C21619568   5.936   6.397   4.986
  173SLPC  H16R19569   5.847   6.381   4.921
  173SLPC  H16S19570   5.982   6.296   4.993
  173SLPC  C21719571   6.025   6.513   4.928
  173SLPC  H17R19572   6.098   6.541   5.008
  173SLPC  H17S19573   5.958   6.601   4.914
  173SLPC  C21819574   6.080   6.487   4.789
  173SLPC  H18R19575   6.155   6.565   4.764
  173SLPC  H18S19576   6.001   6.480   4.712
  173SLPC  H18T19577   6.135   6.391   4.786
  173SLPC   C3319578   5.700   6.749   6.656
  173SLPC   H3X19579   5.800   6.717   6.692
  173SLPC   H3Y19580   5.706   0.064   6.656
  173SLPC   C3419581   5.660   6.696   6.515
  173SLPC   H4X19582   5.554   6.724   6.497
  173SLPC   H4Y19583   5.665   6.585   6.513
  173SLPC   C3519584   5.758   6.741   6.406
  173SLPC   H5X19585   5.848   6.678   6.423
  173SLPC   H5Y19586   5.774   0.052   6.428
  173SLPC   C3619587   5.684   6.720   6.277
  173SLPC   H6X19588   5.601   6.793   6.271
  173SLPC   H6Y19589   5.641   6.617   6.276
  173SLPC   C3719590   5.779   6.744   6.154
  173SLPC   H7X19591   5.850   6.659   6.145
  173SLPC   H7Y19592   5.830   0.046   6.160
  173SLPC   C3819593   5.714   6.733   6.013
  173SLPC   H8X19594   5.632   0.011   6.003
  173SLPC   H8Y19595   5.668   6.633   5.994
  173SLPC   C3919596   5.806   6.763   5.892
  173SLPC   H9X19597   5.887   6.688   5.908
  173SLPC   H9Y19598   5.848   0.068   5.910
  173SLPC  C31019599   5.735   6.753   5.757
  173SLPC  H10X19600   5.631   6.790   5.764
  173SLPC  H10Y19601   5.727   6.644   5.741
  173SLPC  C31119602   5.798   0.024   5.637
  173SLPC  H11X19603   5.898   6.772   5.631
  173SLPC  H11Y19604   5.808   0.131   5.667
  173SLPC  C31219605   5.727   0.006   5.505
  173SLPC  H12X19606   5.631   0.062   5.509
  173SLPC  H12Y19607   5.703   6.695   5.489
  173SLPC  C31319608   5.811   0.051   5.381
  173SLPC  H13X19609   5.895   6.774   5.374
  173SLPC  H13Y19610   5.854   0.147   5.416
  173SLPC  C31419611   5.731   0.062   5.249
  173SLPC  H14X19612   5.649   0.137   5.262
  173SLPC  H14Y19613   5.699   6.755   5.224
  173SLPC  C31519614   5.829   0.093   5.133
  173SLPC  H15X19615   5.912   0.019   5.127
  173SLPC  H15Y19616   5.876   0.193   5.142
  173SLPC  C31619617   5.766   0.075   4.994
  173SLPC  H16X19618   5.672   0.134   5.000
  173SLPC  H16Y19619   5.740   6.765   4.974
  173SLPC  C31719620   5.871   0.098   4.887
  173SLPC  H17X19621   5.967   0.047   4.910
  173SLPC  H17Y19622   5.888   0.206   4.907
  173SLPC  C31819623   5.806   0.082   4.751
  173SLPC  H18X19624   5.724   0.155   4.733
  173SLPC  H18Y19625   5.786   6.769   4.743
  173SLPC  H18Z19626   5.876   0.105   4.668
  174SLPC     N19627   2.582   1.703   6.925
  174SLPC   C1319628   2.550   1.609   7.035
  174SLPC  H13A19629   2.618   1.525   7.027
  174SLPC  H13B19630   2.552   1.648   7.136
  174SLPC  H13C19631   2.454   1.566   7.013
  174SLPC   C1419632   2.479   1.813   6.929
  174SLPC  H14A19633   2.493   1.860   7.025
  174SLPC  H14B19634   2.507   1.882   6.851
  174SLPC  H14C19635   2.380   1.769   6.934
  174SLPC   C1519636   2.546   1.638   6.798
  174SLPC  H15A19637   2.582   1.698   6.716
  174SLPC  H15B19638   2.592   1.540   6.799
  174SLPC  H15C19639   2.439   1.628   6.804
  174SLPC   C1219640   2.724   1.755   6.940
  174SLPC  H12A19641   2.785   1.667   6.956
  174SLPC  H12B19642   2.731   1.817   7.028
  174SLPC   C1119643   2.784   1.844   6.828
  174SLPC  H11A19644   2.866   1.910   6.862
  174SLPC  H11B19645   2.707   1.917   6.794
  174SLPC     P19646   2.960   1.682   6.729
  174SLPC   O1319647   2.968   1.616   6.860
  174SLPC   O1419648   2.972   1.594   6.613
  174SLPC   O1219649   2.826   1.766   6.724
  174SLPC   O1119650   3.075   1.794   6.731
  174SLPC    C119651   3.057   1.913   6.654
  174SLPC    HA19652   2.953   1.952   6.651
  174SLPC    HB19653   3.114   1.997   6.699
  174SLPC    C219654   3.132   1.905   6.516
  174SLPC    HS19655   3.117   2.002   6.466
  174SLPC   O2119656   3.096   1.787   6.441
  174SLPC   C2119657   2.981   1.805   6.381
  174SLPC   O2219658   2.922   1.912   6.364
  174SLPC   C2219659   2.949   1.679   6.297
  174SLPC   H2R19660   3.042   1.643   6.248
  174SLPC   H2S19661   2.909   1.602   6.366
  174SLPC    C319662   3.286   1.897   6.552
  174SLPC    HX19663   3.310   1.814   6.621
  174SLPC    HY19664   3.308   1.993   6.605
  174SLPC   O3119665   3.364   1.883   6.434
  174SLPC   C3119666   3.375   1.999   6.365
  174SLPC   O3219667   3.335   2.112   6.404
  174SLPC   C3219668   3.436   1.968   6.232
  174SLPC   H2X19669   3.473   1.864   6.238
  174SLPC   H2Y19670   3.531   2.024   6.219
  174SLPC   C2319671   2.836   1.705   6.191
  174SLPC   H3R19672   2.887   1.774   6.121
  174SLPC   H3S19673   2.755   1.759   6.244
  174SLPC   C2419674   2.781   1.572   6.136
  174SLPC   H4R19675   2.752   1.503   6.218
  174SLPC   H4S19676   2.863   1.523   6.080
  174SLPC   C2519677   2.676   1.601   6.026
  174SLPC   H5R19678   2.610   1.676   6.073
  174SLPC   H5S19679   2.621   1.504   6.019
  174SLPC   C2619680   2.732   1.637   5.888
  174SLPC   H6R19681   2.794   1.549   5.861
  174SLPC   H6S19682   2.804   1.720   5.906
  174SLPC   C2719683   2.632   1.669   5.779
  174SLPC   H7R19684   2.564   1.749   5.816
  174SLPC   H7S19685   2.565   1.581   5.767
  174SLPC   C2819686   2.710   1.706   5.646
  174SLPC   H8R19687   2.805   1.649   5.639
  174SLPC   H8S19688   2.751   1.809   5.657
  174SLPC   C2919689   2.631   1.698   5.517
  174SLPC   H9R19690   2.551   1.773   5.514
  174SLPC  C21019691   2.637   1.605   5.422
  174SLPC  H10R19692   2.566   1.600   5.338
  174SLPC  C21119693   2.743   1.496   5.423
  174SLPC  H11R19694   2.701   1.410   5.366
  174SLPC  H11S19695   2.758   1.448   5.522
  174SLPC  C21219696   2.882   1.521   5.369
  174SLPC  H12R19697   2.964   1.515   5.443
  174SLPC  C21319698   2.920   1.550   5.239
  174SLPC  H13R19699   3.025   1.557   5.206
  174SLPC  C21419700   2.833   1.569   5.119
  174SLPC  H14R19701   2.872   1.641   5.044
  174SLPC  H14S19702   2.736   1.605   5.160
  174SLPC  C21519703   2.792   1.441   5.052
  174SLPC  H15R19704   2.741   1.375   5.124
  174SLPC  H15S19705   2.885   1.397   5.010
  174SLPC  C21619706   2.702   1.473   4.929
  174SLPC  H16R19707   2.763   1.536   4.860
  174SLPC  H16S19708   2.618   1.529   4.976
  174SLPC  C21719709   2.655   1.348   4.855
  174SLPC  H17R19710   2.585   1.284   4.913
  174SLPC  H17S19711   2.736   1.280   4.820
  174SLPC  C21819712   2.581   1.398   4.728
  174SLPC  H18R19713   2.520   1.315   4.687
  174SLPC  H18S19714   2.652   1.441   4.655
  174SLPC  H18T19715   2.501   1.469   4.756
  174SLPC   C3319716   3.332   1.989   6.119
  174SLPC   H3X19717   3.401   2.014   6.035
  174SLPC   H3Y19718   3.283   2.085   6.149
  174SLPC   C3419719   3.245   1.858   6.105
  174SLPC   H4X19720   3.193   1.836   6.201
  174SLPC   H4Y19721   3.315   1.779   6.073
  174SLPC   C3519722   3.135   1.865   5.992
  174SLPC   H5X19723   3.051   1.927   6.031
  174SLPC   H5Y19724   3.098   1.760   5.989
  174SLPC   C3619725   3.170   1.922   5.852
  174SLPC   H6X19726   3.277   1.899   5.830
  174SLPC   H6Y19727   3.164   2.033   5.859
  174SLPC   C3719728   3.079   1.867   5.743
  174SLPC   H7X19729   2.980   1.914   5.756
  174SLPC   H7Y19730   3.049   1.761   5.749
  174SLPC   C3819731   3.132   1.888   5.604
  174SLPC   H8X19732   3.061   1.863   5.522
  174SLPC   H8Y19733   3.219   1.821   5.590
  174SLPC   C3919734   3.169   2.035   5.581
  174SLPC   H9X19735   3.222   2.094   5.659
  174SLPC   H9Y19736   3.073   2.089   5.568
  174SLPC  C31019737   3.251   2.056   5.456
  174SLPC  H10X19738   3.359   2.049   5.478
  174SLPC  H10Y19739   3.248   2.165   5.432
  174SLPC  C31119740   3.213   1.969   5.339
  174SLPC  H11X19741   3.103   1.975   5.328
  174SLPC  H11Y19742   3.226   1.858   5.338
  174SLPC  C31219743   3.264   2.012   5.207
  174SLPC  H12X19744   3.374   2.015   5.193
  174SLPC  H12Y19745   3.227   2.116   5.193
  174SLPC  C31319746   3.203   1.926   5.100
  174SLPC  H13X19747   3.092   1.919   5.103
  174SLPC  H13Y19748   3.232   1.818   5.105
  174SLPC  C31419749   3.243   1.968   4.955
  174SLPC  H14X19750   3.354   1.963   4.952
  174SLPC  H14Y19751   3.209   2.071   4.932
  174SLPC  C31519752   3.173   1.873   4.845
  174SLPC  H15X19753   3.171   1.770   4.886
  174SLPC  H15Y19754   3.250   1.870   4.765
  174SLPC  C31619755   3.029   1.903   4.806
  174SLPC  H16X19756   2.980   1.906   4.906
  174SLPC  H16Y19757   2.995   1.813   4.750
  174SLPC  C31719758   3.023   2.023   4.716
  174SLPC  H17X19759   3.099   2.097   4.749
  174SLPC  H17Y19760   2.918   2.059   4.725
  174SLPC  C31819761   3.061   1.997   4.571
  174SLPC  H18X19762   3.158   1.943   4.560
  174SLPC  H18Y19763   3.073   2.087   4.507
  174SLPC  H18Z19764   2.980   1.937   4.524
  175SLPC     N19765   6.089   2.504   6.448
  175SLPC   C1319766   5.996   2.458   6.337
  175SLPC  H13A19767   5.898   2.424   6.366
  175SLPC  H13B19768   5.975   2.534   6.263
  175SLPC  H13C19769   6.050   2.381   6.285
  175SLPC   C1419770   6.212   2.546   6.374
  175SLPC  H14A19771   6.203   2.562   6.267
  175SLPC  H14B19772   6.238   2.642   6.415
  175SLPC  H14C19773   6.294   2.476   6.378
  175SLPC   C1519774   6.117   2.385   6.536
  175SLPC  H15A19775   6.038   2.369   6.607
  175SLPC  H15B19776   6.131   2.292   6.482
  175SLPC  H15C19777   6.207   2.407   6.593
  175SLPC   C1219778   6.035   2.618   6.534
  175SLPC  H12A19779   5.939   2.587   6.572
  175SLPC  H12B19780   6.022   2.701   6.467
  175SLPC   C1119781   6.120   2.649   6.654
  175SLPC  H11A19782   6.135   2.561   6.721
  175SLPC  H11B19783   6.061   2.716   6.720
  175SLPC     P19784   6.277   2.842   6.604
  175SLPC   O1319785   6.222   2.928   6.715
  175SLPC   O1419786   6.417   2.868   6.566
  175SLPC   O1219787   6.256   2.692   6.622
  175SLPC   O1119788   6.192   2.860   6.479
  175SLPC    C119789   6.088   2.958   6.482
  175SLPC    HA19790   6.034   2.968   6.578
  175SLPC    HB19791   6.136   3.055   6.458
  175SLPC    C219792   5.979   2.930   6.371
  175SLPC    HS19793   5.939   2.828   6.387
  175SLPC   O2119794   6.052   2.943   6.240
  175SLPC   C2119795   6.030   2.845   6.157
  175SLPC   O2219796   5.948   2.756   6.164
  175SLPC   C2219797   6.131   2.854   6.047
  175SLPC   H2R19798   6.125   2.958   6.009
  175SLPC   H2S19799   6.233   2.827   6.083
  175SLPC    C319800   5.859   3.025   6.370
  175SLPC    HX19801   5.886   3.132   6.375
  175SLPC    HY19802   5.814   3.014   6.471
  175SLPC   O3119803   5.750   2.961   6.293
  175SLPC   C3119804   5.712   3.041   6.196
  175SLPC   O3219805   5.740   3.162   6.193
  175SLPC   C3219806   5.642   2.959   6.088
  175SLPC   H2X19807   5.555   2.905   6.130
  175SLPC   H2Y19808   5.720   2.890   6.049
  175SLPC   C2319809   6.093   2.762   5.932
  175SLPC   H3R19810   5.986   2.762   5.900
  175SLPC   H3S19811   6.106   2.658   5.969
  175SLPC   C2419812   6.181   2.781   5.805
  175SLPC   H4R19813   6.120   2.741   5.721
  175SLPC   H4S19814   6.269   2.715   5.818
  175SLPC   C2519815   6.228   2.923   5.769
  175SLPC   H5R19816   6.317   2.962   5.823
  175SLPC   H5S19817   6.154   2.994   5.810
  175SLPC   C2619818   6.241   2.946   5.616
  175SLPC   H6R19819   6.250   3.055   5.596
  175SLPC   H6S19820   6.139   2.929   5.573
  175SLPC   C2719821   6.353   2.868   5.545
  175SLPC   H7R19822   6.339   2.758   5.548
  175SLPC   H7S19823   6.434   2.897   5.615
  175SLPC   C2819824   6.393   2.920   5.401
  175SLPC   H8R19825   6.482   2.858   5.374
  175SLPC   H8S19826   6.422   3.027   5.408
  175SLPC   C2919827   6.279   2.898   5.301
  175SLPC   H9R19828   6.193   2.837   5.333
  175SLPC  C21019829   6.270   2.957   5.178
  175SLPC  H10R19830   6.192   2.923   5.109
  175SLPC  C21119831   6.380   3.039   5.122
  175SLPC  H11R19832   6.470   3.006   5.178
  175SLPC  H11S19833   6.351   3.144   5.139
  175SLPC  C21219834   6.392   3.018   4.970
  175SLPC  H12R19835   6.462   2.941   4.935
  175SLPC  C21319836   6.351   3.100   4.870
  175SLPC  H13R19837   6.361   3.071   4.765
  175SLPC  C21419838   6.262   3.227   4.896
  175SLPC  H14R19839   6.329   3.311   4.865
  175SLPC  H14S19840   6.249   3.240   5.006
  175SLPC  C21519841   6.126   3.223   4.827
  175SLPC  H15R19842   6.066   3.300   4.880
  175SLPC  H15S19843   6.072   3.130   4.856
  175SLPC  C21619844   6.120   3.258   4.676
  175SLPC  H16R19845   6.013   3.262   4.648
  175SLPC  H16S19846   6.171   3.170   4.630
  175SLPC  C21719847   6.193   3.390   4.656
  175SLPC  H17R19848   6.301   3.366   4.670
  175SLPC  H17S19849   6.173   3.462   4.738
  175SLPC  C21819850   6.162   3.442   4.513
  175SLPC  H18R19851   6.202   3.383   4.428
  175SLPC  H18S19852   6.202   3.545   4.499
  175SLPC  H18T19853   6.052   3.449   4.503
  175SLPC   C3319854   5.595   3.046   5.974
  175SLPC   H3X19855   5.678   3.115   5.947
  175SLPC   H3Y19856   5.511   3.109   6.010
  175SLPC   C3419857   5.563   2.969   5.848
  175SLPC   H4X19858   5.535   3.045   5.773
  175SLPC   H4Y19859   5.479   2.900   5.870
  175SLPC   C3519860   5.672   2.883   5.777
  175SLPC   H5X19861   5.621   2.835   5.691
  175SLPC   H5Y19862   5.696   2.801   5.848
  175SLPC   C3619863   5.796   2.967   5.747
  175SLPC   H6X19864   5.859   3.001   5.832
  175SLPC   H6Y19865   5.747   3.064   5.724
  175SLPC   C3719866   5.872   2.916   5.618
  175SLPC   H7X19867   5.912   2.813   5.633
  175SLPC   H7Y19868   5.957   2.982   5.591
  175SLPC   C3819869   5.794   2.917   5.484
  175SLPC   H8X19870   5.747   3.016   5.471
  175SLPC   H8Y19871   5.705   2.851   5.494
  175SLPC   C3919872   5.887   2.879   5.366
  175SLPC   H9X19873   5.944   2.790   5.400
  175SLPC   H9Y19874   5.955   2.966   5.359
  175SLPC  C31019875   5.805   2.869   5.235
  175SLPC  H10X19876   5.738   2.956   5.220
  175SLPC  H10Y19877   5.736   2.782   5.241
  175SLPC  C31119878   5.889   2.850   5.103
  175SLPC  H11X19879   5.959   2.764   5.115
  175SLPC  H11Y19880   5.954   2.939   5.092
  175SLPC  C31219881   5.811   2.827   4.977
  175SLPC  H12X19882   5.780   2.933   4.963
  175SLPC  H12Y19883   5.717   2.781   5.013
  175SLPC  C31319884   5.885   2.757   4.856
  175SLPC  H13X19885   5.811   2.755   4.772
  175SLPC  H13Y19886   5.913   2.654   4.886
  175SLPC  C31419887   6.008   2.842   4.806
  175SLPC  H14X19888   6.067   2.858   4.899
  175SLPC  H14Y19889   5.962   2.942   4.788
  175SLPC  C31519890   6.083   2.787   4.686
  175SLPC  H15X19891   6.016   2.797   4.598
  175SLPC  H15Y19892   6.095   2.676   4.688
  175SLPC  C31619893   6.222   2.848   4.650
  175SLPC  H16X19894   6.283   2.838   4.742
  175SLPC  H16Y19895   6.207   2.954   4.621
  175SLPC  C31719896   6.312   2.787   4.553
  175SLPC  H17X19897   6.334   2.686   4.595
  175SLPC  H17Y19898   6.407   2.842   4.535
  175SLPC  C31819899   6.257   2.763   4.413
  175SLPC  H18X19900   6.317   2.688   4.357
  175SLPC  H18Y19901   6.247   2.851   4.345
  175SLPC  H18Z19902   6.154   2.722   4.422
  176SLPC     N19903   4.990   0.408   6.756
  176SLPC   C1319904   4.992   0.301   6.868
  176SLPC  H13A19905   5.072   0.322   6.937
  176SLPC  H13B19906   4.907   0.306   6.936
  176SLPC  H13C19907   5.005   0.202   6.828
  176SLPC   C1419908   4.967   0.543   6.820
  176SLPC  H14A19909   4.953   0.627   6.754
  176SLPC  H14B19910   4.881   0.548   6.885
  176SLPC  H14C19911   5.051   0.577   6.879
  176SLPC   C1519912   4.873   0.378   6.673
  176SLPC  H15A19913   4.874   0.275   6.640
  176SLPC  H15B19914   4.778   0.390   6.722
  176SLPC  H15C19915   4.875   0.442   6.585
  176SLPC   C1219916   5.118   0.402   6.678
  176SLPC  H12A19917   5.123   0.305   6.631
  176SLPC  H12B19918   5.199   0.415   6.747
  176SLPC   C1119919   5.142   0.508   6.567
  176SLPC  H11A19920   5.048   0.514   6.507
  176SLPC  H11B19921   5.214   0.472   6.491
  176SLPC     P19922   5.330   0.631   6.700
  176SLPC   O1319923   5.394   0.762   6.683
  176SLPC   O1419924   5.309   0.581   6.839
  176SLPC   O1219925   5.193   0.628   6.620
  176SLPC   O1119926   5.421   0.519   6.643
  176SLPC    C119927   5.537   0.542   6.570
  176SLPC    HA19928   5.568   0.648   6.561
  176SLPC    HB19929   5.627   0.505   6.624
  176SLPC    C219930   5.539   0.496   6.418
  176SLPC    HS19931   5.632   0.528   6.366
  176SLPC   O2119932   5.423   0.557   6.349
  176SLPC   C2119933   5.431   0.688   6.343
  176SLPC   O2219934   5.527   0.754   6.357
  176SLPC   C2219935   5.289   0.747   6.317
  176SLPC   H2R19936   5.215   0.664   6.310
  176SLPC   H2S19937   5.265   0.823   6.395
  176SLPC    C319938   5.523   0.351   6.418
  176SLPC    HX19939   5.432   0.334   6.478
  176SLPC    HY19940   5.599   0.300   6.481
  176SLPC   O3119941   5.529   0.298   6.287
  176SLPC   C3119942   5.414   0.270   6.231
  176SLPC   O3219943   5.302   0.271   6.276
  176SLPC   C3219944   5.447   0.214   6.093
  176SLPC   H2X19945   5.493   0.116   6.119
  176SLPC   H2Y19946   5.520   0.284   6.048
  176SLPC   C2319947   5.268   0.822   6.183
  176SLPC   H3R19948   5.338   0.908   6.183
  176SLPC   H3S19949   5.166   0.863   6.196
  176SLPC   C2419950   5.289   0.743   6.051
  176SLPC   H4R19951   5.230   0.649   6.037
  176SLPC   H4S19952   5.396   0.714   6.052
  176SLPC   C2519953   5.290   0.832   5.924
  176SLPC   H5R19954   5.354   0.919   5.950
  176SLPC   H5S19955   5.186   0.867   5.905
  176SLPC   C2619956   5.335   0.765   5.792
  176SLPC   H6R19957   5.257   0.697   5.751
  176SLPC   H6S19958   5.414   0.693   5.824
  176SLPC   C2719959   5.374   0.863   5.687
  176SLPC   H7R19960   5.333   0.963   5.712
  176SLPC   H7S19961   5.346   0.835   5.583
  176SLPC   C2819962   5.532   0.875   5.681
  176SLPC   H8R19963   5.557   0.772   5.648
  176SLPC   H8S19964   5.576   0.906   5.779
  176SLPC   C2919965   5.569   0.984   5.584
  176SLPC   H9R19966   5.561   1.084   5.630
  176SLPC  C21019967   5.595   0.968   5.456
  176SLPC  H10R19968   5.626   1.053   5.394
  176SLPC  C21119969   5.609   0.839   5.381
  176SLPC  H11R19970   5.574   0.760   5.451
  176SLPC  H11S19971   5.714   0.810   5.355
  176SLPC  C21219972   5.528   0.839   5.254
  176SLPC  H12R19973   5.426   0.879   5.265
  176SLPC  C21319974   5.570   0.825   5.125
  176SLPC  H13R19975   5.503   0.838   5.039
  176SLPC  C21419976   5.712   0.783   5.077
  176SLPC  H14R19977   5.685   0.706   5.001
  176SLPC  H14S19978   5.751   0.716   5.158
  176SLPC  C21519979   5.806   0.896   5.044
  176SLPC  H15R19980   5.910   0.858   5.048
  176SLPC  H15S19981   5.796   0.973   5.124
  176SLPC  C21619982   5.781   0.958   4.907
  176SLPC  H16R19983   5.700   1.034   4.903
  176SLPC  H16S19984   5.761   0.873   4.838
  176SLPC  C21719985   5.903   1.027   4.856
  176SLPC  H17R19986   5.898   1.022   4.745
  176SLPC  H17S19987   5.995   0.971   4.883
  176SLPC  C21819988   5.909   1.171   4.903
  176SLPC  H18R19989   5.978   1.227   4.836
  176SLPC  H18S19990   5.950   1.168   5.006
  176SLPC  H18T19991   5.814   1.228   4.890
  176SLPC   C3319992   5.327   0.202   6.001
  176SLPC   H3X19993   5.237   0.154   6.046
  176SLPC   H3Y19994   5.351   0.138   5.914
  176SLPC   C3419995   5.280   0.340   5.960
  176SLPC   H4X19996   5.355   0.385   5.890
  176SLPC   H4Y19997   5.266   0.412   6.043
  176SLPC   C3519998   5.152   0.325   5.876
  176SLPC   H5X19999   5.082   0.260   5.932
  176SLPC   H5Y20000   5.179   0.270   5.783
  176SLPC   C3620001   5.091   0.455   5.824
  176SLPC   H6X20002   5.156   0.491   5.741
  176SLPC   H6Y20003   5.096   0.534   5.902
  176SLPC   C3720004   4.956   0.432   5.768
  176SLPC   H7X20005   4.900   0.520   5.729
  176SLPC   H7Y20006   4.896   0.403   5.857
  176SLPC   C3820007   4.940   0.327   5.659
  176SLPC   H8X20008   4.973   0.227   5.695
  176SLPC   H8Y20009   5.002   0.368   5.576
  176SLPC   C3920010   4.796   0.305   5.613
  176SLPC   H9X20011   4.737   0.258   5.694
  176SLPC   H9Y20012   4.793   0.229   5.532
  176SLPC  C31020013   4.719   0.431   5.569
  176SLPC  H10X20014   4.790   0.479   5.498
  176SLPC  H10Y20015   4.697   0.499   5.655
  176SLPC  C31120016   4.592   0.412   5.477
  176SLPC  H11X20017   4.533   0.506   5.479
  176SLPC  H11Y20018   4.531   0.326   5.512
  176SLPC  C31220019   4.631   0.394   5.331
  176SLPC  H12X20020   4.693   0.305   5.303
  176SLPC  H12Y20021   4.701   0.474   5.298
  176SLPC  C31320022   4.502   0.425   5.243
  176SLPC  H13X20023   4.452   0.512   5.291
  176SLPC  H13Y20024   4.438   0.335   5.254
  176SLPC  C31420025   4.514   0.452   5.088
  176SLPC  H14X20026   4.575   0.366   5.051
  176SLPC  H14Y20027   4.565   0.547   5.062
  176SLPC  C31520028   4.375   0.469   5.017
  176SLPC  H15X20029   4.394   0.484   4.909
  176SLPC  H15Y20030   4.334   0.565   5.055
  176SLPC  C31620031   4.288   0.344   5.032
  176SLPC  H16X20032   4.187   0.371   4.994
  176SLPC  H16Y20033   4.271   0.318   5.139
  176SLPC  C31720034   4.350   0.216   4.960
  176SLPC  H17X20035   4.436   0.173   5.016
  176SLPC  H17Y20036   4.406   0.243   4.869
  176SLPC  C31820037   4.247   0.106   4.938
  176SLPC  H18X20038   4.218   0.042   5.024
  176SLPC  H18Y20039   4.297   0.039   4.864
  176SLPC  H18Z20040   4.157   0.153   4.893
  177SLPC     N20041   5.238   1.015   6.947
  177SLPC   C1320042   5.371   0.945   6.967
  177SLPC  H13A20043   5.430   0.954   6.877
  177SLPC  H13B20044   5.418   0.980   7.057
  177SLPC  H13C20045   5.360   0.837   6.967
  177SLPC   C1420046   5.148   1.015   7.063
  177SLPC  H14A20047   5.128   0.914   7.097
  177SLPC  H14B20048   5.181   1.076   7.145
  177SLPC  H14C20049   5.052   1.054   7.031
  177SLPC   C1520050   5.165   0.945   6.839
  177SLPC  H15A20051   5.223   0.932   6.749
  177SLPC  H15B20052   5.141   0.847   6.877
  177SLPC  H15C20053   5.072   0.994   6.817
  177SLPC   C1220054   5.267   1.158   6.901
  177SLPC  H12A20055   5.300   1.166   6.798
  177SLPC  H12B20056   5.342   1.200   6.966
  177SLPC   C1120057   5.151   1.259   6.917
  177SLPC  H11A20058   5.190   1.358   6.886
  177SLPC  H11B20059   5.114   1.283   7.019
  177SLPC     P20060   5.001   1.307   6.700
  177SLPC   O1320061   5.003   1.202   6.596
  177SLPC   O1420062   4.883   1.393   6.713
  177SLPC   O1220063   5.031   1.233   6.839
  177SLPC   O1120064   5.119   1.400   6.667
  177SLPC    C120065   5.246   1.357   6.610
  177SLPC    HA20066   5.325   1.383   6.684
  177SLPC    HB20067   5.253   1.246   6.603
  177SLPC    C220068   5.273   1.410   6.468
  177SLPC    HS20069   5.222   1.507   6.449
  177SLPC   O2120070   5.243   1.312   6.363
  177SLPC   C2120071   5.115   1.304   6.323
  177SLPC   O2220072   5.031   1.381   6.364
  177SLPC   C2220073   5.107   1.193   6.218
  177SLPC   H2R20074   5.183   1.114   6.234
  177SLPC   H2S20075   5.009   1.147   6.245
  177SLPC    C320076   5.427   1.448   6.457
  177SLPC    HX20077   5.486   1.365   6.501
  177SLPC    HY20078   5.447   1.520   6.540
  177SLPC   O3120079   5.483   1.484   6.330
  177SLPC   C3120080   5.615   1.514   6.328
  177SLPC   O3220081   5.693   1.494   6.419
  177SLPC   C3220082   5.652   1.579   6.198
  177SLPC   H2X20083   5.560   1.598   6.139
  177SLPC   H2Y20084   5.698   1.494   6.143
  177SLPC   C2320085   5.101   1.251   6.072
  177SLPC   H3R20086   5.206   1.276   6.049
  177SLPC   H3S20087   5.036   1.340   6.053
  177SLPC   C2420088   5.056   1.150   5.966
  177SLPC   H4R20089   4.946   1.152   5.980
  177SLPC   H4S20090   5.101   1.049   5.979
  177SLPC   C2520091   5.093   1.198   5.830
  177SLPC   H5R20092   5.202   1.177   5.838
  177SLPC   H5S20093   5.074   1.307   5.817
  177SLPC   C2620094   5.047   1.093   5.729
  177SLPC   H6R20095   4.937   1.081   5.725
  177SLPC   H6S20096   5.073   0.994   5.770
  177SLPC   C2720097   5.121   1.107   5.587
  177SLPC   H7R20098   5.074   1.027   5.526
  177SLPC   H7S20099   5.229   1.087   5.601
  177SLPC   C2820100   5.108   1.239   5.515
  177SLPC   H8R20101   5.164   1.310   5.579
  177SLPC   H8S20102   5.001   1.261   5.534
  177SLPC   C2920103   5.137   1.258   5.365
  177SLPC   H9R20104   5.045   1.272   5.306
  177SLPC  C21020105   5.263   1.268   5.308
  177SLPC  H10R20106   5.269   1.282   5.199
  177SLPC  C21120107   5.394   1.231   5.372
  177SLPC  H11R20108   5.380   1.121   5.377
  177SLPC  H11S20109   5.411   1.270   5.475
  177SLPC  C21220110   5.508   1.284   5.297
  177SLPC  H12R20111   5.574   1.343   5.362
  177SLPC  C21320112   5.546   1.272   5.168
  177SLPC  H13R20113   5.642   1.317   5.137
  177SLPC  C21420114   5.477   1.199   5.058
  177SLPC  H14R20115   5.405   1.119   5.088
  177SLPC  H14S20116   5.557   1.139   5.009
  177SLPC  C21520117   5.419   1.279   4.939
  177SLPC  H15R20118   5.493   1.359   4.921
  177SLPC  H15S20119   5.323   1.326   4.970
  177SLPC  C21620120   5.409   1.189   4.813
  177SLPC  H16R20121   5.360   1.093   4.838
  177SLPC  H16S20122   5.506   1.167   4.763
  177SLPC  C21720123   5.328   1.249   4.700
  177SLPC  H17R20124   5.224   1.277   4.728
  177SLPC  H17S20125   5.312   1.177   4.617
  177SLPC  C21820126   5.376   1.379   4.642
  177SLPC  H18R20127   5.301   1.420   4.571
  177SLPC  H18S20128   5.477   1.369   4.596
  177SLPC  H18T20129   5.379   1.453   4.726
  177SLPC   C3320130   5.723   1.714   6.225
  177SLPC   H3X20131   5.805   1.693   6.297
  177SLPC   H3Y20132   5.655   1.786   6.275
  177SLPC   C3420133   5.792   1.765   6.097
  177SLPC   H4X20134   5.858   1.685   6.057
  177SLPC   H4Y20135   5.858   1.850   6.125
  177SLPC   C3520136   5.697   1.834   5.989
  177SLPC   H5X20137   5.636   1.907   6.047
  177SLPC   H5Y20138   5.621   1.769   5.941
  177SLPC   C3620139   5.785   1.908   5.886
  177SLPC   H6X20140   5.848   1.986   5.934
  177SLPC   H6Y20141   5.716   1.952   5.811
  177SLPC   C3720142   5.889   1.820   5.812
  177SLPC   H7X20143   5.836   1.729   5.778
  177SLPC   H7Y20144   5.963   1.776   5.882
  177SLPC   C3820145   5.968   1.901   5.708
  177SLPC   H8X20146   6.056   1.842   5.677
  177SLPC   H8Y20147   6.022   1.984   5.758
  177SLPC   C3920148   5.888   1.933   5.583
  177SLPC   H9X20149   5.801   2.001   5.594
  177SLPC   H9Y20150   5.845   1.840   5.542
  177SLPC  C31020151   5.976   1.999   5.472
  177SLPC  H10X20152   6.054   1.926   5.441
  177SLPC  H10Y20153   6.029   2.091   5.506
  177SLPC  C31120154   5.895   2.020   5.341
  177SLPC  H11X20155   5.814   2.089   5.373
  177SLPC  H11Y20156   5.858   1.918   5.316
  177SLPC  C31220157   5.970   2.093   5.233
  177SLPC  H12X20158   6.074   2.059   5.215
  177SLPC  H12Y20159   5.986   2.199   5.261
  177SLPC  C31320160   5.900   2.090   5.095
  177SLPC  H13X20161   5.796   2.130   5.097
  177SLPC  H13Y20162   5.889   1.985   5.063
  177SLPC  C31420163   5.969   2.170   4.988
  177SLPC  H14X20164   6.051   2.116   4.936
  177SLPC  H14Y20165   6.018   2.259   5.033
  177SLPC  C31520166   5.872   2.214   4.874
  177SLPC  H15X20167   5.901   2.296   4.805
  177SLPC  H15Y20168   5.787   2.249   4.937
  177SLPC  C31620169   5.827   2.096   4.783
  177SLPC  H16X20170   5.814   2.001   4.838
  177SLPC  H16Y20171   5.906   2.078   4.706
  177SLPC  C31720172   5.683   2.123   4.722
  177SLPC  H17X20173   5.695   2.200   4.643
  177SLPC  H17Y20174   5.619   2.158   4.805
  177SLPC  C31820175   5.608   2.004   4.663
  177SLPC  H18X20176   5.675   1.946   4.596
  177SLPC  H18Y20177   5.515   2.033   4.611
  177SLPC  H18Z20178   5.598   1.924   4.740
  178SLPC     N20179   1.939   5.850   6.526
  178SLPC   C1320180   1.989   5.877   6.672
  178SLPC  H13A20181   2.094   5.853   6.679
  178SLPC  H13B20182   1.981   5.981   6.699
  178SLPC  H13C20183   1.927   5.822   6.742
  178SLPC   C1420184   1.794   5.867   6.519
  178SLPC  H14A20185   1.767   5.967   6.547
  178SLPC  H14B20186   1.743   5.842   6.427
  178SLPC  H14C20187   1.746   5.803   6.592
  178SLPC   C1520188   1.962   5.701   6.492
  178SLPC  H15A20189   1.899   5.640   6.556
  178SLPC  H15B20190   1.926   5.680   6.392
  178SLPC  H15C20191   2.064   5.671   6.506
  178SLPC   C1220192   1.998   5.949   6.436
  178SLPC  H12A20193   1.952   6.046   6.444
  178SLPC  H12B20194   1.966   5.910   6.340
  178SLPC   C1120195   2.152   5.956   6.444
  178SLPC  H11A20196   2.182   6.005   6.348
  178SLPC  H11B20197   2.194   5.855   6.426
  178SLPC     P20198   2.359   6.008   6.602
  178SLPC   O1320199   2.385   6.089   6.724
  178SLPC   O1420200   2.396   5.866   6.602
  178SLPC   O1220201   2.207   6.019   6.555
  178SLPC   O1120202   2.422   6.076   6.471
  178SLPC    C120203   2.406   6.213   6.441
  178SLPC    HA20204   2.306   6.244   6.477
  178SLPC    HB20205   2.480   6.278   6.492
  178SLPC    C220206   2.424   6.240   6.295
  178SLPC    HS20207   2.446   6.347   6.275
  178SLPC   O2120208   2.301   6.205   6.225
  178SLPC   C2120209   2.207   6.302   6.228
  178SLPC   O2220210   2.222   6.413   6.282
  178SLPC   C2220211   2.082   6.266   6.151
  178SLPC   H2R20212   2.104   6.198   6.066
  178SLPC   H2S20213   2.020   6.211   6.224
  178SLPC    C320214   2.541   6.161   6.229
  178SLPC    HX20215   2.527   6.051   6.242
  178SLPC    HY20216   2.635   6.200   6.273
  178SLPC   O3120217   2.545   6.193   6.085
  178SLPC   C3120218   2.640   6.269   6.033
  178SLPC   O3220219   2.706   6.350   6.097
  178SLPC   C3220220   2.653   6.246   5.881
  178SLPC   H2X20221   2.547   6.256   5.847
  178SLPC   H2Y20222   2.675   6.138   5.866
  178SLPC   C2320223   1.998   6.380   6.093
  178SLPC   H3R20224   1.996   6.459   6.171
  178SLPC   H3S20225   1.893   6.347   6.080
  178SLPC   C2420226   2.051   6.421   5.957
  178SLPC   H4R20227   2.154   6.381   5.943
  178SLPC   H4S20228   2.058   6.531   5.941
  178SLPC   C2520229   1.968   6.361   5.846
  178SLPC   H5R20230   1.863   6.397   5.853
  178SLPC   H5S20231   1.974   6.250   5.843
  178SLPC   C2620232   2.022   6.403   5.706
  178SLPC   H6R20233   1.958   6.356   5.627
  178SLPC   H6S20234   2.123   6.363   5.686
  178SLPC   C2720235   2.023   6.555   5.683
  178SLPC   H7R20236   2.116   6.600   5.725
  178SLPC   H7S20237   1.939   6.609   5.731
  178SLPC   C2820238   2.007   6.580   5.533
  178SLPC   H8R20239   1.921   6.529   5.484
  178SLPC   H8S20240   2.100   6.543   5.486
  178SLPC   C2920241   1.980   6.731   5.513
  178SLPC   H9R20242   2.032   0.004   5.580
  178SLPC  C21020243   1.935   6.791   5.397
  178SLPC  H10R20244   1.935   0.104   5.387
  178SLPC  C21120245   1.889   6.698   5.288
  178SLPC  H11R20246   1.814   6.627   5.327
  178SLPC  H11S20247   1.975   6.636   5.253
  178SLPC  C21220248   1.837   6.776   5.170
  178SLPC  H12R20249   1.744   0.034   5.192
  178SLPC  C21320250   1.870   6.769   5.042
  178SLPC  H13R20251   1.820   0.035   4.966
  178SLPC  C21420252   1.985   6.688   4.989
  178SLPC  H14R20253   1.956   6.581   4.985
  178SLPC  H14S20254   2.066   6.701   5.064
  178SLPC  C21520255   2.020   6.751   4.849
  178SLPC  H15R20256   2.128   6.725   4.836
  178SLPC  H15S20257   1.997   0.063   4.838
  178SLPC  C21620258   1.939   6.682   4.739
  178SLPC  H16R20259   1.948   6.745   4.648
  178SLPC  H16S20260   1.829   6.688   4.756
  178SLPC  C21720261   1.967   6.538   4.704
  178SLPC  H17R20262   1.991   6.478   4.795
  178SLPC  H17S20263   2.051   6.540   4.632
  178SLPC  C21820264   1.854   6.475   4.624
  178SLPC  H18R20265   1.877   6.369   4.601
  178SLPC  H18S20266   1.834   6.532   4.530
  178SLPC  H18T20267   1.771   6.468   4.698
  178SLPC   C3320268   2.750   6.338   5.807
  178SLPC   H3X20269   2.772   6.290   5.710
  178SLPC   H3Y20270   2.843   6.345   5.869
  178SLPC   C3420271   2.682   6.470   5.782
  178SLPC   H4X20272   2.759   6.529   5.729
  178SLPC   H4Y20273   2.665   6.533   5.872
  178SLPC   C3520274   2.569   6.458   5.680
  178SLPC   H5X20275   2.467   6.461   5.725
  178SLPC   H5Y20276   2.573   6.363   5.623
  178SLPC   C3620277   2.565   6.569   5.576
  178SLPC   H6X20278   2.664   6.569   5.527
  178SLPC   H6Y20279   2.547   6.655   5.645
  178SLPC   C3720280   2.451   6.563   5.470
  178SLPC   H7X20281   2.348   6.565   5.511
  178SLPC   H7Y20282   2.467   6.470   5.411
  178SLPC   C3820283   2.467   6.670   5.372
  178SLPC   H8X20284   2.572   6.686   5.340
  178SLPC   H8Y20285   2.442   6.763   5.428
  178SLPC   C3920286   2.371   6.648   5.247
  178SLPC   H9X20287   2.352   6.749   5.204
  178SLPC   H9Y20288   2.268   6.616   5.275
  178SLPC  C31020289   2.425   6.548   5.139
  178SLPC  H10X20290   2.432   6.444   5.176
  178SLPC  H10Y20291   2.524   6.592   5.116
  178SLPC  C31120292   2.336   6.552   5.010
  178SLPC  H11X20293   2.299   6.654   4.989
  178SLPC  H11Y20294   2.246   6.489   5.028
  178SLPC  C31220295   2.417   6.501   4.892
  178SLPC  H12X20296   2.458   6.402   4.921
  178SLPC  H12Y20297   2.502   6.571   4.874
  178SLPC  C31320298   2.324   6.499   4.771
  178SLPC  H13X20299   2.284   6.600   4.752
  178SLPC  H13Y20300   2.230   6.443   4.794
  178SLPC  C31420301   2.391   6.460   4.644
  178SLPC  H14X20302   2.445   6.364   4.660
  178SLPC  H14Y20303   2.466   6.533   4.606
  178SLPC  C31520304   2.286   6.444   4.531
  178SLPC  H15X20305   2.233   6.542   4.525
  178SLPC  H15Y20306   2.205   6.373   4.558
  178SLPC  C31620307   2.343   6.413   4.390
  178SLPC  H16X20308   2.413   6.489   4.350
  178SLPC  H16Y20309   2.255   6.406   4.322
  178SLPC  C31720310   2.421   6.284   4.386
  178SLPC  H17X20311   2.362   6.207   4.441
  178SLPC  H17Y20312   2.520   6.296   4.434
  178SLPC  C31820313   2.435   6.241   4.240
  178SLPC  H18X20314   2.514   6.304   4.194
  178SLPC  H18Y20315   2.337   6.258   4.190
  178SLPC  H18Z20316   2.464   6.134   4.243
  179SLPC     N20317   3.689   0.859   1.929
  179SLPC   C1320318   3.610   0.962   1.850
  179SLPC  H13A20319   3.601   0.935   1.745
  179SLPC  H13B20320   3.509   0.962   1.888
  179SLPC  H13C20321   3.657   1.059   1.850
  179SLPC   C1420322   3.822   0.845   1.864
  179SLPC  H14A20323   3.821   0.792   1.770
  179SLPC  H14B20324   3.882   0.935   1.866
  179SLPC  H14C20325   3.877   0.783   1.934
  179SLPC   C1520326   3.608   0.728   1.920
  179SLPC  H15A20327   3.666   0.654   1.973
  179SLPC  H15B20328   3.507   0.739   1.955
  179SLPC  H15C20329   3.621   0.694   1.818
  179SLPC   C1220330   3.698   0.916   2.074
  179SLPC  H12A20331   3.599   0.938   2.112
  179SLPC  H12B20332   3.752   1.008   2.057
  179SLPC   C1120333   3.802   0.843   2.166
  179SLPC  H11A20334   3.763   0.741   2.185
  179SLPC  H11B20335   3.790   0.905   2.257
  179SLPC     P20336   4.014   0.996   2.110
  179SLPC   O1320337   4.125   0.991   2.014
  179SLPC   O1420338   3.921   1.109   2.081
  179SLPC   O1220339   3.934   0.859   2.118
  179SLPC   O1120340   4.071   1.005   2.247
  179SLPC    C120341   4.137   0.897   2.325
  179SLPC    HA20342   4.106   0.803   2.275
  179SLPC    HB20343   4.248   0.902   2.313
  179SLPC    C220344   4.099   0.885   2.474
  179SLPC    HS20345   4.165   0.812   2.525
  179SLPC   O2120346   3.964   0.845   2.491
  179SLPC   C2120347   3.935   0.717   2.475
  179SLPC   O2220348   4.013   0.626   2.458
  179SLPC   C2220349   3.783   0.696   2.508
  179SLPC   H2R20350   3.732   0.794   2.517
  179SLPC   H2S20351   3.736   0.643   2.423
  179SLPC    C320352   4.135   1.018   2.540
  179SLPC    HX20353   4.072   1.091   2.486
  179SLPC    HY20354   4.241   1.047   2.521
  179SLPC   O3120355   4.102   0.999   2.679
  179SLPC   C3120356   4.202   0.957   2.761
  179SLPC   O3220357   4.312   0.916   2.721
  179SLPC   C3220358   4.149   0.939   2.907
  179SLPC   H2X20359   4.069   0.862   2.906
  179SLPC   H2Y20360   4.107   1.038   2.935
  179SLPC   C2320361   3.766   0.615   2.644
  179SLPC   H3R20362   3.783   0.505   2.644
  179SLPC   H3S20363   3.660   0.635   2.670
  179SLPC   C2420364   3.839   0.675   2.765
  179SLPC   H4R20365   3.800   0.778   2.782
  179SLPC   H4S20366   3.950   0.680   2.756
  179SLPC   C2520367   3.789   0.611   2.897
  179SLPC   H5R20368   3.859   0.647   2.975
  179SLPC   H5S20369   3.804   0.501   2.907
  179SLPC   C2620370   3.649   0.641   2.948
  179SLPC   H6R20371   3.583   0.581   2.881
  179SLPC   H6S20372   3.624   0.749   2.951
  179SLPC   C2720373   3.627   0.593   3.096
  179SLPC   H7R20374   3.702   0.654   3.152
  179SLPC   H7S20375   3.662   0.488   3.095
  179SLPC   C2820376   3.485   0.600   3.129
  179SLPC   H8R20377   3.429   0.518   3.081
  179SLPC   H8S20378   3.447   0.696   3.088
  179SLPC   C2920379   3.448   0.593   3.273
  179SLPC   H9R20380   3.536   0.561   3.332
  179SLPC  C21020381   3.340   0.626   3.339
  179SLPC  H10R20382   3.345   0.597   3.445
  179SLPC  C21120383   3.207   0.656   3.283
  179SLPC  H11R20384   3.132   0.577   3.307
  179SLPC  H11S20385   3.222   0.648   3.174
  179SLPC  C21220386   3.171   0.796   3.311
  179SLPC  H12R20387   3.251   0.862   3.276
  179SLPC  C21320388   3.057   0.856   3.340
  179SLPC  H13R20389   3.064   0.963   3.364
  179SLPC  C21420390   2.920   0.793   3.360
  179SLPC  H14R20391   2.913   0.686   3.334
  179SLPC  H14S20392   2.847   0.844   3.294
  179SLPC  C21520393   2.874   0.801   3.508
  179SLPC  H15R20394   2.764   0.811   3.514
  179SLPC  H15S20395   2.917   0.893   3.554
  179SLPC  C21620396   2.924   0.686   3.596
  179SLPC  H16R20397   3.018   0.667   3.540
  179SLPC  H16S20398   2.860   0.596   3.582
  179SLPC  C21720399   2.924   0.719   3.744
  179SLPC  H17R20400   2.938   0.829   3.743
  179SLPC  H17S20401   3.019   0.675   3.781
  179SLPC  C21820402   2.804   0.681   3.827
  179SLPC  H18R20403   2.818   0.709   3.934
  179SLPC  H18S20404   2.771   0.575   3.819
  179SLPC  H18T20405   2.712   0.740   3.809
  179SLPC   C3320406   4.252   0.903   3.012
  179SLPC   H3X20407   4.331   0.980   3.025
  179SLPC   H3Y20408   4.291   0.805   2.975
  179SLPC   C3420409   4.171   0.869   3.139
  179SLPC   H4X20410   4.098   0.789   3.115
  179SLPC   H4Y20411   4.126   0.968   3.162
  179SLPC   C3520412   4.263   0.819   3.246
  179SLPC   H5X20413   4.321   0.733   3.207
  179SLPC   H5Y20414   4.340   0.894   3.277
  179SLPC   C3620415   4.186   0.792   3.383
  179SLPC   H6X20416   4.092   0.737   3.362
  179SLPC   H6Y20417   4.146   0.885   3.427
  179SLPC   C3720418   4.276   0.717   3.489
  179SLPC   H7X20419   4.373   0.772   3.489
  179SLPC   H7Y20420   4.286   0.617   3.444
  179SLPC   C3820421   4.215   0.725   3.636
  179SLPC   H8X20422   4.139   0.643   3.632
  179SLPC   H8Y20423   4.177   0.825   3.665
  179SLPC   C3920424   4.317   0.686   3.741
  179SLPC   H9X20425   4.392   0.768   3.736
  179SLPC   H9Y20426   4.369   0.594   3.705
  179SLPC  C31020427   4.265   0.687   3.879
  179SLPC  H10X20428   4.178   0.618   3.888
  179SLPC  H10Y20429   4.228   0.791   3.887
  179SLPC  C31120430   4.360   0.640   3.984
  179SLPC  H11X20431   4.458   0.694   3.982
  179SLPC  H11Y20432   4.382   0.533   3.963
  179SLPC  C31220433   4.304   0.660   4.127
  179SLPC  H12X20434   4.263   0.763   4.114
  179SLPC  H12Y20435   4.386   0.661   4.202
  179SLPC  C31320436   4.198   0.565   4.176
  179SLPC  H13X20437   4.123   0.543   4.098
  179SLPC  H13Y20438   4.134   0.613   4.253
  179SLPC  C31420439   4.241   0.438   4.243
  179SLPC  H14X20440   4.308   0.455   4.331
  179SLPC  H14Y20441   4.300   0.374   4.175
  179SLPC  C31520442   4.122   0.351   4.288
  179SLPC  H15X20443   4.066   0.324   4.197
  179SLPC  H15Y20444   4.058   0.404   4.361
  179SLPC  C31620445   4.164   0.226   4.358
  179SLPC  H16X20446   4.207   0.159   4.280
  179SLPC  H16Y20447   4.071   0.173   4.387
  179SLPC  C31720448   4.274   0.236   4.468
  179SLPC  H17X20449   4.372   0.271   4.429
  179SLPC  H17Y20450   4.293   0.131   4.500
  179SLPC  C31820451   4.232   0.321   4.588
  179SLPC  H18X20452   4.198   0.418   4.547
  179SLPC  H18Y20453   4.324   0.347   4.645
  179SLPC  H18Z20454   4.164   0.276   4.664
  180SLPC     N20455   2.487   0.413   2.458
  180SLPC   C1320456   2.533   0.438   2.597
  180SLPC  H13A20457   2.489   0.387   2.682
  180SLPC  H13B20458   2.635   0.408   2.614
  180SLPC  H13C20459   2.521   0.544   2.613
  180SLPC   C1420460   2.520   0.273   2.414
  180SLPC  H14A20461   2.615   0.230   2.439
  180SLPC  H14B20462   2.442   0.205   2.446
  180SLPC  H14C20463   2.514   0.282   2.306
  180SLPC   C1520464   2.580   0.494   2.376
  180SLPC  H15A20465   2.680   0.454   2.372
  180SLPC  H15B20466   2.533   0.490   2.278
  180SLPC  H15C20467   2.586   0.599   2.400
  180SLPC   C1220468   2.344   0.447   2.433
  180SLPC  H12A20469   2.334   0.550   2.462
  180SLPC  H12B20470   2.290   0.387   2.505
  180SLPC   C1120471   2.276   0.429   2.291
  180SLPC  H11A20472   2.175   0.469   2.317
  180SLPC  H11B20473   2.264   0.322   2.265
  180SLPC     P20474   2.330   0.658   2.173
  180SLPC   O1320475   2.463   0.720   2.141
  180SLPC   O1420476   2.210   0.698   2.093
  180SLPC   O1220477   2.344   0.503   2.193
  180SLPC   O1120478   2.307   0.698   2.322
  180SLPC    C120479   2.221   0.810   2.365
  180SLPC    HA20480   2.248   0.906   2.316
  180SLPC    HB20481   2.114   0.787   2.345
  180SLPC    C220482   2.232   0.828   2.517
  180SLPC    HS20483   2.338   0.851   2.537
  180SLPC   O2120484   2.181   0.709   2.582
  180SLPC   C2120485   2.245   0.681   2.680
  180SLPC   O2220486   2.351   0.725   2.724
  180SLPC   C2220487   2.162   0.585   2.763
  180SLPC   H2R20488   2.084   0.549   2.692
  180SLPC   H2S20489   2.232   0.502   2.787
  180SLPC    C320490   2.150   0.954   2.574
  180SLPC    HX20491   2.044   0.937   2.545
  180SLPC    HY20492   2.195   1.038   2.515
  180SLPC   O3120493   2.166   0.958   2.722
  180SLPC   C3120494   2.244   1.052   2.761
  180SLPC   O3220495   2.309   1.125   2.686
  180SLPC   C3220496   2.238   1.049   2.912
  180SLPC   H2X20497   2.314   0.977   2.951
  180SLPC   H2Y20498   2.137   1.016   2.945
  180SLPC   C2320499   2.088   0.650   2.891
  180SLPC   H3R20500   2.007   0.580   2.921
  180SLPC   H3S20501   2.042   0.745   2.857
  180SLPC   C2420502   2.186   0.668   3.014
  180SLPC   H4R20503   2.234   0.767   2.998
  180SLPC   H4S20504   2.273   0.600   3.007
  180SLPC   C2520505   2.119   0.663   3.148
  180SLPC   H5R20506   2.191   0.666   3.233
  180SLPC   H5S20507   2.075   0.561   3.155
  180SLPC   C2620508   2.019   0.770   3.176
  180SLPC   H6R20509   1.962   0.789   3.082
  180SLPC   H6S20510   2.060   0.870   3.199
  180SLPC   C2720511   1.909   0.730   3.276
  180SLPC   H7R20512   1.831   0.667   3.228
  180SLPC   H7S20513   1.857   0.825   3.302
  180SLPC   C2820514   1.946   0.663   3.418
  180SLPC   H8R20515   2.001   0.570   3.397
  180SLPC   H8S20516   1.852   0.632   3.468
  180SLPC   C2920517   2.006   0.756   3.514
  180SLPC   H9R20518   2.100   0.800   3.479
  180SLPC  C21020519   1.965   0.783   3.643
  180SLPC  H10R20520   2.022   0.856   3.702
  180SLPC  C21120521   1.847   0.736   3.720
  180SLPC  H11R20522   1.859   0.632   3.757
  180SLPC  H11S20523   1.765   0.726   3.645
  180SLPC  C21220524   1.781   0.810   3.845
  180SLPC  H12R20525   1.733   0.905   3.816
  180SLPC  C21320526   1.765   0.771   3.969
  180SLPC  H13R20527   1.718   0.833   4.047
  180SLPC  C21420528   1.837   0.650   4.029
  180SLPC  H14R20529   1.899   0.666   4.120
  180SLPC  H14S20530   1.919   0.608   3.966
  180SLPC  C21520531   1.749   0.534   4.065
  180SLPC  H15R20532   1.826   0.455   4.086
  180SLPC  H15S20533   1.680   0.496   3.988
  180SLPC  C21620534   1.685   0.564   4.204
  180SLPC  H16R20535   1.627   0.658   4.188
  180SLPC  H16S20536   1.751   0.576   4.292
  180SLPC  C21720537   1.581   0.460   4.231
  180SLPC  H17R20538   1.623   0.357   4.231
  180SLPC  H17S20539   1.512   0.473   4.145
  180SLPC  C21820540   1.501   0.488   4.366
  180SLPC  H18R20541   1.574   0.489   4.450
  180SLPC  H18S20542   1.425   0.410   4.387
  180SLPC  H18T20543   1.453   0.587   4.355
  180SLPC   C3320544   2.275   1.184   2.977
  180SLPC   H3X20545   2.228   1.265   2.917
  180SLPC   H3Y20546   2.386   1.192   2.967
  180SLPC   C3420547   2.233   1.203   3.123
  180SLPC   H4X20548   2.124   1.194   3.144
  180SLPC   H4Y20549   2.253   1.304   3.165
  180SLPC   C3520550   2.305   1.106   3.227
  180SLPC   H5X20551   2.414   1.112   3.205
  180SLPC   H5Y20552   2.270   1.002   3.207
  180SLPC   C3620553   2.296   1.148   3.376
  180SLPC   H6X20554   2.327   1.253   3.393
  180SLPC   H6Y20555   2.368   1.085   3.432
  180SLPC   C3720556   2.157   1.126   3.432
  180SLPC   H7X20557   2.112   1.036   3.384
  180SLPC   H7Y20558   2.095   1.217   3.418
  180SLPC   C3820559   2.153   1.111   3.581
  180SLPC   H8X20560   2.201   1.012   3.594
  180SLPC   H8Y20561   2.050   1.113   3.622
  180SLPC   C3920562   2.220   1.225   3.663
  180SLPC   H9X20563   2.229   1.318   3.602
  180SLPC   H9Y20564   2.326   1.199   3.681
  180SLPC  C31020565   2.138   1.250   3.797
  180SLPC  H10X20566   2.035   1.277   3.766
  180SLPC  H10Y20567   2.166   1.335   3.862
  180SLPC  C31120568   2.151   1.123   3.887
  180SLPC  H11X20569   2.255   1.093   3.914
  180SLPC  H11Y20570   2.105   1.030   3.848
  180SLPC  C31220571   2.085   1.146   4.028
  180SLPC  H12X20572   1.978   1.153   4.000
  180SLPC  H12Y20573   2.114   1.236   4.086
  180SLPC  C31320574   2.112   1.023   4.124
  180SLPC  H13X20575   2.208   1.040   4.177
  180SLPC  H13Y20576   2.118   0.935   4.057
  180SLPC  C31420577   2.008   0.998   4.225
  180SLPC  H14X20578   1.912   0.979   4.172
  180SLPC  H14Y20579   1.991   1.082   4.296
  180SLPC  C31520580   2.044   0.868   4.306
  180SLPC  H15X20581   2.116   0.891   4.388
  180SLPC  H15Y20582   2.095   0.804   4.232
  180SLPC  C31620583   1.922   0.805   4.362
  180SLPC  H16X20584   1.949   0.709   4.412
  180SLPC  H16Y20585   1.842   0.802   4.286
  180SLPC  C31720586   1.850   0.897   4.471
  180SLPC  H17X20587   1.809   0.988   4.424
  180SLPC  H17Y20588   1.931   0.932   4.539
  180SLPC  C31820589   1.732   0.832   4.545
  180SLPC  H18X20590   1.718   0.896   4.635
  180SLPC  H18Y20591   1.767   0.731   4.574
  180SLPC  H18Z20592   1.641   0.823   4.481
  181SLPC     N20593   1.479   6.150   2.020
  181SLPC   C1320594   1.377   6.249   1.978
  181SLPC  H13A20595   1.315   6.224   1.893
  181SLPC  H13B20596   1.310   6.272   2.059
  181SLPC  H13C20597   1.433   6.339   1.956
  181SLPC   C1420598   1.601   6.161   1.929
  181SLPC  H14A20599   1.662   6.073   1.944
  181SLPC  H14B20600   1.577   6.168   1.824
  181SLPC  H14C20601   1.659   6.250   1.951
  181SLPC   C1520602   1.419   6.013   1.997
  181SLPC  H15A20603   1.501   5.946   2.017
  181SLPC  H15B20604   1.332   5.999   2.060
  181SLPC  H15C20605   1.398   5.995   1.893
  181SLPC   C1220606   1.516   6.166   2.163
  181SLPC  H12A20607   1.581   6.083   2.184
  181SLPC  H12B20608   1.421   6.156   2.212
  181SLPC   C1120609   1.582   6.298   2.208
  181SLPC  H11A20610   1.577   6.309   2.318
  181SLPC  H11B20611   1.521   6.387   2.182
  181SLPC     P20612   1.827   6.228   2.236
  181SLPC   O1320613   1.821   6.083   2.195
  181SLPC   O1420614   1.956   6.299   2.216
  181SLPC   O1220615   1.722   6.308   2.159
  181SLPC   O1120616   1.787   6.243   2.387
  181SLPC    C120617   1.857   6.160   2.480
  181SLPC    HA20618   1.850   6.052   2.457
  181SLPC    HB20619   1.966   6.183   2.472
  181SLPC    C220620   1.828   6.180   2.627
  181SLPC    HS20621   1.886   6.103   2.683
  181SLPC   O2120622   1.687   6.192   2.653
  181SLPC   C2120623   1.626   6.078   2.650
  181SLPC   O2220624   1.680   5.971   2.639
  181SLPC   C2220625   1.479   6.103   2.691
  181SLPC   H2R20626   1.435   6.191   2.639
  181SLPC   H2S20627   1.420   6.017   2.652
  181SLPC    C320628   1.888   6.314   2.675
  181SLPC    HX20629   1.857   6.390   2.601
  181SLPC    HY20630   1.998   6.306   2.668
  181SLPC   O3120631   1.852   6.356   2.808
  181SLPC   C3120632   1.905   6.471   2.845
  181SLPC   O3220633   1.973   6.547   2.779
  181SLPC   C3220634   1.854   6.509   2.988
  181SLPC   H2X20635   1.806   6.424   3.042
  181SLPC   H2Y20636   1.787   6.596   2.971
  181SLPC   C2320637   1.459   6.120   2.843
  181SLPC   H3R20638   1.492   6.220   2.878
  181SLPC   H3S20639   1.524   6.047   2.896
  181SLPC   C2420640   1.314   6.084   2.910
  181SLPC   H4R20641   1.276   5.984   2.878
  181SLPC   H4S20642   1.239   6.161   2.883
  181SLPC   C2520643   1.324   6.083   3.067
  181SLPC   H5R20644   1.396   6.163   3.091
  181SLPC   H5S20645   1.379   5.989   3.090
  181SLPC   C2620646   1.185   6.083   3.133
  181SLPC   H6R20647   1.130   6.004   3.079
  181SLPC   H6S20648   1.128   6.176   3.114
  181SLPC   C2720649   1.186   6.060   3.291
  181SLPC   H7R20650   1.230   5.961   3.314
  181SLPC   H7S20651   1.082   6.041   3.327
  181SLPC   C2820652   1.243   6.174   3.376
  181SLPC   H8R20653   1.342   6.207   3.339
  181SLPC   H8S20654   1.265   6.141   3.480
  181SLPC   C2920655   1.143   6.288   3.368
  181SLPC   H9R20656   1.097   6.314   3.272
  181SLPC  C21020657   1.097   6.364   3.471
  181SLPC  H10R20658   1.031   6.446   3.442
  181SLPC  C21120659   1.133   6.342   3.615
  181SLPC  H11R20660   1.233   6.298   3.634
  181SLPC  H11S20661   1.060   6.275   3.664
  181SLPC  C21220662   1.131   6.473   3.689
  181SLPC  H12R20663   1.040   6.536   3.691
  181SLPC  C21320664   1.240   6.543   3.733
  181SLPC  H13R20665   1.212   6.624   3.802
  181SLPC  C21420666   1.389   6.491   3.740
  181SLPC  H14R20667   1.455   6.579   3.722
  181SLPC  H14S20668   1.420   6.412   3.668
  181SLPC  C21520669   1.435   6.431   3.876
  181SLPC  H15R20670   1.540   6.394   3.871
  181SLPC  H15S20671   1.373   6.341   3.898
  181SLPC  C21620672   1.426   6.526   3.998
  181SLPC  H16R20673   1.416   6.458   4.085
  181SLPC  H16S20674   1.331   6.581   3.980
  181SLPC  C21720675   1.542   6.622   4.010
  181SLPC  H17R20676   1.550   6.694   3.926
  181SLPC  H17S20677   1.631   6.555   4.006
  181SLPC  C21820678   1.540   6.717   4.137
  181SLPC  H18R20679   1.515   6.661   4.230
  181SLPC  H18S20680   1.462   6.796   4.133
  181SLPC  H18T20681   1.642   6.754   4.162
  181SLPC   C3320682   1.976   6.548   3.074
  181SLPC   H3X20683   1.927   6.573   3.171
  181SLPC   H3Y20684   2.018   6.637   3.024
  181SLPC   C3420685   2.073   6.431   3.107
  181SLPC   H4X20686   2.103   6.385   3.010
  181SLPC   H4Y20687   2.021   6.355   3.169
  181SLPC   C3520688   2.200   6.486   3.169
  181SLPC   H5X20689   2.236   6.571   3.106
  181SLPC   H5Y20690   2.274   6.404   3.166
  181SLPC   C3620691   2.176   6.556   3.308
  181SLPC   H6X20692   2.090   6.623   3.290
  181SLPC   H6Y20693   2.262   6.625   3.324
  181SLPC   C3720694   2.176   6.456   3.430
  181SLPC   H7X20695   2.237   6.370   3.396
  181SLPC   H7Y20696   2.071   6.422   3.442
  181SLPC   C3820697   2.236   6.521   3.557
  181SLPC   H8X20698   2.218   6.630   3.567
  181SLPC   H8Y20699   2.346   6.513   3.570
  181SLPC   C3920700   2.189   6.450   3.683
  181SLPC   H9X20701   2.211   6.341   3.675
  181SLPC   H9Y20702   2.079   6.460   3.696
  181SLPC  C31020703   2.256   6.502   3.814
  181SLPC  H10X20704   2.242   6.608   3.844
  181SLPC  H10Y20705   2.364   6.494   3.790
  181SLPC  C31120706   2.211   6.421   3.931
  181SLPC  H11X20707   2.287   6.440   4.010
  181SLPC  H11Y20708   2.208   6.314   3.903
  181SLPC  C31220709   2.067   6.453   3.971
  181SLPC  H12X20710   2.004   6.425   3.883
  181SLPC  H12Y20711   2.064   6.563   3.988
  181SLPC  C31320712   2.024   6.381   4.102
  181SLPC  H13X20713   2.083   6.412   4.191
  181SLPC  H13Y20714   2.039   6.271   4.097
  181SLPC  C31420715   1.880   6.412   4.142
  181SLPC  H14X20716   1.807   6.387   4.063
  181SLPC  H14Y20717   1.882   6.519   4.173
  181SLPC  C31520718   1.838   6.345   4.275
  181SLPC  H15X20719   1.908   6.378   4.355
  181SLPC  H15Y20720   1.858   6.236   4.272
  181SLPC  C31620721   1.694   6.387   4.310
  181SLPC  H16X20722   1.681   6.495   4.289
  181SLPC  H16Y20723   1.683   6.382   4.420
  181SLPC  C31720724   1.587   6.294   4.239
  181SLPC  H17X20725   1.615   6.187   4.246
  181SLPC  H17Y20726   1.583   6.318   4.131
  181SLPC  C31820727   1.457   6.302   4.312
  181SLPC  H18X20728   1.425   6.403   4.344
  181SLPC  H18Y20729   1.472   6.248   4.408
  181SLPC  H18Z20730   1.368   6.256   4.262
  182SLPC     N20731   2.730   6.068   2.077
  182SLPC   C1320732   2.642   5.950   2.087
  182SLPC  H13A20733   2.649   5.892   1.996
  182SLPC  H13B20734   2.691   5.890   2.162
  182SLPC  H13C20735   2.541   5.979   2.115
  182SLPC   C1420736   2.675   6.155   1.967
  182SLPC  H14A20737   2.744   6.232   1.939
  182SLPC  H14B20738   2.653   6.101   1.876
  182SLPC  H14C20739   2.580   6.194   1.999
  182SLPC   C1520740   2.871   6.025   2.035
  182SLPC  H15A20741   2.939   6.108   2.025
  182SLPC  H15B20742   2.925   5.960   2.104
  182SLPC  H15C20743   2.870   5.972   1.941
  182SLPC   C1220744   2.736   6.140   2.212
  182SLPC  H12A20745   2.796   6.229   2.200
  182SLPC  H12B20746   2.791   6.079   2.282
  182SLPC   C1120747   2.607   6.191   2.286
  182SLPC  H11A20748   2.546   6.252   2.216
  182SLPC  H11B20749   2.632   6.253   2.374
  182SLPC     P20750   2.562   5.989   2.440
  182SLPC   O1320751   2.436   5.914   2.475
  182SLPC   O1420752   2.679   5.900   2.407
  182SLPC   O1220753   2.526   6.078   2.323
  182SLPC   O1120754   2.592   6.084   2.565
  182SLPC    C120755   2.663   6.024   2.679
  182SLPC    HA20756   2.736   5.947   2.644
  182SLPC    HB20757   2.715   6.103   2.737
  182SLPC    C220758   2.562   5.941   2.777
  182SLPC    HS20759   2.522   5.854   2.721
  182SLPC   O2120760   2.445   6.019   2.804
  182SLPC   C2120761   2.341   5.956   2.834
  182SLPC   O2220762   2.328   5.833   2.825
  182SLPC   C2220763   2.227   6.053   2.872
  182SLPC   H2R20764   2.264   6.123   2.950
  182SLPC   H2S20765   2.203   6.118   2.784
  182SLPC    C320766   2.635   5.906   2.911
  182SLPC    HX20767   2.692   5.994   2.946
  182SLPC    HY20768   2.718   5.834   2.894
  182SLPC   O3120769   2.543   5.864   3.014
  182SLPC   C3120770   2.514   5.733   3.012
  182SLPC   O3220771   2.562   5.650   2.937
  182SLPC   C3220772   2.404   5.701   3.115
  182SLPC   H2X20773   2.330   5.647   3.052
  182SLPC   H2Y20774   2.362   5.798   3.148
  182SLPC   C2320775   2.102   5.972   2.927
  182SLPC   H3R20776   2.136   5.899   3.003
  182SLPC   H3S20777   2.056   5.924   2.838
  182SLPC   C2420778   1.993   6.071   2.981
  182SLPC   H4R20779   1.964   6.132   2.892
  182SLPC   H4S20780   2.046   6.131   3.058
  182SLPC   C2520781   1.868   6.010   3.033
  182SLPC   H5R20782   1.907   5.918   3.081
  182SLPC   H5S20783   1.799   5.974   2.954
  182SLPC   C2620784   1.788   6.106   3.124
  182SLPC   H6R20785   1.766   6.203   3.075
  182SLPC   H6S20786   1.856   6.152   3.200
  182SLPC   C2720787   1.667   6.045   3.188
  182SLPC   H7R20788   1.606   5.982   3.119
  182SLPC   H7S20789   1.594   6.125   3.215
  182SLPC   C2820790   1.704   5.961   3.312
  182SLPC   H8R20791   1.788   5.897   3.278
  182SLPC   H8S20792   1.618   5.897   3.342
  182SLPC   C2920793   1.775   6.038   3.420
  182SLPC   H9R20794   1.872   6.075   3.383
  182SLPC  C21020795   1.721   6.071   3.542
  182SLPC  H10R20796   1.787   6.127   3.610
  182SLPC  C21120797   1.581   6.027   3.587
  182SLPC  H11R20798   1.584   5.925   3.632
  182SLPC  H11S20799   1.514   6.012   3.499
  182SLPC  C21220800   1.508   6.112   3.687
  182SLPC  H12R20801   1.456   6.201   3.648
  182SLPC  C21320802   1.513   6.093   3.822
  182SLPC  H13R20803   1.468   6.168   3.889
  182SLPC  C21420804   1.587   5.979   3.888
  182SLPC  H14R20805   1.670   5.952   3.820
  182SLPC  H14S20806   1.537   5.883   3.913
  182SLPC  C21520807   1.657   6.030   4.018
  182SLPC  H15R20808   1.588   6.057   4.101
  182SLPC  H15S20809   1.731   6.110   4.001
  182SLPC  C21620810   1.736   5.915   4.079
  182SLPC  H16R20811   1.821   5.889   4.012
  182SLPC  H16S20812   1.674   5.826   4.104
  182SLPC  C21720813   1.797   5.940   4.215
  182SLPC  H17R20814   1.736   6.010   4.276
  182SLPC  H17S20815   1.901   5.976   4.202
  182SLPC  C21820816   1.817   5.823   4.305
  182SLPC  H18R20817   1.859   5.850   4.404
  182SLPC  H18S20818   1.880   5.745   4.258
  182SLPC  H18T20819   1.718   5.778   4.330
  182SLPC   C3320820   2.441   5.611   3.232
  182SLPC   H3X20821   2.484   5.667   3.318
  182SLPC   H3Y20822   2.518   5.533   3.215
  182SLPC   C3420823   2.319   5.560   3.286
  182SLPC   H4X20824   2.262   5.493   3.218
  182SLPC   H4Y20825   2.252   5.647   3.305
  182SLPC   C3520826   2.340   5.492   3.425
  182SLPC   H5X20827   2.399   5.557   3.493
  182SLPC   H5Y20828   2.403   5.403   3.402
  182SLPC   C3620829   2.213   5.445   3.492
  182SLPC   H6X20830   2.136   5.393   3.431
  182SLPC   H6Y20831   2.162   5.538   3.524
  182SLPC   C3720832   2.227   5.360   3.610
  182SLPC   H7X20833   2.285   5.267   3.591
  182SLPC   H7Y20834   2.129   5.324   3.647
  182SLPC   C3820835   2.305   5.428   3.729
  182SLPC   H8X20836   2.263   5.528   3.754
  182SLPC   H8Y20837   2.409   5.456   3.701
  182SLPC   C3920838   2.309   5.339   3.854
  182SLPC   H9X20839   2.339   5.238   3.821
  182SLPC   H9Y20840   2.205   5.329   3.892
  182SLPC  C31020841   2.411   5.403   3.956
  182SLPC  H10X20842   2.393   5.511   3.941
  182SLPC  H10Y20843   2.505   5.382   3.901
  182SLPC  C31120844   2.419   5.354   4.104
  182SLPC  H11X20845   2.420   5.247   4.132
  182SLPC  H11Y20846   2.334   5.402   4.158
  182SLPC  C31220847   2.542   5.418   4.181
  182SLPC  H12X20848   2.641   5.372   4.161
  182SLPC  H12Y20849   2.525   5.397   4.289
  182SLPC  C31320850   2.547   5.562   4.176
  182SLPC  H13X20851   2.449   5.613   4.190
  182SLPC  H13Y20852   2.571   5.598   4.074
  182SLPC  C31420853   2.638   5.619   4.282
  182SLPC  H14X20854   2.740   5.579   4.269
  182SLPC  H14Y20855   2.606   5.583   4.382
  182SLPC  C31520856   2.649   5.770   4.267
  182SLPC  H15X20857   2.545   5.810   4.262
  182SLPC  H15Y20858   2.702   5.800   4.174
  182SLPC  C31620859   2.718   5.832   4.390
  182SLPC  H16X20860   2.820   5.792   4.408
  182SLPC  H16Y20861   2.658   5.805   4.480
  182SLPC  C31720862   2.723   5.988   4.377
  182SLPC  H17X20863   2.769   6.030   4.469
  182SLPC  H17Y20864   2.617   6.020   4.368
  182SLPC  C31820865   2.803   6.044   4.261
  182SLPC  H18X20866   2.812   6.153   4.277
  182SLPC  H18Y20867   2.752   6.006   4.170
  182SLPC  H18Z20868   2.909   6.011   4.268
  183SLPC     N20869   6.371   2.096   2.069
  183SLPC   C1320870   6.459   2.120   1.951
  183SLPC  H13A20871   6.564   2.104   1.970
  183SLPC  H13B20872   6.432   2.069   1.859
  183SLPC  H13C20873   6.460   2.225   1.925
  183SLPC   C1420874   6.400   1.959   2.125
  183SLPC  H14A20875   6.507   1.950   2.136
  183SLPC  H14B20876   6.348   1.955   2.220
  183SLPC  H14C20877   6.362   1.886   2.054
  183SLPC   C1520878   6.230   2.101   2.025
  183SLPC  H15A20879   6.210   2.042   1.937
  183SLPC  H15B20880   6.171   2.053   2.102
  183SLPC  H15C20881   6.180   2.197   2.017
  183SLPC   C1220882   6.402   2.197   2.180
  183SLPC  H12A20883   6.367   2.293   2.144
  183SLPC  H12B20884   6.503   2.232   2.190
  183SLPC   C1120885   6.347   2.172   2.324
  183SLPC  H11A20886   6.369   2.269   2.374
  183SLPC  H11B20887   6.405   2.099   2.383
  183SLPC     P20888   6.100   2.269   2.302
  183SLPC   O1320889   6.178   2.382   2.248
  183SLPC   O1420890   5.986   2.215   2.223
  183SLPC   O1220891   6.202   2.153   2.327
  183SLPC   O1120892   6.049   2.303   2.448
  183SLPC    C120893   5.995   2.205   2.543
  183SLPC    HA20894   5.887   2.231   2.554
  183SLPC    HB20895   5.990   2.100   2.506
  183SLPC    C220896   6.069   2.195   2.688
  183SLPC    HS20897   6.012   2.110   2.731
  183SLPC   O2120898   6.052   2.318   2.754
  183SLPC   C2120899   6.064   2.317   2.882
  183SLPC   O2220900   6.072   2.213   2.950
  183SLPC   C2220901   6.056   2.461   2.938
  183SLPC   H2R20902   6.125   2.521   2.874
  183SLPC   H2S20903   5.951   2.496   2.926
  183SLPC    C320904   6.216   2.148   2.655
  183SLPC    HX20905   6.252   2.220   2.578
  183SLPC    HY20906   6.204   2.045   2.613
  183SLPC   O3120907   6.293   2.166   2.770
  183SLPC   C3120908   6.344   2.053   2.819
  183SLPC   O3220909   6.312   1.941   2.778
  183SLPC   C3220910   6.447   2.083   2.933
  183SLPC   H2X20911   6.476   2.189   2.951
  183SLPC   H2Y20912   6.539   2.031   2.898
  183SLPC   C2320913   6.085   2.464   3.092
  183SLPC   H3R20914   6.088   2.573   3.114
  183SLPC   H3S20915   6.185   2.425   3.122
  183SLPC   C2420916   5.972   2.396   3.184
  183SLPC   H4R20917   5.989   2.287   3.191
  183SLPC   H4S20918   5.877   2.424   3.134
  183SLPC   C2520919   5.976   2.443   3.336
  183SLPC   H5R20920   5.975   2.554   3.341
  183SLPC   H5S20921   6.076   2.407   3.369
  183SLPC   C2620922   5.861   2.381   3.411
  183SLPC   H6R20923   5.879   2.272   3.416
  183SLPC   H6S20924   5.772   2.391   3.345
  183SLPC   C2720925   5.849   2.446   3.560
  183SLPC   H7R20926   5.823   2.553   3.555
  183SLPC   H7S20927   5.954   2.440   3.595
  183SLPC   C2820928   5.744   2.365   3.639
  183SLPC   H8R20929   5.774   2.258   3.652
  183SLPC   H8S20930   5.650   2.354   3.582
  183SLPC   C2920931   5.717   2.424   3.772
  183SLPC   H9R20932   5.808   2.440   3.833
  183SLPC  C21020933   5.595   2.463   3.818
  183SLPC  H10R20934   5.601   2.513   3.915
  183SLPC  C21120935   5.457   2.446   3.753
  183SLPC  H11R20936   5.385   2.390   3.816
  183SLPC  H11S20937   5.465   2.370   3.671
  183SLPC  C21220938   5.408   2.584   3.714
  183SLPC  H12R20939   5.487   2.649   3.676
  183SLPC  C21320940   5.282   2.633   3.720
  183SLPC  H13R20941   5.263   2.735   3.684
  183SLPC  C21420942   5.153   2.559   3.759
  183SLPC  H14R20943   5.169   2.450   3.745
  183SLPC  H14S20944   5.077   2.595   3.687
  183SLPC  C21520945   5.111   2.595   3.906
  183SLPC  H15R20946   5.092   2.704   3.912
  183SLPC  H15S20947   5.199   2.578   3.973
  183SLPC  C21620948   4.993   2.514   3.955
  183SLPC  H16R20949   5.011   2.405   3.952
  183SLPC  H16S20950   4.912   2.549   3.888
  183SLPC  C21720951   4.960   2.558   4.101
  183SLPC  H17R20952   4.931   2.665   4.089
  183SLPC  H17S20953   5.058   2.564   4.153
  183SLPC  C21820954   4.857   2.458   4.164
  183SLPC  H18R20955   4.856   2.468   4.275
  183SLPC  H18S20956   4.884   2.353   4.138
  183SLPC  H18T20957   4.765   2.474   4.104
  183SLPC   C3320958   6.427   2.026   3.073
  183SLPC   H3X20959   6.529   2.032   3.118
  183SLPC   H3Y20960   6.409   1.917   3.058
  183SLPC   C3420961   6.311   2.092   3.143
  183SLPC   H4X20962   6.213   2.058   3.104
  183SLPC   H4Y20963   6.320   2.203   3.134
  183SLPC   C3520964   6.313   2.047   3.292
  183SLPC   H5X20965   6.413   2.073   3.334
  183SLPC   H5Y20966   6.306   1.936   3.292
  183SLPC   C3620967   6.212   2.121   3.378
  183SLPC   H6X20968   6.117   2.088   3.330
  183SLPC   H6Y20969   6.217   2.231   3.366
  183SLPC   C3720970   6.227   2.070   3.517
  183SLPC   H7X20971   6.321   2.095   3.571
  183SLPC   H7Y20972   6.223   1.959   3.522
  183SLPC   C3820973   6.108   2.125   3.593
  183SLPC   H8X20974   6.019   2.066   3.560
  183SLPC   H8Y20975   6.101   2.230   3.558
  183SLPC   C3920976   6.120   2.108   3.744
  183SLPC   H9X20977   6.207   2.161   3.788
  183SLPC   H9Y20978   6.141   2.002   3.769
  183SLPC  C31020979   5.988   2.129   3.822
  183SLPC  H10X20980   5.910   2.075   3.765
  183SLPC  H10Y20981   5.952   2.234   3.815
  183SLPC  C31120982   5.985   2.077   3.967
  183SLPC  H11X20983   6.058   2.131   4.031
  183SLPC  H11Y20984   6.027   1.975   3.976
  183SLPC  C31220985   5.851   2.089   4.029
  183SLPC  H12X20986   5.780   2.019   3.981
  183SLPC  H12Y20987   5.825   2.195   4.010
  183SLPC  C31320988   5.862   2.070   4.183
  183SLPC  H13X20989   5.957   2.103   4.228
  183SLPC  H13Y20990   5.847   1.965   4.216
  183SLPC  C31420991   5.746   2.151   4.248
  183SLPC  H14X20992   5.736   2.241   4.184
  183SLPC  H14Y20993   5.769   2.176   4.354
  183SLPC  C31520994   5.610   2.074   4.252
  183SLPC  H15X20995   5.622   1.996   4.330
  183SLPC  H15Y20996   5.607   2.027   4.151
  183SLPC  C31620997   5.483   2.151   4.256
  183SLPC  H16X20998   5.468   2.180   4.362
  183SLPC  H16Y20999   5.398   2.081   4.242
  183SLPC  C31721000   5.470   2.271   4.163
  183SLPC  H17X21001   5.489   2.252   4.055
  183SLPC  H17Y21002   5.546   2.347   4.192
  183SLPC  C31821003   5.341   2.359   4.178
  183SLPC  H18X21004   5.247   2.307   4.151
  183SLPC  H18Y21005   5.341   2.453   4.119
  183SLPC  H18Z21006   5.327   2.377   4.287
  184SLPC     N21007   0.066   1.235   1.946
  184SLPC   C1321008   0.182   1.192   2.030
  184SLPC  H13A21009   0.275   1.167   1.981
  184SLPC  H13B21010   0.207   1.272   2.098
  184SLPC  H13C21011   0.156   1.108   2.093
  184SLPC   C1421012   6.795   1.112   1.890
  184SLPC  H14A21013   0.062   1.070   1.814
  184SLPC  H14B21014   6.780   1.044   1.973
  184SLPC  H14C21015   6.701   1.137   1.844
  184SLPC   C1521016   0.115   1.312   1.827
  184SLPC  H15A21017   0.193   1.380   1.855
  184SLPC  H15B21018   0.170   1.256   1.752
  184SLPC  H15C21019   0.040   1.367   1.772
  184SLPC   C1221020   6.770   1.327   2.023
  184SLPC  H12A21021   6.689   1.275   2.072
  184SLPC  H12B21022   6.720   1.380   1.943
  184SLPC   C1121023   0.042   1.423   2.119
  184SLPC  H11A21024   0.130   1.469   2.070
  184SLPC  H11B21025   0.084   1.375   2.210
  184SLPC     P21026   6.606   1.521   2.224
  184SLPC   O1321027   6.573   1.655   2.282
  184SLPC   O1421028   6.511   1.457   2.133
  184SLPC   O1221029   6.746   1.531   2.149
  184SLPC   O1121030   6.635   1.412   2.341
  184SLPC    C121031   6.729   1.447   2.444
  184SLPC    HA21032   6.788   1.357   2.469
  184SLPC    HB21033   0.002   1.532   2.426
  184SLPC    C221034   6.659   1.474   2.587
  184SLPC    HS21035   6.743   1.492   2.658
  184SLPC   O2121036   6.587   1.354   2.623
  184SLPC   C2121037   6.663   1.257   2.675
  184SLPC   O2221038   6.784   1.256   2.681
  184SLPC   C2221039   6.576   1.142   2.736
  184SLPC   H2R21040   6.486   1.191   2.780
  184SLPC   H2S21041   6.548   1.082   2.647
  184SLPC    C321042   6.563   1.597   2.579
  184SLPC    HX21043   6.482   1.581   2.505
  184SLPC    HY21044   6.628   1.682   2.549
  184SLPC   O3121045   6.514   1.635   2.709
  184SLPC   C3121046   6.402   1.568   2.741
  184SLPC   O3221047   6.360   1.472   2.673
  184SLPC   C3221048   6.345   1.611   2.875
  184SLPC   H2X21049   6.237   1.591   2.862
  184SLPC   H2Y21050   6.371   1.717   2.897
  184SLPC   C2321051   6.641   1.046   2.835
  184SLPC   H3R21052   6.731   1.004   2.786
  184SLPC   H3S21053   6.569   0.965   2.859
  184SLPC   C2421054   6.691   1.105   2.967
  184SLPC   H4R21055   6.766   1.182   2.939
  184SLPC   H4S21056   6.749   1.034   3.030
  184SLPC   C2521057   6.584   1.166   3.051
  184SLPC   H5R21058   6.515   1.083   3.078
  184SLPC   H5S21059   6.524   1.239   2.992
  184SLPC   C2621060   6.646   1.220   3.182
  184SLPC   H6R21061   6.586   1.308   3.212
  184SLPC   H6S21062   6.749   1.258   3.162
  184SLPC   C2721063   6.646   1.108   3.294
  184SLPC   H7R21064   6.718   1.031   3.259
  184SLPC   H7S21065   6.542   1.068   3.296
  184SLPC   C2821066   6.683   1.169   3.434
  184SLPC   H8R21067   6.611   1.251   3.455
  184SLPC   H8S21068   6.788   1.201   3.424
  184SLPC   C2921069   6.673   1.062   3.546
  184SLPC   H9R21070   6.730   0.970   3.526
  184SLPC  C21021071   6.606   1.077   3.665
  184SLPC  H10R21072   6.608   0.993   3.737
  184SLPC  C21121073   6.520   1.198   3.705
  184SLPC  H11R21074   6.448   1.164   3.782
  184SLPC  H11S21075   6.449   1.234   3.627
  184SLPC  C21221076   6.585   1.315   3.769
  184SLPC  H12R21077   6.583   1.408   3.711
  184SLPC  C21321078   6.662   1.312   3.879
  184SLPC  H13R21079   6.711   1.408   3.904
  184SLPC  C21421080   6.695   1.192   3.958
  184SLPC  H14R21081   6.779   1.134   3.914
  184SLPC  H14S21082   6.617   1.115   3.938
  184SLPC  C21521083   6.701   1.207   4.109
  184SLPC  H15R21084   6.696   1.106   4.154
  184SLPC  H15S21085   6.616   1.262   4.154
  184SLPC  C21621086   0.043   1.268   4.152
  184SLPC  H16R21087   0.093   1.325   4.071
  184SLPC  H16S21088   0.113   1.185   4.176
  184SLPC  C21721089   0.027   1.359   4.271
  184SLPC  H17R21090   6.746   1.435   4.247
  184SLPC  H17S21091   0.117   1.414   4.303
  184SLPC  C21821092   6.772   1.287   4.401
  184SLPC  H18R21093   6.770   1.360   4.484
  184SLPC  H18S21094   0.055   1.215   4.430
  184SLPC  H18T21095   6.673   1.238   4.384
  184SLPC   C3321096   6.399   1.525   2.996
  184SLPC   H3X21097   6.510   1.524   2.992
  184SLPC   H3Y21098   6.353   1.424   2.987
  184SLPC   C3421099   6.352   1.598   3.119
  184SLPC   H4X21100   6.245   1.624   3.104
  184SLPC   H4Y21101   6.396   1.699   3.112
  184SLPC   C3521102   6.401   1.541   3.251
  184SLPC   H5X21103   6.508   1.511   3.248
  184SLPC   H5Y21104   6.329   1.459   3.269
  184SLPC   C3621105   6.385   1.637   3.372
  184SLPC   H6X21106   6.290   1.694   3.366
  184SLPC   H6Y21107   6.469   1.709   3.379
  184SLPC   C3721108   6.379   1.564   3.505
  184SLPC   H7X21109   6.453   1.611   3.572
  184SLPC   H7Y21110   6.411   1.458   3.495
  184SLPC   C3821111   6.255   1.571   3.589
  184SLPC   H8X21112   6.172   1.565   3.516
  184SLPC   H8Y21113   6.256   1.670   3.640
  184SLPC   C3921114   6.236   1.456   3.689
  184SLPC   H9X21115   6.297   1.469   3.781
  184SLPC   H9Y21116   6.263   1.358   3.643
  184SLPC  C31021117   6.091   1.469   3.748
  184SLPC  H10X21118   6.017   1.467   3.665
  184SLPC  H10Y21119   6.067   1.560   3.806
  184SLPC  C31121120   6.051   1.359   3.847
  184SLPC  H11X21121   6.117   1.273   3.823
  184SLPC  H11Y21122   5.948   1.324   3.825
  184SLPC  C31221123   6.068   1.393   3.999
  184SLPC  H12X21124   5.993   1.470   4.027
  184SLPC  H12Y21125   6.171   1.431   4.015
  184SLPC  C31321126   6.045   1.271   4.090
  184SLPC  H13X21127   6.110   1.194   4.043
  184SLPC  H13Y21128   5.942   1.233   4.068
  184SLPC  C31421129   6.072   1.279   4.239
  184SLPC  H14X21130   6.177   1.313   4.253
  184SLPC  H14Y21131   6.058   1.184   4.294
  184SLPC  C31521132   5.969   1.382   4.305
  184SLPC  H15X21133   5.878   1.319   4.297
  184SLPC  H15Y21134   5.978   1.477   4.248
  184SLPC  C31621135   5.998   1.395   4.460
  184SLPC  H16X21136   6.095   1.446   4.479
  184SLPC  H16Y21137   5.994   1.293   4.505
  184SLPC  C31721138   5.899   1.484   4.543
  184SLPC  H17X21139   5.921   1.591   4.524
  184SLPC  H17Y21140   5.911   1.478   4.654
  184SLPC  C31821141   5.751   1.449   4.511
  184SLPC  H18X21142   5.730   1.341   4.524
  184SLPC  H18Y21143   5.725   1.499   4.415
  184SLPC  H18Z21144   5.684   1.494   4.587
  185POPC     N21145   1.799   5.224   6.978
  185POPC   C1221146   1.697   5.112   6.942
  185POPC  H12A21147   1.596   5.149   6.945
  185POPC  H12B21148   1.713   5.041   7.022
  185POPC   C1321149   1.932   5.166   7.007
  185POPC  H13A21150   2.004   5.245   6.992
  185POPC  H13B21151   1.925   5.131   7.109
  185POPC  H13C21152   1.952   5.086   6.937
  185POPC   C1421153   1.811   5.325   6.868
  185POPC  H14A21154   1.837   5.277   6.775
  185POPC  H14B21155   1.715   5.372   6.851
  185POPC  H14C21156   1.881   5.405   6.886
  185POPC   C1521157   1.750   5.296   7.099
  185POPC  H15A21158   1.824   5.367   7.132
  185POPC  H15B21159   1.740   5.237   7.189
  185POPC  H15C21160   1.658   5.351   7.089
  185POPC   C1121161   1.718   5.046   6.800
  185POPC  H11A21162   1.654   4.956   6.797
  185POPC  H11B21163   1.821   5.007   6.783
  185POPC     P21164   1.527   5.165   6.664
  185POPC   O1321165   1.476   5.267   6.756
  185POPC   O1421166   1.465   5.036   6.661
  185POPC   O1221167   1.682   5.140   6.698
  185POPC   O1121168   1.516   5.220   6.518
  185POPC    C121169   1.627   5.274   6.447
  185POPC    HA21170   1.689   5.188   6.413
  185POPC    HB21171   1.680   5.349   6.510
  185POPC    C221172   1.564   5.346   6.323
  185POPC    HS21173   1.492   5.273   6.279
  185POPC   O2121174   1.673   5.384   6.239
  185POPC   C2121175   1.644   5.371   6.104
  185POPC   O2221176   1.534   5.363   6.059
  185POPC   C2221177   1.770   5.370   6.029
  185POPC   H2R21178   1.826   5.279   6.056
  185POPC   H2S21179   1.829   5.457   6.063
  185POPC    C321180   1.480   5.465   6.362
  185POPC    HX21181   1.547   5.532   6.420
  185POPC    HY21182   1.407   5.437   6.440
  185POPC   O3121183   1.412   5.519   6.249
  185POPC   C3121184   1.461   5.631   6.191
  185POPC   O3221185   1.561   5.691   6.231
  185POPC   C3221186   1.386   5.658   6.069
  185POPC   H2X21187   1.301   5.727   6.088
  185POPC   H2Y21188   1.339   5.564   6.033
  185POPC   C2321189   1.742   5.376   5.875
  185POPC   H3R21190   1.688   5.471   5.852
  185POPC   H3S21191   1.666   5.296   5.863
  185POPC   C2421192   1.865   5.373   5.788
  185POPC   H4R21193   1.943   5.296   5.808
  185POPC   H4S21194   1.915   5.470   5.807
  185POPC   C2521195   1.823   5.374   5.638
  185POPC   H5R21196   1.734   5.440   5.631
  185POPC   H5S21197   1.794   5.269   5.615
  185POPC   C2621198   1.939   5.424   5.535
  185POPC   H6R21199   2.030   5.372   5.574
  185POPC   H6S21200   1.964   5.530   5.555
  185POPC   C2721201   1.924   5.371   5.390
  185POPC   H7R21202   1.914   5.260   5.391
  185POPC   H7S21203   2.019   5.397   5.339
  185POPC   C2821204   1.814   5.434   5.306
  185POPC   H8R21205   1.718   5.389   5.340
  185POPC   H8S21206   1.837   5.386   5.209
  185POPC   C2921207   1.810   5.582   5.317
  185POPC   H9121208   1.779   5.629   5.411
  185POPC  C21021209   1.867   5.663   5.230
  185POPC  H10121210   1.862   5.773   5.237
  185POPC  C21121211   1.936   5.625   5.099
  185POPC  H11R21212   1.899   5.529   5.055
  185POPC  H11S21213   2.044   5.612   5.117
  185POPC  C21221214   1.908   5.733   4.986
  185POPC  H12R21215   1.942   5.834   5.016
  185POPC  H12S21216   1.798   5.738   4.977
  185POPC  C21321217   1.966   5.702   4.851
  185POPC  H13R21218   1.917   5.762   4.771
  185POPC  H13S21219   1.935   5.599   4.824
  185POPC  C21421220   2.116   5.724   4.849
  185POPC  H14R21221   2.167   5.658   4.921
  185POPC  H14S21222   2.138   5.827   4.884
  185POPC  C21521223   2.176   5.700   4.715
  185POPC  H15R21224   2.152   5.598   4.677
  185POPC  H15S21225   2.286   5.705   4.725
  185POPC  C21621226   2.134   5.784   4.593
  185POPC  H16R21227   2.032   5.759   4.555
  185POPC  H16S21228   2.210   5.768   4.513
  185POPC  C21721229   2.124   5.938   4.618
  185POPC  H17R21230   2.222   5.959   4.665
  185POPC  H17S21231   2.042   5.958   4.691
  185POPC  C21821232   2.121   6.019   4.494
  185POPC  H18R21233   2.017   6.015   4.455
  185POPC  H18S21234   2.192   5.970   4.424
  185POPC  H18T21235   2.156   6.123   4.512
  185POPC   C3321236   1.481   5.713   5.958
  185POPC   H3X21237   1.583   5.668   5.958
  185POPC   H3Y21238   1.486   5.822   5.979
  185POPC   C3421239   1.429   5.703   5.811
  185POPC   H4X21240   1.319   5.720   5.809
  185POPC   H4Y21241   1.441   5.595   5.787
  185POPC   C3521242   1.496   5.791   5.704
  185POPC   H5X21243   1.605   5.788   5.727
  185POPC   H5Y21244   1.472   5.898   5.722
  185POPC   C3621245   1.454   5.756   5.563
  185POPC   H6X21246   1.343   5.749   5.572
  185POPC   H6Y21247   1.499   5.662   5.522
  185POPC   C3721248   1.494   5.861   5.460
  185POPC   H7X21249   1.601   5.888   5.448
  185POPC   H7Y21250   1.456   5.956   5.503
  185POPC   C3821251   1.433   5.830   5.328
  185POPC   H8X21252   1.443   5.920   5.264
  185POPC   H8Y21253   1.326   5.808   5.350
  185POPC   C3921254   1.501   5.714   5.255
  185POPC   H9X21255   1.537   5.633   5.321
  185POPC   H9Y21256   1.591   5.760   5.208
  185POPC  C31021257   1.418   5.654   5.137
  185POPC  H10X21258   1.339   5.727   5.109
  185POPC  H10Y21259   1.362   5.566   5.175
  185POPC  C31121260   1.496   5.619   5.010
  185POPC  H11X21261   1.512   5.509   5.011
  185POPC  H11Y21262   1.600   5.657   5.002
  185POPC  C31221263   1.432   5.670   4.885
  185POPC  H12X21264   1.375   5.764   4.895
  185POPC  H12Y21265   1.353   5.595   4.867
  185POPC  C31321266   1.524   5.685   4.761
  185POPC  H13X21267   1.551   5.581   4.733
  185POPC  H13Y21268   1.609   5.755   4.778
  185POPC  C31421269   1.452   5.752   4.647
  185POPC  H14X21270   1.442   5.858   4.680
  185POPC  H14Y21271   1.360   5.698   4.617
  185POPC  C31521272   1.528   5.768   4.512
  185POPC  H15X21273   1.537   5.663   4.477
  185POPC  H15Y21274   1.631   5.809   4.524
  185POPC  C31621275   1.446   5.851   4.401
  185POPC  H16X21276   1.488   5.950   4.375
  185POPC  H16Y21277   1.340   5.876   4.424
  185POPC  H16Z21278   1.448   5.799   4.303
  186POPC     N21279   3.682   5.428   6.613
  186POPC   C1221280   3.805   5.475   6.688
  186POPC  H12A21281   3.856   5.388   6.726
  186POPC  H12B21282   3.771   5.532   6.772
  186POPC   C1321283   3.594   5.363   6.709
  186POPC  H13A21284   3.571   5.440   6.781
  186POPC  H13B21285   3.506   5.316   6.667
  186POPC  H13C21286   3.635   5.285   6.771
  186POPC   C1421287   3.611   5.540   6.549
  186POPC  H14A21288   3.666   5.586   6.469
  186POPC  H14B21289   3.522   5.503   6.499
  186POPC  H14C21290   3.578   5.612   6.623
  186POPC   C1521291   3.712   5.328   6.505
  186POPC  H15A21292   3.617   5.305   6.459
  186POPC  H15B21293   3.755   5.242   6.553
  186POPC  H15C21294   3.777   5.378   6.434
  186POPC   C1121295   3.912   5.545   6.604
  186POPC  H11A21296   3.995   5.578   6.670
  186POPC  H11B21297   3.874   5.641   6.562
  186POPC     P21298   4.067   5.334   6.554
  186POPC   O1321299   3.996   5.259   6.664
  186POPC   O1421300   4.204   5.383   6.589
  186POPC   O1221301   3.975   5.458   6.500
  186POPC   O1121302   4.084   5.230   6.433
  186POPC    C121303   4.133   5.275   6.304
  186POPC    HA21304   4.201   5.195   6.267
  186POPC    HB21305   4.191   5.369   6.316
  186POPC    C221306   4.009   5.318   6.215
  186POPC    HS21307   3.944   5.389   6.269
  186POPC   O2121308   3.944   5.194   6.184
  186POPC   C2121309   3.802   5.201   6.183
  186POPC   O2221310   3.738   5.299   6.209
  186POPC   C2221311   3.737   5.060   6.152
  186POPC   H2R21312   3.708   5.012   6.248
  186POPC   H2S21313   3.813   4.999   6.098
  186POPC    C321314   4.053   5.395   6.089
  186POPC    HX21315   4.132   5.330   6.043
  186POPC    HY21316   4.097   5.493   6.117
  186POPC   O3121317   3.946   5.406   5.991
  186POPC   C3121318   3.856   5.501   6.019
  186POPC   O3221319   3.865   5.583   6.112
  186POPC   C3221320   3.758   5.493   5.895
  186POPC   H2X21321   3.660   5.454   5.930
  186POPC   H2Y21322   3.794   5.416   5.824
  186POPC   C2321323   3.610   5.074   6.068
  186POPC   H3R21324   3.542   5.145   6.120
  186POPC   H3S21325   3.566   4.972   6.060
  186POPC   C2421326   3.636   5.123   5.924
  186POPC   H4R21327   3.688   5.047   5.861
  186POPC   H4S21328   3.702   5.212   5.929
  186POPC   C2521329   3.503   5.155   5.847
  186POPC   H5R21330   3.450   5.235   5.903
  186POPC   H5S21331   3.443   5.065   5.824
  186POPC   C2621332   3.538   5.217   5.709
  186POPC   H6R21333   3.607   5.302   5.725
  186POPC   H6S21334   3.439   5.230   5.659
  186POPC   C2721335   3.618   5.118   5.621
  186POPC   H7R21336   3.552   5.030   5.606
  186POPC   H7S21337   3.714   5.083   5.663
  186POPC   C2821338   3.664   5.184   5.484
  186POPC   H8R21339   3.735   5.118   5.430
  186POPC   H8S21340   3.715   5.278   5.516
  186POPC   C2921341   3.540   5.222   5.397
  186POPC   H9121342   3.481   5.309   5.431
  186POPC  C21021343   3.496   5.148   5.293
  186POPC  H10121344   3.402   5.173   5.243
  186POPC  C21121345   3.568   5.032   5.230
  186POPC  H11R21346   3.494   4.959   5.190
  186POPC  H11S21347   3.615   4.975   5.312
  186POPC  C21221348   3.676   5.062   5.121
  186POPC  H12R21349   3.735   4.968   5.119
  186POPC  H12S21350   3.740   5.145   5.158
  186POPC  C21321351   3.619   5.090   4.983
  186POPC  H13R21352   3.701   5.138   4.925
  186POPC  H13S21353   3.539   5.164   5.000
  186POPC  C21421354   3.579   4.970   4.910
  186POPC  H14R21355   3.496   4.913   4.958
  186POPC  H14S21356   3.666   4.901   4.900
  186POPC  C21521357   3.523   5.005   4.765
  186POPC  H15R21358   3.549   5.107   4.731
  186POPC  H15S21359   3.413   5.008   4.776
  186POPC  C21621360   3.534   4.905   4.652
  186POPC  H16R21361   3.641   4.897   4.625
  186POPC  H16S21362   3.474   4.938   4.565
  186POPC  C21721363   3.479   4.771   4.702
  186POPC  H17R21364   3.518   4.758   4.806
  186POPC  H17S21365   3.533   4.688   4.651
  186POPC  C21821366   3.321   4.755   4.691
  186POPC  H18R21367   3.296   4.724   4.587
  186POPC  H18S21368   3.279   4.848   4.733
  186POPC  H18T21369   3.291   4.672   4.759
  186POPC   C3321370   3.741   5.634   5.831
  186POPC   H3X21371   3.837   5.690   5.829
  186POPC   H3Y21372   3.696   5.686   5.918
  186POPC   C3421373   3.649   5.654   5.713
  186POPC   H4X21374   3.662   5.761   5.686
  186POPC   H4Y21375   3.543   5.640   5.741
  186POPC   C3521376   3.679   5.566   5.594
  186POPC   H5X21377   3.592   5.502   5.570
  186POPC   H5Y21378   3.766   5.498   5.608
  186POPC   C3621379   3.711   5.650   5.464
  186POPC   H6X21380   3.818   5.675   5.480
  186POPC   H6Y21381   3.650   5.742   5.449
  186POPC   C3721382   3.695   5.562   5.337
  186POPC   H7X21383   3.589   5.540   5.313
  186POPC   H7Y21384   3.744   5.465   5.360
  186POPC   C3821385   3.766   5.627   5.217
  186POPC   H8X21386   3.876   5.630   5.235
  186POPC   H8Y21387   3.725   5.728   5.201
  186POPC   C3921388   3.745   5.545   5.085
  186POPC   H9X21389   3.781   5.441   5.097
  186POPC   H9Y21390   3.817   5.600   5.021
  186POPC  C31021391   3.601   5.545   5.034
  186POPC  H10X21392   3.547   5.642   5.037
  186POPC  H10Y21393   3.547   5.476   5.101
  186POPC  C31121394   3.594   5.474   4.893
  186POPC  H11X21395   3.640   5.374   4.911
  186POPC  H11Y21396   3.663   5.521   4.820
  186POPC  C31221397   3.447   5.456   4.834
  186POPC  H12X21398   3.395   5.554   4.847
  186POPC  H12Y21399   3.389   5.396   4.907
  186POPC  C31321400   3.449   5.407   4.687
  186POPC  H13X21401   3.348   5.361   4.680
  186POPC  H13Y21402   3.518   5.320   4.681
  186POPC  C31421403   3.473   5.512   4.575
  186POPC  H14X21404   3.564   5.566   4.609
  186POPC  H14Y21405   3.384   5.578   4.583
  186POPC  C31521406   3.476   5.466   4.430
  186POPC  H15X21407   3.396   5.394   4.404
  186POPC  H15Y21408   3.573   5.413   4.416
  186POPC  C31621409   3.471   5.587   4.335
  186POPC  H16X21410   3.386   5.656   4.355
  186POPC  H16Y21411   3.464   5.550   4.231
  186POPC  H16Z21412   3.565   5.646   4.334
  187POPC     N21413   6.085   4.705   1.976
  187POPC   C1221414   6.159   4.670   2.107
  187POPC  H12A21415   6.259   4.710   2.097
  187POPC  H12B21416   6.165   4.563   2.117
  187POPC   C1321417   6.083   4.848   1.938
  187POPC  H13A21418   6.185   4.884   1.932
  187POPC  H13B21419   6.025   4.861   1.848
  187POPC  H13C21420   6.062   4.910   2.024
  187POPC   C1421421   6.158   4.630   1.867
  187POPC  H14A21422   6.133   4.656   1.766
  187POPC  H14B21423   6.263   4.635   1.891
  187POPC  H14C21424   6.137   4.526   1.889
  187POPC   C1521425   5.944   4.645   1.992
  187POPC  H15A21426   5.891   4.665   1.899
  187POPC  H15B21427   5.895   4.692   2.075
  187POPC  H15C21428   5.949   4.537   1.999
  187POPC   C1121429   6.101   4.715   2.243
  187POPC  H11A21430   6.177   4.684   2.318
  187POPC  H11B21431   6.005   4.659   2.255
  187POPC     P21432   5.953   4.924   2.299
  187POPC   O1321433   5.839   4.881   2.211
  187POPC   O1421434   5.978   5.066   2.296
  187POPC   O1221435   6.087   4.857   2.253
  187POPC   O1121436   5.927   4.871   2.445
  187POPC    C121437   6.021   4.910   2.546
  187POPC    HA21438   6.090   4.991   2.513
  187POPC    HB21439   6.096   4.829   2.560
  187POPC    C221440   5.957   4.954   2.681
  187POPC    HS21441   6.034   4.964   2.761
  187POPC   O2121442   5.843   4.874   2.712
  187POPC   C2121443   5.870   4.762   2.779
  187POPC   O2221444   5.977   4.712   2.802
  187POPC   C2221445   5.744   4.696   2.835
  187POPC   H2R21446   5.784   4.607   2.888
  187POPC   H2S21447   5.691   4.666   2.742
  187POPC    C321448   5.904   5.102   2.679
  187POPC    HX21449   5.805   5.104   2.627
  187POPC    HY21450   5.963   5.172   2.616
  187POPC   O3121451   5.877   5.145   2.812
  187POPC   C3121452   5.980   5.183   2.880
  187POPC   O3221453   6.099   5.185   2.844
  187POPC   C3221454   5.932   5.213   3.013
  187POPC   H2X21455   5.850   5.142   3.039
  187POPC   H2Y21456   5.884   5.313   3.012
  187POPC   C2321457   5.658   4.785   2.926
  187POPC   H3R21458   5.572   4.720   2.952
  187POPC   H3S21459   5.631   4.877   2.869
  187POPC   C2421460   5.738   4.827   3.052
  187POPC   H4R21461   5.704   4.921   3.101
  187POPC   H4S21462   5.847   4.838   3.033
  187POPC   C2521463   5.728   4.707   3.154
  187POPC   H5R21464   5.759   4.614   3.101
  187POPC   H5S21465   5.623   4.690   3.185
  187POPC   C2621466   5.791   4.742   3.289
  187POPC   H6R21467   5.746   4.836   3.328
  187POPC   H6S21468   5.901   4.754   3.281
  187POPC   C2721469   5.752   4.631   3.390
  187POPC   H7R21470   5.840   4.573   3.426
  187POPC   H7S21471   5.696   4.546   3.344
  187POPC   C2821472   5.671   4.678   3.510
  187POPC   H8R21473   5.607   4.604   3.564
  187POPC   H8S21474   5.598   4.751   3.469
  187POPC   C2921475   5.763   4.758   3.605
  187POPC   H9121476   5.831   4.837   3.569
  187POPC  C21021477   5.796   4.718   3.729
  187POPC  H10121478   5.856   4.779   3.798
  187POPC  C21121479   5.750   4.591   3.803
  187POPC  H11R21480   5.847   4.567   3.853
  187POPC  H11S21481   5.714   4.503   3.746
  187POPC  C21221482   5.644   4.626   3.905
  187POPC  H12R21483   5.603   4.534   3.952
  187POPC  H12S21484   5.557   4.677   3.860
  187POPC  C21321485   5.702   4.696   4.027
  187POPC  H13R21486   5.725   4.803   4.006
  187POPC  H13S21487   5.797   4.648   4.056
  187POPC  C21421488   5.612   4.690   4.143
  187POPC  H14R21489   5.588   4.582   4.152
  187POPC  H14S21490   5.514   4.735   4.116
  187POPC  C21521491   5.665   4.763   4.270
  187POPC  H15R21492   5.636   4.870   4.275
  187POPC  H15S21493   5.775   4.746   4.273
  187POPC  C21621494   5.601   4.704   4.394
  187POPC  H16R21495   5.632   4.606   4.435
  187POPC  H16S21496   5.492   4.696   4.375
  187POPC  C21721497   5.606   4.809   4.510
  187POPC  H17R21498   5.537   4.895   4.490
  187POPC  H17S21499   5.707   4.855   4.513
  187POPC  C21821500   5.580   4.748   4.649
  187POPC  H18R21501   5.657   4.672   4.674
  187POPC  H18S21502   5.477   4.708   4.657
  187POPC  H18T21503   5.600   4.830   4.721
  187POPC   C3321504   6.042   5.208   3.119
  187POPC   H3X21505   6.110   5.290   3.087
  187POPC   H3Y21506   6.090   5.108   3.119
  187POPC   C3421507   5.994   5.238   3.256
  187POPC   H4X21508   5.931   5.329   3.245
  187POPC   H4Y21509   6.075   5.251   3.330
  187POPC   C3521510   5.915   5.125   3.318
  187POPC   H5X21511   5.978   5.034   3.313
  187POPC   H5Y21512   5.827   5.092   3.258
  187POPC   C3621513   5.867   5.145   3.462
  187POPC   H6X21514   5.949   5.155   3.536
  187POPC   H6Y21515   5.827   5.045   3.489
  187POPC   C3721516   5.756   5.247   3.488
  187POPC   H7X21517   5.654   5.205   3.475
  187POPC   H7Y21518   5.768   5.320   3.406
  187POPC   C3821519   5.772   5.314   3.630
  187POPC   H8X21520   5.735   5.418   3.616
  187POPC   H8Y21521   5.878   5.317   3.663
  187POPC   C3921522   5.681   5.250   3.743
  187POPC   H9X21523   5.699   5.141   3.754
  187POPC   H9Y21524   5.576   5.262   3.710
  187POPC  C31021525   5.714   5.320   3.878
  187POPC  H10X21526   5.691   5.428   3.861
  187POPC  H10Y21527   5.822   5.318   3.904
  187POPC  C31121528   5.633   5.264   3.993
  187POPC  H11X21529   5.668   5.160   4.010
  187POPC  H11Y21530   5.527   5.253   3.962
  187POPC  C31221531   5.627   5.356   4.117
  187POPC  H12X21532   5.582   5.456   4.097
  187POPC  H12Y21533   5.732   5.373   4.149
  187POPC  C31321534   5.579   5.284   4.248
  187POPC  H13X21535   5.652   5.207   4.282
  187POPC  H13Y21536   5.478   5.239   4.240
  187POPC  C31421537   5.580   5.376   4.372
  187POPC  H14X21538   5.501   5.454   4.368
  187POPC  H14Y21539   5.665   5.447   4.360
  187POPC  C31521540   5.602   5.305   4.508
  187POPC  H15X21541   5.602   5.386   4.584
  187POPC  H15Y21542   5.702   5.258   4.514
  187POPC  C31621543   5.498   5.198   4.548
  187POPC  H16X21544   5.502   5.111   4.479
  187POPC  H16Y21545   5.396   5.243   4.544
  187POPC  H16Z21546   5.524   5.155   4.647
  188POPC     N21547   4.793   5.041   1.719
  188POPC   C1221548   4.779   5.021   1.864
  188POPC  H12A21549   4.682   5.054   1.896
  188POPC  H12B21550   4.848   5.084   1.917
  188POPC   C1321551   4.759   5.184   1.675
  188POPC  H13A21552   4.662   5.204   1.718
  188POPC  H13B21553   4.824   5.242   1.739
  188POPC  H13C21554   4.778   5.208   1.572
  188POPC   C1421555   4.934   5.010   1.681
  188POPC  H14A21556   5.003   5.086   1.717
  188POPC  H14B21557   4.960   4.913   1.720
  188POPC  H14C21558   4.936   4.991   1.575
  188POPC   C1521559   4.705   4.949   1.643
  188POPC  H15A21560   4.729   4.940   1.538
  188POPC  H15B21561   4.601   4.976   1.651
  188POPC  H15C21562   4.711   4.848   1.680
  188POPC   C1121563   4.805   4.886   1.928
  188POPC  H11A21564   4.738   4.803   1.897
  188POPC  H11B21565   4.780   4.897   2.036
  188POPC     P21566   5.051   4.862   1.978
  188POPC   O1321567   5.012   4.965   2.075
  188POPC   O1421568   5.169   4.894   1.899
  188POPC   O1221569   4.932   4.826   1.898
  188POPC   O1121570   5.075   4.730   2.060
  188POPC    C121571   4.977   4.667   2.133
  188POPC    HA21572   4.980   4.556   2.127
  188POPC    HB21573   4.874   4.699   2.106
  188POPC    C221574   4.994   4.691   2.288
  188POPC    HS21575   5.007   4.801   2.284
  188POPC   O2121576   5.119   4.634   2.343
  188POPC   C2121577   5.172   4.706   2.442
  188POPC   O2221578   5.130   4.816   2.481
  188POPC   C2221579   5.297   4.626   2.501
  188POPC   H2R21580   5.384   4.694   2.502
  188POPC   H2S21581   5.311   4.541   2.430
  188POPC    C321582   4.866   4.640   2.365
  188POPC    HX21583   4.865   4.530   2.352
  188POPC    HY21584   4.774   4.675   2.314
  188POPC   O3121585   4.875   4.663   2.506
  188POPC   C3121586   4.844   4.790   2.530
  188POPC   O3221587   4.800   4.867   2.448
  188POPC   C3221588   4.867   4.822   2.677
  188POPC   H2X21589   4.945   4.754   2.715
  188POPC   H2Y21590   4.772   4.799   2.730
  188POPC   C2321591   5.267   4.559   2.637
  188POPC   H3R21592   5.328   4.466   2.644
  188POPC   H3S21593   5.158   4.534   2.631
  188POPC   C2421594   5.291   4.640   2.768
  188POPC   H4R21595   5.269   4.747   2.751
  188POPC   H4S21596   5.399   4.636   2.793
  188POPC   C2521597   5.206   4.600   2.888
  188POPC   H5R21598   5.231   4.496   2.919
  188POPC   H5S21599   5.097   4.608   2.870
  188POPC   C2621600   5.231   4.675   3.015
  188POPC   H6R21601   5.224   4.786   3.006
  188POPC   H6S21602   5.335   4.649   3.045
  188POPC   C2721603   5.136   4.623   3.126
  188POPC   H7R21604   5.140   4.513   3.136
  188POPC   H7S21605   5.032   4.637   3.089
  188POPC   C2821606   5.153   4.687   3.260
  188POPC   H8R21607   5.065   4.662   3.324
  188POPC   H8S21608   5.144   4.798   3.251
  188POPC   C2921609   5.281   4.659   3.329
  188POPC   H9121610   5.368   4.700   3.275
  188POPC  C21021611   5.293   4.606   3.456
  188POPC  H10121612   5.392   4.565   3.481
  188POPC  C21121613   5.195   4.546   3.552
  188POPC  H11R21614   5.167   4.441   3.529
  188POPC  H11S21615   5.102   4.607   3.552
  188POPC  C21221616   5.248   4.559   3.701
  188POPC  H12R21617   5.286   4.661   3.721
  188POPC  H12S21618   5.336   4.492   3.711
  188POPC  C21321619   5.149   4.513   3.811
  188POPC  H13R21620   5.130   4.403   3.808
  188POPC  H13S21621   5.054   4.568   3.793
  188POPC  C21421622   5.214   4.538   3.952
  188POPC  H14R21623   5.198   4.644   3.982
  188POPC  H14S21624   5.325   4.525   3.949
  188POPC  C21521625   5.173   4.432   4.050
  188POPC  H15R21626   5.192   4.333   4.002
  188POPC  H15S21627   5.062   4.439   4.054
  188POPC  C21621628   5.240   4.439   4.191
  188POPC  H16R21629   5.205   4.528   4.248
  188POPC  H16S21630   5.351   4.437   4.185
  188POPC  C21721631   5.179   4.317   4.272
  188POPC  H17R21632   5.240   4.238   4.225
  188POPC  H17S21633   5.071   4.308   4.245
  188POPC  C21821634   5.192   4.314   4.422
  188POPC  H18R21635   5.300   4.305   4.449
  188POPC  H18S21636   5.129   4.235   4.468
  188POPC  H18T21637   5.164   4.412   4.465
  188POPC   C3321638   4.918   4.969   2.689
  188POPC   H3X21639   4.839   5.042   2.663
  188POPC   H3Y21640   4.998   4.980   2.613
  188POPC   C3421641   4.975   4.993   2.833
  188POPC   H4X21642   5.036   5.086   2.840
  188POPC   H4Y21643   5.047   4.916   2.865
  188POPC   C3521644   4.862   5.009   2.931
  188POPC   H5X21645   4.800   4.917   2.938
  188POPC   H5Y21646   4.801   5.099   2.908
  188POPC   C3621647   4.921   5.029   3.075
  188POPC   H6X21648   4.960   5.133   3.080
  188POPC   H6Y21649   4.992   4.947   3.100
  188POPC   C3721650   4.808   5.022   3.174
  188POPC   H7X21651   4.755   4.924   3.181
  188POPC   H7Y21652   4.733   5.097   3.140
  188POPC   C3821653   4.857   5.073   3.311
  188POPC   H8X21654   4.768   5.117   3.361
  188POPC   H8Y21655   4.921   5.164   3.304
  188POPC   C3921656   4.936   4.968   3.386
  188POPC   H9X21657   5.013   4.916   3.324
  188POPC   H9Y21658   4.867   4.890   3.424
  188POPC  C31021659   5.025   5.039   3.494
  188POPC  H10X21660   5.064   5.135   3.452
  188POPC  H10Y21661   5.108   4.966   3.503
  188POPC  C31121662   4.961   5.063   3.632
  188POPC  H11X21663   4.875   5.134   3.639
  188POPC  H11Y21664   5.046   5.075   3.703
  188POPC  C31221665   4.898   4.932   3.689
  188POPC  H12X21666   4.981   4.858   3.686
  188POPC  H12Y21667   4.815   4.913   3.618
  188POPC  C31321668   4.852   4.934   3.840
  188POPC  H13X21669   4.796   4.841   3.864
  188POPC  H13Y21670   4.782   5.020   3.848
  188POPC  C31421671   4.968   4.949   3.935
  188POPC  H14X21672   5.020   5.041   3.903
  188POPC  H14Y21673   5.029   4.856   3.929
  188POPC  C31521674   4.922   4.964   4.078
  188POPC  H15X21675   4.851   5.050   4.076
  188POPC  H15Y21676   5.010   5.004   4.132
  188POPC  C31621677   4.869   4.842   4.152
  188POPC  H16X21678   4.841   4.875   4.254
  188POPC  H16Y21679   4.949   4.765   4.156
  188POPC  H16Z21680   4.781   4.799   4.100
  189SAPI   C1221681   2.053   4.649   6.984
  189SAPI    H221682   2.060   4.723   6.902
  189SAPI    O221683   2.092   4.702   7.108
  189SAPI   HO221684   2.087   4.798   7.110
  189SAPI   C1321685   1.913   4.589   6.994
  189SAPI    H321686   1.904   4.529   6.901
  189SAPI    O321687   1.814   4.694   6.993
  189SAPI   HO321688   1.764   4.679   6.913
  189SAPI   C1421689   1.902   4.487   7.108
  189SAPI    H421690   1.923   4.559   7.191
  189SAPI    O421691   1.778   4.430   7.119
  189SAPI   HO421692   1.734   4.452   7.202
  189SAPI   C1521693   2.012   4.381   7.108
  189SAPI    H521694   1.967   4.306   7.040
  189SAPI    O521695   2.025   4.312   7.236
  189SAPI   HO521696   1.939   4.273   7.248
  189SAPI   C1621697   2.148   4.420   7.048
  189SAPI    H621698   2.207   4.454   7.135
  189SAPI    O621699   2.222   4.316   6.994
  189SAPI   HO621700   2.264   4.361   6.921
  189SAPI   C1121701   2.144   4.532   6.941
  189SAPI    H121702   2.104   4.483   6.850
  189SAPI     P21703   2.377   4.539   6.804
  189SAPI   O1321704   2.380   4.394   6.781
  189SAPI   O1421705   2.502   4.615   6.813
  189SAPI   O1221706   2.277   4.578   6.928
  189SAPI   O1121707   2.303   4.600   6.684
  189SAPI    C121708   2.279   4.746   6.672
  189SAPI    HA21709   2.208   4.785   6.749
  189SAPI    HB21710   2.376   4.798   6.689
  189SAPI    C221711   2.230   4.771   6.528
  189SAPI    HS21712   2.232   4.877   6.496
  189SAPI   O2121713   2.093   4.720   6.513
  189SAPI   C2121714   2.000   4.814   6.540
  189SAPI   O2221715   2.024   4.919   6.592
  189SAPI   C2221716   1.858   4.762   6.479
  189SAPI   H2R21717   1.879   4.678   6.409
  189SAPI   H2S21718   1.794   4.721   6.560
  189SAPI    C321719   2.319   4.699   6.422
  189SAPI    HX21720   2.317   4.592   6.451
  189SAPI    HY21721   2.424   4.734   6.426
  189SAPI   O3121722   2.252   4.713   6.286
  189SAPI   C3121723   2.299   4.809   6.211
  189SAPI   O3221724   2.394   4.875   6.241
  189SAPI   C3221725   2.230   4.828   6.073
  189SAPI   H2X21726   2.219   4.727   6.028
  189SAPI   H2Y21727   2.309   4.872   6.009
  189SAPI   C2321728   1.794   4.881   6.408
  189SAPI   H3R21729   1.868   4.908   6.330
  189SAPI   H3S21730   1.769   4.973   6.465
  189SAPI   C2421731   1.670   4.840   6.329
  189SAPI   H4R21732   1.587   4.805   6.393
  189SAPI   H4S21733   1.693   4.764   6.251
  189SAPI   C2521734   1.629   4.967   6.260
  189SAPI   H5R21735   1.562   5.029   6.321
  189SAPI   C2621736   1.656   4.997   6.128
  189SAPI   H6R21737   1.612   5.091   6.092
  189SAPI   C2721738   1.721   4.915   6.024
  189SAPI   H7R21739   1.724   4.806   6.043
  189SAPI   H7S21740   1.825   4.953   6.019
  189SAPI   C2821741   1.644   4.944   5.895
  189SAPI   H8R21742   1.535   4.933   5.910
  189SAPI   C2921743   1.685   4.975   5.771
  189SAPI   H9R21744   1.606   4.990   5.695
  189SAPI  C21021745   1.826   4.997   5.721
  189SAPI  H10R21746   1.876   5.066   5.792
  189SAPI  H10S21747   1.830   5.055   5.627
  189SAPI  C21121748   1.919   4.876   5.706
  189SAPI  H11R21749   1.905   4.797   5.781
  189SAPI  C21221750   2.023   4.867   5.622
  189SAPI  H12R21751   2.088   4.780   5.639
  189SAPI  C21321752   2.072   4.974   5.526
  189SAPI  H13R21753   2.003   5.061   5.529
  189SAPI  H13S21754   2.076   4.925   5.426
  189SAPI  C21421755   2.207   5.029   5.563
  189SAPI  H14R21756   2.217   5.064   5.667
  189SAPI  C21521757   2.311   5.039   5.476
  189SAPI  H15R21758   2.395   5.092   5.523
  189SAPI  C21621759   2.312   5.009   5.325
  189SAPI  H16R21760   2.222   4.964   5.278
  189SAPI  H16S21761   2.392   4.939   5.294
  189SAPI  C21721762   2.328   5.137   5.233
  189SAPI  H17R21763   2.252   5.210   5.266
  189SAPI  H17S21764   2.293   5.114   5.130
  189SAPI  C21821765   2.466   5.199   5.220
  189SAPI  H18R21766   2.481   5.272   5.302
  189SAPI  H18S21767   2.457   5.267   5.133
  189SAPI  C21921768   2.583   5.110   5.197
  189SAPI  H19R21769   2.559   5.028   5.126
  189SAPI  H19S21770   2.617   5.058   5.290
  189SAPI  C22021771   2.697   5.192   5.137
  189SAPI  H20R21772   2.756   5.248   5.212
  189SAPI  H20S21773   2.660   5.265   5.062
  189SAPI  H20T21774   2.762   5.114   5.091
  189SAPI   C3321775   2.094   4.902   6.080
  189SAPI   H3X21776   2.033   4.864   6.165
  189SAPI   H3Y21777   2.047   4.880   5.982
  189SAPI   C3421778   2.118   5.056   6.090
  189SAPI   H4X21779   2.174   5.077   6.184
  189SAPI   H4Y21780   2.017   5.096   6.111
  189SAPI   C3521781   2.172   5.130   5.965
  189SAPI   H5X21782   2.101   5.127   5.880
  189SAPI   H5Y21783   2.273   5.094   5.935
  189SAPI   C3621784   2.195   5.280   5.995
  189SAPI   H6X21785   2.249   5.279   6.092
  189SAPI   H6Y21786   2.097   5.330   6.010
  189SAPI   C3721787   2.291   5.355   5.903
  189SAPI   H7X21788   2.383   5.293   5.904
  189SAPI   H7Y21789   2.310   5.451   5.956
  189SAPI   C3821790   2.258   5.375   5.756
  189SAPI   H8X21791   2.203   5.471   5.747
  189SAPI   H8Y21792   2.190   5.292   5.726
  189SAPI   C3921793   2.384   5.401   5.673
  189SAPI   H9X21794   2.436   5.305   5.655
  189SAPI   H9Y21795   2.445   5.468   5.736
  189SAPI  C31021796   2.350   5.464   5.537
  189SAPI  H10X21797   2.296   5.561   5.544
  189SAPI  H10Y21798   2.292   5.399   5.468
  189SAPI  C31121799   2.483   5.502   5.472
  189SAPI  H11X21800   2.550   5.414   5.478
  189SAPI  H11Y21801   2.529   5.581   5.534
  189SAPI  C31221802   2.458   5.555   5.330
  189SAPI  H12X21803   2.400   5.650   5.323
  189SAPI  H12Y21804   2.413   5.474   5.270
  189SAPI  C31321805   2.599   5.576   5.272
  189SAPI  H13X21806   2.663   5.486   5.282
  189SAPI  H13Y21807   2.642   5.669   5.315
  189SAPI  C31421808   2.586   5.600   5.118
  189SAPI  H14X21809   2.520   5.689   5.104
  189SAPI  H14Y21810   2.543   5.506   5.079
  189SAPI  C31521811   2.718   5.622   5.050
  189SAPI  H15X21812   2.759   5.520   5.062
  189SAPI  H15Y21813   2.783   5.689   5.111
  189SAPI  C31621814   2.708   5.653   4.902
  189SAPI  H16X21815   2.798   5.618   4.846
  189SAPI  H16Y21816   2.696   5.764   4.899
  189SAPI  C31721817   2.592   5.586   4.830
  189SAPI  H17X21818   2.500   5.631   4.872
  189SAPI  H17Y21819   2.603   5.479   4.856
  189SAPI  C31821820   2.594   5.599   4.677
  189SAPI  H18X21821   2.685   5.656   4.645
  189SAPI  H18Y21822   2.503   5.658   4.656
  189SAPI  H18Z21823   2.596   5.497   4.632
  190SAPI   C1221824   0.623   2.823   6.648
  190SAPI    H221825   0.610   2.744   6.570
  190SAPI    O221826   0.491   2.857   6.691
  190SAPI   HO221827   0.491   2.923   6.761
  190SAPI   C1321828   0.700   2.757   6.766
  190SAPI    H321829   0.789   2.709   6.720
  190SAPI    O321830   0.638   2.642   6.817
  190SAPI   HO321831   0.698   2.572   6.792
  190SAPI   C1421832   0.737   2.858   6.882
  190SAPI    H421833   0.652   2.842   6.951
  190SAPI    O421834   0.860   2.805   6.943
  190SAPI   HO421835   0.835   2.751   7.018
  190SAPI   C1521836   0.748   3.010   6.840
  190SAPI    H521837   0.855   3.036   6.850
  190SAPI    O521838   0.680   3.098   6.931
  190SAPI   HO521839   0.584   3.093   6.932
  190SAPI   C1621840   0.716   3.056   6.692
  190SAPI    H621841   0.620   3.113   6.690
  190SAPI    O621842   0.825   3.143   6.647
  190SAPI   HO621843   0.829   3.129   6.552
  190SAPI   C1121844   0.698   2.941   6.592
  190SAPI    H121845   0.794   2.893   6.563
  190SAPI     P21846   0.716   3.032   6.342
  190SAPI   O1321847   0.853   3.065   6.380
  190SAPI   O1421848   0.649   3.145   6.280
  190SAPI   O1221849   0.631   2.982   6.470
  190SAPI   O1121850   0.700   2.906   6.244
  190SAPI    C121851   0.789   2.793   6.260
  190SAPI    HA21852   0.890   2.832   6.234
  190SAPI    HB21853   0.787   2.752   6.363
  190SAPI    C221854   0.750   2.668   6.166
  190SAPI    HS21855   0.831   2.594   6.187
  190SAPI   O2121856   0.745   2.716   6.027
  190SAPI   C2121857   0.866   2.730   5.976
  190SAPI   O2221858   0.972   2.702   6.029
  190SAPI   C2221859   0.842   2.800   5.841
  190SAPI   H2R21860   0.762   2.755   5.778
  190SAPI   H2S21861   0.798   2.896   5.876
  190SAPI    C321862   0.614   2.589   6.190
  190SAPI    HX21863   0.529   2.655   6.162
  190SAPI    HY21864   0.601   2.565   6.298
  190SAPI   O3121865   0.586   2.470   6.097
  190SAPI   C3121866   0.674   2.367   6.126
  190SAPI   O3221867   0.762   2.378   6.209
  190SAPI   C3221868   0.641   2.247   6.040
  190SAPI   H2X21869   0.554   2.272   5.975
  190SAPI   H2Y21870   0.612   2.158   6.100
  190SAPI   C2321871   0.968   2.839   5.757
  190SAPI   H3R21872   1.047   2.891   5.817
  190SAPI   H3S21873   0.936   2.909   5.676
  190SAPI   C2421874   1.041   2.712   5.705
  190SAPI   H4R21875   1.061   2.649   5.794
  190SAPI   H4S21876   1.137   2.744   5.660
  190SAPI   C2521877   0.954   2.641   5.610
  190SAPI   H5R21878   0.867   2.589   5.655
  190SAPI   C2621879   0.963   2.652   5.474
  190SAPI   H6R21880   0.894   2.594   5.411
  190SAPI   C2721881   1.075   2.729   5.402
  190SAPI   H7R21882   1.119   2.814   5.459
  190SAPI   H7S21883   1.023   2.785   5.321
  190SAPI   C2821884   1.168   2.632   5.335
  190SAPI   H8R21885   1.183   2.547   5.403
  190SAPI   C2921886   1.209   2.625   5.200
  190SAPI   H9R21887   1.272   2.542   5.165
  190SAPI  C21021888   1.186   2.719   5.081
  190SAPI  H10R21889   1.285   2.720   5.031
  190SAPI  H10S21890   1.176   2.819   5.128
  190SAPI  C21121891   1.061   2.677   5.008
  190SAPI  H11R21892   0.989   2.621   5.071
  190SAPI  C21221893   1.020   2.697   4.876
  190SAPI  H12R21894   0.921   2.656   4.850
  190SAPI  C21321895   1.119   2.759   4.773
  190SAPI  H13R21896   1.200   2.805   4.835
  190SAPI  H13S21897   1.076   2.843   4.715
  190SAPI  C21421898   1.167   2.658   4.680
  190SAPI  H14R21899   1.235   2.588   4.732
  190SAPI  C21521900   1.151   2.643   4.547
  190SAPI  H15R21901   1.192   2.555   4.497
  190SAPI  C21621902   1.084   2.733   4.449
  190SAPI  H16R21903   1.153   2.818   4.429
  190SAPI  H16S21904   0.990   2.764   4.499
  190SAPI  C21721905   1.044   2.671   4.314
  190SAPI  H17R21906   0.946   2.719   4.293
  190SAPI  H17S21907   1.022   2.562   4.318
  190SAPI  C21821908   1.137   2.690   4.191
  190SAPI  H18R21909   1.235   2.646   4.218
  190SAPI  H18S21910   1.137   2.799   4.170
  190SAPI  C21921911   1.096   2.614   4.068
  190SAPI  H19R21912   1.125   2.509   4.088
  190SAPI  H19S21913   1.156   2.645   3.979
  190SAPI  C22021914   0.944   2.616   4.030
  190SAPI  H20R21915   0.887   2.579   4.118
  190SAPI  H20S21916   0.927   2.545   3.946
  190SAPI  H20T21917   0.910   2.718   4.002
  190SAPI   C3321918   0.767   2.208   5.954
  190SAPI   H3X21919   0.767   2.100   5.926
  190SAPI   H3Y21920   0.861   2.232   6.009
  190SAPI   C3421921   0.771   2.278   5.823
  190SAPI   H4X21922   0.770   2.388   5.838
  190SAPI   H4Y21923   0.679   2.250   5.768
  190SAPI   C3521924   0.888   2.237   5.732
  190SAPI   H5X21925   0.917   2.133   5.760
  190SAPI   H5Y21926   0.982   2.291   5.754
  190SAPI   C3621927   0.854   2.246   5.583
  190SAPI   H6X21928   0.842   2.352   5.554
  190SAPI   H6Y21929   0.763   2.187   5.555
  190SAPI   C3721930   0.970   2.209   5.482
  190SAPI   H7X21931   0.963   2.098   5.484
  190SAPI   H7Y21932   1.072   2.245   5.504
  190SAPI   C3821933   0.931   2.253   5.338
  190SAPI   H8X21934   0.950   2.363   5.329
  190SAPI   H8Y21935   0.827   2.220   5.316
  190SAPI   C3921936   1.018   2.193   5.221
  190SAPI   H9X21937   0.990   2.089   5.193
  190SAPI   H9Y21938   1.125   2.192   5.249
  190SAPI  C31021939   1.009   2.273   5.093
  190SAPI  H10X21940   1.059   2.235   5.001
  190SAPI  H10Y21941   1.046   2.376   5.108
  190SAPI  C31121942   0.866   2.269   5.042
  190SAPI  H11X21943   0.797   2.320   5.114
  190SAPI  H11Y21944   0.838   2.162   5.029
  190SAPI  C31221945   0.846   2.324   4.902
  190SAPI  H12X21946   0.911   2.275   4.827
  190SAPI  H12Y21947   0.869   2.433   4.903
  190SAPI  C31321948   0.702   2.320   4.852
  190SAPI  H13X21949   0.700   2.390   4.766
  190SAPI  H13Y21950   0.631   2.362   4.926
  190SAPI  C31421951   0.650   2.188   4.792
  190SAPI  H14X21952   0.548   2.203   4.750
  190SAPI  H14Y21953   0.636   2.112   4.871
  190SAPI  C31521954   0.732   2.132   4.676
  190SAPI  H15X21955   0.802   2.055   4.714
  190SAPI  H15Y21956   0.789   2.217   4.632
  190SAPI  C31621957   0.650   2.051   4.575
  190SAPI  H16X21958   0.575   2.117   4.527
  190SAPI  H16Y21959   0.594   1.975   4.634
  190SAPI  C31721960   0.721   1.991   4.446
  190SAPI  H17X21961   0.806   1.926   4.476
  190SAPI  H17Y21962   0.767   2.083   4.406
  190SAPI  C31821963   0.634   1.927   4.338
  190SAPI  H18X21964   0.700   1.870   4.269
  190SAPI  H18Y21965   0.572   2.009   4.295
  190SAPI  H18Z21966   0.564   1.853   4.382
  191SAPI   C1221967   4.608   4.145   2.128
  191SAPI    H221968   4.644   4.095   2.221
  191SAPI    O221969   4.651   4.280   2.145
  191SAPI   HO221970   4.640   4.301   2.238
  191SAPI   C1321971   4.669   4.077   2.011
  191SAPI    H321972   4.620   3.978   2.004
  191SAPI    O321973   4.812   4.056   2.033
  191SAPI   HO321974   4.846   4.142   2.005
  191SAPI   C1421975   4.636   4.150   1.884
  191SAPI    H421976   4.712   4.231   1.874
  191SAPI    O421977   4.675   4.069   1.770
  191SAPI   HO421978   4.770   4.076   1.755
  191SAPI   C1521979   4.501   4.209   1.866
  191SAPI    H521980   4.449   4.140   1.797
  191SAPI    O521981   4.506   4.326   1.787
  191SAPI   HO521982   4.498   4.303   1.694
  191SAPI   C1621983   4.407   4.208   1.988
  191SAPI    H621984   4.409   4.313   2.025
  191SAPI    O621985   4.274   4.179   1.959
  191SAPI   HO621986   4.219   4.193   2.037
  191SAPI   C1121987   4.461   4.134   2.113
  191SAPI    H121988   4.448   4.025   2.099
  191SAPI     P21989   4.362   4.063   2.352
  191SAPI   O1321990   4.305   3.938   2.297
  191SAPI   O1421991   4.286   4.124   2.461
  191SAPI   O1221992   4.385   4.170   2.225
  191SAPI   O1121993   4.505   4.029   2.409
  191SAPI    C121994   4.507   3.945   2.524
  191SAPI    HA21995   4.593   3.960   2.592
  191SAPI    HB21996   4.426   3.955   2.600
  191SAPI    C221997   4.497   3.787   2.488
  191SAPI    HS21998   4.400   3.766   2.440
  191SAPI   O2121999   4.488   3.719   2.615
  191SAPI   C2122000   4.481   3.586   2.606
  191SAPI   O2222001   4.466   3.520   2.503
  191SAPI   C2222002   4.479   3.529   2.742
  191SAPI   H2R22003   4.560   3.582   2.797
  191SAPI   H2S22004   4.379   3.558   2.782
  191SAPI    C322005   4.630   3.760   2.406
  191SAPI    HX22006   4.624   3.812   2.308
  191SAPI    HY22007   4.640   3.653   2.379
  191SAPI   O3122008   4.748   3.812   2.473
  191SAPI   C3122009   4.819   3.736   2.547
  191SAPI   O3222010   4.820   3.616   2.558
  191SAPI   C3222011   4.908   3.823   2.638
  191SAPI   H2X22012   4.894   3.930   2.609
  191SAPI   H2Y22013   5.016   3.809   2.618
  191SAPI   C2322014   4.501   3.379   2.759
  191SAPI   H3R22015   4.606   3.368   2.725
  191SAPI   H3S22016   4.437   3.311   2.699
  191SAPI   C2422017   4.499   3.329   2.906
  191SAPI   H4R22018   4.572   3.379   2.973
  191SAPI   H4S22019   4.522   3.220   2.906
  191SAPI   C2522020   4.352   3.352   2.954
  191SAPI   H5R22021   4.282   3.291   2.895
  191SAPI   C2622022   4.317   3.434   3.049
  191SAPI   H6R22023   4.216   3.432   3.091
  191SAPI   C2722024   4.417   3.501   3.145
  191SAPI   H7R22025   4.370   3.589   3.195
  191SAPI   H7S22026   4.494   3.547   3.081
  191SAPI   C2822027   4.489   3.417   3.247
  191SAPI   H8R22028   4.517   3.318   3.208
  191SAPI   C2922029   4.522   3.441   3.372
  191SAPI   H9R22030   4.574   3.369   3.438
  191SAPI  C21022031   4.505   3.569   3.453
  191SAPI  H10R22032   4.478   3.657   3.391
  191SAPI  H10S22033   4.597   3.575   3.514
  191SAPI  C21122034   4.384   3.534   3.540
  191SAPI  H11R22035   4.292   3.509   3.486
  191SAPI  C21222036   4.386   3.520   3.678
  191SAPI  H12R22037   4.294   3.480   3.725
  191SAPI  C21322038   4.504   3.528   3.772
  191SAPI  H13R22039   4.484   3.575   3.871
  191SAPI  H13S22040   4.576   3.589   3.713
  191SAPI  C21422041   4.578   3.400   3.776
  191SAPI  H14R22042   4.541   3.325   3.704
  191SAPI  C21522043   4.680   3.373   3.850
  191SAPI  H15R22044   4.732   3.277   3.833
  191SAPI  C21622045   4.744   3.457   3.954
  191SAPI  H16R22046   4.702   3.559   3.945
  191SAPI  H16S22047   4.854   3.460   3.934
  191SAPI  C21722048   4.712   3.418   4.102
  191SAPI  H17R22049   4.718   3.309   4.123
  191SAPI  H17S22050   4.604   3.429   4.126
  191SAPI  C21822051   4.804   3.500   4.194
  191SAPI  H18R22052   4.779   3.608   4.183
  191SAPI  H18S22053   4.910   3.484   4.167
  191SAPI  C21922054   4.785   3.460   4.344
  191SAPI  H19R22055   4.816   3.353   4.351
  191SAPI  H19S22056   4.678   3.466   4.375
  191SAPI  C22022057   4.882   3.535   4.428
  191SAPI  H20R22058   4.979   3.538   4.374
  191SAPI  H20S22059   4.899   3.488   4.528
  191SAPI  H20T22060   4.848   3.638   4.454
  191SAPI   C3322061   4.887   3.807   2.784
  191SAPI   H3X22062   4.957   3.863   2.849
  191SAPI   H3Y22063   4.905   3.699   2.804
  191SAPI   C3422064   4.744   3.831   2.833
  191SAPI   H4X22065   4.671   3.784   2.763
  191SAPI   H4Y22066   4.736   3.941   2.845
  191SAPI   C3522067   4.710   3.765   2.967
  191SAPI   H5X22068   4.704   3.656   2.946
  191SAPI   H5Y22069   4.606   3.790   2.998
  191SAPI   C3622070   4.812   3.791   3.081
  191SAPI   H6X22071   4.842   3.898   3.079
  191SAPI   H6Y22072   4.901   3.761   3.022
  191SAPI   C3722073   4.798   3.724   3.218
  191SAPI   H7X22074   4.803   3.613   3.214
  191SAPI   H7Y22075   4.709   3.765   3.270
  191SAPI   C3822076   4.907   3.775   3.314
  191SAPI   H8X22077   4.890   3.883   3.296
  191SAPI   H8Y22078   5.008   3.733   3.294
  191SAPI   C3922079   4.883   3.737   3.459
  191SAPI   H9X22080   4.774   3.744   3.479
  191SAPI   H9Y22081   4.932   3.804   3.533
  191SAPI  C31022082   4.926   3.589   3.494
  191SAPI  H10X22083   5.016   3.577   3.429
  191SAPI  H10Y22084   4.845   3.527   3.450
  191SAPI  C31122085   4.970   3.541   3.633
  191SAPI  H11X22086   4.997   3.433   3.634
  191SAPI  H11Y22087   4.895   3.531   3.714
  191SAPI  C31222088   5.101   3.607   3.677
  191SAPI  H12X22089   5.090   3.715   3.655
  191SAPI  H12Y22090   5.189   3.575   3.619
  191SAPI  C31322091   5.130   3.588   3.824
  191SAPI  H13X22092   5.118   3.480   3.846
  191SAPI  H13Y22093   5.062   3.655   3.881
  191SAPI  C31422094   5.274   3.628   3.857
  191SAPI  H14X22095   5.301   3.722   3.806
  191SAPI  H14Y22096   5.339   3.552   3.808
  191SAPI  C31522097   5.282   3.643   4.008
  191SAPI  H15X22098   5.214   3.722   4.047
  191SAPI  H15Y22099   5.381   3.673   4.050
  191SAPI  C31622100   5.250   3.512   4.085
  191SAPI  H16X22101   5.320   3.429   4.059
  191SAPI  H16Y22102   5.151   3.465   4.067
  191SAPI  C31722103   5.257   3.535   4.236
  191SAPI  H17X22104   5.199   3.629   4.246
  191SAPI  H17Y22105   5.362   3.563   4.259
  191SAPI  C31822106   5.204   3.428   4.322
  191SAPI  H18X22107   5.207   3.466   4.426
  191SAPI  H18Y22108   5.268   3.337   4.320
  191SAPI  H18Z22109   5.102   3.393   4.294
  192SAPI   C1222110   0.599   6.112   1.808
  192SAPI    H222111   0.554   6.125   1.909
  192SAPI    O222112   0.692   6.016   1.828
  192SAPI   HO222113   0.724   6.025   1.918
  192SAPI   C1322114   0.490   6.060   1.717
  192SAPI    H322115   0.438   6.152   1.684
  192SAPI    O322116   0.396   5.971   1.789
  192SAPI   HO322117   0.311   5.966   1.744
  192SAPI   C1422118   0.550   6.016   1.586
  192SAPI    H422119   0.620   5.934   1.611
  192SAPI    O422120   0.444   5.966   1.503
  192SAPI   HO422121   0.363   5.970   1.553
  192SAPI   C1522122   0.629   6.125   1.509
  192SAPI    H522123   0.544   6.183   1.466
  192SAPI    O522124   0.697   6.084   1.390
  192SAPI   HO522125   0.720   5.993   1.407
  192SAPI   C1622126   0.710   6.222   1.603
  192SAPI    H622127   0.805   6.166   1.602
  192SAPI    O622128   0.736   6.346   1.538
  192SAPI   HO622129   0.824   6.366   1.568
  192SAPI   C1122130   0.669   6.234   1.749
  192SAPI    H122131   0.592   6.314   1.756
  192SAPI     P22132   0.779   6.291   1.991
  192SAPI   O1322133   0.648   6.351   2.023
  192SAPI   O1422134   0.908   6.345   2.040
  192SAPI   O1222135   0.784   6.269   1.831
  192SAPI   O1122136   0.772   6.133   2.038
  192SAPI    C122137   0.797   6.071   2.162
  192SAPI    HA22138   0.820   5.965   2.142
  192SAPI    HB22139   0.884   6.111   2.219
  192SAPI    C222140   0.682   6.093   2.264
  192SAPI    HS22141   0.596   6.039   2.219
  192SAPI   O2122142   0.663   6.235   2.282
  192SAPI   C2122143   0.536   6.263   2.300
  192SAPI   O2222144   0.443   6.181   2.285
  192SAPI   C2222145   0.533   6.410   2.350
  192SAPI   H2R22146   0.635   6.454   2.340
  192SAPI   H2S22147   0.462   6.465   2.285
  192SAPI    C322148   0.709   6.026   2.402
  192SAPI    HX22149   0.709   5.919   2.372
  192SAPI    HY22150   0.622   6.043   2.469
  192SAPI   O3122151   0.832   6.077   2.454
  192SAPI   C3122152   0.844   6.053   2.588
  192SAPI   O3222153   0.771   5.977   2.646
  192SAPI   C3222154   0.958   6.139   2.638
  192SAPI   H2X22155   0.948   6.235   2.583
  192SAPI   H2Y22156   1.055   6.099   2.600
  192SAPI   C2322157   0.478   6.422   2.493
  192SAPI   H3R22158   0.382   6.366   2.501
  192SAPI   H3S22159   0.450   6.529   2.493
  192SAPI   C2422160   0.578   6.373   2.600
  192SAPI   H4R22161   0.680   6.402   2.565
  192SAPI   H4S22162   0.558   6.264   2.600
  192SAPI   C2522163   0.539   6.438   2.731
  192SAPI   H5R22164   0.558   6.545   2.744
  192SAPI   C2622165   0.464   6.373   2.821
  192SAPI   H6R22166   0.453   6.430   2.915
  192SAPI   C2722167   0.412   6.235   2.831
  192SAPI   H7R22168   0.434   6.196   2.932
  192SAPI   H7S22169   0.466   6.154   2.778
  192SAPI   C2822170   0.265   6.215   2.790
  192SAPI   H8R22171   0.243   6.228   2.683
  192SAPI   C2922172   0.163   6.200   2.876
  192SAPI   H9R22173   0.064   6.185   2.833
  192SAPI  C21022174   0.178   6.215   3.030
  192SAPI  H10R22175   0.197   6.324   3.046
  192SAPI  H10S22176   0.266   6.157   3.066
  192SAPI  C21122177   0.056   6.170   3.102
  192SAPI  H11R22178   6.761   6.138   3.049
  192SAPI  C21222179   0.046   6.168   3.236
  192SAPI  H12R22180   6.753   6.118   3.277
  192SAPI  C21322181   0.154   6.204   3.333
  192SAPI  H13R22182   0.122   6.291   3.394
  192SAPI  H13S22183   0.254   6.233   3.294
  192SAPI  C21422184   0.179   6.092   3.437
  192SAPI  H14R22185   0.178   5.988   3.403
  192SAPI  C21522186   0.178   6.106   3.574
  192SAPI  H15R22187   0.167   6.016   3.637
  192SAPI  C21622188   0.172   6.230   3.663
  192SAPI  H16R22189   0.215   6.313   3.601
  192SAPI  H16S22190   0.240   6.228   3.751
  192SAPI  C21722191   0.041   6.283   3.715
  192SAPI  H17R22192   6.782   6.201   3.764
  192SAPI  H17S22193   6.779   6.328   3.632
  192SAPI  C21822194   0.086   6.396   3.816
  192SAPI  H18R22195   0.052   6.492   3.772
  192SAPI  H18S22196   0.194   6.403   3.841
  192SAPI  C21922197   0.011   6.370   3.951
  192SAPI  H19R22198   0.032   6.269   3.990
  192SAPI  H19S22199   6.701   6.373   3.919
  192SAPI  C22022200   0.032   6.463   4.074
  192SAPI  H20R22201   0.140   6.479   4.095
  192SAPI  H20S22202   6.788   6.406   4.161
  192SAPI  H20T22203   6.770   6.557   4.064
  192SAPI   C3322204   0.969   6.164   2.791
  192SAPI   H3X22205   1.043   6.246   2.803
  192SAPI   H3Y22206   1.004   6.071   2.841
  192SAPI   C3422207   0.837   6.204   2.862
  192SAPI   H4X22208   0.758   6.127   2.853
  192SAPI   H4Y22209   0.784   6.289   2.815
  192SAPI   C3522210   0.859   6.226   3.014
  192SAPI   H5X22211   0.920   6.316   3.033
  192SAPI   H5Y22212   0.918   6.138   3.048
  192SAPI   C3622213   0.730   6.223   3.102
  192SAPI   H6X22214   0.680   6.125   3.086
  192SAPI   H6Y22215   0.655   6.299   3.073
  192SAPI   C3722216   0.766   6.243   3.249
  192SAPI   H7X22217   0.825   6.336   3.263
  192SAPI   H7Y22218   0.828   6.158   3.284
  192SAPI   C3822219   0.638   6.244   3.344
  192SAPI   H8X22220   0.574   6.158   3.315
  192SAPI   H8Y22221   0.590   6.343   3.330
  192SAPI   C3922222   0.689   6.234   3.482
  192SAPI   H9X22223   0.745   6.327   3.508
  192SAPI   H9Y22224   0.751   6.143   3.497
  192SAPI  C31022225   0.575   6.244   3.577
  192SAPI  H10X22226   0.513   6.152   3.586
  192SAPI  H10Y22227   0.518   6.334   3.544
  192SAPI  C31122228   0.623   6.258   3.719
  192SAPI  H11X22229   0.692   6.343   3.736
  192SAPI  H11Y22230   0.675   6.166   3.753
  192SAPI  C31222231   0.506   6.279   3.812
  192SAPI  H12X22232   0.450   6.183   3.816
  192SAPI  H12Y22233   0.443   6.360   3.769
  192SAPI  C31322234   0.549   6.306   3.963
  192SAPI  H13X22235   0.599   6.405   3.967
  192SAPI  H13Y22236   0.610   6.214   3.978
  192SAPI  C31422237   0.427   6.285   4.054
  192SAPI  H14X22238   0.378   6.189   4.029
  192SAPI  H14Y22239   0.352   6.366   4.040
  192SAPI  C31522240   0.463   6.291   4.195
  192SAPI  H15X22241   0.398   6.359   4.254
  192SAPI  H15Y22242   0.563   6.337   4.201
  192SAPI  C31622243   0.466   6.156   4.276
  192SAPI  H16X22244   0.471   6.075   4.199
  192SAPI  H16Y22245   0.379   6.136   4.342
  192SAPI  C31722246   0.592   6.147   4.365
  192SAPI  H17X22247   0.675   6.202   4.316
  192SAPI  H17Y22248   0.618   6.044   4.395
  192SAPI  C31822249   0.576   6.220   4.501
  192SAPI  H18X22250   0.493   6.174   4.558
  192SAPI  H18Y22251   0.557   6.330   4.498
  192SAPI  H18Z22252   0.674   6.211   4.552
  193SOD    SOD22253   3.388   5.265   0.380
  194SOD    SOD22254   2.804   4.210   1.026
  195SOD    SOD22255   6.331   6.133   8.152
  196SOD    SOD22256   5.542   1.981   1.061
  197SOD    SOD22257   3.503   0.227   6.583
  198SOD    SOD22258   2.000   6.467   7.162
  199SOD    SOD22259   6.091   2.728   7.383
  200SOD    SOD22260   4.621   0.488   7.770
  201SOD    SOD22261   6.321   5.307   2.452
  202SOD    SOD22262   5.321   3.935   1.717
  203SOD    SOD22263   3.892   2.333   1.571
  204SOD    SOD22264   0.381   5.949   0.673
  205SOD    SOD22265   5.830   6.733   2.107
  206SOD    SOD22266   5.185   1.880   6.651
  207SOD    SOD22267   1.956   1.660   7.454
  208SOD    SOD22268   3.174   0.454   6.612
  209SOD    SOD22269   4.838   0.682   7.961
  210SOD    SOD22270   3.003   5.976   8.678
  211SOD    SOD22271   3.201   2.909   1.379
  212SOD    SOD22272   3.935   4.645   7.026
  213SOD    SOD22273   2.256   1.979   2.009
  214SOD    SOD22274   2.411   6.059   8.343
  215SOD    SOD22275   1.339   4.186   6.719
  216SOD    SOD22276   1.663   3.559   6.761
  217SOD    SOD22277   5.805   6.357   7.782
  218SOD    SOD22278   3.094   2.532   8.568
  219SOD    SOD22279   3.652   3.756   6.806
  220SOD    SOD22280   3.654   4.061   6.969
  221SOD    SOD22281   5.666   1.375   6.912
  222SOD    SOD22282   2.039   4.415   7.719
  223SOD    SOD22283   4.945   5.146   2.205
  224SOD    SOD22284   6.377   3.666   7.412
  225SOD    SOD22285   5.938   5.909   7.070
  226SOD    SOD22286   5.682   2.455   1.929
  227SOD    SOD22287   6.429   1.484   8.141
  228SOD    SOD22288   6.058   1.236   1.805
  229SOD    SOD22289   4.195   0.508   6.648
  230SOD    SOD22290   4.613   4.923   0.406
  231SOD    SOD22291   6.618   2.762   6.554
  232SOD    SOD22292   0.695   5.108   8.825
  233SOD    SOD22293   3.385   1.294   2.243
  234CLA    CLA22294   3.042   1.926   0.704
  235CLA    CLA22295   2.549   6.361   8.628
  236CLA    CLA22296   5.937   0.508   7.573
  237CLA    CLA22297   1.945   5.157   0.103
  238CLA    CLA22298   5.480   1.585   6.851
  239CLA    CLA22299   6.123   6.678   8.494
  240CLA    CLA22300   0.791   5.600   8.032
  241CLA    CLA22301   5.657   2.173   8.834
  242CLA    CLA22302   3.592   5.290   0.180
  243CLA    CLA22303   6.281   5.706   7.993
  244CLA    CLA22304   0.237   0.206   1.469
  245CLA    CLA22305   4.537   6.426   7.628
  246CLA    CLA22306   5.439   2.460   7.767
  247CLA    CLA22307   6.446   0.965   0.725
  248CLA    CLA22308   0.057   3.054   7.268
  249CLA    CLA22309   3.451   6.235   0.382
  250CLA    CLA22310   5.624   3.781   0.130
  251TIP3   OH222311   4.024   2.999   2.150
  251TIP3    H122312   4.075   3.044   2.082
  251TIP3    H222313   3.937   3.039   2.144
  252TIP3   OH222314   1.639   1.300   1.683
  252TIP3    H122315   1.580   1.375   1.682
  252TIP3    H222316   1.639   1.270   1.774
  253TIP3   OH222317   5.468   6.785   0.174
  253TIP3    H122318   5.499   0.024   0.257
  253TIP3    H222319   5.539   6.727   0.145
  254TIP3   OH222320   4.892   1.557   6.493
  254TIP3    H122321   4.847   1.511   6.564
  254TIP3    H222322   4.927   1.487   6.438
  255TIP3   OH222323   1.594   2.121   8.402
  255TIP3    H122324   1.585   2.210   8.436
  255TIP3    H222325   1.518   2.074   8.437
  256TIP3   OH222326   5.964   6.776   8.260
  256TIP3    H122327   5.985   6.711   8.193
  256TIP3    H222328   6.034   6.767   8.324
  257TIP3   OH222329   6.433   5.945   7.555
  257TIP3    H122330   6.490   5.994   7.496
  257TIP3    H222331   6.344   5.967   7.527
  258TIP3   OH222332   4.119   1.735   1.876
  258TIP3    H122333   4.030   1.770   1.864
  258TIP3    H222334   4.122   1.708   1.968
  259TIP3   OH222335   3.601   6.062   0.166
  259TIP3    H122336   3.571   6.071   0.256
  259TIP3    H222337   3.552   6.128   0.117
  260TIP3   OH222338   5.751   5.043   8.807
  260TIP3    H122339   5.664   5.064   8.774
  260TIP3    H222340   5.777   4.965   8.759
  261TIP3   OH222341   3.663   2.339   0.694
  261TIP3    H122342   3.720   2.265   0.676
  261TIP3    H222343   3.696   2.376   0.776
  262TIP3   OH222344   0.913   1.515   1.444
  262TIP3    H122345   0.890   1.607   1.437
  262TIP3    H222346   0.985   1.513   1.507
  263TIP3   OH222347   0.405   2.730   6.371
  263TIP3    H122348   0.378   2.705   6.460
  263TIP3    H222349   0.472   2.797   6.385
  264TIP3   OH222350   1.535   1.165   7.587
  264TIP3    H122351   1.452   1.118   7.585
  264TIP3    H222352   1.518   1.242   7.641
  265TIP3   OH222353   5.540   1.358   2.567
  265TIP3    H122354   5.631   1.342   2.541
  265TIP3    H222355   5.541   1.351   2.662
  266TIP3   OH222356   3.892   0.507   7.829
  266TIP3    H122357   3.803   0.484   7.854
  266TIP3    H222358   3.883   0.552   7.744
  267TIP3   OH222359   1.884   3.560   7.279
  267TIP3    H122360   1.943   3.621   7.234
  267TIP3    H222361   1.912   3.473   7.248
  268TIP3   OH222362   0.471   5.183   0.251
  268TIP3    H122363   0.436   5.208   0.165
  268TIP3    H222364   0.417   5.109   0.278
  269TIP3   OH222365   5.163   5.161   1.846
  269TIP3    H122366   5.193   5.221   1.915
  269TIP3    H222367   5.180   5.074   1.881
  270TIP3   OH222368   3.697   6.104   0.555
  270TIP3    H122369   3.706   6.139   0.644
  270TIP3    H222370   3.617   6.144   0.522
  271TIP3   OH222371   6.241   1.568   8.250
  271TIP3    H122372   6.233   1.618   8.331
  271TIP3    H222373   6.215   1.479   8.275
  272TIP3   OH222374   0.330   3.322   0.753
  272TIP3    H122375   0.401   3.260   0.766
  272TIP3    H222376   0.326   3.335   0.658
  273TIP3   OH222377   1.477   2.655   2.179
  273TIP3    H122378   1.550   2.680   2.236
  273TIP3    H222379   1.501   2.567   2.147
  274TIP3   OH222380   4.983   4.258   8.528
  274TIP3    H122381   5.011   4.177   8.571
  274TIP3    H222382   4.890   4.245   8.511
  275TIP3   OH222383   4.742   2.262   7.397
  275TIP3    H122384   4.823   2.213   7.386
  275TIP3    H222385   4.732   2.273   7.492
  276TIP3   OH222386   4.937   4.205   7.743
  276TIP3    H122387   5.026   4.227   7.718
  276TIP3    H222388   4.902   4.156   7.668
  277TIP3   OH222389   3.967   4.039   8.647
  277TIP3    H122390   4.009   4.117   8.610
  277TIP3    H222391   3.925   4.070   8.727
  278TIP3   OH222392   5.434   6.539   7.074
  278TIP3    H122393   5.393   6.496   6.999
  278TIP3    H222394   5.469   6.468   7.126
  279TIP3   OH222395   0.546   0.985   7.021
  279TIP3    H122396   0.545   0.910   7.080
  279TIP3    H222397   0.477   0.967   6.958
  280TIP3   OH222398   2.222   2.262   1.198
  280TIP3    H122399   2.304   2.294   1.161
  280TIP3    H222400   2.191   2.334   1.253
  281TIP3   OH222401   5.179   1.284   0.427
  281TIP3    H122402   5.270   1.287   0.397
  281TIP3    H222403   5.185   1.256   0.518
  282TIP3   OH222404   3.434   1.418   8.146
  282TIP3    H122405   3.448   1.324   8.155
  282TIP3    H222406   3.362   1.426   8.083
  283TIP3   OH222407   5.070   4.974   0.846
  283TIP3    H122408   4.977   4.992   0.832
  283TIP3    H222409   5.074   4.882   0.869
  284TIP3   OH222410   6.419   3.855   0.340
  284TIP3    H122411   6.363   3.908   0.283
  284TIP3    H222412   6.360   3.825   0.409
  285TIP3   OH222413   5.927   5.912   0.005
  285TIP3    H122414   5.839   5.929   0.039
  285TIP3    H222415   5.983   5.974   0.052
  286TIP3   OH222416   6.041   1.607   6.466
  286TIP3    H122417   5.991   1.682   6.433
  286TIP3    H222418   6.108   1.646   6.523
  287TIP3   OH222419   4.775   5.095   0.070
  287TIP3    H122420   4.728   5.027   0.118
  287TIP3    H222421   4.856   5.052   0.042
  288TIP3   OH222422   0.351   5.002   1.824
  288TIP3    H122423   0.284   5.070   1.819
  288TIP3    H222424   0.353   4.976   1.916
  289TIP3   OH222425   0.211   1.416   0.957
  289TIP3    H122426   0.250   1.498   0.987
  289TIP3    H222427   0.284   1.355   0.952
  290TIP3   OH222428   4.481   0.493   0.484
  290TIP3    H122429   4.411   0.442   0.443
  290TIP3    H222430   4.530   0.530   0.411
  291TIP3   OH222431   0.154   6.053   0.013
  291TIP3    H122432   0.185   6.003   0.089
  291TIP3    H222433   0.214   6.127   0.006
  292TIP3   OH222434   3.564   1.938   8.542
  292TIP3    H122435   3.571   1.869   8.608
  292TIP3    H222436   3.493   1.909   8.484
  293TIP3   OH222437   4.773   6.237   1.347
  293TIP3    H122438   4.689   6.244   1.301
  293TIP3    H222439   4.823   6.312   1.316
  294TIP3   OH222440   4.777   1.651   7.382
  294TIP3    H122441   4.773   1.587   7.453
  294TIP3    H222442   4.854   1.704   7.401
  295TIP3   OH222443   3.790   3.893   1.829
  295TIP3    H122444   3.789   3.886   1.733
  295TIP3    H222445   3.882   3.905   1.851
  296TIP3   OH222446   4.667   6.529   0.784
  296TIP3    H122447   4.757   6.499   0.769
  296TIP3    H222448   4.664   6.615   0.742
  297TIP3   OH222449   4.549   6.071   0.735
  297TIP3    H122450   4.543   6.067   0.831
  297TIP3    H222451   4.576   6.160   0.716
  298TIP3   OH222452   0.145   6.346   0.778
  298TIP3    H122453   0.072   6.397   0.813
  298TIP3    H222454   0.219   6.407   0.781
  299TIP3   OH222455   0.127   0.443   0.095
  299TIP3    H122456   0.219   0.458   0.117
  299TIP3    H222457   0.078   0.476   0.171
  300TIP3   OH222458   3.994   4.984   1.436
  300TIP3    H122459   4.000   5.035   1.355
  300TIP3    H222460   4.051   5.030   1.497
  301TIP3   OH222461   4.690   0.122   8.217
  301TIP3    H122462   4.757   0.106   8.150
  301TIP3    H222463   4.664   0.035   8.246
  302TIP3   OH222464   0.445   6.507   8.267
  302TIP3    H122465   0.434   6.445   8.195
  302TIP3    H222466   0.519   6.474   8.317
  303TIP3   OH222467   5.831   2.838   0.679
  303TIP3    H122468   5.802   2.912   0.733
  303TIP3    H222469   5.822   2.870   0.589
  304TIP3   OH222470   3.167   0.283   6.800
  304TIP3    H122471   3.122   0.347   6.854
  304TIP3    H222472   3.218   0.230   6.862
  305TIP3   OH222473   2.163   4.339   1.719
  305TIP3    H122474   2.236   4.289   1.755
  305TIP3    H222475   2.120   4.378   1.795
  306TIP3   OH222476   3.636   0.249   8.091
  306TIP3    H122477   3.659   0.277   8.179
  306TIP3    H222478   3.661   0.157   8.087
  307TIP3   OH222479   3.073   2.694   6.789
  307TIP3    H122480   3.038   2.701   6.700
  307TIP3    H222481   3.029   2.617   6.826
  308TIP3   OH222482   2.019   6.505   2.390
  308TIP3    H122483   2.007   6.429   2.333
  308TIP3    H222484   2.043   6.576   2.331
  309TIP3   OH222485   6.030   5.054   0.145
  309TIP3    H122486   5.976   4.976   0.138
  309TIP3    H222487   6.084   5.039   0.223
  310TIP3   OH222488   5.340   4.388   8.205
  310TIP3    H122489   5.383   4.363   8.286
  310TIP3    H222490   5.289   4.311   8.180
  311TIP3   OH222491   5.183   0.366   1.474
  311TIP3    H122492   5.165   0.327   1.559
  311TIP3    H222493   5.264   0.416   1.486
  312TIP3   OH222494   3.407   0.785   7.732
  312TIP3    H122495   3.362   0.700   7.737
  312TIP3    H222496   3.486   0.767   7.681
  313TIP3   OH222497   3.395   0.905   0.046
  313TIP3    H122498   3.320   0.845   0.047
  313TIP3    H222499   3.438   0.891   0.130
  314TIP3   OH222500   1.882   5.739   0.686
  314TIP3    H122501   1.972   5.707   0.677
  314TIP3    H222502   1.892   5.827   0.724
  315TIP3   OH222503   0.704   1.002   1.396
  315TIP3    H122504   0.731   1.082   1.441
  315TIP3    H222505   0.777   0.941   1.407
  316TIP3   OH222506   6.574   6.101   1.802
  316TIP3    H122507   6.605   6.030   1.745
  316TIP3    H222508   6.524   6.057   1.870
  317TIP3   OH222509   0.233   3.797   0.700
  317TIP3    H122510   0.207   3.811   0.791
  317TIP3    H222511   0.182   3.721   0.672
  318TIP3   OH222512   1.913   2.648   0.513
  318TIP3    H122513   1.844   2.715   0.512
  318TIP3    H222514   1.993   2.696   0.531
  319TIP3   OH222515   5.390   1.616   7.682
  319TIP3    H122516   5.296   1.608   7.663
  319TIP3    H222517   5.394   1.670   7.761
  320TIP3   OH222518   6.085   4.745   1.242
  320TIP3    H122519   6.044   4.769   1.326
  320TIP3    H222520   6.013   4.746   1.179
  321TIP3   OH222521   0.586   1.769   6.559
  321TIP3    H122522   0.605   1.839   6.497
  321TIP3    H222523   0.522   1.713   6.514
  322TIP3   OH222524   3.302   1.334   1.392
  322TIP3    H122525   3.240   1.345   1.464
  322TIP3    H222526   3.319   1.240   1.388
  323TIP3   OH222527   1.443   4.034   7.292
  323TIP3    H122528   1.523   3.983   7.281
  323TIP3    H222529   1.473   4.121   7.318
  324TIP3   OH222530   4.660   3.446   7.339
  324TIP3    H122531   4.740   3.441   7.285
  324TIP3    H222532   4.679   3.516   7.402
  325TIP3   OH222533   2.641   2.956   7.247
  325TIP3    H122534   2.608   3.023   7.306
  325TIP3    H222535   2.736   2.971   7.244
  326TIP3   OH222536   1.558   0.293   0.600
  326TIP3    H122537   1.528   0.231   0.534
  326TIP3    H222538   1.546   0.379   0.559
  327TIP3   OH222539   1.523   1.572   1.088
  327TIP3    H122540   1.573   1.502   1.046
  327TIP3    H222541   1.567   1.587   1.171
  328TIP3   OH222542   4.455   6.290   6.489
  328TIP3    H122543   4.502   6.365   6.452
  328TIP3    H222544   4.513   6.216   6.475
  329TIP3   OH222545   3.251   0.439   7.486
  329TIP3    H122546   3.182   0.377   7.463
  329TIP3    H222547   3.321   0.422   7.424
  330TIP3   OH222548   4.471   0.503   2.340
  330TIP3    H122549   4.487   0.597   2.334
  330TIP3    H222550   4.391   0.495   2.391
  331TIP3   OH222551   5.419   2.555   1.057
  331TIP3    H122552   5.354   2.487   1.040
  331TIP3    H222553   5.472   2.558   0.978
  332TIP3   OH222554   2.190   3.171   7.922
  332TIP3    H122555   2.245   3.133   7.990
  332TIP3    H222556   2.251   3.219   7.866
  333TIP3   OH222557   2.200   2.070   0.992
  333TIP3    H122558   2.192   2.140   1.058
  333TIP3    H222559   2.114   2.027   0.993
  334TIP3   OH222560   5.091   5.226   7.491
  334TIP3    H122561   5.090   5.201   7.399
  334TIP3    H222562   5.183   5.236   7.513
  335TIP3   OH222563   2.515   3.134   2.037
  335TIP3    H122564   2.499   3.131   2.131
  335TIP3    H222565   2.493   3.224   2.012
  336TIP3   OH222566   4.208   4.103   1.671
  336TIP3    H122567   4.219   4.123   1.764
  336TIP3    H222568   4.297   4.109   1.635
  337TIP3   OH222569   1.727   2.831   2.230
  337TIP3    H122570   1.729   2.736   2.242
  337TIP3    H222571   1.749   2.867   2.316
  338TIP3   OH222572   3.030   4.296   8.539
  338TIP3    H122573   2.980   4.354   8.596
  338TIP3    H222574   2.965   4.233   8.507
  339TIP3   OH222575   1.734   5.087   8.590
  339TIP3    H122576   1.814   5.135   8.613
  339TIP3    H222577   1.716   5.112   8.499
  340TIP3   OH222578   6.383   5.715   1.960
  340TIP3    H122579   6.296   5.721   1.921
  340TIP3    H222580   6.372   5.659   2.036
  341TIP3   OH222581   1.721   3.913   7.532
  341TIP3    H122582   1.713   3.833   7.584
  341TIP3    H222583   1.684   3.982   7.588
  342TIP3   OH222584   5.263   3.775   1.351
  342TIP3    H122585   5.195   3.836   1.382
  342TIP3    H222586   5.287   3.808   1.265
  343TIP3   OH222587   3.554   2.669   0.301
  343TIP3    H122588   3.587   2.644   0.387
  343TIP3    H222589   3.588   2.602   0.242
  344TIP3   OH222590   1.539   5.463   8.455
  344TIP3    H122591   1.504   5.388   8.406
  344TIP3    H222592   1.580   5.424   8.533
  345TIP3   OH222593   5.374   4.914   2.206
  345TIP3    H122594   5.280   4.926   2.223
  345TIP3    H222595   5.395   4.979   2.139
  346TIP3   OH222596   6.279   0.698   0.967
  346TIP3    H122597   6.262   0.785   1.005
  346TIP3    H222598   6.249   0.637   1.034
  347TIP3   OH222599   0.426   0.665   6.279
  347TIP3    H122600   0.515   0.693   6.299
  347TIP3    H222601   0.432   0.570   6.267
  348TIP3   OH222602   3.625   5.374   7.731
  348TIP3    H122603   3.546   5.408   7.773
  348TIP3    H222604   3.644   5.293   7.778
  349TIP3   OH222605   3.026   4.257   0.953
  349TIP3    H122606   3.061   4.240   0.866
  349TIP3    H222607   3.089   4.316   0.994
  350TIP3   OH222608   6.760   1.249   0.969
  350TIP3    H122609   0.048   1.291   0.953
  350TIP3    H222610   6.720   1.301   1.038
  351TIP3   OH222611   1.288   5.615   1.391
  351TIP3    H122612   1.253   5.566   1.465
  351TIP3    H222613   1.222   5.606   1.322
  352TIP3   OH222614   1.239   1.897   1.744
  352TIP3    H122615   1.319   1.846   1.744
  352TIP3    H222616   1.169   1.833   1.758
  353TIP3   OH222617   3.891   2.472   8.404
  353TIP3    H122618   3.797   2.470   8.424
  353TIP3    H222619   3.918   2.560   8.430
  354TIP3   OH222620   0.552   4.086   0.896
  354TIP3    H122621   0.590   4.171   0.874
  354TIP3    H222622   0.613   4.022   0.860
  355TIP3   OH222623   2.387   6.513   8.240
  355TIP3    H122624   2.447   6.515   8.314
  355TIP3    H222625   2.396   6.600   8.200
  356TIP3   OH222626   1.279   4.044   0.234
  356TIP3    H122627   1.226   3.972   0.200
  356TIP3    H222628   1.295   4.021   0.326
  357TIP3   OH222629   3.295   4.005   6.424
  357TIP3    H122630   3.377   4.012   6.375
  357TIP3    H222631   3.275   3.911   6.423
  358TIP3   OH222632   0.303   6.179   1.300
  358TIP3    H122633   0.326   6.232   1.377
  358TIP3    H222634   0.210   6.162   1.309
  359TIP3   OH222635   5.936   5.826   6.579
  359TIP3    H122636   5.847   5.840   6.610
  359TIP3    H222637   5.980   5.910   6.593
  360TIP3   OH222638   1.908   0.095   0.954
  360TIP3    H122639   1.840   0.029   0.940
  360TIP3    H222640   1.865   0.163   1.006
  361TIP3   OH222641   0.587   5.441   7.461
  361TIP3    H122642   0.545   5.526   7.444
  361TIP3    H222643   0.586   5.433   7.556
  362TIP3   OH222644   0.566   4.212   8.432
  362TIP3    H122645   0.524   4.220   8.518
  362TIP3    H222646   0.495   4.186   8.373
  363TIP3   OH222647   5.868   5.613   7.729
  363TIP3    H122648   5.813   5.656   7.664
  363TIP3    H222649   5.819   5.622   7.811
  364TIP3   OH222650   0.478   1.114   0.005
  364TIP3    H122651   0.541   1.181   0.030
  364TIP3    H222652   0.406   1.123   0.067
  365TIP3   OH222653   2.258   3.685   0.730
  365TIP3    H122654   2.290   3.733   0.654
  365TIP3    H222655   2.242   3.596   0.697
  366TIP3   OH222656   3.831   4.829   7.546
  366TIP3    H122657   3.806   4.802   7.635
  366TIP3    H222658   3.770   4.782   7.489
  367TIP3   OH222659   6.224   4.121   8.430
  367TIP3    H122660   6.220   4.045   8.372
  367TIP3    H222661   6.314   4.124   8.461
  368TIP3   OH222662   2.984   4.837   7.625
  368TIP3    H122663   2.980   4.755   7.575
  368TIP3    H222664   2.995   4.809   7.716
  369TIP3   OH222665   3.270   4.211   1.956
  369TIP3    H122666   3.234   4.284   2.006
  369TIP3    H222667   3.205   4.141   1.966
  370TIP3   OH222668   3.490   4.935   6.752
  370TIP3    H122669   3.416   4.886   6.717
  370TIP3    H222670   3.565   4.905   6.701
  371TIP3   OH222671   6.590   1.396   0.099
  371TIP3    H122672   6.588   1.302   0.114
  371TIP3    H222673   6.645   1.430   0.170
  372TIP3   OH222674   2.253   4.655   7.317
  372TIP3    H122675   2.203   4.655   7.236
  372TIP3    H222676   2.202   4.711   7.376
  373TIP3   OH222677   3.478   0.047   7.240
  373TIP3    H122678   3.527   0.126   7.216
  373TIP3    H222679   3.459   0.004   7.157
  374TIP3   OH222680   3.847   4.686   0.765
  374TIP3    H122681   3.823   4.614   0.706
  374TIP3    H222682   3.939   4.670   0.786
  375TIP3   OH222683   1.240   5.058   1.744
  375TIP3    H122684   1.299   4.989   1.775
  375TIP3    H222685   1.287   5.100   1.672
  376TIP3   OH222686   4.135   4.618   0.799
  376TIP3    H122687   4.155   4.530   0.831
  376TIP3    H222688   4.168   4.620   0.710
  377TIP3   OH222689   4.620   3.538   2.155
  377TIP3    H122690   4.702   3.501   2.123
  377TIP3    H222691   4.580   3.578   2.078
  378TIP3   OH222692   2.535   6.129   1.503
  378TIP3    H122693   2.523   6.047   1.550
  378TIP3    H222694   2.547   6.103   1.411
  379TIP3   OH222695   3.635   3.360   6.641
  379TIP3    H122696   3.719   3.322   6.667
  379TIP3    H222697   3.652   3.454   6.633
  380TIP3   OH222698   5.438   1.737   0.307
  380TIP3    H122699   5.466   1.652   0.272
  380TIP3    H222700   5.489   1.748   0.386
  381TIP3   OH222701   2.654   1.018   7.657
  381TIP3    H122702   2.740   1.003   7.618
  381TIP3    H222703   2.605   0.939   7.637
  382TIP3   OH222704   0.656   4.072   0.085
  382TIP3    H122705   0.570   4.072   0.127
  382TIP3    H222706   0.638   4.077   8.866
  383TIP3   OH222707   5.767   2.111   1.447
  383TIP3    H122708   5.795   2.196   1.413
  383TIP3    H222709   5.839   2.052   1.427
  384TIP3   OH222710   1.736   1.015   8.783
  384TIP3    H122711   1.720   1.093   8.731
  384TIP3    H222712   1.720   0.942   8.723
  385TIP3   OH222713   3.735   4.726   7.132
  385TIP3    H122714   3.690   4.807   7.109
  385TIP3    H222715   3.713   4.711   7.224
  386TIP3   OH222716   3.369   3.678   1.172
  386TIP3    H122717   3.338   3.596   1.132
  386TIP3    H222718   3.290   3.731   1.179
  387TIP3   OH222719   4.393   3.137   7.888
  387TIP3    H122720   4.368   3.046   7.903
  387TIP3    H222721   4.329   3.169   7.824
  388TIP3   OH222722   4.772   1.015   0.832
  388TIP3    H122723   4.731   0.959   0.899
  388TIP3    H222724   4.866   0.999   0.841
  389TIP3   OH222725   4.492   6.570   1.257
  389TIP3    H122726   4.557   6.516   1.211
  389TIP3    H222727   4.432   6.600   1.189
  390TIP3   OH222728   5.091   2.382   1.960
  390TIP3    H122729   5.070   2.460   2.011
  390TIP3    H222730   5.006   2.339   1.946
  391TIP3   OH222731   1.198   0.738   0.035
  391TIP3    H122732   1.217   0.659   0.085
  391TIP3    H222733   1.281   0.760   8.868
  392TIP3   OH222734   1.290   0.908   6.256
  392TIP3    H122735   1.303   0.983   6.198
  392TIP3    H222736   1.217   0.934   6.312
  393TIP3   OH222737   1.078   4.706   0.983
  393TIP3    H122738   1.151   4.647   0.967
  393TIP3    H222739   1.008   4.672   0.927
  394TIP3   OH222740   0.082   1.086   7.499
  394TIP3    H122741   0.084   1.131   7.414
  394TIP3    H222742   6.788   1.056   7.509
  395TIP3   OH222743   1.720   3.221   7.288
  395TIP3    H122744   1.678   3.145   7.247
  395TIP3    H222745   1.813   3.209   7.269
  396TIP3   OH222746   5.942   4.851   8.502
  396TIP3    H122747   5.877   4.894   8.447
  396TIP3    H222748   6.026   4.874   8.463
  397TIP3   OH222749   6.519   3.710   7.966
  397TIP3    H122750   6.528   3.664   8.049
  397TIP3    H222751   6.459   3.656   7.914
  398TIP3   OH222752   4.850   0.502   7.412
  398TIP3    H122753   4.835   0.576   7.353
  398TIP3    H222754   4.764   0.482   7.448
  399TIP3   OH222755   2.715   4.741   6.705
  399TIP3    H122756   2.687   4.821   6.749
  399TIP3    H222757   2.652   4.675   6.732
  400TIP3   OH222758   5.230   0.804   8.795
  400TIP3    H122759   5.198   0.879   8.745
  400TIP3    H222760   5.168   0.796   8.867
  401TIP3   OH222761   2.504   5.936   6.923
  401TIP3    H122762   2.540   5.999   6.985
  401TIP3    H222763   2.467   5.989   6.853
  402TIP3   OH222764   6.678   4.556   0.706
  402TIP3    H122765   6.759   4.590   0.667
  402TIP3    H222766   6.633   4.513   0.634
  403TIP3   OH222767   0.889   5.199   0.467
  403TIP3    H122768   0.938   5.129   0.425
  403TIP3    H222769   0.800   5.191   0.432
  404TIP3   OH222770   4.030   0.825   8.546
  404TIP3    H122771   3.984   0.814   8.630
  404TIP3    H222772   4.122   0.837   8.572
  405TIP3   OH222773   3.281   4.292   6.587
  405TIP3    H122774   3.300   4.211   6.539
  405TIP3    H222775   3.195   4.320   6.555
  406TIP3   OH222776   6.197   3.315   8.327
  406TIP3    H122777   6.106   3.326   8.355
  406TIP3    H222778   6.227   3.237   8.375
  407TIP3   OH222779   3.359   6.448   0.022
  407TIP3    H122780   3.271   6.453   8.860
  407TIP3    H222781   3.359   6.369   0.077
  408TIP3   OH222782   3.630   5.162   7.445
  408TIP3    H122783   3.602   5.122   7.527
  408TIP3    H222784   3.614   5.256   7.457
  409TIP3   OH222785   5.930   0.346   0.958
  409TIP3    H122786   5.950   0.438   0.942
  409TIP3    H222787   5.985   0.321   1.032
  410TIP3   OH222788   5.705   3.684   7.261
  410TIP3    H122789   5.792   3.705   7.295
  410TIP3    H222790   5.710   3.704   7.168
  411TIP3   OH222791   1.824   2.312   0.043
  411TIP3    H122792   1.764   2.239   0.061
  411TIP3    H222793   1.864   2.289   8.834
  412TIP3   OH222794   6.385   4.076   0.823
  412TIP3    H122795   6.383   3.982   0.804
  412TIP3    H222796   6.461   4.087   0.881
  413TIP3   OH222797   5.662   4.353   1.192
  413TIP3    H122798   5.615   4.339   1.110
  413TIP3    H222799   5.595   4.388   1.252
  414TIP3   OH222800   2.583   5.573   8.336
  414TIP3    H122801   2.555   5.499   8.283
  414TIP3    H222802   2.651   5.615   8.284
  415TIP3   OH222803   5.608   0.777   7.193
  415TIP3    H122804   5.528   0.732   7.165
  415TIP3    H222805   5.668   0.707   7.218
  416TIP3   OH222806   1.899   3.592   0.658
  416TIP3    H122807   1.948   3.549   0.727
  416TIP3    H222808   1.808   3.566   0.673
  417TIP3   OH222809   2.670   4.630   0.268
  417TIP3    H122810   2.623   4.630   0.351
  417TIP3    H222811   2.762   4.643   0.293
  418TIP3   OH222812   4.979   6.413   7.806
  418TIP3    H122813   4.953   6.328   7.770
  418TIP3    H222814   4.959   6.406   7.899
  419TIP3   OH222815   4.064   2.202   1.497
  419TIP3    H122816   4.090   2.110   1.508
  419TIP3    H222817   4.143   2.246   1.468
  420TIP3   OH222818   3.572   1.650   8.202
  420TIP3    H122819   3.525   1.702   8.268
  420TIP3    H222820   3.521   1.570   8.194
  421TIP3   OH222821   1.677   0.255   1.147
  421TIP3    H122822   1.741   0.207   1.199
  421TIP3    H222823   1.634   0.314   1.209
  422TIP3   OH222824   0.271   0.857   6.170
  422TIP3    H122825   0.311   0.786   6.220
  422TIP3    H222826   0.195   0.882   6.222
  423TIP3   OH222827   5.282   5.144   0.765
  423TIP3    H122828   5.336   5.112   0.693
  423TIP3    H222829   5.217   5.075   0.778
  424TIP3   OH222830   2.350   5.894   0.985
  424TIP3    H122831   2.318   5.937   1.064
  424TIP3    H222832   2.381   5.809   1.015
  425TIP3   OH222833   3.809   1.164   8.260
  425TIP3    H122834   3.900   1.145   8.284
  425TIP3    H222835   3.789   1.100   8.192
  426TIP3   OH222836   0.349   0.225   0.998
  426TIP3    H122837   0.334   0.180   1.081
  426TIP3    H222838   0.413   0.292   1.018
  427TIP3   OH222839   4.171   2.779   0.269
  427TIP3    H122840   4.114   2.714   0.309
  427TIP3    H222841   4.208   2.828   0.343
  428TIP3   OH222842   4.097   3.576   7.910
  428TIP3    H122843   4.175   3.521   7.899
  428TIP3    H222844   4.071   3.562   8.001
  429TIP3   OH222845   6.409   1.105   8.476
  429TIP3    H122846   6.346   1.128   8.544
  429TIP3    H222847   6.464   1.037   8.516
  430TIP3   OH222848   5.420   3.585   0.952
  430TIP3    H122849   5.330   3.578   0.984
  430TIP3    H222850   5.462   3.504   0.982
  431TIP3   OH222851   5.926   5.872   0.638
  431TIP3    H122852   5.960   5.784   0.621
  431TIP3    H222853   6.004   5.925   0.653
  432TIP3   OH222854   0.201   4.395   1.475
  432TIP3    H122855   0.207   4.438   1.560
  432TIP3    H222856   0.196   4.466   1.411
  433TIP3   OH222857   3.028   2.488   8.347
  433TIP3    H122858   2.936   2.505   8.323
  433TIP3    H222859   3.077   2.501   8.266
  434TIP3   OH222860   0.163   3.288   8.701
  434TIP3    H122861   0.168   3.370   8.750
  434TIP3    H222862   0.124   3.226   8.761
  435TIP3   OH222863   0.273   3.932   2.383
  435TIP3    H122864   0.364   3.934   2.414
  435TIP3    H222865   0.275   3.870   2.310
  436TIP3   OH222866   3.419   1.308   1.774
  436TIP3    H122867   3.407   1.402   1.766
  436TIP3    H222868   3.403   1.274   1.685
  437TIP3   OH222869   6.271   4.545   1.184
  437TIP3    H122870   6.333   4.593   1.129
  437TIP3    H222871   6.212   4.612   1.218
  438TIP3   OH222872   4.192   1.473   7.582
  438TIP3    H122873   4.105   1.511   7.592
  438TIP3    H222874   4.252   1.545   7.598
  439TIP3   OH222875   5.699   1.987   0.603
  439TIP3    H122876   5.649   2.015   0.526
  439TIP3    H222877   5.781   1.954   0.566
  440TIP3   OH222878   4.424   4.111   8.722
  440TIP3    H122879   4.462   4.198   8.710
  440TIP3    H222880   4.384   4.114   8.809
  441TIP3   OH222881   1.785   5.979   7.568
  441TIP3    H122882   1.758   5.908   7.627
  441TIP3    H222883   1.745   5.957   7.484
  442TIP3   OH222884   2.697   0.482   7.108
  442TIP3    H122885   2.670   0.463   7.018
  442TIP3    H222886   2.698   0.578   7.112
  443TIP3   OH222887   6.428   4.380   8.433
  443TIP3    H122888   6.394   4.358   8.346
  443TIP3    H222889   6.461   4.296   8.467
  444TIP3   OH222890   4.369   2.561   7.424
  444TIP3    H122891   4.458   2.527   7.437
  444TIP3    H222892   4.323   2.489   7.381
  445TIP3   OH222893   1.433   2.796   1.768
  445TIP3    H122894   1.360   2.766   1.715
  445TIP3    H222895   1.400   2.796   1.858
  446TIP3   OH222896   4.030   0.944   1.209
  446TIP3    H122897   4.046   0.921   1.300
  446TIP3    H222898   3.969   1.018   1.213
  447TIP3   OH222899   0.940   6.491   2.282
  447TIP3    H122900   1.018   6.442   2.307
  447TIP3    H222901   0.894   6.434   2.221
  448TIP3   OH222902   3.867   0.135   1.189
  448TIP3    H122903   3.935   0.070   1.168
  448TIP3    H222904   3.867   0.139   1.284
  449TIP3   OH222905   2.895   3.119   0.334
  449TIP3    H122906   2.936   3.201   0.365
  449TIP3    H222907   2.955   3.050   0.362
  450TIP3   OH222908   5.449   6.306   8.719
  450TIP3    H122909   5.415   6.217   8.719
  450TIP3    H222910   5.494   6.315   8.635
  451TIP3   OH222911   0.394   1.974   6.725
  451TIP3    H122912   0.463   2.027   6.684
  451TIP3    H222913   0.395   1.892   6.675
  452TIP3   OH222914   0.237   2.973   0.965
  452TIP3    H122915   0.179   3.049   0.966
  452TIP3    H222916   0.258   2.960   0.872
  453TIP3   OH222917   1.724   1.946   1.167
  453TIP3    H122918   1.740   1.928   1.259
  453TIP3    H222919   1.802   1.913   1.122
  454TIP3   OH222920   1.463   0.143   7.105
  454TIP3    H122921   1.483   0.171   7.015
  454TIP3    H222922   1.442   0.224   7.151
  455TIP3   OH222923   2.078   4.570   8.217
  455TIP3    H122924   2.009   4.524   8.265
  455TIP3    H222925   2.149   4.578   8.280
  456TIP3   OH222926   3.605   0.859   8.728
  456TIP3    H122927   3.532   0.866   8.789
  456TIP3    H222928   3.628   0.949   8.707
  457TIP3   OH222929   1.518   0.232   6.846
  457TIP3    H122930   1.575   0.308   6.840
  457TIP3    H222931   1.513   0.200   6.756
  458TIP3   OH222932   4.709   2.341   2.168
  458TIP3    H122933   4.775   2.299   2.113
  458TIP3    H222934   4.758   2.379   2.241
  459TIP3   OH222935   0.568   5.335   6.879
  459TIP3    H122936   0.561   5.426   6.849
  459TIP3    H222937   0.647   5.302   6.836
  460TIP3   OH222938   1.549   0.512   8.014
  460TIP3    H122939   1.522   0.602   8.032
  460TIP3    H222940   1.643   0.512   8.027
  461TIP3   OH222941   1.366   4.040   0.502
  461TIP3    H122942   1.331   3.962   0.545
  461TIP3    H222943   1.437   4.069   0.559
  462TIP3   OH222944   4.092   4.232   1.465
  462TIP3    H122945   4.006   4.244   1.506
  462TIP3    H222946   4.138   4.172   1.523
  463TIP3   OH222947   6.775   3.922   8.387
  463TIP3    H122948   6.751   3.997   8.332
  463TIP3    H222949   6.695   3.870   8.392
  464TIP3   OH222950   6.097   5.705   1.916
  464TIP3    H122951   6.069   5.700   2.008
  464TIP3    H222952   6.037   5.768   1.877
  465TIP3   OH222953   0.594   3.858   8.227
  465TIP3    H122954   0.514   3.839   8.177
  465TIP3    H222955   0.602   3.786   8.289
  466TIP3   OH222956   2.042   3.072   2.339
  466TIP3    H122957   1.985   2.999   2.363
  466TIP3    H222958   1.987   3.129   2.285
  467TIP3   OH222959   5.447   4.396   2.018
  467TIP3    H122960   5.444   4.366   1.928
  467TIP3    H222961   5.373   4.457   2.026
  468TIP3   OH222962   6.596   5.869   0.068
  468TIP3    H122963   6.650   5.876   0.146
  468TIP3    H222964   6.541   5.792   0.083
  469TIP3   OH222965   6.442   3.315   1.173
  469TIP3    H122966   6.502   3.342   1.104
  469TIP3    H222967   6.445   3.219   1.173
  470TIP3   OH222968   4.327   3.432   7.838
  470TIP3    H122969   4.400   3.404   7.892
  470TIP3    H222970   4.365   3.495   7.777
  471TIP3   OH222971   1.991   6.695   0.663
  471TIP3    H122972   1.917   6.740   0.704
  471TIP3    H222973   2.054   6.684   0.734
  472TIP3   OH222974   3.616   1.874   0.518
  472TIP3    H122975   3.576   1.808   0.460
  472TIP3    H222976   3.613   1.834   0.605
  473TIP3   OH222977   4.482   0.325   2.122
  473TIP3    H122978   4.568   0.317   2.081
  473TIP3    H222979   4.493   0.394   2.188
  474TIP3   OH222980   0.977   1.064   1.661
  474TIP3    H122981   0.933   1.138   1.619
  474TIP3    H222982   0.921   1.042   1.735
  475TIP3   OH222983   1.089   2.351   0.959
  475TIP3    H122984   1.012   2.404   0.976
  475TIP3    H222985   1.162   2.413   0.962
  476TIP3   OH222986   2.743   3.675   0.339
  476TIP3    H122987   2.659   3.632   0.324
  476TIP3    H222988   2.788   3.618   0.402
  477TIP3   OH222989   6.375   2.036   0.993
  477TIP3    H122990   6.420   2.074   0.917
  477TIP3    H222991   6.441   2.032   1.062
  478TIP3   OH222992   5.771   6.215   7.341
  478TIP3    H122993   5.839   6.176   7.286
  478TIP3    H222994   5.802   6.304   7.357
  479TIP3   OH222995   1.601   1.856   8.050
  479TIP3    H122996   1.580   1.829   7.960
  479TIP3    H222997   1.605   1.774   8.099
  480TIP3   OH222998   1.130   5.045   8.024
  480TIP3    H122999   1.159   5.053   7.933
  480TIP3    H223000   1.195   4.989   8.066
  481TIP3   OH223001   6.556   2.311   7.823
  481TIP3    H123002   6.548   2.216   7.828
  481TIP3    H223003   6.608   2.327   7.744
  482TIP3   OH223004   0.765   4.817   0.336
  482TIP3    H123005   0.717   4.758   0.394
  482TIP3    H223006   0.824   4.865   0.394
  483TIP3   OH223007   1.079   4.399   8.285
  483TIP3    H123008   1.066   4.310   8.252
  483TIP3    H223009   1.138   4.388   8.360
  484TIP3   OH223010   6.450   4.599   0.859
  484TIP3    H123011   6.394   4.522   0.851
  484TIP3    H223012   6.532   4.575   0.817
  485TIP3   OH223013   3.175   2.047   0.024
  485TIP3    H123014   3.142   2.002   8.821
  485TIP3    H223015   3.266   2.020   0.031
  486TIP3   OH223016   6.414   1.245   0.585
  486TIP3    H123017   6.421   1.298   0.664
  486TIP3    H223018   6.415   1.154   0.617
  487TIP3   OH223019   5.609   0.062   1.875
  487TIP3    H123020   5.599   6.773   1.832
  487TIP3    H223021   5.524   0.077   1.916
  488TIP3   OH223022   2.502   5.930   7.649
  488TIP3    H123023   2.538   5.925   7.561
  488TIP3    H223024   2.408   5.919   7.638
  489TIP3   OH223025   0.764   0.357   7.247
  489TIP3    H123026   0.801   0.301   7.315
  489TIP3    H223027   0.760   0.300   7.170
  490TIP3   OH223028   5.664   6.636   8.401
  490TIP3    H123029   5.713   6.615   8.321
  490TIP3    H223030   5.710   6.712   8.437
  491TIP3   OH223031   4.679   1.326   1.764
  491TIP3    H123032   4.736   1.251   1.779
  491TIP3    H223033   4.591   1.290   1.761
  492TIP3   OH223034   6.457   2.957   8.847
  492TIP3    H123035   6.405   2.931   0.049
  492TIP3    H223036   6.503   3.036   0.000
  493TIP3   OH223037   6.043   3.442   0.129
  493TIP3    H123038   6.035   3.439   0.033
  493TIP3    H223039   5.976   3.504   0.157
  494TIP3   OH223040   6.350   1.267   8.261
  494TIP3    H123041   6.255   1.262   8.251
  494TIP3    H223042   6.368   1.217   8.341
  495TIP3   OH223043   6.271   5.869   0.365
  495TIP3    H123044   6.237   5.894   0.279
  495TIP3    H223045   6.278   5.951   0.413
  496TIP3   OH223046   2.507   1.977   0.510
  496TIP3    H123047   2.601   1.988   0.524
  496TIP3    H223048   2.478   1.925   0.585
  497TIP3   OH223049   6.161   1.852   1.853
  497TIP3    H123050   6.157   1.777   1.911
  497TIP3    H223051   6.138   1.817   1.767
  498TIP3   OH223052   3.125   4.450   0.590
  498TIP3    H123053   3.060   4.389   0.556
  498TIP3    H223054   3.097   4.536   0.559
  499TIP3   OH223055   3.031   4.395   1.905
  499TIP3    H123056   3.028   4.475   1.957
  499TIP3    H223057   2.994   4.328   1.962
  500TIP3   OH223058   5.981   1.552   7.363
  500TIP3    H123059   6.023   1.551   7.449
  500TIP3    H223060   5.925   1.630   7.363
  501TIP3   OH223061   1.051   1.009   0.258
  501TIP3    H123062   1.024   1.045   0.173
  501TIP3    H223063   1.049   0.914   0.245
  502TIP3   OH223064   4.667   3.454   0.376
  502TIP3    H123065   4.574   3.433   0.369
  502TIP3    H223066   4.710   3.392   0.316
  503TIP3   OH223067   1.364   2.727   8.812
  503TIP3    H123068   1.395   2.815   8.791
  503TIP3    H223069   1.439   2.683   8.851
  504TIP3   OH223070   4.526   3.252   6.800
  504TIP3    H123071   4.493   3.177   6.850
  504TIP3    H223072   4.499   3.328   6.851
  505TIP3   OH223073   4.366   0.553   1.005
  505TIP3    H123074   4.382   0.574   0.913
  505TIP3    H223075   4.309   0.623   1.036
  506TIP3   OH223076   4.532   0.789   8.145
  506TIP3    H123077   4.462   0.750   8.199
  506TIP3    H223078   4.529   0.882   8.167
  507TIP3   OH223079   0.569   2.177   6.643
  507TIP3    H123080   0.612   2.237   6.703
  507TIP3    H223081   0.640   2.142   6.589
  508TIP3   OH223082   2.939   3.860   7.919
  508TIP3    H123083   2.960   3.822   8.004
  508TIP3    H223084   2.846   3.878   7.922
  509TIP3   OH223085   4.270   5.014   1.554
  509TIP3    H123086   4.331   4.944   1.578
  509TIP3    H223087   4.205   5.014   1.623
  510TIP3   OH223088   3.717   4.359   6.459
  510TIP3    H123089   3.785   4.354   6.526
  510TIP3    H223090   3.690   4.451   6.460
  511TIP3   OH223091   3.671   6.760   0.324
  511TIP3    H123092   3.731   6.765   0.249
  511TIP3    H223093   3.615   6.684   0.304
  512TIP3   OH223094   0.288   3.588   1.136
  512TIP3    H123095   0.340   3.648   1.189
  512TIP3    H223096   0.321   3.501   1.159
  513TIP3   OH223097   3.882   1.368   7.954
  513TIP3    H123098   3.835   1.377   8.037
  513TIP3    H223099   3.968   1.405   7.971
  514TIP3   OH223100   2.590   1.364   0.105
  514TIP3    H123101   2.669   1.310   0.107
  514TIP3    H223102   2.623   1.453   0.094
  515TIP3   OH223103   0.880   4.681   2.048
  515TIP3    H123104   0.862   4.600   2.000
  515TIP3    H223105   0.794   4.708   2.081
  516TIP3   OH223106   3.218   1.873   1.673
  516TIP3    H123107   3.272   1.795   1.687
  516TIP3    H223108   3.173   1.886   1.757
  517TIP3   OH223109   4.376   3.586   1.242
  517TIP3    H123110   4.410   3.529   1.310
  517TIP3    H223111   4.452   3.609   1.189
  518TIP3   OH223112   0.541   2.283   0.150
  518TIP3    H123113   0.581   2.224   0.086
  518TIP3    H223114   0.447   2.278   0.133
  519TIP3   OH223115   3.846   2.557   2.296
  519TIP3    H123116   3.829   2.620   2.225
  519TIP3    H223117   3.778   2.491   2.285
  520TIP3   OH223118   4.724   2.747   1.737
  520TIP3    H123119   4.642   2.782   1.701
  520TIP3    H223120   4.725   2.777   1.828
  521TIP3   OH223121   6.458   6.663   8.117
  521TIP3    H123122   6.409   6.618   8.186
  521TIP3    H223123   6.546   6.672   8.152
  522TIP3   OH223124   2.793   1.423   7.508
  522TIP3    H123125   2.762   1.499   7.557
  522TIP3    H223126   2.888   1.423   7.519
  523TIP3   OH223127   6.026   6.124   7.160
  523TIP3    H123128   6.063   6.212   7.150
  523TIP3    H223129   6.097   6.072   7.197
  524TIP3   OH223130   3.487   3.216   7.526
  524TIP3    H123131   3.496   3.243   7.435
  524TIP3    H223132   3.397   3.182   7.532
  525TIP3   OH223133   5.350   4.727   0.115
  525TIP3    H123134   5.333   4.636   0.090
  525TIP3    H223135   5.393   4.721   0.200
  526TIP3   OH223136   1.491   4.970   8.142
  526TIP3    H123137   1.461   4.881   8.123
  526TIP3    H223138   1.458   5.022   8.069
  527TIP3   OH223139   3.894   2.773   8.790
  527TIP3    H123140   3.838   2.843   8.756
  527TIP3    H223141   3.889   2.703   8.725
  528TIP3   OH223142   5.769   4.212   8.505
  528TIP3    H123143   5.799   4.128   8.470
  528TIP3    H223144   5.724   4.189   8.586
  529TIP3   OH223145   1.361   2.470   6.316
  529TIP3    H123146   1.352   2.379   6.344
  529TIP3    H223147   1.308   2.476   6.236
  530TIP3   OH223148   0.281   4.536   1.725
  530TIP3    H123149   0.258   4.627   1.705
  530TIP3    H223150   0.214   4.508   1.786
  531TIP3   OH223151   1.413   3.738   0.112
  531TIP3    H123152   1.468   3.742   0.190
  531TIP3    H223153   1.324   3.725   0.146
  532TIP3   OH223154   5.813   1.112   0.398
  532TIP3    H123155   5.744   1.127   0.334
  532TIP3    H223156   5.816   1.192   0.449
  533TIP3   OH223157   6.704   1.871   2.219
  533TIP3    H123158   6.779   1.830   2.176
  533TIP3    H223159   6.654   1.798   2.256
  534TIP3   OH223160   5.559   2.219   0.970
  534TIP3    H123161   5.565   2.283   1.041
  534TIP3    H223162   5.649   2.210   0.938
  535TIP3   OH223163   6.231   1.916   1.295
  535TIP3    H123164   6.297   1.955   1.352
  535TIP3    H223165   6.212   1.984   1.230
  536TIP3   OH223166   1.828   4.760   7.599
  536TIP3    H123167   1.746   4.714   7.620
  536TIP3    H223168   1.883   4.746   7.676
  537TIP3   OH223169   0.915   1.974   0.549
  537TIP3    H123170   0.953   2.047   0.597
  537TIP3    H223171   0.913   2.003   0.458
  538TIP3   OH223172   5.900   3.089   7.720
  538TIP3    H123173   5.818   3.098   7.768
  538TIP3    H223174   5.948   3.170   7.738
  539TIP3   OH223175   0.385   1.374   2.454
  539TIP3    H123176   0.306   1.321   2.451
  539TIP3    H223177   0.359   1.458   2.416
  540TIP3   OH223178   5.640   4.995   0.244
  540TIP3    H123179   5.556   4.983   0.289
  540TIP3    H223180   5.706   4.980   0.311
  541TIP3   OH223181   4.782   1.160   8.078
  541TIP3    H123182   4.816   1.223   8.014
  541TIP3    H223183   4.766   1.211   8.157
  542TIP3   OH223184   2.994   4.667   1.340
  542TIP3    H123185   3.080   4.705   1.358
  542TIP3    H223186   2.931   4.729   1.377
  543TIP3   OH223187   1.850   5.554   0.276
  543TIP3    H123188   1.838   5.524   0.186
  543TIP3    H223189   1.918   5.497   0.312
  544TIP3   OH223190   3.142   0.061   6.363
  544TIP3    H123191   3.057   0.049   6.320
  544TIP3    H223192   3.184   6.772   6.358
  545TIP3   OH223193   1.060   2.611   7.219
  545TIP3    H123194   0.968   2.617   7.245
  545TIP3    H223195   1.058   2.580   7.129
  546TIP3   OH223196   2.298   3.002   1.841
  546TIP3    H123197   2.331   2.976   1.756
  546TIP3    H223198   2.376   3.024   1.892
  547TIP3   OH223199   4.891   6.210   0.254
  547TIP3    H123200   4.975   6.187   0.295
  547TIP3    H223201   4.835   6.134   0.269
  548TIP3   OH223202   1.711   0.530   8.504
  548TIP3    H123203   1.798   0.500   8.531
  548TIP3    H223204   1.722   0.557   8.413
  549TIP3   OH223205   3.546   6.051   7.569
  549TIP3    H123206   3.479   6.048   7.638
  549TIP3    H223207   3.497   6.040   7.488
  550TIP3   OH223208   5.248   6.262   8.052
  550TIP3    H123209   5.280   6.259   7.962
  550TIP3    H223210   5.156   6.234   8.046
  551TIP3   OH223211   1.219   3.402   1.488
  551TIP3    H123212   1.205   3.310   1.509
  551TIP3    H223213   1.285   3.432   1.550
  552TIP3   OH223214   4.726   0.175   0.930
  552TIP3    H123215   4.745   0.266   0.906
  552TIP3    H223216   4.735   0.172   1.025
  553TIP3   OH223217   4.912   1.984   7.114
  553TIP3    H123218   4.912   1.889   7.124
  553TIP3    H223219   4.896   2.017   7.203
  554TIP3   OH223220   2.474   4.150   8.542
  554TIP3    H123221   2.471   4.054   8.548
  554TIP3    H223222   2.412   4.180   8.608
  555TIP3   OH223223   3.913   6.374   0.600
  555TIP3    H123224   3.941   6.333   0.681
  555TIP3    H223225   3.857   6.447   0.628
  556TIP3   OH223226   5.483   3.371   8.618
  556TIP3    H123227   5.442   3.346   8.535
  556TIP3    H223228   5.480   3.467   8.619
  557TIP3   OH223229   2.096   1.218   6.910
  557TIP3    H123230   2.188   1.218   6.884
  557TIP3    H223231   2.096   1.187   7.000
  558TIP3   OH223232   4.316   2.735   8.444
  558TIP3    H123233   4.264   2.665   8.483
  558TIP3    H223234   4.320   2.802   8.513
  559TIP3   OH223235   4.317   5.271   1.203
  559TIP3    H123236   4.393   5.310   1.245
  559TIP3    H223237   4.249   5.274   1.270
  560TIP3   OH223238   1.784   4.845   7.889
  560TIP3    H123239   1.691   4.845   7.867
  560TIP3    H223240   1.814   4.934   7.870
  561TIP3   OH223241   4.448   5.358   1.594
  561TIP3    H123242   4.438   5.297   1.667
  561TIP3    H223243   4.360   5.393   1.580
  562TIP3   OH223244   0.738   1.320   1.217
  562TIP3    H123245   0.820   1.367   1.231
  562TIP3    H223246   0.758   1.253   1.153
  563TIP3   OH223247   0.198   4.355   7.647
  563TIP3    H123248   0.173   4.444   7.624
  563TIP3    H223249   0.130   4.326   7.708
  564TIP3   OH223250   3.958   1.412   8.700
  564TIP3    H123251   4.041   1.453   8.722
  564TIP3    H223252   3.903   1.424   8.778
  565TIP3   OH223253   0.830   4.370   6.763
  565TIP3    H123254   0.781   4.450   6.746
  565TIP3    H223255   0.871   4.386   6.848
  566TIP3   OH223256   3.813   5.016   7.929
  566TIP3    H123257   3.882   5.082   7.915
  566TIP3    H223258   3.819   4.994   8.022
  567TIP3   OH223259   3.202   3.167   7.617
  567TIP3    H123260   3.130   3.152   7.555
  567TIP3    H223261   3.169   3.235   7.676
  568TIP3   OH223262   2.992   2.578   2.157
  568TIP3    H123263   3.069   2.521   2.148
  568TIP3    H223264   3.008   2.626   2.239
  569TIP3   OH223265   3.835   3.124   7.520
  569TIP3    H123266   3.807   3.211   7.546
  569TIP3    H223267   3.891   3.094   7.592
  570TIP3   OH223268   4.900   0.821   8.825
  570TIP3    H123269   4.854   0.758   8.769
  570TIP3    H223270   4.893   0.785   0.039
  571TIP3   OH223271   1.087   6.771   0.043
  571TIP3    H123272   1.085   6.677   0.064
  571TIP3    H223273   1.049   0.018   0.120
  572TIP3   OH223274   3.427   0.019   6.703
  572TIP3    H123275   3.489   6.745   6.724
  572TIP3    H223276   3.343   6.770   6.693
  573TIP3   OH223277   2.125   2.473   1.328
  573TIP3    H123278   2.056   2.492   1.392
  573TIP3    H223279   2.156   2.560   1.302
  574TIP3   OH223280   4.736   4.117   8.463
  574TIP3    H123281   4.698   4.032   8.485
  574TIP3    H223282   4.705   4.135   8.375
  575TIP3   OH223283   6.043   1.461   8.437
  575TIP3    H123284   6.084   1.454   8.523
  575TIP3    H223285   5.964   1.513   8.452
  576TIP3   OH223286   1.400   4.704   8.308
  576TIP3    H123287   1.369   4.724   8.219
  576TIP3    H223288   1.322   4.671   8.353
  577TIP3   OH223289   4.740   4.851   8.612
  577TIP3    H123290   4.702   4.823   8.529
  577TIP3    H223291   4.792   4.929   8.590
  578TIP3   OH223292   3.402   5.720   0.324
  578TIP3    H123293   3.388   5.625   0.325
  578TIP3    H223294   3.452   5.737   0.404
  579TIP3   OH223295   0.917   4.004   1.599
  579TIP3    H123296   0.859   3.929   1.608
  579TIP3    H223297   1.004   3.966   1.586
  580TIP3   OH223298   1.026   6.402   7.870
  580TIP3    H123299   1.070   6.342   7.810
  580TIP3    H223300   1.010   6.350   7.949
  581TIP3   OH223301   0.435   1.048   1.342
  581TIP3    H123302   0.400   0.960   1.357
  581TIP3    H223303   0.529   1.039   1.356
  582TIP3   OH223304   5.790   0.974   8.742
  582TIP3    H123305   5.843   0.906   8.700
  582TIP3    H223306   5.707   0.972   8.694
  583TIP3   OH223307   1.934   3.170   6.900
  583TIP3    H123308   2.018   3.146   6.862
  583TIP3    H223309   1.871   3.114   6.856
  584TIP3   OH223310   2.085   2.128   7.709
  584TIP3    H123311   2.083   2.208   7.762
  584TIP3    H223312   2.000   2.086   7.727
  585TIP3   OH223313   6.369   4.601   0.447
  585TIP3    H123314   6.343   4.670   0.387
  585TIP3    H223315   6.286   4.571   0.485
  586TIP3   OH223316   6.103   4.070   0.163
  586TIP3    H123317   6.197   4.074   0.146
  586TIP3    H223318   6.086   4.145   0.220
  587TIP3   OH223319   5.194   6.155   2.510
  587TIP3    H123320   5.277   6.108   2.498
  587TIP3    H223321   5.208   6.238   2.464
  588TIP3   OH223322   1.984   6.246   8.742
  588TIP3    H123323   1.966   6.185   8.814
  588TIP3    H223324   1.993   6.190   8.665
  589TIP3   OH223325   2.790   4.555   2.458
  589TIP3    H123326   2.806   4.488   2.524
  589TIP3    H223327   2.817   4.514   2.375
  590TIP3   OH223328   1.974   2.564   1.551
  590TIP3    H123329   1.892   2.597   1.516
  590TIP3    H223330   1.951   2.480   1.591
  591TIP3   OH223331   5.992   6.233   7.885
  591TIP3    H123332   6.049   6.185   7.825
  591TIP3    H223333   6.051   6.289   7.934
  592TIP3   OH223334   6.084   6.538   0.408
  592TIP3    H123335   6.111   6.627   0.434
  592TIP3    H223336   6.146   6.513   0.340
  593TIP3   OH223337   6.113   4.016   2.000
  593TIP3    H123338   6.167   3.940   1.976
  593TIP3    H223339   6.154   4.049   2.080
  594TIP3   OH223340   5.551   2.462   7.014
  594TIP3    H123341   5.617   2.496   6.954
  594TIP3    H223342   5.546   2.528   7.084
  595TIP3   OH223343   3.838   1.804   8.355
  595TIP3    H123344   3.897   1.729   8.347
  595TIP3    H223345   3.786   1.803   8.275
  596TIP3   OH223346   2.385   0.992   1.090
  596TIP3    H123347   2.359   1.079   1.120
  596TIP3    H223348   2.338   0.980   1.007
  597TIP3   OH223349   6.491   3.577   8.194
  597TIP3    H123350   6.426   3.608   8.257
  597TIP3    H223351   6.491   3.482   8.206
  598TIP3   OH223352   3.992   1.523   8.358
  598TIP3    H123353   3.931   1.470   8.306
  598TIP3    H223354   3.959   1.517   8.447
  599TIP3   OH223355   0.746   5.775   0.218
  599TIP3    H123356   0.827   5.730   0.194
  599TIP3    H223357   0.749   5.781   0.314
  600TIP3   OH223358   5.357   4.146   7.194
  600TIP3    H123359   5.423   4.210   7.223
  600TIP3    H223360   5.391   4.062   7.224
  601TIP3   OH223361   1.747   3.599   1.740
  601TIP3    H123362   1.800   3.542   1.796
  601TIP3    H223363   1.764   3.687   1.773
  602TIP3   OH223364   0.640   1.560   1.702
  602TIP3    H123365   0.722   1.605   1.722
  602TIP3    H223366   0.621   1.584   1.611
  603TIP3   OH223367   3.354   6.584   1.733
  603TIP3    H123368   3.316   6.607   1.817
  603TIP3    H223369   3.369   6.668   1.689
  604TIP3   OH223370   1.384   5.905   1.093
  604TIP3    H123371   1.417   5.993   1.077
  604TIP3    H223372   1.323   5.915   1.166
  605TIP3   OH223373   2.164   2.294   8.755
  605TIP3    H123374   2.113   2.374   8.745
  605TIP3    H223375   2.190   2.270   8.666
  606TIP3   OH223376   6.487   6.108   7.803
  606TIP3    H123377   6.433   6.116   7.881
  606TIP3    H223378   6.440   6.047   7.747
  607TIP3   OH223379   6.055   3.975   7.180
  607TIP3    H123380   6.051   3.954   7.087
  607TIP3    H223381   6.133   4.030   7.189
  608TIP3   OH223382   4.076   4.232   2.180
  608TIP3    H123383   4.097   4.290   2.253
  608TIP3    H223384   4.063   4.146   2.220
  609TIP3   OH223385   2.204   5.331   2.159
  609TIP3    H123386   2.157   5.386   2.096
  609TIP3    H223387   2.283   5.381   2.180
  610TIP3   OH223388   3.804   6.420   1.565
  610TIP3    H123389   3.750   6.491   1.531
  610TIP3    H223390   3.829   6.448   1.653
  611TIP3   OH223391   0.206   6.330   8.244
  611TIP3    H123392   0.218   6.245   8.286
  611TIP3    H223393   0.274   6.334   8.177
  612TIP3   OH223394   2.854   4.412   8.742
  612TIP3    H123395   2.838   4.318   8.753
  612TIP3    H223396   2.767   4.452   8.747
  613TIP3   OH223397   1.897   0.478   0.480
  613TIP3    H123398   1.852   0.500   0.399
  613TIP3    H223399   1.844   0.408   0.519
  614TIP3   OH223400   0.958   1.574   8.046
  614TIP3    H123401   0.899   1.530   8.108
  614TIP3    H223402   0.961   1.516   7.970
  615TIP3   OH223403   1.667   0.177   8.693
  615TIP3    H123404   1.603   0.218   8.752
  615TIP3    H223405   1.752   0.210   8.722
  616TIP3   OH223406   2.246   0.639   6.349
  616TIP3    H123407   2.333   0.615   6.318
  616TIP3    H223408   2.187   0.580   6.302
  617TIP3   OH223409   6.254   3.002   7.649
  617TIP3    H123410   6.348   3.015   7.648
  617TIP3    H223411   6.232   2.993   7.742
  618TIP3   OH223412   5.652   3.940   0.416
  618TIP3    H123413   5.639   3.890   0.336
  618TIP3    H223414   5.746   3.956   0.419
  619TIP3   OH223415   4.409   0.423   7.091
  619TIP3    H123416   4.443   0.417   7.002
  619TIP3    H223417   4.317   0.397   7.084
  620TIP3   OH223418   3.536   4.134   8.541
  620TIP3    H123419   3.574   4.091   8.465
  620TIP3    H223420   3.444   4.107   8.541
  621TIP3   OH223421   2.291   0.545   0.821
  621TIP3    H123422   2.316   0.502   0.739
  621TIP3    H223423   2.195   0.540   0.821
  622TIP3   OH223424   5.013   6.212   7.396
  622TIP3    H123425   4.980   6.266   7.469
  622TIP3    H223426   5.098   6.249   7.375
  623TIP3   OH223427   4.234   5.799   7.704
  623TIP3    H123428   4.272   5.734   7.644
  623TIP3    H223429   4.262   5.884   7.668
  624TIP3   OH223430   1.407   5.102   6.975
  624TIP3    H123431   1.402   5.007   6.974
  624TIP3    H223432   1.391   5.128   6.885
  625TIP3   OH223433   6.241   3.426   1.017
  625TIP3    H123434   6.335   3.418   1.031
  625TIP3    H223435   6.202   3.360   1.074
  626TIP3   OH223436   5.956   5.161   8.511
  626TIP3    H123437   6.016   5.236   8.516
  626TIP3    H223438   5.976   5.109   8.589
  627TIP3   OH223439   1.039   4.629   1.695
  627TIP3    H123440   0.994   4.710   1.671
  627TIP3    H223441   0.969   4.566   1.708
  628TIP3   OH223442   2.306   6.410   1.188
  628TIP3    H123443   2.210   6.400   1.189
  628TIP3    H223444   2.332   6.398   1.279
  629TIP3   OH223445   6.037   0.828   1.755
  629TIP3    H123446   5.995   0.769   1.817
  629TIP3    H223447   6.100   0.877   1.808
  630TIP3   OH223448   6.059   5.924   1.213
  630TIP3    H123449   6.010   6.003   1.189
  630TIP3    H223450   6.069   5.876   1.131
  631TIP3   OH223451   1.128   2.331   8.816
  631TIP3    H123452   1.108   2.242   8.844
  631TIP3    H223453   1.223   2.339   8.826
  632TIP3   OH223454   2.027   3.047   7.331
  632TIP3    H123455   2.087   3.121   7.321
  632TIP3    H223456   2.057   3.001   7.410
  633TIP3   OH223457   3.657   2.123   0.425
  633TIP3    H123458   3.632   2.031   0.434
  633TIP3    H223459   3.582   2.164   0.382
  634TIP3   OH223460   5.225   6.270   1.871
  634TIP3    H123461   5.289   6.247   1.939
  634TIP3    H223462   5.177   6.189   1.855
  635TIP3   OH223463   4.480   5.233   0.215
  635TIP3    H123464   4.394   5.194   0.230
  635TIP3    H223465   4.510   5.261   0.301
  636TIP3   OH223466   1.879   4.265   8.841
  636TIP3    H123467   1.915   4.348   8.810
  636TIP3    H223468   1.850   4.284   0.056
  637TIP3   OH223469   5.463   6.014   0.537
  637TIP3    H123470   5.557   6.026   0.525
  637TIP3    H223471   5.455   5.944   0.602
  638TIP3   OH223472   2.051   0.744   1.433
  638TIP3    H123473   2.088   0.767   1.518
  638TIP3    H223474   2.009   0.825   1.403
  639TIP3   OH223475   4.269   0.551   8.831
  639TIP3    H123476   4.294   0.541   8.739
  639TIP3    H223477   4.197   0.488   8.843
  640TIP3   OH223478   6.517   1.682   7.976
  640TIP3    H123479   6.548   1.761   8.019
  640TIP3    H223480   6.577   1.669   7.902
  641TIP3   OH223481   5.984   4.489   7.613
  641TIP3    H123482   5.944   4.409   7.647
  641TIP3    H223483   5.919   4.523   7.551
  642TIP3   OH223484   1.904   3.437   1.303
  642TIP3    H123485   1.974   3.375   1.326
  642TIP3    H223486   1.944   3.523   1.311
  643TIP3   OH223487   6.535   4.031   0.134
  643TIP3    H123488   6.573   4.074   0.210
  643TIP3    H223489   6.609   3.988   0.090
  644TIP3   OH223490   5.400   2.952   7.698
  644TIP3    H123491   5.495   2.945   7.697
  644TIP3    H223492   5.370   2.872   7.741
  645TIP3   OH223493   3.137   3.125   1.492
  645TIP3    H123494   3.125   3.203   1.438
  645TIP3    H223495   3.182   3.157   1.570
  646TIP3   OH223496   3.884   2.140   8.345
  646TIP3    H123497   3.899   2.211   8.407
  646TIP3    H223498   3.901   2.060   8.395
  647TIP3   OH223499   0.120   2.990   7.716
  647TIP3    H123500   0.078   3.061   7.668
  647TIP3    H223501   0.057   2.918   7.715
  648TIP3   OH223502   3.391   3.779   7.203
  648TIP3    H123503   3.401   3.792   7.297
  648TIP3    H223504   3.329   3.847   7.175
  649TIP3   OH223505   0.397   2.411   7.090
  649TIP3    H123506   0.487   2.384   7.075
  649TIP3    H223507   0.397   2.506   7.074
  650TIP3   OH223508   2.236   1.718   8.710
  650TIP3    H123509   2.332   1.709   8.709
  650TIP3    H223510   2.204   1.629   8.724
  651TIP3   OH223511   2.931   4.628   6.576
  651TIP3    H123512   2.948   4.686   6.501
  651TIP3    H223513   2.849   4.660   6.612
  652TIP3   OH223514   2.003   0.250   7.856
  652TIP3    H123515   2.066   0.182   7.882
  652TIP3    H223516   1.989   0.302   7.935
  653TIP3   OH223517   5.626   4.551   2.165
  653TIP3    H123518   5.548   4.549   2.110
  653TIP3    H223519   5.638   4.643   2.186
  654TIP3   OH223520   1.488   4.840   0.468
  654TIP3    H123521   1.549   4.914   0.457
  654TIP3    H223522   1.412   4.864   0.416
  655TIP3   OH223523   0.909   2.870   8.729
  655TIP3    H123524   0.844   2.895   8.794
  655TIP3    H223525   0.944   2.786   8.760
  656TIP3   OH223526   1.836   0.102   1.333
  656TIP3    H123527   1.759   0.093   1.390
  656TIP3    H223528   1.909   0.117   1.394
  657TIP3   OH223529   2.126   0.948   2.036
  657TIP3    H123530   2.195   1.014   2.040
  657TIP3    H223531   2.168   0.866   2.062
  658TIP3   OH223532   4.617   0.133   7.569
  658TIP3    H123533   4.694   0.082   7.546
  658TIP3    H223534   4.592   0.101   7.656
  659TIP3   OH223535   4.570   4.949   0.188
  659TIP3    H123536   4.563   5.034   0.145
  659TIP3    H223537   4.561   4.885   0.117
  660TIP3   OH223538   0.327   1.074   6.632
  660TIP3    H123539   0.379   0.997   6.609
  660TIP3    H223540   0.318   1.070   6.727
  661TIP3   OH223541   4.012   5.420   7.317
  661TIP3    H123542   4.071   5.389   7.248
  661TIP3    H223543   3.967   5.341   7.347
  662TIP3   OH223544   5.830   6.328   1.957
  662TIP3    H123545   5.832   6.354   1.865
  662TIP3    H223546   5.810   6.235   1.955
  663TIP3   OH223547   1.396   0.182   8.823
  663TIP3    H123548   1.343   0.146   0.020
  663TIP3    H223549   1.398   0.276   8.840
  664TIP3   OH223550   5.372   3.464   2.281
  664TIP3    H123551   5.394   3.371   2.277
  664TIP3    H223552   5.441   3.502   2.337
  665TIP3   OH223553   1.106   0.502   2.157
  665TIP3    H123554   1.192   0.541   2.140
  665TIP3    H223555   1.119   0.408   2.142
  666TIP3   OH223556   6.577   0.103   0.610
  666TIP3    H123557   6.668   0.134   0.611
  666TIP3    H223558   6.584   0.007   0.610
  667TIP3   OH223559   0.255   3.941   1.684
  667TIP3    H123560   0.318   3.902   1.624
  667TIP3    H223561   0.184   3.972   1.628
  668TIP3   OH223562   1.700   3.965   1.560
  668TIP3    H123563   1.683   4.015   1.640
  668TIP3    H223564   1.720   4.031   1.494
  669TIP3   OH223565   0.320   2.410   8.298
  669TIP3    H123566   0.397   2.354   8.308
  669TIP3    H223567   0.269   2.396   8.378
  670TIP3   OH223568   3.447   6.675   0.566
  670TIP3    H123569   3.440   6.623   0.646
  670TIP3    H223570   3.541   6.680   0.548
  671TIP3   OH223571   1.869   0.374   7.000
  671TIP3    H123572   1.793   0.359   6.943
  671TIP3    H223573   1.847   0.453   7.049
  672TIP3   OH223574   2.373   6.222   2.618
  672TIP3    H123575   2.426   6.299   2.597
  672TIP3    H223576   2.436   6.149   2.619
  673TIP3   OH223577   1.064   2.776   0.925
  673TIP3    H123578   1.124   2.849   0.940
  673TIP3    H223579   1.106   2.724   0.857
  674TIP3   OH223580   3.165   1.042   8.339
  674TIP3    H123581   3.102   1.014   8.405
  674TIP3    H223582   3.206   0.962   8.308
  675TIP3   OH223583   0.590   2.169   0.636
  675TIP3    H123584   0.671   2.217   0.621
  675TIP3    H223585   0.613   2.101   0.699
  676TIP3   OH223586   0.203   3.535   0.861
  676TIP3    H123587   0.257   3.468   0.819
  676TIP3    H223588   0.256   3.566   0.934
  677TIP3   OH223589   3.934   3.728   2.060
  677TIP3    H123590   3.857   3.719   2.117
  677TIP3    H223591   3.999   3.771   2.114
  678TIP3   OH223592   0.522   3.494   7.487
  678TIP3    H123593   0.429   3.475   7.501
  678TIP3    H223594   0.539   3.571   7.542
  679TIP3   OH223595   3.341   0.681   8.315
  679TIP3    H123596   3.307   0.736   8.386
  679TIP3    H223597   3.426   0.719   8.294
  680TIP3   OH223598   4.776   5.750   7.382
  680TIP3    H123599   4.807   5.839   7.366
  680TIP3    H223600   4.856   5.701   7.405
  681TIP3   OH223601   2.794   3.042   1.480
  681TIP3    H123602   2.870   3.006   1.434
  681TIP3    H223603   2.765   2.971   1.538
  682TIP3   OH223604   3.366   0.527   8.093
  682TIP3    H123605   3.453   0.566   8.089
  682TIP3    H223606   3.314   0.589   8.144
  683TIP3   OH223607   5.789   4.495   1.741
  683TIP3    H123608   5.709   4.539   1.771
  683TIP3    H223609   5.795   4.417   1.796
  684TIP3   OH223610   3.906   3.063   0.912
  684TIP3    H123611   3.936   3.099   0.995
  684TIP3    H223612   3.946   2.976   0.908
  685TIP3   OH223613   4.683   1.148   0.591
  685TIP3    H123614   4.664   1.231   0.636
  685TIP3    H223615   4.725   1.094   0.658
  686TIP3   OH223616   1.911   3.306   0.278
  686TIP3    H123617   1.935   3.283   0.189
  686TIP3    H223618   1.816   3.293   0.282
  687TIP3   OH223619   1.855   0.176   8.439
  687TIP3    H123620   1.818   0.104   8.388
  687TIP3    H223621   1.780   0.217   8.480
  688TIP3   OH223622   2.807   6.789   1.642
  688TIP3    H123623   2.863   6.713   1.658
  688TIP3    H223624   2.724   6.752   1.612
  689TIP3   OH223625   0.770   4.138   8.034
  689TIP3    H123626   0.771   4.179   8.120
  689TIP3    H223627   0.796   4.208   7.974
  690TIP3   OH223628   5.827   5.677   2.660
  690TIP3    H123629   5.897   5.735   2.629
  690TIP3    H223630   5.756   5.736   2.685
  691TIP3   OH223631   1.419   4.784   8.707
  691TIP3    H123632   1.457   4.798   8.620
  691TIP3    H223633   1.340   4.838   8.707
  692TIP3   OH223634   4.069   4.760   7.748
  692TIP3    H123635   4.073   4.753   7.844
  692TIP3    H223636   4.069   4.854   7.731
  693TIP3   OH223637   6.024   0.738   8.648
  693TIP3    H123638   6.083   0.777   8.583
  693TIP3    H223639   6.077   0.731   8.727
  694TIP3   OH223640   1.675   5.238   7.632
  694TIP3    H123641   1.605   5.204   7.578
  694TIP3    H223642   1.727   5.292   7.573
  695TIP3   OH223643   5.629   3.708   2.136
  695TIP3    H123644   5.650   3.759   2.214
  695TIP3    H223645   5.538   3.729   2.117
  696TIP3   OH223646   3.741   3.479   7.404
  696TIP3    H123647   3.695   3.562   7.393
  696TIP3    H223648   3.818   3.487   7.349
  697TIP3   OH223649   3.830   1.083   1.365
  697TIP3    H123650   3.782   1.040   1.436
  697TIP3    H223651   3.824   1.176   1.384
  698TIP3   OH223652   3.860   4.307   7.767
  698TIP3    H123653   3.849   4.221   7.726
  698TIP3    H223654   3.947   4.335   7.740
  699TIP3   OH223655   1.982   2.443   1.087
  699TIP3    H123656   1.914   2.380   1.112
  699TIP3    H223657   2.023   2.468   1.170
  700TIP3   OH223658   1.464   5.263   7.269
  700TIP3    H123659   1.486   5.178   7.232
  700TIP3    H223660   1.372   5.276   7.247
  701TIP3   OH223661   3.293   2.420   8.204
  701TIP3    H123662   3.359   2.375   8.257
  701TIP3    H223663   3.242   2.350   8.165
  702TIP3   OH223664   2.924   5.954   1.441
  702TIP3    H123665   2.917   6.009   1.519
  702TIP3    H223666   2.838   5.963   1.398
  703TIP3   OH223667   4.618   4.741   0.551
  703TIP3    H123668   4.575   4.664   0.589
  703TIP3    H223669   4.683   4.767   0.616
  704TIP3   OH223670   6.541   2.681   1.680
  704TIP3    H123671   6.634   2.661   1.687
  704TIP3    H223672   6.520   2.727   1.761
  705TIP3   OH223673   5.017   5.578   8.422
  705TIP3    H123674   4.967   5.659   8.417
  705TIP3    H223675   5.074   5.588   8.498
  706TIP3   OH223676   4.212   6.225   7.886
  706TIP3    H123677   4.294   6.274   7.888
  706TIP3    H223678   4.225   6.154   7.948
  707TIP3   OH223679   2.785   3.614   0.704
  707TIP3    H123680   2.690   3.622   0.706
  707TIP3    H223681   2.802   3.546   0.639
  708TIP3   OH223682   2.805   1.967   7.762
  708TIP3    H123683   2.771   1.930   7.681
  708TIP3    H223684   2.732   1.963   7.823
  709TIP3   OH223685   4.025   1.697   0.642
  709TIP3    H123686   4.040   1.789   0.666
  709TIP3    H223687   4.013   1.653   0.726
  710TIP3   OH223688   6.221   3.210   2.174
  710TIP3    H123689   6.271   3.235   2.251
  710TIP3    H223690   6.151   3.276   2.168
  711TIP3   OH223691   3.740   5.455   7.147
  711TIP3    H123692   3.716   5.537   7.191
  711TIP3    H223693   3.804   5.415   7.206
  712TIP3   OH223694   6.532   4.211   1.991
  712TIP3    H123695   6.511   4.124   2.027
  712TIP3    H223696   6.461   4.229   1.930
  713TIP3   OH223697   4.469   5.860   0.001
  713TIP3    H123698   4.420   5.785   0.037
  713TIP3    H223699   4.494   5.911   0.079
  714TIP3   OH223700   3.713   1.850   0.123
  714TIP3    H123701   3.710   1.767   0.171
  714TIP3    H223702   3.792   1.844   0.069
  715TIP3   OH223703   0.846   0.195   0.543
  715TIP3    H123704   0.822   0.239   0.462
  715TIP3    H223705   0.770   0.140   0.563
  716TIP3   OH223706   4.559   0.795   2.318
  716TIP3    H123707   4.632   0.771   2.261
  716TIP3    H223708   4.551   0.890   2.307
  717TIP3   OH223709   1.052   2.640   8.790
  717TIP3    H123710   1.043   2.550   8.760
  717TIP3    H223711   1.110   2.634   8.865
  718TIP3   OH223712   2.405   0.985   6.481
  718TIP3    H123713   2.492   1.003   6.518
  718TIP3    H223714   2.358   1.068   6.488
  719TIP3   OH223715   5.624   5.305   8.116
  719TIP3    H123716   5.593   5.351   8.038
  719TIP3    H223717   5.594   5.215   8.106
  720TIP3   OH223718   2.532   1.061   2.543
  720TIP3    H123719   2.452   1.051   2.594
  720TIP3    H223720   2.518   1.006   2.466
  721TIP3   OH223721   3.363   5.619   2.246
  721TIP3    H123722   3.440   5.658   2.286
  721TIP3    H223723   3.313   5.583   2.319
  722TIP3   OH223724   0.116   1.972   8.002
  722TIP3    H123725   0.152   2.047   7.954
  722TIP3    H223726   0.042   2.008   8.051
  723TIP3   OH223727   3.261   4.074   6.776
  723TIP3    H123728   3.261   4.128   6.696
  723TIP3    H223729   3.176   4.092   6.816
  724TIP3   OH223730   2.145   4.971   2.321
  724TIP3    H123731   2.128   4.881   2.293
  724TIP3    H223732   2.108   4.976   2.409
  725TIP3   OH223733   1.312   5.427   8.681
  725TIP3    H123734   1.311   5.335   8.655
  725TIP3    H223735   1.387   5.434   8.741
  726TIP3   OH223736   3.731   6.094   0.834
  726TIP3    H123737   3.786   6.025   0.796
  726TIP3    H223738   3.683   6.050   0.904
  727TIP3   OH223739   4.433   1.588   0.802
  727TIP3    H123740   4.377   1.620   0.732
  727TIP3    H223741   4.428   1.492   0.796
  728TIP3   OH223742   2.569   1.904   7.268
  728TIP3    H123743   2.543   1.924   7.358
  728TIP3    H223744   2.556   1.986   7.220
  729TIP3   OH223745   0.090   5.720   7.489
  729TIP3    H123746   0.143   5.769   7.552
  729TIP3    H223747   6.796   5.732   7.519
  730TIP3   OH223748   5.145   1.012   6.487
  730TIP3    H123749   5.079   0.944   6.499
  730TIP3    H223750   5.102   1.092   6.517
  731TIP3   OH223751   2.236   0.571   7.445
  731TIP3    H123752   2.233   0.653   7.495
  731TIP3    H223753   2.149   0.533   7.457
  732TIP3   OH223754   5.527   0.586   7.459
  732TIP3    H123755   5.597   0.566   7.398
  732TIP3    H223756   5.569   0.591   7.544
  733TIP3   OH223757   3.943   5.380   0.582
  733TIP3    H123758   3.909   5.351   0.666
  733TIP3    H223759   4.018   5.435   0.604
  734TIP3   OH223760   1.951   0.745   2.087
  734TIP3    H123761   2.038   0.706   2.097
  734TIP3    H223762   1.967   0.839   2.088
  735TIP3   OH223763   0.484   5.932   1.167
  735TIP3    H123764   0.500   5.964   1.256
  735TIP3    H223765   0.455   6.009   1.118
  736TIP3   OH223766   6.279   2.612   7.979
  736TIP3    H123767   6.271   2.610   7.884
  736TIP3    H223768   6.355   2.668   7.995
  737TIP3   OH223769   4.171   3.837   0.766
  737TIP3    H123770   4.188   3.835   0.860
  737TIP3    H223771   4.221   3.912   0.734
  738TIP3   OH223772   0.338   0.933   0.559
  738TIP3    H123773   0.248   0.899   0.566
  738TIP3    H223774   0.329   1.027   0.578
  739TIP3   OH223775   4.918   0.575   0.691
  739TIP3    H123776   4.935   0.556   0.598
  739TIP3    H223777   4.823   0.568   0.699
  740TIP3   OH223778   2.165   0.589   8.115
  740TIP3    H123779   2.104   0.607   8.186
  740TIP3    H223780   2.128   0.513   8.070
  741TIP3   OH223781   1.139   3.773   6.582
  741TIP3    H123782   1.060   3.727   6.554
  741TIP3    H223783   1.210   3.729   6.536
  742TIP3   OH223784   6.430   0.847   1.457
  742TIP3    H123785   6.345   0.886   1.477
  742TIP3    H223786   6.410   0.763   1.417
  743TIP3   OH223787   2.147   1.445   8.732
  743TIP3    H123788   2.221   1.413   8.784
  743TIP3    H223789   2.122   1.371   8.677
  744TIP3   OH223790   3.381   0.371   1.322
  744TIP3    H123791   3.374   0.463   1.297
  744TIP3    H223792   3.472   0.361   1.351
  745TIP3   OH223793   6.255   0.315   0.329
  745TIP3    H123794   6.188   0.383   0.326
  745TIP3    H223795   6.272   0.302   0.423
  746TIP3   OH223796   4.355   1.419   8.236
  746TIP3    H123797   4.263   1.419   8.208
  746TIP3    H223798   4.405   1.431   8.155
  747TIP3   OH223799   6.075   0.783   7.618
  747TIP3    H123800   6.020   0.707   7.599
  747TIP3    H223801   6.074   0.834   7.537
  748TIP3   OH223802   0.072   4.556   8.649
  748TIP3    H123803   0.134   4.612   8.696
  748TIP3    H223804   0.009   4.530   8.716
  749TIP3   OH223805   4.234   2.656   1.261
  749TIP3    H123806   4.157   2.712   1.272
  749TIP3    H223807   4.259   2.633   1.351
  750TIP3   OH223808   4.401   6.244   0.550
  750TIP3    H123809   4.344   6.313   0.517
  750TIP3    H223810   4.423   6.192   0.473
  751TIP3   OH223811   2.962   1.743   8.516
  751TIP3    H123812   2.995   1.784   8.595
  751TIP3    H223813   2.894   1.803   8.484
  752TIP3   OH223814   1.204   3.388   1.167
  752TIP3    H123815   1.241   3.471   1.197
  752TIP3    H223816   1.215   3.329   1.242
  753TIP3   OH223817   5.789   6.417   8.028
  753TIP3    H123818   5.833   6.502   8.023
  753TIP3    H223819   5.842   6.367   8.090
  754TIP3   OH223820   0.190   0.268   7.543
  754TIP3    H123821   0.245   0.311   7.478
  754TIP3    H223822   0.104   0.311   7.533
  755TIP3   OH223823   2.188   1.793   8.086
  755TIP3    H123824   2.255   1.860   8.101
  755TIP3    H223825   2.164   1.764   8.174
  756TIP3   OH223826   0.191   6.045   8.297
  756TIP3    H123827   0.249   5.970   8.283
  756TIP3    H223828   0.125   6.013   8.359
  757TIP3   OH223829   6.301   4.128   8.729
  757TIP3    H123830   6.304   4.040   8.769
  757TIP3    H223831   6.387   4.140   8.690
  758TIP3   OH223832   2.427   4.024   1.360
  758TIP3    H123833   2.472   4.002   1.441
  758TIP3    H223834   2.439   4.119   1.351
  759TIP3   OH223835   3.196   6.228   2.072
  759TIP3    H123836   3.212   6.134   2.085
  759TIP3    H223837   3.267   6.271   2.119
  760TIP3   OH223838   6.639   6.671   6.739
  760TIP3    H123839   6.584   6.714   6.805
  760TIP3    H223840   6.593   6.686   6.657
  761TIP3   OH223841   2.496   1.947   1.299
  761TIP3    H123842   2.539   2.024   1.262
  761TIP3    H223843   2.557   1.916   1.367
  762TIP3   OH223844   6.601   5.861   2.495
  762TIP3    H123845   6.553   5.912   2.561
  762TIP3    H223846   6.692   5.885   2.508
  763TIP3   OH223847   1.477   0.475   0.982
  763TIP3    H123848   1.409   0.456   0.917
  763TIP3    H223849   1.460   0.413   1.053
  764TIP3   OH223850   2.193   2.541   0.668
  764TIP3    H123851   2.269   2.533   0.611
  764TIP3    H223852   2.131   2.476   0.635
  765TIP3   OH223853   5.070   6.745   7.601
  765TIP3    H123854   5.151   6.707   7.565
  765TIP3    H223855   5.080   6.737   7.696
  766TIP3   OH223856   3.590   1.042   7.415
  766TIP3    H123857   3.629   1.007   7.335
  766TIP3    H223858   3.499   1.011   7.412
  767TIP3   OH223859   5.410   0.260   8.786
  767TIP3    H123860   5.392   0.287   8.696
  767TIP3    H223861   5.486   0.202   8.779
  768TIP3   OH223862   1.561   4.464   0.059
  768TIP3    H123863   1.492   4.461   8.868
  768TIP3    H223864   1.517   4.445   0.142
  769TIP3   OH223865   0.656   0.844   6.770
  769TIP3    H123866   0.584   0.798   6.812
  769TIP3    H223867   0.619   0.877   6.688
  770TIP3   OH223868   2.537   3.247   0.372
  770TIP3    H123869   2.498   3.172   0.418
  770TIP3    H223870   2.612   3.209   0.326
  771TIP3   OH223871   2.691   2.371   8.069
  771TIP3    H123872   2.766   2.413   8.027
  771TIP3    H223873   2.618   2.430   8.051
  772TIP3   OH223874   4.535   6.721   2.389
  772TIP3    H123875   4.517   6.669   2.311
  772TIP3    H223876   4.584   6.662   2.446
  773TIP3   OH223877   5.316   5.324   8.320
  773TIP3    H123878   5.294   5.403   8.271
  773TIP3    H223879   5.404   5.342   8.353
  774TIP3   OH223880   0.072   3.872   0.222
  774TIP3    H123881   0.067   3.967   0.214
  774TIP3    H223882   0.037   3.853   0.309
  775TIP3   OH223883   1.210   1.328   0.494
  775TIP3    H123884   1.234   1.389   0.425
  775TIP3    H223885   1.118   1.346   0.512
  776TIP3   OH223886   1.171   5.039   7.756
  776TIP3    H123887   1.155   4.945   7.757
  776TIP3    H223888   1.085   5.078   7.777
  777TIP3   OH223889   1.152   3.650   6.082
  777TIP3    H123890   1.137   3.571   6.029
  777TIP3    H223891   1.153   3.619   6.172
  778TIP3   OH223892   2.270   4.383   8.113
  778TIP3    H123893   2.201   4.440   8.149
  778TIP3    H223894   2.309   4.342   8.190
  779TIP3   OH223895   5.549   2.420   7.340
  779TIP3    H123896   5.612   2.414   7.413
  779TIP3    H223897   5.582   2.358   7.275
  780TIP3   OH223898   4.690   6.754   0.348
  780TIP3    H123899   4.660   6.670   0.383
  780TIP3    H223900   4.616   0.017   0.362
  781TIP3   OH223901   3.889   0.164   7.517
  781TIP3    H123902   3.867   0.072   7.506
  781TIP3    H223903   3.937   0.168   7.600
  782TIP3   OH223904   6.647   6.190   8.650
  782TIP3    H123905   6.590   6.157   8.719
  782TIP3    H223906   6.676   6.275   8.681
  783TIP3   OH223907   5.470   0.812   2.176
  783TIP3    H123908   5.565   0.820   2.171
  783TIP3    H223909   5.453   0.769   2.260
  784TIP3   OH223910   6.125   6.761   7.657
  784TIP3    H123911   6.174   6.679   7.666
  784TIP3    H223912   6.127   6.779   7.563
  785TIP3   OH223913   1.275   1.020   7.409
  785TIP3    H123914   1.297   0.943   7.356
  785TIP3    H223915   1.292   1.094   7.351
  786TIP3   OH223916   3.550   5.124   8.020
  786TIP3    H123917   3.499   5.060   8.069
  786TIP3    H223918   3.559   5.085   7.933
  787TIP3   OH223919   5.886   5.888   1.781
  787TIP3    H123920   5.798   5.919   1.762
  787TIP3    H223921   5.915   5.846   1.700
  788TIP3   OH223922   4.676   0.342   7.183
  788TIP3    H123923   4.675   0.295   7.099
  788TIP3    H223924   4.588   0.378   7.190
  789TIP3   OH223925   5.992   6.001   6.871
  789TIP3    H123926   5.911   6.031   6.830
  789TIP3    H223927   6.051   5.984   6.798
  790TIP3   OH223928   5.364   1.202   7.686
  790TIP3    H123929   5.441   1.148   7.671
  790TIP3    H223930   5.321   1.164   7.762
  791TIP3   OH223931   1.722   0.844   1.900
  791TIP3    H123932   1.804   0.835   1.948
  791TIP3    H223933   1.660   0.790   1.949
  792TIP3   OH223934   0.533   0.241   6.790
  792TIP3    H123935   0.515   0.319   6.842
  792TIP3    H223936   0.544   0.171   6.854
  793TIP3   OH223937   6.142   2.204   0.238
  793TIP3    H123938   6.168   2.224   0.148
  793TIP3    H223939   6.125   2.289   0.278
  794TIP3   OH223940   6.301   4.592   8.202
  794TIP3    H123941   6.318   4.639   8.283
  794TIP3    H223942   6.253   4.514   8.229
  795TIP3   OH223943   5.827   2.373   1.384
  795TIP3    H123944   5.910   2.407   1.418
  795TIP3    H223945   5.842   2.362   1.290
  796TIP3   OH223946   1.954   1.054   7.694
  796TIP3    H123947   1.870   1.043   7.650
  796TIP3    H223948   1.964   0.975   7.747
  797TIP3   OH223949   2.501   3.514   0.370
  797TIP3    H123950   2.528   3.423   0.386
  797TIP3    H223951   2.406   3.513   0.379
  798TIP3   OH223952   6.176   1.996   0.445
  798TIP3    H123953   6.249   1.946   0.409
  798TIP3    H223954   6.165   2.069   0.383
  799TIP3   OH223955   2.583   5.147   8.756
  799TIP3    H123956   2.523   5.121   8.826
  799TIP3    H223957   2.616   5.232   8.783
  800TIP3   OH223958   5.751   0.162   8.188
  800TIP3    H123959   5.826   0.125   8.234
  800TIP3    H223960   5.737   0.102   8.114
  801TIP3   OH223961   5.338   4.655   8.374
  801TIP3    H123962   5.345   4.562   8.396
  801TIP3    H223963   5.328   4.699   8.458
  802TIP3   OH223964   0.716   3.268   0.902
  802TIP3    H123965   0.772   3.195   0.928
  802TIP3    H223966   0.656   3.230   0.838
  803TIP3   OH223967   3.418   5.849   2.439
  803TIP3    H123968   3.329   5.827   2.467
  803TIP3    H223969   3.412   5.941   2.411
  804TIP3   OH223970   5.732   6.041   8.636
  804TIP3    H123971   5.681   6.028   8.716
  804TIP3    H223972   5.794   5.968   8.636
  805TIP3   OH223973   5.194   6.790   1.385
  805TIP3    H123974   5.238   0.054   1.445
  805TIP3    H223975   5.257   6.720   1.372
  806TIP3   OH223976   3.263   3.927   1.326
  806TIP3    H123977   3.354   3.943   1.351
  806TIP3    H223978   3.246   3.991   1.256
  807TIP3   OH223979   6.314   5.346   8.694
  807TIP3    H123980   6.282   5.264   8.732
  807TIP3    H223981   6.270   5.352   8.609
  808TIP3   OH223982   4.272   4.815   1.334
  808TIP3    H123983   4.244   4.874   1.404
  808TIP3    H223984   4.360   4.787   1.361
  809TIP3   OH223985   4.656   2.401   8.691
  809TIP3    H123986   4.632   2.463   8.761
  809TIP3    H223987   4.642   2.315   8.730
  810TIP3   OH223988   4.196   0.745   6.715
  810TIP3    H123989   4.181   0.773   6.805
  810TIP3    H223990   4.211   0.825   6.666
  811TIP3   OH223991   6.626   2.407   7.019
  811TIP3    H123992   6.721   2.420   7.025
  811TIP3    H223993   6.614   2.361   6.936
  812TIP3   OH223994   0.818   1.391   8.203
  812TIP3    H123995   0.742   1.414   8.257
  812TIP3    H223996   0.799   1.302   8.172
  813TIP3   OH223997   1.452   0.161   0.852
  813TIP3    H123998   1.523   0.121   0.902
  813TIP3    H223999   1.494   0.195   0.773
  814TIP3   OH224000   0.973   0.759   0.278
  814TIP3    H124001   0.897   0.754   0.336
  814TIP3    H224002   0.992   0.668   0.255
  815TIP3   OH224003   0.281   4.469   0.522
  815TIP3    H124004   0.331   4.419   0.458
  815TIP3    H224005   0.261   4.407   0.592
  816TIP3   OH224006   5.718   1.960   7.863
  816TIP3    H124007   5.810   1.943   7.846
  816TIP3    H224008   5.702   2.046   7.825
  817TIP3   OH224009   6.331   2.678   0.543
  817TIP3    H124010   6.416   2.665   0.500
  817TIP3    H224011   6.352   2.693   0.635
  818TIP3   OH224012   3.308   5.727   0.760
  818TIP3    H124013   3.251   5.651   0.771
  818TIP3    H224014   3.380   5.712   0.820
  819TIP3   OH224015   3.488   2.553   1.268
  819TIP3    H124016   3.482   2.459   1.287
  819TIP3    H224017   3.523   2.591   1.349
  820TIP3   OH224018   5.573   5.190   7.095
  820TIP3    H124019   5.608   5.172   7.008
  820TIP3    H224020   5.478   5.189   7.084
  821TIP3   OH224021   4.544   5.528   6.877
  821TIP3    H124022   4.608   5.514   6.807
  821TIP3    H224023   4.460   5.507   6.837
  822TIP3   OH224024   4.139   5.421   7.649
  822TIP3    H124025   4.153   5.435   7.743
  822TIP3    H224026   4.045   5.403   7.641
  823TIP3   OH224027   4.407   4.354   1.154
  823TIP3    H124028   4.324   4.399   1.139
  823TIP3    H224029   4.383   4.277   1.205
  824TIP3   OH224030   5.424   0.442   1.576
  824TIP3    H124031   5.489   0.508   1.600
  824TIP3    H224032   5.404   0.397   1.658
  825TIP3   OH224033   0.918   2.878   0.585
  825TIP3    H124034   1.007   2.912   0.576
  825TIP3    H224035   0.927   2.801   0.641
  826TIP3   OH224036   0.716   2.531   7.514
  826TIP3    H124037   0.640   2.531   7.573
  826TIP3    H224038   0.683   2.493   7.433
  827TIP3   OH224039   4.700   0.325   0.329
  827TIP3    H124040   4.632   0.294   0.388
  827TIP3    H224041   4.674   0.293   0.242
  828TIP3   OH224042   2.590   3.982   1.567
  828TIP3    H124043   2.673   3.992   1.521
  828TIP3    H224044   2.607   4.015   1.655
  829TIP3   OH224045   0.823   4.722   7.948
  829TIP3    H124046   0.800   4.787   8.015
  829TIP3    H224047   0.880   4.661   7.994
  830TIP3   OH224048   5.589   3.131   0.530
  830TIP3    H124049   5.553   3.176   0.454
  830TIP3    H224050   5.657   3.075   0.494
  831TIP3   OH224051   3.706   4.222   7.139
  831TIP3    H124052   3.635   4.284   7.119
  831TIP3    H224053   3.734   4.246   7.227
  832TIP3   OH224054   0.344   1.647   1.002
  832TIP3    H124055   0.307   1.691   0.926
  832TIP3    H224056   0.397   1.714   1.045
  833TIP3   OH224057   1.492   4.309   7.355
  833TIP3    H124058   1.490   4.400   7.324
  833TIP3    H224059   1.517   4.316   7.447
  834TIP3   OH224060   2.245   6.047   1.184
  834TIP3    H124061   2.243   6.138   1.155
  834TIP3    H224062   2.154   6.017   1.175
  835TIP3   OH224063   6.436   1.677   1.933
  835TIP3    H124064   6.435   1.632   1.849
  835TIP3    H224065   6.463   1.610   1.996
  836TIP3   OH224066   5.660   0.399   7.675
  836TIP3    H124067   5.685   0.356   7.756
  836TIP3    H224068   5.738   0.448   7.648
  837TIP3   OH224069   0.682   5.770   1.046
  837TIP3    H124070   0.603   5.816   1.074
  837TIP3    H224071   0.731   5.752   1.126
  838TIP3   OH224072   0.714   0.305   8.787
  838TIP3    H124073   0.648   0.293   8.855
  838TIP3    H224074   0.755   0.389   8.808
  839TIP3   OH224075   3.531   4.385   1.246
  839TIP3    H124076   3.456   4.439   1.221
  839TIP3    H224077   3.532   4.386   1.341
  840TIP3   OH224078   5.812   6.225   8.451
  840TIP3    H124079   5.850   6.309   8.474
  840TIP3    H224080   5.762   6.199   8.529
  841TIP3   OH224081   0.015   2.074   1.711
  841TIP3    H124082   0.002   2.154   1.762
  841TIP3    H224083   6.727   2.029   1.715
  842TIP3   OH224084   6.068   3.271   0.338
  842TIP3    H124085   6.066   3.307   0.249
  842TIP3    H224086   5.976   3.264   0.363
  843TIP3   OH224087   6.533   1.799   7.628
  843TIP3    H124088   6.603   1.733   7.624
  843TIP3    H224089   6.554   1.850   7.707
  844TIP3   OH224090   4.984   1.883   7.804
  844TIP3    H124091   4.954   1.970   7.828
  844TIP3    H224092   5.065   1.870   7.854
  845TIP3   OH224093   0.128   3.583   1.814
  845TIP3    H124094   0.200   3.614   1.868
  845TIP3    H224095   0.049   3.602   1.865
  846TIP3   OH224096   3.384   0.042   8.630
  846TIP3    H124097   3.321   0.099   8.674
  846TIP3    H224098   3.354   6.750   8.648
  847TIP3   OH224099   3.298   4.182   7.259
  847TIP3    H124100   3.337   4.250   7.315
  847TIP3    H224101   3.297   4.104   7.313
  848TIP3   OH224102   1.170   2.656   1.286
  848TIP3    H124103   1.264   2.663   1.299
  848TIP3    H224104   1.153   2.562   1.275
  849TIP3   OH224105   5.227   2.003   6.873
  849TIP3    H124106   5.165   2.070   6.902
  849TIP3    H224107   5.307   2.051   6.853
  850TIP3   OH224108   1.658   2.906   7.601
  850TIP3    H124109   1.663   2.933   7.693
  850TIP3    H224110   1.646   2.811   7.605
  851TIP3   OH224111   3.583   2.240   0.091
  851TIP3    H124112   3.671   2.253   0.125
  851TIP3    H224113   3.573   2.305   0.022
  852TIP3   OH224114   5.260   3.118   8.120
  852TIP3    H124115   5.272   3.118   8.215
  852TIP3    H224116   5.166   3.125   8.108
  853TIP3   OH224117   6.164   4.885   8.051
  853TIP3    H124118   6.187   4.976   8.029
  853TIP3    H224119   6.185   4.835   7.973
  854TIP3   OH224120   4.543   6.635   1.940
  854TIP3    H124121   4.483   6.686   1.886
  854TIP3    H224122   4.495   6.620   2.021
  855TIP3   OH224123   5.078   6.687   0.941
  855TIP3    H124124   5.161   6.672   0.896
  855TIP3    H224125   5.057   6.779   0.922
  856TIP3   OH224126   1.597   3.476   7.260
  856TIP3    H124127   1.682   3.519   7.246
  856TIP3    H224128   1.617   3.383   7.266
  857TIP3   OH224129   4.919   6.142   7.750
  857TIP3    H124130   4.873   6.105   7.825
  857TIP3    H224131   4.928   6.069   7.689
  858TIP3   OH224132   2.717   4.561   8.328
  858TIP3    H124133   2.645   4.591   8.384
  858TIP3    H224134   2.796   4.583   8.376
  859TIP3   OH224135   6.376   2.579   0.147
  859TIP3    H124136   6.333   2.496   0.166
  859TIP3    H224137   6.466   2.556   0.128
  860TIP3   OH224138   2.695   3.119   8.521
  860TIP3    H124139   2.654   3.198   8.485
  860TIP3    H224140   2.734   3.148   8.604
  861TIP3   OH224141   6.116   1.421   0.718
  861TIP3    H124142   6.096   1.433   0.625
  861TIP3    H224143   6.102   1.328   0.734
  862TIP3   OH224144   3.484   2.063   2.029
  862TIP3    H124145   3.545   2.005   2.075
  862TIP3    H224146   3.465   2.132   2.092
  863TIP3   OH224147   6.453   3.473   1.435
  863TIP3    H124148   6.428   3.417   1.362
  863TIP3    H224149   6.460   3.413   1.510
  864TIP3   OH224150   2.810   2.596   7.126
  864TIP3    H124151   2.836   2.584   7.217
  864TIP3    H224152   2.779   2.510   7.097
  865TIP3   OH224153   5.244   6.380   2.680
  865TIP3    H124154   5.211   6.290   2.676
  865TIP3    H224155   5.191   6.427   2.616
  866TIP3   OH224156   0.606   3.619   8.368
  866TIP3    H124157   0.600   3.526   8.346
  866TIP3    H224158   0.670   3.623   8.439
  867TIP3   OH224159   4.117   4.926   0.966
  867TIP3    H124160   4.100   4.832   0.969
  867TIP3    H224161   4.074   4.956   0.886
  868TIP3   OH224162   2.409   2.946   8.553
  868TIP3    H124163   2.444   3.035   8.557
  868TIP3    H224164   2.314   2.957   8.554
  869TIP3   OH224165   1.964   4.038   7.526
  869TIP3    H124166   2.019   3.978   7.475
  869TIP3    H224167   1.880   3.994   7.533
  870TIP3   OH224168   5.564   1.554   1.704
  870TIP3    H124169   5.560   1.619   1.634
  870TIP3    H224170   5.527   1.599   1.780
  871TIP3   OH224171   1.914   2.222   8.663
  871TIP3    H124172   1.936   2.236   8.571
  871TIP3    H224173   1.998   2.204   8.705
  872TIP3   OH224174   2.604   4.545   8.785
  872TIP3    H124175   2.554   4.596   8.849
  872TIP3    H224176   2.621   4.607   8.714
  873TIP3   OH224177   1.648   1.859   6.904
  873TIP3    H124178   1.726   1.836   6.853
  873TIP3    H224179   1.658   1.811   6.986
  874TIP3   OH224180   2.586   0.193   0.658
  874TIP3    H124181   2.492   0.172   0.656
  874TIP3    H224182   2.605   0.210   0.750
  875TIP3   OH224183   0.288   4.778   2.282
  875TIP3    H124184   0.219   4.721   2.247
  875TIP3    H224185   0.355   4.717   2.314
  876TIP3   OH224186   1.700   5.816   7.980
  876TIP3    H124187   1.671   5.745   8.036
  876TIP3    H224188   1.719   5.774   7.896
  877TIP3   OH224189   0.612   4.923   0.062
  877TIP3    H124190   0.566   4.843   0.089
  877TIP3    H224191   0.679   4.935   0.129
  878TIP3   OH224192   6.724   1.866   8.628
  878TIP3    H124193   6.776   1.925   8.683
  878TIP3    H224194   6.760   1.779   8.647
  879TIP3   OH224195   6.721   3.904   0.690
  879TIP3    H124196   6.735   3.998   0.686
  879TIP3    H224197   6.773   3.875   0.765
  880TIP3   OH224198   4.387   0.779   1.648
  880TIP3    H124199   4.382   0.707   1.711
  880TIP3    H224200   4.370   0.738   1.563
  881TIP3   OH224201   2.709   3.284   1.506
  881TIP3    H124202   2.753   3.201   1.487
  881TIP3    H224203   2.763   3.351   1.463
  882TIP3   OH224204   1.453   2.989   8.763
  882TIP3    H124205   1.371   3.029   8.736
  882TIP3    H224206   1.498   3.057   8.813
  883TIP3   OH224207   4.879   2.723   0.365
  883TIP3    H124208   4.971   2.748   0.373
  883TIP3    H224209   4.869   2.648   0.424
  884TIP3   OH224210   1.544   5.767   6.654
  884TIP3    H124211   1.495   5.790   6.733
  884TIP3    H224212   1.499   5.815   6.584
  885TIP3   OH224213   4.268   1.278   2.354
  885TIP3    H124214   4.274   1.373   2.338
  885TIP3    H224215   4.303   1.239   2.274
  886TIP3   OH224216   2.936   0.703   0.884
  886TIP3    H124217   2.843   0.725   0.891
  886TIP3    H224218   2.979   0.755   0.952
  887TIP3   OH224219   1.012   4.725   7.592
  887TIP3    H124220   1.056   4.744   7.674
  887TIP3    H224221   1.080   4.687   7.536
  888TIP3   OH224222   5.928   4.821   7.279
  888TIP3    H124223   5.931   4.780   7.193
  888TIP3    H224224   5.900   4.911   7.261
  889TIP3   OH224225   1.755   1.304   7.458
  889TIP3    H124226   1.788   1.287   7.370
  889TIP3    H224227   1.680   1.244   7.467
  890TIP3   OH224228   6.069   2.429   1.627
  890TIP3    H124229   6.143   2.414   1.686
  890TIP3    H224230   6.105   2.484   1.557
  891TIP3   OH224231   3.020   0.690   0.546
  891TIP3    H124232   2.978   0.735   0.472
  891TIP3    H224233   2.955   0.694   0.616
  892TIP3   OH224234   3.598   6.326   2.308
  892TIP3    H124235   3.684   6.353   2.276
  892TIP3    H224236   3.617   6.253   2.367
  893TIP3   OH224237   2.812   1.541   8.391
  893TIP3    H124238   2.782   1.466   8.443
  893TIP3    H224239   2.870   1.590   8.450
  894TIP3   OH224240   4.997   2.846   7.499
  894TIP3    H124241   4.985   2.877   7.409
  894TIP3    H224242   4.908   2.838   7.533
  895TIP3   OH224243   6.102   4.401   8.034
  895TIP3    H124244   6.107   4.357   8.118
  895TIP3    H224245   6.058   4.484   8.053
  896TIP3   OH224246   0.324   0.410   0.626
  896TIP3    H124247   0.281   0.346   0.568
  896TIP3    H224248   0.267   0.414   0.703
  897TIP3   OH224249   5.181   2.223   8.686
  897TIP3    H124250   5.193   2.152   8.624
  897TIP3    H224251   5.123   2.187   8.754
  898TIP3   OH224252   3.085   1.292   7.587
  898TIP3    H124253   3.074   1.222   7.652
  898TIP3    H224254   3.124   1.364   7.636
  899TIP3   OH224255   5.163   2.357   7.893
  899TIP3    H124256   5.249   2.372   7.855
  899TIP3    H224257   5.170   2.391   7.982
  900TIP3   OH224258   5.926   4.230   1.587
  900TIP3    H124259   5.905   4.141   1.613
  900TIP3    H224260   5.973   4.267   1.662
  901TIP3   OH224261   2.084   1.236   8.383
  901TIP3    H124262   2.115   1.145   8.382
  901TIP3    H224263   2.054   1.251   8.293
  902TIP3   OH224264   6.554   3.667   6.715
  902TIP3    H124265   6.502   3.627   6.645
  902TIP3    H224266   6.619   3.721   6.669
  903TIP3   OH224267   3.485   3.269   6.866
  903TIP3    H124268   3.536   3.197   6.903
  903TIP3    H224269   3.526   3.286   6.781
  904TIP3   OH224270   4.710   6.117   1.726
  904TIP3    H124271   4.619   6.122   1.697
  904TIP3    H224272   4.762   6.146   1.651
  905TIP3   OH224273   4.531   3.246   7.512
  905TIP3    H124274   4.488   3.200   7.440
  905TIP3    H224275   4.586   3.312   7.469
  906TIP3   OH224276   4.029   6.360   8.509
  906TIP3    H124277   3.971   6.408   8.451
  906TIP3    H224278   3.971   6.313   8.568
  907TIP3   OH224279   2.018   2.278   1.581
  907TIP3    H124280   2.105   2.242   1.566
  907TIP3    H224281   1.982   2.224   1.651
  908TIP3   OH224282   0.864   1.943   7.450
  908TIP3    H124283   0.944   1.995   7.452
  908TIP3    H224284   0.843   1.934   7.357
  909TIP3   OH224285   5.773   0.787   8.264
  909TIP3    H124286   5.711   0.726   8.303
  909TIP3    H224287   5.722   0.833   8.197
  910TIP3   OH224288   0.835   1.436   0.313
  910TIP3    H124289   0.864   1.373   0.379
  910TIP3    H224290   0.802   1.382   0.241
  911TIP3   OH224291   2.857   3.433   6.796
  911TIP3    H124292   2.916   3.362   6.819
  911TIP3    H224293   2.886   3.462   6.710
  912TIP3   OH224294   6.613   0.711   7.013
  912TIP3    H124295   6.607   0.719   6.918
  912TIP3    H224296   6.693   0.659   7.027
  913TIP3   OH224297   5.097   2.049   0.564
  913TIP3    H124298   5.101   1.958   0.593
  913TIP3    H224299   5.047   2.047   0.482
  914TIP3   OH224300   3.093   3.716   8.138
  914TIP3    H124301   3.092   3.748   8.228
  914TIP3    H224302   3.182   3.732   8.108
  915TIP3   OH224303   1.518   3.779   1.573
  915TIP3    H124304   1.593   3.834   1.547
  915TIP3    H224305   1.513   3.789   1.668
  916TIP3   OH224306   1.561   6.718   8.713
  916TIP3    H124307   1.608   0.005   8.712
  916TIP3    H224308   1.494   6.729   8.780
  917TIP3   OH224309   2.057   4.133   0.855
  917TIP3    H124310   2.029   4.224   0.861
  917TIP3    H224311   2.085   4.111   0.944
  918TIP3   OH224312   4.336   4.653   7.434
  918TIP3    H124313   4.383   4.674   7.353
  918TIP3    H224314   4.350   4.559   7.445
  919TIP3   OH224315   3.087   2.865   7.063
  919TIP3    H124316   3.076   2.772   7.043
  919TIP3    H224317   3.116   2.867   7.154
  920TIP3   OH224318   3.187   5.698   1.575
  920TIP3    H124319   3.248   5.626   1.560
  920TIP3    H224320   3.133   5.701   1.495
  921TIP3   OH224321   0.406   4.373   0.275
  921TIP3    H124322   0.494   4.359   0.242
  921TIP3    H224323   0.352   4.385   0.197
  922TIP3   OH224324   4.712   1.303   0.020
  922TIP3    H124325   4.712   1.209   0.007
  922TIP3    H224326   4.695   1.314   0.114
  923TIP3   OH224327   3.052   6.291   0.230
  923TIP3    H124328   3.010   6.333   0.156
  923TIP3    H224329   3.046   6.356   0.301
  924TIP3   OH224330   2.544   5.275   8.290
  924TIP3    H124331   2.595   5.194   8.290
  924TIP3    H224332   2.453   5.247   8.280
  925TIP3   OH224333   3.019   2.904   2.143
  925TIP3    H124334   2.983   2.968   2.205
  925TIP3    H224335   3.114   2.914   2.151
  926TIP3   OH224336   5.166   0.675   1.866
  926TIP3    H124337   5.144   0.765   1.843
  926TIP3    H224338   5.179   0.677   1.961
  927TIP3   OH224339   4.459   6.173   0.273
  927TIP3    H124340   4.379   6.125   0.250
  927TIP3    H224341   4.487   6.213   0.191
  928TIP3   OH224342   6.788   3.449   2.214
  928TIP3    H124343   6.708   3.399   2.234
  928TIP3    H224344   0.015   3.489   2.298
  929TIP3   OH224345   3.851   3.976   0.232
  929TIP3    H124346   3.881   4.047   0.175
  929TIP3    H224347   3.755   3.981   0.228
  930TIP3   OH224348   0.656   1.604   6.762
  930TIP3    H124349   0.568   1.568   6.768
  930TIP3    H224350   0.648   1.678   6.703
  931TIP3   OH224351   4.726   0.497   1.619
  931TIP3    H124352   4.751   0.408   1.643
  931TIP3    H224353   4.714   0.543   1.703
  932TIP3   OH224354   0.155   5.035   8.125
  932TIP3    H124355   0.186   5.093   8.056
  932TIP3    H224356   0.176   4.947   8.093
  933TIP3   OH224357   1.667   0.017   0.740
  933TIP3    H124358   1.618   6.790   0.819
  933TIP3    H224359   1.610   6.788   0.667
  934TIP3   OH224360   1.747   4.666   0.057
  934TIP3    H124361   1.713   4.580   0.083
  934TIP3    H224362   1.746   4.718   0.137
  935TIP3   OH224363   6.753   5.010   7.743
  935TIP3    H124364   0.041   4.984   7.707
  935TIP3    H224365   6.762   5.104   7.761
  936TIP3   OH224366   5.599   1.728   1.463
  936TIP3    H124367   5.649   1.666   1.411
  936TIP3    H224368   5.541   1.771   1.401
  937TIP3   OH224369   4.368   3.260   1.119
  937TIP3    H124370   4.321   3.339   1.145
  937TIP3    H224371   4.390   3.217   1.202
  938TIP3   OH224372   5.501   5.755   7.322
  938TIP3    H124373   5.461   5.668   7.316
  938TIP3    H224374   5.434   5.814   7.287
  939TIP3   OH224375   5.353   3.891   1.141
  939TIP3    H124376   5.277   3.942   1.112
  939TIP3    H224377   5.395   3.862   1.060
  940TIP3   OH224378   0.859   1.067   7.949
  940TIP3    H124379   0.791   1.081   7.883
  940TIP3    H224380   0.941   1.070   7.899
  941TIP3   OH224381   4.994   3.667   8.847
  941TIP3    H124382   5.046   3.726   8.791
  941TIP3    H224383   4.903   3.687   8.823
  942TIP3   OH224384   2.134   3.557   7.626
  942TIP3    H124385   2.074   3.485   7.611
  942TIP3    H224386   2.140   3.564   7.722
  943TIP3   OH224387   3.199   3.659   0.804
  943TIP3    H124388   3.177   3.603   0.879
  943TIP3    H224389   3.293   3.673   0.812
  944TIP3   OH224390   0.155   1.847   7.486
  944TIP3    H124391   0.098   1.918   7.515
  944TIP3    H224392   0.122   1.824   7.399
  945TIP3   OH224393   1.053   0.117   0.703
  945TIP3    H124394   0.979   0.141   0.647
  945TIP3    H224395   1.034   0.158   0.787
  946TIP3   OH224396   3.031   3.072   0.712
  946TIP3    H124397   3.105   3.129   0.692
  946TIP3    H224398   3.070   3.001   0.764
  947TIP3   OH224399   6.338   2.843   0.188
  947TIP3    H124400   6.354   2.749   0.194
  947TIP3    H224401   6.269   2.860   0.251
  948TIP3   OH224402   1.188   3.907   7.155
  948TIP3    H124403   1.132   3.837   7.190
  948TIP3    H224404   1.249   3.925   7.226
  949TIP3   OH224405   1.100   5.634   8.151
  949TIP3    H124406   1.171   5.658   8.091
  949TIP3    H224407   1.020   5.645   8.099
  950TIP3   OH224408   3.937   1.578   7.605
  950TIP3    H124409   3.882   1.508   7.641
  950TIP3    H224410   3.908   1.587   7.514
  951TIP3   OH224411   0.972   5.326   0.174
  951TIP3    H124412   0.960   5.370   0.089
  951TIP3    H224413   1.065   5.302   0.175
  952TIP3   OH224414   1.170   2.895   0.487
  952TIP3    H124415   1.205   2.814   0.524
  952TIP3    H224416   1.211   2.965   0.537
  953TIP3   OH224417   0.769   4.775   1.763
  953TIP3    H124418   0.821   4.698   1.787
  953TIP3    H224419   0.815   4.812   1.688
  954TIP3   OH224420   5.051   2.870   8.266
  954TIP3    H124421   5.096   2.932   8.324
  954TIP3    H224422   5.019   2.924   8.194
  955TIP3   OH224423   1.816   1.389   1.298
  955TIP3    H124424   1.822   1.379   1.203
  955TIP3    H224425   1.740   1.336   1.322
  956TIP3   OH224426   4.284   0.970   8.307
  956TIP3    H124427   4.355   1.025   8.276
  956TIP3    H224428   4.298   0.965   8.402
  957TIP3   OH224429   2.767   1.326   1.679
  957TIP3    H124430   2.819   1.326   1.759
  957TIP3    H224431   2.801   1.401   1.629
  958TIP3   OH224432   6.736   1.617   8.760
  958TIP3    H124433   6.768   1.583   8.843
  958TIP3    H224434   6.683   1.546   8.724
  959TIP3   OH224435   1.605   4.920   0.745
  959TIP3    H124436   1.569   4.926   0.657
  959TIP3    H224437   1.554   4.983   0.797
  960TIP3   OH224438   3.288   0.361   1.693
  960TIP3    H124439   3.266   0.296   1.626
  960TIP3    H224440   3.238   0.439   1.669
  961TIP3   OH224441   2.055   4.763   8.467
  961TIP3    H124442   2.044   4.830   8.534
  961TIP3    H224443   1.995   4.693   8.492
  962TIP3   OH224444   6.527   0.189   0.315
  962TIP3    H124445   6.433   0.193   0.337
  962TIP3    H224446   6.568   0.155   0.395
  963TIP3   OH224447   0.376   0.536   8.080
  963TIP3    H124448   0.380   0.524   7.985
  963TIP3    H224449   0.295   0.493   8.106
  964TIP3   OH224450   6.726   0.292   1.562
  964TIP3    H124451   6.691   0.234   1.495
  964TIP3    H224452   0.025   0.282   1.555
  965TIP3   OH224453   0.064   1.748   1.849
  965TIP3    H124454   0.127   1.791   1.793
  965TIP3    H224455   0.031   1.674   1.797
  966TIP3   OH224456   4.537   6.186   7.323
  966TIP3    H124457   4.480   6.198   7.399
  966TIP3    H224458   4.620   6.227   7.349
  967TIP3   OH224459   4.232   5.157   7.578
  967TIP3    H124460   4.199   5.099   7.647
  967TIP3    H224461   4.245   5.242   7.621
  968TIP3   OH224462   3.988   3.956   6.479
  968TIP3    H124463   3.928   4.006   6.424
  968TIP3    H224464   4.035   4.022   6.530
  969TIP3   OH224465   5.095   4.920   8.603
  969TIP3    H124466   5.157   4.983   8.567
  969TIP3    H224467   5.059   4.876   8.527
  970TIP3   OH224468   5.273   5.821   0.375
  970TIP3    H124469   5.179   5.826   0.395
  970TIP3    H224470   5.313   5.886   0.433
  971TIP3   OH224471   5.643   0.194   0.656
  971TIP3    H124472   5.691   0.271   0.625
  971TIP3    H224473   5.672   0.182   0.746
  972TIP3   OH224474   6.094   1.354   6.779
  972TIP3    H124475   6.163   1.396   6.829
  972TIP3    H224476   6.041   1.309   6.844
  973TIP3   OH224477   0.205   1.712   0.101
  973TIP3    H124478   0.269   1.647   0.072
  973TIP3    H224479   0.164   1.743   0.021
  974TIP3   OH224480   3.703   0.835   0.558
  974TIP3    H124481   3.695   0.845   0.653
  974TIP3    H224482   3.701   0.741   0.544
  975TIP3   OH224483   5.889   5.291   8.118
  975TIP3    H124484   5.930   5.373   8.089
  975TIP3    H224485   5.797   5.300   8.095
  976TIP3   OH224486   2.862   3.396   0.070
  976TIP3    H124487   2.943   3.361   0.105
  976TIP3    H224488   2.797   3.328   0.086
  977TIP3   OH224489   2.869   4.752   7.367
  977TIP3    H124490   2.854   4.703   7.286
  977TIP3    H224491   2.813   4.709   7.432
  978TIP3   OH224492   3.275   6.246   8.390
  978TIP3    H124493   3.338   6.289   8.447
  978TIP3    H224494   3.329   6.194   8.330
  979TIP3   OH224495   0.434   4.283   1.103
  979TIP3    H124496   0.397   4.216   1.160
  979TIP3    H224497   0.523   4.253   1.085
  980TIP3   OH224498   1.200   2.628   1.702
  980TIP3    H124499   1.189   2.622   1.797
  980TIP3    H224500   1.112   2.649   1.669
  981TIP3   OH224501   6.754   6.776   8.000
  981TIP3    H124502   6.782   6.774   8.091
  981TIP3    H224503   6.720   0.068   7.987
  982TIP3   OH224504   0.793   3.610   0.089
  982TIP3    H124505   0.766   3.581   0.003
  982TIP3    H224506   0.811   3.703   0.079
  983TIP3   OH224507   6.041   3.369   7.556
  983TIP3    H124508   6.029   3.345   7.648
  983TIP3    H224509   6.088   3.295   7.518
  984TIP3   OH224510   0.301   2.109   1.857
  984TIP3    H124511   0.314   2.204   1.858
  984TIP3    H224512   0.222   2.097   1.805
  985TIP3   OH224513   1.199   2.061   7.962
  985TIP3    H124514   1.107   2.040   7.972
  985TIP3    H224515   1.230   2.004   7.892
  986TIP3   OH224516   5.267   0.415   7.050
  986TIP3    H124517   5.262   0.488   6.989
  986TIP3    H224518   5.359   0.391   7.052
  987TIP3   OH224519   0.605   1.512   7.982
  987TIP3    H124520   0.682   1.464   7.952
  987TIP3    H224521   0.539   1.443   7.997
  988TIP3   OH224522   3.864   0.707   0.993
  988TIP3    H124523   3.793   0.643   0.993
  988TIP3    H224524   3.927   0.673   1.056
  989TIP3   OH224525   4.696   3.113   2.778
  989TIP3    H124526   4.758   3.043   2.796
  989TIP3    H224527   4.695   3.166   2.858
  990TIP3   OH224528   0.778   6.295   6.561
  990TIP3    H124529   0.848   6.359   6.544
  990TIP3    H224530   0.699   6.349   6.572
  991TIP3   OH224531   1.054   4.843   2.415
  991TIP3    H124532   1.095   4.802   2.339
  991TIP3    H224533   0.977   4.887   2.380
  992TIP3   OH224534   0.938   2.589   1.606
  992TIP3    H124535   0.905   2.577   1.694
  992TIP3    H224536   0.879   2.653   1.566
  993TIP3   OH224537   0.694   4.781   8.229
  993TIP3    H124538   0.659   4.721   8.295
  993TIP3    H224539   0.629   4.780   8.159
  994TIP3   OH224540   3.318   0.758   1.998
  994TIP3    H124541   3.285   0.848   1.985
  994TIP3    H224542   3.240   0.707   2.016
  995TIP3   OH224543   0.521   3.324   2.228
  995TIP3    H124544   0.472   3.402   2.253
  995TIP3    H224545   0.486   3.300   2.142
  996TIP3   OH224546   5.829   1.120   8.295
  996TIP3    H124547   5.802   1.030   8.278
  996TIP3    H224548   5.753   1.159   8.339
  997TIP3   OH224549   1.389   3.852   8.271
  997TIP3    H124550   1.388   3.850   8.175
  997TIP3    H224551   1.481   3.839   8.294
  998TIP3   OH224552   4.511   1.080   8.192
  998TIP3    H124553   4.470   1.127   8.119
  998TIP3    H224554   4.552   1.149   8.244
  999TIP3   OH224555   1.868   4.372   8.183
  999TIP3    H124556   1.861   4.351   8.276
  999TIP3    H224557   1.809   4.309   8.141
 1000TIP3   OH224558   1.321   3.399   8.247
 1000TIP3    H124559   1.280   3.322   8.287
 1000TIP3    H224560   1.269   3.416   8.169
 1001TIP3   OH224561   5.269   1.116   2.473
 1001TIP3    H124562   5.254   1.101   2.567
 1001TIP3    H224563   5.254   1.210   2.461
 1002TIP3   OH224564   0.081   1.632   8.261
 1002TIP3    H124565   0.149   1.649   8.326
 1002TIP3    H224566   0.124   1.647   8.177
 1003TIP3   OH224567   1.411   2.294   0.773
 1003TIP3    H124568   1.407   2.272   0.680
 1003TIP3    H224569   1.414   2.209   0.817
 1004TIP3   OH224570   6.313   4.800   8.429
 1004TIP3    H124571   6.248   4.858   8.388
 1004TIP3    H224572   6.397   4.837   8.403
 1005TIP3   OH224573   2.166   5.930   7.984
 1005TIP3    H124574   2.146   5.965   7.897
 1005TIP3    H224575   2.260   5.911   7.981
 1006TIP3   OH224576   6.253   1.137   1.367
 1006TIP3    H124577   6.254   1.232   1.361
 1006TIP3    H224578   6.263   1.107   1.277
 1007TIP3   OH224579   1.558   0.855   7.788
 1007TIP3    H124580   1.484   0.856   7.728
 1007TIP3    H224581   1.535   0.789   7.854
 1008TIP3   OH224582   2.979   3.319   7.482
 1008TIP3    H124583   2.965   3.354   7.394
 1008TIP3    H224584   3.015   3.392   7.532
 1009TIP3   OH224585   2.046   5.689   2.187
 1009TIP3    H124586   1.972   5.670   2.245
 1009TIP3    H224587   2.087   5.767   2.225
 1010TIP3   OH224588   5.610   6.427   2.958
 1010TIP3    H124589   5.665   6.491   3.003
 1010TIP3    H224590   5.533   6.477   2.930
 1011TIP3   OH224591   6.764   6.763   0.881
 1011TIP3    H124592   6.739   6.781   0.791
 1011TIP3    H224593   6.738   6.672   0.895
 1012TIP3   OH224594   1.897   0.172   0.340
 1012TIP3    H124595   1.857   0.173   0.427
 1012TIP3    H224596   1.989   0.193   0.355
 1013TIP3   OH224597   1.690   6.266   7.910
 1013TIP3    H124598   1.609   6.306   7.940
 1013TIP3    H224599   1.701   6.189   7.964
 1014TIP3   OH224600   0.771   4.785   7.688
 1014TIP3    H124601   0.860   4.774   7.654
 1014TIP3    H224602   0.779   4.763   7.781
 1015TIP3   OH224603   0.949   1.057   1.013
 1015TIP3    H124604   0.856   1.076   1.023
 1015TIP3    H224605   0.955   0.962   1.012
 1016TIP3   OH224606   6.696   2.848   7.447
 1016TIP3    H124607   6.686   2.766   7.399
 1016TIP3    H224608   6.747   2.904   7.388
 1017TIP3   OH224609   0.310   0.674   7.148
 1017TIP3    H124610   0.272   0.738   7.208
 1017TIP3    H224611   0.401   0.667   7.175
 1018TIP3   OH224612   3.292   3.258   0.385
 1018TIP3    H124613   3.345   3.260   0.305
 1018TIP3    H224614   3.349   3.220   0.451
 1019TIP3   OH224615   0.796   1.903   7.783
 1019TIP3    H124616   0.701   1.914   7.771
 1019TIP3    H224617   0.828   1.880   7.696
 1020TIP3   OH224618   1.262   4.445   1.655
 1020TIP3    H124619   1.192   4.509   1.669
 1020TIP3    H224620   1.331   4.472   1.716
 1021TIP3   OH224621   6.335   0.231   8.636
 1021TIP3    H124622   6.392   0.196   8.705
 1021TIP3    H224623   6.256   0.259   8.681
 1022TIP3   OH224624   3.795   2.968   1.194
 1022TIP3    H124625   3.708   2.966   1.153
 1022TIP3    H224626   3.795   3.048   1.246
 1023TIP3   OH224627   6.532   4.952   8.377
 1023TIP3    H124628   6.626   4.952   8.360
 1023TIP3    H224629   6.495   5.012   8.312
 1024TIP3   OH224630   6.115   5.231   8.260
 1024TIP3    H124631   6.190   5.273   8.217
 1024TIP3    H224632   6.041   5.248   8.201
 1025TIP3   OH224633   3.575   3.340   1.217
 1025TIP3    H124634   3.623   3.264   1.249
 1025TIP3    H224635   3.597   3.410   1.278
 1026TIP3   OH224636   2.623   6.247   7.699
 1026TIP3    H124637   2.580   6.173   7.657
 1026TIP3    H224638   2.575   6.324   7.667
 1027TIP3   OH224639   6.493   0.630   1.220
 1027TIP3    H124640   6.521   0.599   1.305
 1027TIP3    H224641   6.559   0.695   1.195
 1028TIP3   OH224642   3.794   4.881   2.244
 1028TIP3    H124643   3.818   4.947   2.310
 1028TIP3    H224644   3.716   4.839   2.280
 1029TIP3   OH224645   1.135   0.846   8.347
 1029TIP3    H124646   1.040   0.855   8.344
 1029TIP3    H224647   1.162   0.892   8.427
 1030TIP3   OH224648   1.219   4.489   1.378
 1030TIP3    H124649   1.237   4.404   1.417
 1030TIP3    H224650   1.255   4.552   1.440
 1031TIP3   OH224651   5.736   0.770   0.247
 1031TIP3    H124652   5.667   0.789   0.184
 1031TIP3    H224653   5.794   0.846   0.244
 1032TIP3   OH224654   3.053   0.487   0.011
 1032TIP3    H124655   2.998   0.535   0.073
 1032TIP3    H224656   3.009   0.403   0.000
 1033TIP3   OH224657   0.677   0.737   8.551
 1033TIP3    H124658   0.599   0.769   8.596
 1033TIP3    H224659   0.656   0.747   8.458
 1034TIP3   OH224660   0.067   2.210   0.567
 1034TIP3    H124661   0.137   2.246   0.513
 1034TIP3    H224662   0.066   2.266   0.645
 1035TIP3   OH224663   4.622   2.702   0.589
 1035TIP3    H124664   4.550   2.665   0.537
 1035TIP3    H224665   4.700   2.688   0.535
 1036TIP3   OH224666   6.628   0.703   8.381
 1036TIP3    H124667   6.654   0.791   8.353
 1036TIP3    H224668   6.683   0.686   8.457
 1037TIP3   OH224669   0.347   3.693   8.590
 1037TIP3    H124670   0.297   3.713   8.511
 1037TIP3    H224671   0.427   3.651   8.558
 1038TIP3   OH224672   1.592   2.566   0.770
 1038TIP3    H124673   1.670   2.521   0.739
 1038TIP3    H224674   1.534   2.496   0.799
 1039TIP3   OH224675   0.246   6.013   2.278
 1039TIP3    H124676   0.319   6.072   2.299
 1039TIP3    H224677   0.284   5.951   2.215
 1040TIP3   OH224678   0.690   2.364   8.396
 1040TIP3    H124679   0.597   2.346   8.409
 1040TIP3    H224680   0.704   2.351   8.302
 1041TIP3   OH224681   5.762   6.007   1.467
 1041TIP3    H124682   5.839   5.951   1.479
 1041TIP3    H224683   5.689   5.957   1.505
 1042TIP3   OH224684   1.711   4.296   0.312
 1042TIP3    H124685   1.684   4.337   0.394
 1042TIP3    H224686   1.784   4.349   0.281
 1043TIP3   OH224687   1.677   4.619   8.379
 1043TIP3    H124688   1.628   4.684   8.329
 1043TIP3    H224689   1.630   4.612   8.463
 1044TIP3   OH224690   4.135   1.567   0.133
 1044TIP3    H124691   4.155   1.544   0.224
 1044TIP3    H224692   4.217   1.551   0.086
 1045TIP3   OH224693   4.296   6.083   8.418
 1045TIP3    H124694   4.322   6.068   8.509
 1045TIP3    H224695   4.291   6.178   8.410
 1046TIP3   OH224696   0.378   0.383   7.392
 1046TIP3    H124697   0.424   0.341   7.320
 1046TIP3    H224698   0.441   0.385   7.464
 1047TIP3   OH224699   2.882   5.526   0.813
 1047TIP3    H124700   2.817   5.465   0.777
 1047TIP3    H224701   2.887   5.596   0.748
 1048TIP3   OH224702   0.961   5.691   0.056
 1048TIP3    H124703   0.966   5.610   0.005
 1048TIP3    H224704   1.036   5.686   0.115
 1049TIP3   OH224705   3.038   2.192   8.367
 1049TIP3    H124706   3.040   2.287   8.381
 1049TIP3    H224707   2.981   2.159   8.436
 1050TIP3   OH224708   5.699   2.971   8.099
 1050TIP3    H124709   5.717   3.014   8.016
 1050TIP3    H224710   5.779   2.924   8.120
 1051TIP3   OH224711   3.476   3.633   0.870
 1051TIP3    H124712   3.505   3.707   0.924
 1051TIP3    H224713   3.524   3.558   0.906
 1052TIP3   OH224714   1.763   2.482   0.371
 1052TIP3    H124715   1.798   2.537   0.441
 1052TIP3    H224716   1.835   2.474   0.309
 1053TIP3   OH224717   2.138   1.213   7.498
 1053TIP3    H124718   2.108   1.211   7.407
 1053TIP3    H224719   2.067   1.175   7.548
 1054TIP3   OH224720   3.151   3.153   8.244
 1054TIP3    H124721   3.198   3.222   8.197
 1054TIP3    H224722   3.061   3.183   8.247
 1055TIP3   OH224723   0.622   3.910   7.905
 1055TIP3    H124724   0.626   3.972   7.977
 1055TIP3    H224725   0.664   3.831   7.939
 1056TIP3   OH224726   2.564   3.588   1.271
 1056TIP3    H124727   2.547   3.630   1.355
 1056TIP3    H224728   2.488   3.610   1.217
 1057TIP3   OH224729   5.548   5.810   1.296
 1057TIP3    H124730   5.561   5.720   1.265
 1057TIP3    H224731   5.565   5.806   1.390
 1058TIP3   OH224732   1.556   3.495   1.260
 1058TIP3    H124733   1.504   3.547   1.199
 1058TIP3    H224734   1.617   3.447   1.205
 1059TIP3   OH224735   1.141   4.990   0.797
 1059TIP3    H124736   1.090   4.911   0.812
 1059TIP3    H224737   1.079   5.061   0.808
 1060TIP3   OH224738   5.915   0.963   1.381
 1060TIP3    H124739   5.900   1.016   1.302
 1060TIP3    H224740   5.828   0.955   1.421
 1061TIP3   OH224741   2.006   1.472   6.825
 1061TIP3    H124742   2.038   1.389   6.860
 1061TIP3    H224743   1.946   1.447   6.755
 1062TIP3   OH224744   6.550   2.959   7.632
 1062TIP3    H124745   6.613   3.025   7.660
 1062TIP3    H224746   6.595   2.911   7.562
 1063TIP3   OH224747   2.660   6.487   1.791
 1063TIP3    H124748   2.744   6.488   1.836
 1063TIP3    H224749   2.655   6.400   1.752
 1064TIP3   OH224750   0.335   2.032   7.109
 1064TIP3    H124751   0.316   1.951   7.157
 1064TIP3    H224752   0.355   2.096   7.177
 1065TIP3   OH224753   5.728   0.434   1.592
 1065TIP3    H124754   5.745   0.477   1.509
 1065TIP3    H224755   5.783   0.355   1.590
 1066TIP3   OH224756   2.162   3.654   8.250
 1066TIP3    H124757   2.198   3.711   8.318
 1066TIP3    H224758   2.168   3.706   8.170
 1067TIP3   OH224759   3.984   0.828   0.768
 1067TIP3    H124760   3.960   0.921   0.773
 1067TIP3    H224761   3.932   0.786   0.836
 1068TIP3   OH224762   4.778   1.709   7.792
 1068TIP3    H124763   4.853   1.768   7.799
 1068TIP3    H224764   4.707   1.755   7.836
 1069TIP3   OH224765   0.757   6.100   8.064
 1069TIP3    H124766   0.822   6.105   7.994
 1069TIP3    H224767   0.776   6.177   8.119
 1070TIP3   OH224768   5.391   0.657   7.089
 1070TIP3    H124769   5.403   0.596   7.016
 1070TIP3    H224770   5.297   0.664   7.100
 1071TIP3   OH224771   5.464   3.266   0.000
 1071TIP3    H124772   5.556   3.277   0.026
 1071TIP3    H224773   5.445   3.341   8.819
 1072TIP3   OH224774   3.876   3.741   6.787
 1072TIP3    H124775   3.928   3.726   6.708
 1072TIP3    H224776   3.939   3.773   6.852
 1073TIP3   OH224777   5.708   2.179   0.411
 1073TIP3    H124778   5.638   2.190   0.475
 1073TIP3    H224779   5.771   2.248   0.432
 1074TIP3   OH224780   1.343   4.591   0.966
 1074TIP3    H124781   1.314   4.568   0.878
 1074TIP3    H224782   1.319   4.516   1.020
 1075TIP3   OH224783   5.277   6.687   0.723
 1075TIP3    H124784   5.249   6.750   0.656
 1075TIP3    H224785   5.342   6.734   0.774
 1076TIP3   OH224786   5.920   5.134   0.633
 1076TIP3    H124787   5.899   5.209   0.578
 1076TIP3    H224788   5.996   5.162   0.684
 1077TIP3   OH224789   4.409   2.279   0.592
 1077TIP3    H124790   4.439   2.351   0.649
 1077TIP3    H224791   4.314   2.287   0.591
 1078TIP3   OH224792   0.756   0.660   7.037
 1078TIP3    H124793   0.757   0.588   6.974
 1078TIP3    H224794   0.687   0.718   7.006
 1079TIP3   OH224795   4.276   1.032   1.124
 1079TIP3    H124796   4.191   0.993   1.145
 1079TIP3    H224797   4.302   1.079   1.204
 1080TIP3   OH224798   5.108   1.724   8.762
 1080TIP3    H124799   5.162   1.700   8.838
 1080TIP3    H224800   5.115   1.819   8.757
 1081TIP3   OH224801   3.333   3.958   7.452
 1081TIP3    H124802   3.327   4.034   7.509
 1081TIP3    H224803   3.244   3.923   7.449
 1082TIP3   OH224804   6.233   1.610   6.847
 1082TIP3    H124805   6.233   1.624   6.753
 1082TIP3    H224806   6.172   1.675   6.882
 1083TIP3   OH224807   6.285   1.083   7.049
 1083TIP3    H124808   6.313   1.007   7.099
 1083TIP3    H224809   6.240   1.047   6.973
 1084TIP3   OH224810   0.710   1.446   0.932
 1084TIP3    H124811   0.727   1.540   0.938
 1084TIP3    H224812   0.779   1.405   0.985
 1085TIP3   OH224813   5.167   0.595   0.201
 1085TIP3    H124814   5.235   0.578   0.135
 1085TIP3    H224815   5.124   0.510   0.213
 1086TIP3   OH224816   5.651   0.804   6.736
 1086TIP3    H124817   5.558   0.789   6.720
 1086TIP3    H224818   5.676   0.871   6.672
 1087TIP3   OH224819   1.601   3.310   8.190
 1087TIP3    H124820   1.508   3.323   8.171
 1087TIP3    H224821   1.612   3.342   8.280
 1088TIP3   OH224822   0.484   5.614   8.299
 1088TIP3    H124823   0.567   5.656   8.274
 1088TIP3    H224824   0.474   5.636   8.392
 1089TIP3   OH224825   5.840   1.826   1.575
 1089TIP3    H124826   5.812   1.862   1.660
 1089TIP3    H224827   5.759   1.800   1.531
 1090TIP3   OH224828   0.954   2.021   6.253
 1090TIP3    H124829   0.863   2.009   6.282
 1090TIP3    H224830   0.994   2.073   6.323
 1091TIP3   OH224831   4.064   1.232   7.635
 1091TIP3    H124832   4.122   1.304   7.614
 1091TIP3    H224833   4.029   1.203   7.551
 1092TIP3   OH224834   2.712   4.194   0.115
 1092TIP3    H124835   2.699   4.108   0.075
 1092TIP3    H224836   2.720   4.177   0.208
 1093TIP3   OH224837   3.023   4.155   6.871
 1093TIP3    H124838   3.017   4.249   6.852
 1093TIP3    H224839   2.932   4.129   6.887
 1094TIP3   OH224840   5.419   1.724   1.885
 1094TIP3    H124841   5.460   1.745   1.969
 1094TIP3    H224842   5.352   1.660   1.908
 1095TIP3   OH224843   4.587   1.310   0.843
 1095TIP3    H124844   4.607   1.357   0.924
 1095TIP3    H224845   4.553   1.226   0.872
 1096TIP3   OH224846   2.937   2.449   6.861
 1096TIP3    H124847   2.921   2.382   6.794
 1096TIP3    H224848   2.874   2.429   6.930
 1097TIP3   OH224849   3.247   3.282   7.002
 1097TIP3    H124850   3.272   3.364   7.045
 1097TIP3    H224851   3.324   3.259   6.949
 1098TIP3   OH224852   0.154   0.539   7.357
 1098TIP3    H124853   0.128   0.556   7.267
 1098TIP3    H224854   0.232   0.484   7.349
 1099TIP3   OH224855   2.126   3.304   0.448
 1099TIP3    H124856   2.141   3.210   0.448
 1099TIP3    H224857   2.040   3.315   0.408
 1100TIP3   OH224858   3.893   2.780   7.521
 1100TIP3    H124859   3.923   2.866   7.549
 1100TIP3    H224860   3.917   2.775   7.429
 1101TIP3   OH224861   3.387   2.189   0.318
 1101TIP3    H124862   3.344   2.231   0.393
 1101TIP3    H224863   3.365   2.244   0.243
 1102TIP3   OH224864   2.660   3.821   1.011
 1102TIP3    H124865   2.599   3.806   1.084
 1102TIP3    H224866   2.615   3.884   0.955
 1103TIP3   OH224867   5.126   1.335   1.484
 1103TIP3    H124868   5.179   1.282   1.426
 1103TIP3    H224869   5.188   1.371   1.547
 1104TIP3   OH224870   4.304   2.140   7.894
 1104TIP3    H124871   4.309   2.199   7.818
 1104TIP3    H224872   4.340   2.191   7.967
 1105TIP3   OH224873   0.830   6.597   7.877
 1105TIP3    H124874   0.904   6.537   7.882
 1105TIP3    H224875   0.833   6.646   7.959
 1106TIP3   OH224876   5.288   2.401   1.750
 1106TIP3    H124877   5.247   2.399   1.836
 1106TIP3    H224878   5.381   2.386   1.767
 1107TIP3   OH224879   2.319   6.542   0.001
 1107TIP3    H124880   2.411   6.559   8.855
 1107TIP3    H224881   2.276   6.538   8.790
 1108TIP3   OH224882   2.569   3.011   1.199
 1108TIP3    H124883   2.603   2.967   1.277
 1108TIP3    H224884   2.506   3.074   1.232
 1109TIP3   OH224885   3.639   3.735   7.399
 1109TIP3    H124886   3.699   3.737   7.325
 1109TIP3    H224887   3.633   3.827   7.427
 1110TIP3   OH224888   0.079   2.212   7.210
 1110TIP3    H124889   0.104   2.285   7.153
 1110TIP3    H224890   0.058   2.253   7.294
 1111TIP3   OH224891   1.964   1.970   8.437
 1111TIP3    H124892   1.884   1.927   8.408
 1111TIP3    H224893   1.953   2.061   8.410
 1112TIP3   OH224894   6.022   4.655   8.077
 1112TIP3    H124895   6.015   4.748   8.053
 1112TIP3    H224896   6.112   4.645   8.109
 1113TIP3   OH224897   3.825   0.519   7.063
 1113TIP3    H124898   3.838   0.447   7.125
 1113TIP3    H224899   3.826   0.477   6.977
 1114TIP3   OH224900   6.373   5.572   7.529
 1114TIP3    H124901   6.366   5.481   7.498
 1114TIP3    H224902   6.343   5.568   7.620
 1115TIP3   OH224903   1.016   2.774   6.542
 1115TIP3    H124904   1.050   2.701   6.491
 1115TIP3    H224905   1.083   2.842   6.535
 1116TIP3   OH224906   3.313   1.590   1.974
 1116TIP3    H124907   3.393   1.624   2.014
 1116TIP3    H224908   3.246   1.654   1.997
 1117TIP3   OH224909   5.017   1.195   0.636
 1117TIP3    H124910   4.949   1.249   0.677
 1117TIP3    H224911   4.969   1.139   0.575
 1118TIP3   OH224912   5.560   2.071   2.222
 1118TIP3    H124913   5.526   2.111   2.301
 1118TIP3    H224914   5.556   2.141   2.156
 1119TIP3   OH224915   4.452   5.856   7.408
 1119TIP3    H124916   4.452   5.773   7.360
 1119TIP3    H224917   4.419   5.920   7.345
 1120TIP3   OH224918   4.507   5.406   8.075
 1120TIP3    H124919   4.445   5.474   8.048
 1120TIP3    H224920   4.577   5.410   8.010
 1121TIP3   OH224921   4.155   1.983   8.316
 1121TIP3    H124922   4.169   2.032   8.397
 1121TIP3    H224923   4.117   2.047   8.256
 1122TIP3   OH224924   1.739   5.695   7.722
 1122TIP3    H124925   1.673   5.626   7.716
 1122TIP3    H224926   1.797   5.678   7.647
 1123TIP3   OH224927   2.185   1.075   0.040
 1123TIP3    H124928   2.235   1.156   0.032
 1123TIP3    H224929   2.249   1.006   0.020
 1124TIP3   OH224930   4.829   6.018   7.352
 1124TIP3    H124931   4.857   6.110   7.344
 1124TIP3    H224932   4.852   5.994   7.442
 1125TIP3   OH224933   3.981   2.619   2.523
 1125TIP3    H124934   4.006   2.702   2.483
 1125TIP3    H224935   3.942   2.569   2.452
 1126TIP3   OH224936   2.127   2.994   8.546
 1126TIP3    H124937   2.161   3.072   8.591
 1126TIP3    H224938   2.037   3.017   8.523
 1127TIP3   OH224939   2.935   1.958   1.617
 1127TIP3    H124940   2.987   2.038   1.611
 1127TIP3    H224941   2.990   1.891   1.575
 1128TIP3   OH224942   6.766   1.699   7.031
 1128TIP3    H124943   0.008   1.748   7.104
 1128TIP3    H224944   6.769   1.608   7.059
 1129TIP3   OH224945   2.642   1.081   8.452
 1129TIP3    H124946   2.672   1.024   8.523
 1129TIP3    H224947   2.689   1.050   8.374
 1130TIP3   OH224948   6.693   0.829   1.562
 1130TIP3    H124949   6.652   0.804   1.644
 1130TIP3    H224950   6.621   0.827   1.498
 1131TIP3   OH224951   4.965   3.071   1.405
 1131TIP3    H124952   4.906   2.997   1.418
 1131TIP3    H224953   4.937   3.111   1.323
 1132TIP3   OH224954   6.256   3.634   7.874
 1132TIP3    H124955   6.211   3.718   7.887
 1132TIP3    H224956   6.208   3.573   7.930
 1133TIP3   OH224957   2.564   4.886   1.618
 1133TIP3    H124958   2.587   4.837   1.697
 1133TIP3    H224959   2.495   4.946   1.646
 1134TIP3   OH224960   6.159   5.779   1.008
 1134TIP3    H124961   6.183   5.750   1.096
 1134TIP3    H224962   6.134   5.698   0.963
 1135TIP3   OH224963   3.472   1.810   7.062
 1135TIP3    H124964   3.385   1.846   7.080
 1135TIP3    H224965   3.525   1.835   7.138
 1136TIP3   OH224966   4.732   1.340   8.595
 1136TIP3    H124967   4.640   1.325   8.571
 1136TIP3    H224968   4.734   1.328   8.690
 1137TIP3   OH224969   1.261   5.910   0.342
 1137TIP3    H124970   1.351   5.893   0.371
 1137TIP3    H224971   1.268   5.919   0.247
 1138TIP3   OH224972   4.541   0.673   1.133
 1138TIP3    H124973   4.497   0.606   1.081
 1138TIP3    H224974   4.537   0.640   1.223
 1139TIP3   OH224975   1.095   1.262   8.651
 1139TIP3    H124976   1.180   1.228   8.678
 1139TIP3    H224977   1.072   1.212   8.573
 1140TIP3   OH224978   4.708   1.339   2.111
 1140TIP3    H124979   4.669   1.264   2.067
 1140TIP3    H224980   4.656   1.350   2.191
 1141TIP3   OH224981   4.357   0.651   8.345
 1141TIP3    H124982   4.443   0.610   8.342
 1141TIP3    H224983   4.365   0.718   8.413
 1142TIP3   OH224984   5.143   0.600   1.146
 1142TIP3    H124985   5.049   0.609   1.165
 1142TIP3    H224986   5.147   0.531   1.079
 1143TIP3   OH224987   0.804   0.663   0.464
 1143TIP3    H124988   0.839   0.669   0.552
 1143TIP3    H224989   0.718   0.622   0.474
 1144TIP3   OH224990   2.291   2.734   7.462
 1144TIP3    H124991   2.322   2.818   7.495
 1144TIP3    H224992   2.363   2.701   7.408
 1145TIP3   OH224993   5.023   3.706   6.853
 1145TIP3    H124994   5.084   3.632   6.864
 1145TIP3    H224995   4.940   3.665   6.830
 1146TIP3   OH224996   4.471   4.769   0.958
 1146TIP3    H124997   4.559   4.731   0.961
 1146TIP3    H224998   4.470   4.834   1.027
 1147TIP3   OH224999   0.491   1.474   1.213
 1147TIP3    H125000   0.472   1.524   1.134
 1147TIP3    H225001   0.573   1.428   1.193
 1148TIP3   OH225002   6.735   1.148   2.356
 1148TIP3    H125003   6.702   1.238   2.356
 1148TIP3    H225004   6.659   1.095   2.333
 1149TIP3   OH225005   1.480   1.116   0.374
 1149TIP3    H125006   1.536   1.110   0.297
 1149TIP3    H225007   1.445   1.205   0.372
 1150TIP3   OH225008   1.781   4.036   0.242
 1150TIP3    H125009   1.767   4.127   0.269
 1150TIP3    H225010   1.718   4.022   0.172
 1151TIP3   OH225011   3.307   3.322   1.216
 1151TIP3    H125012   3.403   3.321   1.225
 1151TIP3    H225013   3.289   3.269   1.139
 1152TIP3   OH225014   1.726   6.504   8.676
 1152TIP3    H125015   1.671   6.582   8.672
 1152TIP3    H225016   1.746   6.493   8.769
 1153TIP3   OH225017   2.151   1.940   1.565
 1153TIP3    H125018   2.057   1.935   1.552
 1153TIP3    H225019   2.180   2.013   1.510
 1154TIP3   OH225020   5.059   0.993   0.851
 1154TIP3    H125021   5.067   1.055   0.778
 1154TIP3    H225022   5.140   1.004   0.902
 1155TIP3   OH225023   1.518   5.583   7.692
 1155TIP3    H125024   1.463   5.655   7.661
 1155TIP3    H225025   1.509   5.515   7.624
 1156TIP3   OH225026   4.766   5.088   7.643
 1156TIP3    H125027   4.740   5.092   7.551
 1156TIP3    H225028   4.691   5.050   7.688
 1157TIP3   OH225029   0.160   5.557   0.801
 1157TIP3    H125030   0.126   5.576   0.888
 1157TIP3    H225031   0.209   5.475   0.813
 1158TIP3   OH225032   5.575   4.148   6.474
 1158TIP3    H125033   5.499   4.126   6.529
 1158TIP3    H225034   5.607   4.064   6.443
 1159TIP3   OH225035   6.438   2.767   8.164
 1159TIP3    H125036   6.531   2.777   8.144
 1159TIP3    H225037   6.432   2.681   8.206
 1160TIP3   OH225038   0.502   4.300   0.690
 1160TIP3    H125039   0.528   4.239   0.621
 1160TIP3    H225040   0.407   4.289   0.696
 1161TIP3   OH225041   3.655   3.440   0.955
 1161TIP3    H125042   3.671   3.441   1.049
 1161TIP3    H225043   3.659   3.347   0.931
 1162TIP3   OH225044   1.619   5.710   0.684
 1162TIP3    H125045   1.714   5.723   0.688
 1162TIP3    H225046   1.601   5.646   0.752
 1163TIP3   OH225047   6.211   1.770   6.605
 1163TIP3    H125048   6.294   1.785   6.559
 1163TIP3    H225049   6.190   1.855   6.644
 1164TIP3   OH225050   0.096   5.869   1.878
 1164TIP3    H125051   0.078   5.933   1.809
 1164TIP3    H225052   0.018   5.871   1.933
 1165TIP3   OH225053   1.989   4.401   0.854
 1165TIP3    H125054   2.003   4.491   0.883
 1165TIP3    H225055   2.008   4.403   0.760
 1166TIP3   OH225056   4.805   4.477   8.368
 1166TIP3    H125057   4.852   4.460   8.286
 1166TIP3    H225058   4.725   4.522   8.340
 1167TIP3   OH225059   4.991   0.790   6.550
 1167TIP3    H125060   4.911   0.741   6.565
 1167TIP3    H225061   5.061   0.733   6.582
 1168TIP3   OH225062   1.095   3.907   1.174
 1168TIP3    H125063   1.098   3.927   1.081
 1168TIP3    H225064   1.187   3.907   1.202
 1169TIP3   OH225065   4.503   2.528   8.056
 1169TIP3    H125066   4.411   2.533   8.082
 1169TIP3    H225067   4.513   2.597   7.990
 1170TIP3   OH225068   0.800   5.337   7.317
 1170TIP3    H125069   0.722   5.285   7.296
 1170TIP3    H225070   0.771   5.396   7.387
 1171TIP3   OH225071   1.726   6.014   0.458
 1171TIP3    H125072   1.820   6.028   0.470
 1171TIP3    H225073   1.721   5.934   0.406
 1172TIP3   OH225074   2.736   2.566   8.346
 1172TIP3    H125075   2.749   2.646   8.296
 1172TIP3    H225076   2.690   2.593   8.425
 1173TIP3   OH225077   6.253   5.165   1.480
 1173TIP3    H125078   6.221   5.081   1.446
 1173TIP3    H225079   6.268   5.218   1.402
 1174TIP3   OH225080   4.208   2.485   2.640
 1174TIP3    H125081   4.142   2.554   2.629
 1174TIP3    H225082   4.245   2.473   2.552
 1175TIP3   OH225083   4.912   4.745   1.473
 1175TIP3    H125084   4.863   4.768   1.394
 1175TIP3    H225085   4.992   4.703   1.441
 1176TIP3   OH225086   3.844   3.482   0.241
 1176TIP3    H125087   3.871   3.567   0.276
 1176TIP3    H225088   3.757   3.467   0.279
 1177TIP3   OH225089   4.362   5.126   0.980
 1177TIP3    H125090   4.324   5.178   1.051
 1177TIP3    H225091   4.316   5.042   0.986
 1178TIP3   OH225092   4.212   4.563   1.082
 1178TIP3    H125093   4.256   4.638   1.122
 1178TIP3    H225094   4.237   4.567   0.990
 1179TIP3   OH225095   4.450   4.911   6.927
 1179TIP3    H125096   4.534   4.905   6.972
 1179TIP3    H225097   4.401   4.978   6.975
 1180TIP3   OH225098   6.061   5.808   7.781
 1180TIP3    H125099   6.140   5.772   7.820
 1180TIP3    H225100   6.010   5.732   7.754
 1181TIP3   OH225101   5.819   3.235   6.997
 1181TIP3    H125102   5.869   3.310   6.964
 1181TIP3    H225103   5.771   3.203   6.921
 1182TIP3   OH225104   3.249   2.451   7.887
 1182TIP3    H125105   3.305   2.418   7.957
 1182TIP3    H225106   3.202   2.373   7.855
 1183TIP3   OH225107   3.927   2.809   0.759
 1183TIP3    H125108   3.832   2.803   0.765
 1183TIP3    H225109   3.959   2.730   0.804
 1184TIP3   OH225110   6.158   3.607   8.662
 1184TIP3    H125111   6.117   3.684   8.700
 1184TIP3    H225112   6.244   3.602   8.706
 1185TIP3   OH225113   0.516   1.104   0.357
 1185TIP3    H125114   0.607   1.094   0.330
 1185TIP3    H225115   0.517   1.182   0.413
 1186TIP3   OH225116   2.452   5.434   2.273
 1186TIP3    H125117   2.528   5.376   2.281
 1186TIP3    H225118   2.489   5.519   2.249
 1187TIP3   OH225119   6.731   2.301   0.980
 1187TIP3    H125120   0.023   2.322   0.949
 1187TIP3    H225121   6.674   2.364   0.936
 1188TIP3   OH225122   6.287   1.676   1.359
 1188TIP3    H125123   6.312   1.631   1.278
 1188TIP3    H225124   6.277   1.768   1.332
 1189TIP3   OH225125   0.712   4.379   0.335
 1189TIP3    H125126   0.790   4.370   0.390
 1189TIP3    H225127   0.741   4.358   0.247
 1190TIP3   OH225128   2.656   6.305   8.109
 1190TIP3    H125129   2.742   6.290   8.070
 1190TIP3    H225130   2.595   6.260   8.050
 1191TIP3   OH225131   0.954   4.375   0.986
 1191TIP3    H125132   0.963   4.293   1.034
 1191TIP3    H225133   0.908   4.352   0.905
 1192TIP3   OH225134   2.614   2.435   2.794
 1192TIP3    H125135   2.682   2.448   2.860
 1192TIP3    H225136   2.635   2.351   2.754
 1193TIP3   OH225137   5.918   2.467   7.726
 1193TIP3    H125138   6.000   2.491   7.684
 1193TIP3    H225139   5.918   2.513   7.809
 1194TIP3   OH225140   5.276   1.595   2.248
 1194TIP3    H125141   5.205   1.638   2.199
 1194TIP3    H225142   5.356   1.637   2.216
 1195TIP3   OH225143   5.409   0.301   6.791
 1195TIP3    H125144   5.498   0.290   6.825
 1195TIP3    H225145   5.413   0.381   6.739
 1196TIP3   OH225146   5.825   1.928   1.852
 1196TIP3    H125147   5.737   1.967   1.848
 1196TIP3    H225148   5.884   2.001   1.831
 1197TIP3   OH225149   0.349   5.633   7.332
 1197TIP3    H125150   0.327   5.633   7.239
 1197TIP3    H225151   0.268   5.660   7.376
 1198TIP3   OH225152   2.521   6.155   7.086
 1198TIP3    H125153   2.469   6.206   7.148
 1198TIP3    H225154   2.520   6.207   7.005
 1199TIP3   OH225155   1.118   2.364   7.859
 1199TIP3    H125156   1.183   2.356   7.789
 1199TIP3    H225157   1.131   2.285   7.912
 1200TIP3   OH225158   6.171   4.723   7.807
 1200TIP3    H125159   6.240   4.670   7.768
 1200TIP3    H225160   6.097   4.662   7.815
 1201TIP3   OH225161   1.415   5.893   0.766
 1201TIP3    H125162   1.496   5.849   0.739
 1201TIP3    H225163   1.442   5.950   0.838
 1202TIP3   OH225164   1.956   5.228   8.664
 1202TIP3    H125165   1.967   5.205   8.757
 1202TIP3    H225166   2.042   5.215   8.626
 1203TIP3   OH225167   4.478   4.388   6.796
 1203TIP3    H125168   4.499   4.480   6.787
 1203TIP3    H225169   4.435   4.364   6.714
 1204TIP3   OH225170   2.551   2.665   1.911
 1204TIP3    H125171   2.542   2.603   1.983
 1204TIP3    H225172   2.631   2.713   1.930
 1205TIP3   OH225173   6.607   6.554   1.541
 1205TIP3    H125174   6.618   6.460   1.556
 1205TIP3    H225175   6.675   6.595   1.595
 1206TIP3   OH225176   1.217   6.511   0.342
 1206TIP3    H125177   1.166   6.434   0.316
 1206TIP3    H225178   1.307   6.488   0.320
 1207TIP3   OH225179   2.315   0.056   2.245
 1207TIP3    H125180   2.232   0.092   2.214
 1207TIP3    H225181   2.291   6.773   2.293
 1208TIP3   OH225182   1.446   3.714   8.731
 1208TIP3    H125183   1.357   3.744   8.712
 1208TIP3    H225184   1.449   3.707   8.827
 1209TIP3   OH225185   5.528   3.138   0.956
 1209TIP3    H125186   5.582   3.101   1.026
 1209TIP3    H225187   5.532   3.233   0.971
 1210TIP3   OH225188   5.934   1.934   7.295
 1210TIP3    H125189   5.868   1.928   7.364
 1210TIP3    H225190   6.018   1.941   7.342
 1211TIP3   OH225191   1.027   6.083   1.462
 1211TIP3    H125192   0.947   6.033   1.475
 1211TIP3    H225193   1.026   6.149   1.531
 1212TIP3   OH225194   0.652   0.006   0.649
 1212TIP3    H125195   0.723   6.738   0.637
 1212TIP3    H225196   0.601   6.767   0.721
 1213TIP3   OH225197   4.240   5.962   0.234
 1213TIP3    H125198   4.183   5.979   0.309
 1213TIP3    H225199   4.290   5.885   0.259
 1214TIP3   OH225200   3.332   3.021   0.777
 1214TIP3    H125201   3.318   2.928   0.762
 1214TIP3    H225202   3.384   3.051   0.703
 1215TIP3   OH225203   5.172   3.453   0.948
 1215TIP3    H125204   5.211   3.400   0.879
 1215TIP3    H225205   5.090   3.408   0.970
 1216TIP3   OH225206   5.971   0.536   1.300
 1216TIP3    H125207   5.985   0.454   1.253
 1216TIP3    H225208   6.054   0.583   1.291
 1217TIP3   OH225209   1.243   6.126   1.298
 1217TIP3    H125210   1.167   6.125   1.356
 1217TIP3    H225211   1.206   6.118   1.210
 1218TIP3   OH225212   4.013   5.604   1.758
 1218TIP3    H125213   3.964   5.529   1.724
 1218TIP3    H225214   3.985   5.611   1.849
 1219TIP3   OH225215   0.968   6.353   1.032
 1219TIP3    H125216   1.042   6.413   1.045
 1219TIP3    H225217   0.907   6.377   1.102
 1220TIP3   OH225218   4.777   2.042   6.684
 1220TIP3    H125219   4.855   1.986   6.680
 1220TIP3    H225220   4.711   1.989   6.728
 1221TIP3   OH225221   3.759   0.384   0.847
 1221TIP3    H125222   3.722   0.465   0.882
 1221TIP3    H225223   3.837   0.368   0.901
 1222TIP3   OH225224   3.435   2.981   1.374
 1222TIP3    H125225   3.516   2.973   1.323
 1222TIP3    H225226   3.461   3.030   1.452
 1223TIP3   OH225227   2.714   2.254   8.871
 1223TIP3    H125228   2.677   2.324   8.818
 1223TIP3    H225229   2.806   2.277   0.007
 1224TIP3   OH225230   5.686   5.869   6.700
 1224TIP3    H125231   5.635   5.949   6.708
 1224TIP3    H225232   5.643   5.808   6.760
 1225TIP3   OH225233   2.651   0.190   1.751
 1225TIP3    H125234   2.586   0.142   1.802
 1225TIP3    H225235   2.707   0.121   1.713
 1226TIP3   OH225236   3.941   4.329   6.614
 1226TIP3    H125237   4.014   4.269   6.601
 1226TIP3    H225238   3.977   4.415   6.592
 1227TIP3   OH225239   0.067   0.044   0.599
 1227TIP3    H125240   0.102   0.022   0.685
 1227TIP3    H225241   0.099   6.771   0.541
 1228TIP3   OH225242   0.031   2.713   1.984
 1228TIP3    H125243   6.772   2.783   2.019
 1228TIP3    H225244   6.766   2.644   1.959
 1229TIP3   OH225245   2.136   3.723   8.798
 1229TIP3    H125246   2.170   3.684   0.004
 1229TIP3    H225247   2.113   3.813   8.823
 1230TIP3   OH225248   2.745   4.915   0.320
 1230TIP3    H125249   2.697   4.867   0.387
 1230TIP3    H225250   2.812   4.853   0.290
 1231TIP3   OH225251   2.450   2.257   0.722
 1231TIP3    H125252   2.384   2.189   0.707
 1231TIP3    H225253   2.416   2.333   0.675
 1232TIP3   OH225254   4.769   1.043   0.037
 1232TIP3    H125255   4.822   0.977   8.868
 1232TIP3    H225256   4.819   1.065   0.116
 1233TIP3   OH225257   2.175   0.306   8.585
 1233TIP3    H125258   2.270   0.305   8.592
 1233TIP3    H225259   2.144   0.282   8.672
 1234TIP3   OH225260   1.579   3.014   7.155
 1234TIP3    H125261   1.550   3.022   7.064
 1234TIP3    H225262   1.608   2.923   7.163
 1235TIP3   OH225263   6.437   0.543   8.073
 1235TIP3    H125264   6.352   0.499   8.067
 1235TIP3    H225265   6.476   0.511   8.154
 1236TIP3   OH225266   5.247   6.426   6.892
 1236TIP3    H125267   5.152   6.415   6.897
 1236TIP3    H225268   5.273   6.374   6.816
 1237TIP3   OH225269   2.730   3.712   7.328
 1237TIP3    H125270   2.677   3.702   7.249
 1237TIP3    H225271   2.798   3.775   7.303
 1238TIP3   OH225272   3.857   5.915   1.227
 1238TIP3    H125273   3.849   5.825   1.195
 1238TIP3    H225274   3.900   5.906   1.313
 1239TIP3   OH225275   0.593   5.068   1.720
 1239TIP3    H125276   0.514   5.027   1.754
 1239TIP3    H225277   0.638   4.999   1.671
 1240TIP3   OH225278   2.227   5.080   1.296
 1240TIP3    H125279   2.161   5.148   1.289
 1240TIP3    H225280   2.311   5.127   1.297
 1241TIP3   OH225281   1.937   2.091   7.951
 1241TIP3    H125282   1.975   2.022   8.006
 1241TIP3    H225283   1.869   2.046   7.899
 1242TIP3   OH225284   1.944   0.439   8.381
 1242TIP3    H125285   1.940   0.346   8.402
 1242TIP3    H225286   2.037   0.456   8.366
 1243TIP3   OH225287   2.188   5.431   0.542
 1243TIP3    H125288   2.277   5.403   0.521
 1243TIP3    H225289   2.140   5.423   0.459
 1244TIP3   OH225290   6.592   0.158   1.137
 1244TIP3    H125291   6.674   0.206   1.150
 1244TIP3    H225292   6.583   0.103   1.214
 1245TIP3   OH225293   6.453   2.551   1.078
 1245TIP3    H125294   6.507   2.529   1.001
 1245TIP3    H225295   6.467   2.478   1.138
 1246TIP3   OH225296   1.818   0.900   2.346
 1246TIP3    H125297   1.724   0.883   2.340
 1246TIP3    H225298   1.857   0.846   2.276
 1247TIP3   OH225299   2.288   2.913   2.497
 1247TIP3    H125300   2.366   2.955   2.534
 1247TIP3    H225301   2.299   2.820   2.517
 1248TIP3   OH225302   6.687   6.008   8.267
 1248TIP3    H125303   6.720   5.978   8.351
 1248TIP3    H225304   6.735   6.089   8.250
 1249TIP3   OH225305   0.275   5.373   1.822
 1249TIP3    H125306   0.229   5.289   1.815
 1249TIP3    H225307   0.215   5.430   1.870
 1250TIP3   OH225308   6.632   1.890   1.780
 1250TIP3    H125309   6.558   1.836   1.805
 1250TIP3    H225310   6.708   1.847   1.821
 1251TIP3   OH225311   3.364   1.335   1.078
 1251TIP3    H125312   3.393   1.416   1.037
 1251TIP3    H225313   3.295   1.362   1.139
 1252TIP3   OH225314   0.725   6.442   7.628
 1252TIP3    H125315   0.749   6.453   7.720
 1252TIP3    H225316   0.671   6.518   7.608
 1253TIP3   OH225317   6.334   2.255   6.782
 1253TIP3    H125318   6.387   2.291   6.711
 1253TIP3    H225319   6.396   2.211   6.839
 1254TIP3   OH225320   0.212   5.317   8.693
 1254TIP3    H125321   0.187   5.394   8.642
 1254TIP3    H225322   0.148   5.251   8.669
 1255TIP3   OH225323   1.613   3.881   6.456
 1255TIP3    H125324   1.577   3.960   6.415
 1255TIP3    H225325   1.653   3.913   6.537
 1256TIP3   OH225326   6.423   0.750   8.583
 1256TIP3    H125327   6.506   0.765   8.538
 1256TIP3    H225328   6.363   0.720   8.514
 1257TIP3   OH225329   4.856   5.081   1.342
 1257TIP3    H125330   4.835   4.994   1.310
 1257TIP3    H225331   4.952   5.084   1.344
 1258TIP3   OH225332   1.494   3.217   6.355
 1258TIP3    H125333   1.412   3.265   6.368
 1258TIP3    H225334   1.489   3.145   6.418
 1259TIP3   OH225335   5.288   2.282   2.096
 1259TIP3    H125336   5.250   2.264   2.182
 1259TIP3    H225337   5.224   2.337   2.052
 1260TIP3   OH225338   4.620   3.280   7.786
 1260TIP3    H125339   4.533   3.263   7.824
 1260TIP3    H225340   4.602   3.305   7.695
 1261TIP3   OH225341   6.225   2.449   8.423
 1261TIP3    H125342   6.178   2.529   8.446
 1261TIP3    H225343   6.177   2.379   8.468
 1262TIP3   OH225344   0.411   0.872   8.632
 1262TIP3    H125345   0.427   0.809   8.703
 1262TIP3    H225346   0.386   0.953   8.678
 1263TIP3   OH225347   4.897   2.438   7.012
 1263TIP3    H125348   4.832   2.384   6.966
 1263TIP3    H225349   4.927   2.501   6.946
 1264TIP3   OH225350   2.604   6.112   1.070
 1264TIP3    H125351   2.519   6.144   1.039
 1264TIP3    H225352   2.605   6.019   1.047
 1265TIP3   OH225353   0.708   0.976   7.699
 1265TIP3    H125354   0.668   1.026   7.628
 1265TIP3    H225355   0.638   0.961   7.762
 1266TIP3   OH225356   6.695   4.881   8.120
 1266TIP3    H125357   6.730   4.950   8.176
 1266TIP3    H225358   6.761   4.812   8.122
 1267TIP3   OH225359   3.615   4.226   7.432
 1267TIP3    H125360   3.609   4.178   7.515
 1267TIP3    H225361   3.559   4.302   7.444
 1268TIP3   OH225362   6.626   2.034   2.544
 1268TIP3    H125363   6.597   2.124   2.559
 1268TIP3    H225364   6.656   2.033   2.453
 1269TIP3   OH225365   5.284   0.201   0.149
 1269TIP3    H125366   5.301   0.262   0.078
 1269TIP3    H225367   5.358   0.140   0.146
 1270TIP3   OH225368   1.605   3.243   0.361
 1270TIP3    H125369   1.653   3.187   0.300
 1270TIP3    H225370   1.515   3.210   0.359
 1271TIP3   OH225371   0.756   0.509   8.423
 1271TIP3    H125372   0.783   0.576   8.485
 1271TIP3    H225373   0.836   0.459   8.405
 1272TIP3   OH225374   3.771   1.613   1.664
 1272TIP3    H125375   3.804   1.615   1.754
 1272TIP3    H225376   3.707   1.542   1.664
 1273TIP3   OH225377   1.328   4.410   8.787
 1273TIP3    H125378   1.295   4.445   8.870
 1273TIP3    H225379   1.327   4.315   8.798
 1274TIP3   OH225380   3.637   6.191   1.549
 1274TIP3    H125381   3.708   6.255   1.540
 1274TIP3    H225382   3.567   6.239   1.595
 1275TIP3   OH225383   5.636   6.286   0.087
 1275TIP3    H125384   5.622   6.265   8.869
 1275TIP3    H225385   5.558   6.253   0.131
 1276TIP3   OH225386   2.312   1.519   8.440
 1276TIP3    H125387   2.218   1.527   8.428
 1276TIP3    H225388   2.347   1.606   8.418
 1277TIP3   OH225389   3.202   1.517   7.680
 1277TIP3    H125390   3.235   1.601   7.647
 1277TIP3    H225391   3.257   1.500   7.757
 1278TIP3   OH225392   0.877   2.829   2.255
 1278TIP3    H125393   0.902   2.755   2.310
 1278TIP3    H225394   0.806   2.795   2.200
 1279TIP3   OH225395   1.307   5.779   8.428
 1279TIP3    H125396   1.371   5.811   8.364
 1279TIP3    H225397   1.231   5.836   8.416
 1280TIP3   OH225398   3.833   4.913   8.665
 1280TIP3    H125399   3.770   4.984   8.675
 1280TIP3    H225400   3.853   4.913   8.571
 1281TIP3   OH225401   5.671   4.020   8.234
 1281TIP3    H125402   5.714   3.973   8.306
 1281TIP3    H225403   5.578   4.019   8.257
 1282TIP3   OH225404   5.963   3.598   7.716
 1282TIP3    H125405   5.967   3.694   7.718
 1282TIP3    H225406   6.048   3.571   7.680
 1283TIP3   OH225407   1.659   6.402   7.648
 1283TIP3    H125408   1.717   6.368   7.716
 1283TIP3    H225409   1.633   6.488   7.679
 1284TIP3   OH225410   5.670   4.912   0.871
 1284TIP3    H125411   5.736   4.844   0.857
 1284TIP3    H225412   5.622   4.915   0.788
 1285TIP3   OH225413   6.287   5.311   7.447
 1285TIP3    H125414   6.271   5.292   7.355
 1285TIP3    H225415   6.251   5.235   7.493
 1286TIP3   OH225416   3.169   0.270   1.472
 1286TIP3    H125417   3.229   0.306   1.408
 1286TIP3    H225418   3.133   0.192   1.431
 1287TIP3   OH225419   0.096   5.493   1.602
 1287TIP3    H125420   0.182   5.455   1.589
 1287TIP3    H225421   0.100   5.531   1.690
 1288TIP3   OH225422   3.754   3.520   0.561
 1288TIP3    H125423   3.665   3.529   0.527
 1288TIP3    H225424   3.795   3.604   0.543
 1289TIP3   OH225425   5.542   2.685   8.233
 1289TIP3    H125426   5.455   2.723   8.251
 1289TIP3    H225427   5.523   2.607   8.181
 1290TIP3   OH225428   3.678   5.675   7.286
 1290TIP3    H125429   3.703   5.733   7.358
 1290TIP3    H225430   3.627   5.731   7.227
 1291TIP3   OH225431   6.629   1.270   8.434
 1291TIP3    H125432   6.639   1.175   8.435
 1291TIP3    H225433   6.620   1.295   8.526
 1292TIP3   OH225434   1.150   4.961   2.099
 1292TIP3    H125435   1.089   4.940   2.029
 1292TIP3    H225436   1.160   4.879   2.148
 1293TIP3   OH225437   4.171   3.384   7.215
 1293TIP3    H125438   4.256   3.356   7.181
 1293TIP3    H225439   4.176   3.369   7.309
 1294TIP3   OH225440   5.468   4.147   0.468
 1294TIP3    H125441   5.409   4.083   0.507
 1294TIP3    H225442   5.548   4.098   0.450
 1295TIP3   OH225443   5.621   2.679   0.385
 1295TIP3    H125444   5.577   2.708   0.465
 1295TIP3    H225445   5.614   2.583   0.387
 1296TIP3   OH225446   5.740   2.019   8.571
 1296TIP3    H125447   5.649   2.013   8.540
 1296TIP3    H225448   5.733   2.056   8.659
 1297TIP3   OH225449   1.664   3.690   7.693
 1297TIP3    H125450   1.641   3.599   7.708
 1297TIP3    H225451   1.741   3.687   7.637
 1298TIP3   OH225452   6.040   2.869   6.930
 1298TIP3    H125453   6.116   2.896   6.878
 1298TIP3    H225454   5.969   2.924   6.898
 1299TIP3   OH225455   6.043   1.685   0.719
 1299TIP3    H125456   6.052   1.592   0.739
 1299TIP3    H225457   5.955   1.693   0.683
 1300TIP3   OH225458   5.184   0.679   1.413
 1300TIP3    H125459   5.104   0.637   1.446
 1300TIP3    H225460   5.199   0.638   1.328
 1301TIP3   OH225461   0.946   5.306   8.577
 1301TIP3    H125462   0.869   5.296   8.521
 1301TIP3    H225463   0.973   5.216   8.595
 1302TIP3   OH225464   2.335   6.585   2.361
 1302TIP3    H125465   2.313   6.499   2.324
 1302TIP3    H225466   2.264   6.602   2.424
 1303TIP3   OH225467   1.998   4.236   2.531
 1303TIP3    H125468   1.934   4.278   2.473
 1303TIP3    H225469   1.967   4.256   2.619
 1304TIP3   OH225470   0.782   0.555   0.770
 1304TIP3    H125471   0.719   0.533   0.702
 1304TIP3    H225472   0.776   0.650   0.779
 1305TIP3   OH225473   2.461   2.111   1.075
 1305TIP3    H125474   2.513   2.062   1.011
 1305TIP3    H225475   2.406   2.045   1.117
 1306TIP3   OH225476   3.777   0.248   0.370
 1306TIP3    H125477   3.743   0.158   0.372
 1306TIP3    H225478   3.773   0.273   0.278
 1307TIP3   OH225479   3.691   5.012   0.129
 1307TIP3    H125480   3.677   5.102   0.157
 1307TIP3    H225481   3.629   4.960   0.180
 1308TIP3   OH225482   0.749   0.048   6.414
 1308TIP3    H125483   0.743   0.115   6.482
 1308TIP3    H225484   0.812   0.083   6.351
 1309TIP3   OH225485   6.161   0.730   7.253
 1309TIP3    H125486   6.142   0.637   7.261
 1309TIP3    H225487   6.252   0.734   7.225
 1310TIP3   OH225488   2.174   0.755   0.651
 1310TIP3    H125489   2.099   0.754   0.591
 1310TIP3    H225490   2.147   0.696   0.722
 1311TIP3   OH225491   5.943   0.158   6.835
 1311TIP3    H125492   6.027   0.167   6.791
 1311TIP3    H225493   5.961   0.101   6.910
 1312TIP3   OH225494   0.618   3.504   8.083
 1312TIP3    H125495   0.639   3.512   7.990
 1312TIP3    H225496   0.659   3.422   8.109
 1313TIP3   OH225497   6.436   2.165   0.696
 1313TIP3    H125498   6.445   2.240   0.638
 1313TIP3    H225499   6.341   2.153   0.706
 1314TIP3   OH225500   0.705   0.923   0.063
 1314TIP3    H125501   0.659   0.952   8.859
 1314TIP3    H225502   0.696   0.996   0.124
 1315TIP3   OH225503   0.506   1.861   1.087
 1315TIP3    H125504   0.579   1.815   1.047
 1315TIP3    H225505   0.534   1.876   1.178
 1316TIP3   OH225506   6.229   6.518   8.861
 1316TIP3    H125507   6.194   6.436   8.828
 1316TIP3    H225508   6.301   6.540   8.801
 1317TIP3   OH225509   4.639   2.631   7.620
 1317TIP3    H125510   4.722   2.657   7.661
 1317TIP3    H225511   4.656   2.637   7.526
 1318TIP3   OH225512   0.942   0.178   7.959
 1318TIP3    H125513   0.948   0.274   7.951
 1318TIP3    H225514   0.875   0.164   8.026
 1319TIP3   OH225515   3.431   6.572   7.372
 1319TIP3    H125516   3.399   6.584   7.462
 1319TIP3    H225517   3.429   6.660   7.334
 1320TIP3   OH225518   0.239   2.155   6.867
 1320TIP3    H125519   0.274   2.078   6.822
 1320TIP3    H225520   0.256   2.137   6.960
 1321TIP3   OH225521   2.267   3.870   8.090
 1321TIP3    H125522   2.215   3.947   8.067
 1321TIP3    H225523   2.343   3.906   8.135
 1322TIP3   OH225524   1.662   2.907   0.798
 1322TIP3    H125525   1.646   2.813   0.784
 1322TIP3    H225526   1.707   2.935   0.719
 1323TIP3   OH225527   4.011   5.999   7.898
 1323TIP3    H125528   4.043   5.924   7.848
 1323TIP3    H225529   3.992   5.963   7.985
 1324TIP3   OH225530   5.720   0.758   7.888
 1324TIP3    H125531   5.714   0.737   7.794
 1324TIP3    H225532   5.792   0.704   7.920
 1325TIP3   OH225533   1.132   0.312   0.925
 1325TIP3    H125534   1.214   0.303   0.877
 1325TIP3    H225535   1.155   0.359   1.005
 1326TIP3   OH225536   2.510   5.982   8.140
 1326TIP3    H125537   2.558   5.916   8.091
 1326TIP3    H225538   2.469   6.037   8.073
 1327TIP3   OH225539   6.260   4.307   0.262
 1327TIP3    H125540   6.222   4.323   0.176
 1327TIP3    H225541   6.251   4.390   0.308
 1328TIP3   OH225542   3.938   1.283   0.432
 1328TIP3    H125543   3.934   1.328   0.516
 1328TIP3    H225544   3.848   1.255   0.416
 1329TIP3   OH225545   6.185   3.744   0.273
 1329TIP3    H125546   6.124   3.672   0.291
 1329TIP3    H225547   6.210   3.732   0.182
 1330TIP3   OH225548   5.952   5.535   2.142
 1330TIP3    H125549   5.877   5.590   2.121
 1330TIP3    H225550   5.919   5.475   2.209
 1331TIP3   OH225551   3.088   2.643   2.418
 1331TIP3    H125552   3.081   2.683   2.505
 1331TIP3    H225553   3.147   2.569   2.430
 1332TIP3   OH225554   5.079   0.958   8.649
 1332TIP3    H125555   5.021   0.894   8.691
 1332TIP3    H225556   5.037   1.042   8.666
 1333TIP3   OH225557   1.382   1.581   7.858
 1333TIP3    H125558   1.404   1.502   7.810
 1333TIP3    H225559   1.461   1.603   7.907
 1334TIP3   OH225560   6.553   5.055   2.026
 1334TIP3    H125561   6.576   5.014   1.943
 1334TIP3    H225562   6.631   5.046   2.080
 1335TIP3   OH225563   0.843   1.656   7.430
 1335TIP3    H125564   0.862   1.737   7.477
 1335TIP3    H225565   0.791   1.684   7.354
 1336TIP3   OH225566   3.408   4.403   0.370
 1336TIP3    H125567   3.407   4.470   0.438
 1336TIP3    H225568   3.315   4.382   0.356
 1337TIP3   OH225569   4.356   0.461   6.814
 1337TIP3    H125570   4.437   0.503   6.785
 1337TIP3    H225571   4.377   0.367   6.815
 1338TIP3   OH225572   0.691   0.298   6.578
 1338TIP3    H125573   0.657   0.275   6.665
 1338TIP3    H225574   0.643   0.377   6.553
 1339TIP3   OH225575   0.446   1.044   6.058
 1339TIP3    H125576   0.460   1.092   6.140
 1339TIP3    H225577   0.393   0.969   6.084
 1340TIP3   OH225578   4.104   6.236   0.840
 1340TIP3    H125579   4.103   6.164   0.776
 1340TIP3    H225580   4.076   6.196   0.922
 1341TIP3   OH225581   0.002   6.791   0.036
 1341TIP3    H125582   6.727   6.728   0.040
 1341TIP3    H225583   6.756   0.080   0.050
 1342TIP3   OH225584   2.605   1.992   8.859
 1342TIP3    H125585   2.536   2.000   0.049
 1342TIP3    H225586   2.659   2.071   8.872
 1343TIP3   OH225587   6.498   2.599   6.663
 1343TIP3    H125588   6.497   2.518   6.612
 1343TIP3    H225589   6.406   2.625   6.668
 1344TIP3   OH225590   0.710   6.341   8.329
 1344TIP3    H125591   0.754   6.302   8.404
 1344TIP3    H225592   0.780   6.382   8.279
 1345TIP3   OH225593   0.466   1.297   0.935
 1345TIP3    H125594   0.532   1.366   0.936
 1345TIP3    H225595   0.516   1.217   0.916
 1346TIP3   OH225596   0.283   1.946   8.498
 1346TIP3    H125597   0.274   1.916   8.588
 1346TIP3    H225598   0.335   1.879   8.454
 1347TIP3   OH225599   2.384   5.990   0.340
 1347TIP3    H125600   2.318   6.057   0.356
 1347TIP3    H225601   2.338   5.907   0.357
 1348TIP3   OH225602   1.245   1.640   0.698
 1348TIP3    H125603   1.284   1.555   0.678
 1348TIP3    H225604   1.278   1.662   0.784
 1349TIP3   OH225605   6.422   6.565   1.156
 1349TIP3    H125606   6.511   6.529   1.155
 1349TIP3    H225607   6.408   6.590   1.247
 1350TIP3   OH225608   2.095   2.304   7.944
 1350TIP3    H125609   2.037   2.233   7.973
 1350TIP3    H225610   2.044   2.384   7.959
 1351TIP3   OH225611   3.054   0.770   8.270
 1351TIP3    H125612   3.096   0.688   8.297
 1351TIP3    H225613   3.106   0.801   8.196
 1352TIP3   OH225614   2.396   1.459   1.405
 1352TIP3    H125615   2.306   1.425   1.401
 1352TIP3    H225616   2.398   1.531   1.343
 1353TIP3   OH225617   4.132   3.062   7.297
 1353TIP3    H125618   4.197   3.094   7.360
 1353TIP3    H225619   4.081   3.140   7.273
 1354TIP3   OH225620   0.724   0.478   2.040
 1354TIP3    H125621   0.812   0.467   2.076
 1354TIP3    H225622   0.725   0.567   2.004
 1355TIP3   OH225623   0.303   5.603   0.566
 1355TIP3    H125624   0.316   5.518   0.525
 1355TIP3    H225625   0.216   5.597   0.607
 1356TIP3   OH225626   1.617   3.543   0.850
 1356TIP3    H125627   1.672   3.559   0.928
 1356TIP3    H225628   1.594   3.451   0.856
 1357TIP3   OH225629   0.295   2.055   0.346
 1357TIP3    H125630   0.284   2.121   0.278
 1357TIP3    H225631   0.388   2.059   0.368
 1358TIP3   OH225632   0.218   0.697   0.700
 1358TIP3    H125633   0.306   0.721   0.729
 1358TIP3    H225634   0.207   0.606   0.727
 1359TIP3   OH225635   3.385   4.603   8.173
 1359TIP3    H125636   3.404   4.613   8.079
 1359TIP3    H225637   3.451   4.541   8.204
 1360TIP3   OH225638   2.109   1.766   2.264
 1360TIP3    H125639   2.161   1.686   2.262
 1360TIP3    H225640   2.137   1.811   2.344
 1361TIP3   OH225641   3.625   3.756   1.076
 1361TIP3    H125642   3.687   3.743   1.147
 1361TIP3    H225643   3.540   3.731   1.113
 1362TIP3   OH225644   0.916   5.208   7.103
 1362TIP3    H125645   0.884   5.264   7.174
 1362TIP3    H225646   0.854   5.134   7.102
 1363TIP3   OH225647   2.838   1.973   0.329
 1363TIP3    H125648   2.827   1.897   0.386
 1363TIP3    H225649   2.922   2.011   0.355
 1364TIP3   OH225650   6.483   0.096   6.925
 1364TIP3    H125651   6.579   0.088   6.926
 1364TIP3    H225652   6.468   0.188   6.903
 1365TIP3   OH225653   0.046   6.222   1.943
 1365TIP3    H125654   6.786   6.147   1.924
 1365TIP3    H225655   0.041   6.277   1.865
 1366TIP3   OH225656   1.937   4.346   1.923
 1366TIP3    H125657   1.956   4.384   2.009
 1366TIP3    H225658   1.929   4.252   1.940
 1367TIP3   OH225659   2.812   0.728   7.645
 1367TIP3    H125660   2.744   0.770   7.698
 1367TIP3    H225661   2.814   0.638   7.676
 1368TIP3   OH225662   4.870   2.413   8.528
 1368TIP3    H125663   4.802   2.400   8.593
 1368TIP3    H225664   4.892   2.325   8.498
 1369TIP3   OH225665   1.239   6.752   7.344
 1369TIP3    H125666   1.243   0.015   7.419
 1369TIP3    H225667   1.296   6.791   7.279
 1370TIP3   OH225668   6.511   4.144   6.674
 1370TIP3    H125669   6.602   4.171   6.661
 1370TIP3    H225670   6.516   4.050   6.693
 1371TIP3   OH225671   2.529   4.990   0.158
 1371TIP3    H125672   2.548   4.905   0.118
 1371TIP3    H225673   2.587   4.995   0.234
 1372TIP3   OH225674   5.386   1.531   0.896
 1372TIP3    H125675   5.330   1.489   0.831
 1372TIP3    H225676   5.382   1.474   0.972
 1373TIP3   OH225677   6.339   3.313   7.755
 1373TIP3    H125678   6.420   3.347   7.794
 1373TIP3    H225679   6.312   3.242   7.813
 1374TIP3   OH225680   3.606   0.791   8.312
 1374TIP3    H125681   3.587   0.803   8.218
 1374TIP3    H225682   3.698   0.816   8.321
 1375TIP3   OH225683   6.731   0.440   7.536
 1375TIP3    H125684   6.766   0.462   7.449
 1375TIP3    H225685   6.697   0.523   7.569
 1376TIP3   OH225686   4.300   6.389   8.425
 1376TIP3    H125687   4.332   6.434   8.503
 1376TIP3    H225688   4.205   6.393   8.431
 1377TIP3   OH225689   4.079   1.122   0.816
 1377TIP3    H125690   4.126   1.093   0.739
 1377TIP3    H225691   4.095   1.054   0.882
 1378TIP3   OH225692   5.731   4.271   8.115
 1378TIP3    H125693   5.748   4.355   8.157
 1378TIP3    H225694   5.723   4.208   8.187
 1379TIP3   OH225695   2.443   4.136   0.478
 1379TIP3    H125696   2.353   4.166   0.487
 1379TIP3    H225697   2.495   4.202   0.522
 1380TIP3   OH225698   5.320   1.732   8.520
 1380TIP3    H125699   5.288   1.777   8.442
 1380TIP3    H225700   5.414   1.724   8.507
 1381TIP3   OH225701   5.260   0.891   8.101
 1381TIP3    H125702   5.312   0.815   8.075
 1381TIP3    H225703   5.249   0.881   8.196
 1382TIP3   OH225704   2.676   4.026   2.202
 1382TIP3    H125705   2.602   4.015   2.143
 1382TIP3    H225706   2.637   4.034   2.289
 1383TIP3   OH225707   1.696   2.699   2.609
 1383TIP3    H125708   1.677   2.791   2.626
 1383TIP3    H225709   1.615   2.664   2.573
 1384TIP3   OH225710   3.077   6.027   8.459
 1384TIP3    H125711   3.127   6.107   8.442
 1384TIP3    H225712   3.045   6.001   8.373
 1385TIP3   OH225713   6.324   4.397   1.850
 1385TIP3    H125714   6.303   4.399   1.943
 1385TIP3    H225715   6.320   4.305   1.826
 1386TIP3   OH225716   6.257   3.396   0.505
 1386TIP3    H125717   6.193   3.353   0.449
 1386TIP3    H225718   6.206   3.435   0.576
 1387TIP3   OH225719   1.373   6.309   7.888
 1387TIP3    H125720   1.343   6.331   7.976
 1387TIP3    H225721   1.469   6.313   7.893
 1388TIP3   OH225722   2.748   3.361   7.753
 1388TIP3    H125723   2.716   3.279   7.715
 1388TIP3    H225724   2.771   3.415   7.678
 1389TIP3   OH225725   4.587   5.986   7.603
 1389TIP3    H125726   4.553   5.928   7.536
 1389TIP3    H225727   4.636   6.053   7.555
 1390TIP3   OH225728   3.405   5.857   1.985
 1390TIP3    H125729   3.384   5.930   2.044
 1390TIP3    H225730   3.325   5.804   1.983
 1391TIP3   OH225731   3.747   0.165   0.704
 1391TIP3    H125732   3.824   0.178   0.648
 1391TIP3    H225733   3.748   0.241   0.763
 1392TIP3   OH225734   6.759   4.290   7.802
 1392TIP3    H125735   0.022   4.255   7.868
 1392TIP3    H225736   6.678   4.240   7.813
 1393TIP3   OH225737   5.070   5.486   7.229
 1393TIP3    H125738   5.030   5.517   7.147
 1393TIP3    H225739   5.048   5.393   7.233
 1394TIP3   OH225740   0.811   4.447   7.360
 1394TIP3    H125741   0.763   4.393   7.423
 1394TIP3    H225742   0.793   4.407   7.275
 1395TIP3   OH225743   4.377   0.956   1.891
 1395TIP3    H125744   4.372   0.909   1.808
 1395TIP3    H225745   4.288   0.956   1.925
 1396TIP3   OH225746   6.658   0.235   8.111
 1396TIP3    H125747   6.685   0.166   8.172
 1396TIP3    H225748   6.647   0.313   8.165
 1397TIP3   OH225749   5.595   1.644   0.776
 1397TIP3    H125750   5.591   1.725   0.826
 1397TIP3    H225751   5.525   1.589   0.813
 1398TIP3   OH225752   4.014   0.371   0.973
 1398TIP3    H125753   4.082   0.317   1.014
 1398TIP3    H225754   4.018   0.455   1.019
 1399TIP3   OH225755   6.630   2.559   0.406
 1399TIP3    H125756   6.624   2.641   0.358
 1399TIP3    H225757   6.710   2.517   0.374
 1400TIP3   OH225758   4.650   0.574   7.018
 1400TIP3    H125759   4.618   0.580   6.927
 1400TIP3    H225760   4.676   0.482   7.028
 1401TIP3   OH225761   3.430   5.280   0.765
 1401TIP3    H125762   3.490   5.349   0.794
 1401TIP3    H225763   3.437   5.213   0.833
 1402TIP3   OH225764   3.534   5.103   8.409
 1402TIP3    H125765   3.447   5.142   8.398
 1402TIP3    H225766   3.542   5.089   8.503
 1403TIP3   OH225767   5.914   3.990   1.786
 1403TIP3    H125768   5.834   4.039   1.804
 1403TIP3    H225769   5.982   4.034   1.836
 1404TIP3   OH225770   6.700   6.612   7.788
 1404TIP3    H125771   6.699   6.661   7.870
 1404TIP3    H225772   6.741   6.529   7.810
 1405TIP3   OH225773   3.053   1.081   7.991
 1405TIP3    H125774   3.130   1.035   8.024
 1405TIP3    H225775   2.981   1.018   8.003
 1406TIP3   OH225776   4.362   1.762   1.006
 1406TIP3    H125777   4.316   1.825   0.950
 1406TIP3    H225778   4.415   1.710   0.945
 1407TIP3   OH225779   1.504   5.746   1.651
 1407TIP3    H125780   1.579   5.758   1.592
 1407TIP3    H225781   1.436   5.802   1.615
 1408TIP3   OH225782   5.611   1.145   0.189
 1408TIP3    H125783   5.543   1.084   0.162
 1408TIP3    H225784   5.647   1.179   0.108
 1409TIP3   OH225785   3.869   2.291   0.424
 1409TIP3    H125786   3.792   2.235   0.414
 1409TIP3    H225787   3.839   2.378   0.399
 1410TIP3   OH225788   1.462   1.364   7.054
 1410TIP3    H125789   1.487   1.417   6.978
 1410TIP3    H225790   1.457   1.274   7.019
 1411TIP3   OH225791   0.658   5.069   7.651
 1411TIP3    H125792   0.597   4.999   7.672
 1411TIP3    H225793   0.603   5.145   7.634
 1412TIP3   OH225794   1.080   5.969   0.094
 1412TIP3    H125795   1.032   5.926   0.023
 1412TIP3    H225796   1.134   6.035   0.049
 1413TIP3   OH225797   3.606   2.598   8.806
 1413TIP3    H125798   3.528   2.545   8.789
 1413TIP3    H225799   3.597   2.674   8.748
 1414TIP3   OH225800   1.064   3.223   0.815
 1414TIP3    H125801   1.057   3.303   0.866
 1414TIP3    H225802   1.003   3.162   0.856
 1415TIP3   OH225803   5.274   0.852   0.593
 1415TIP3    H125804   5.233   0.806   0.666
 1415TIP3    H225805   5.221   0.830   0.517
 1416TIP3   OH225806   5.601   4.954   7.764
 1416TIP3    H125807   5.619   4.872   7.811
 1416TIP3    H225808   5.596   4.929   7.672
 1417TIP3   OH225809   5.586   5.466   1.436
 1417TIP3    H125810   5.518   5.507   1.490
 1417TIP3    H225811   5.559   5.485   1.346
 1418TIP3   OH225812   5.429   4.706   0.425
 1418TIP3    H125813   5.474   4.629   0.390
 1418TIP3    H225814   5.344   4.673   0.454
 1419TIP3   OH225815   5.652   2.423   8.370
 1419TIP3    H125816   5.558   2.419   8.352
 1419TIP3    H225817   5.694   2.419   8.284
 1420TIP3   OH225818   1.356   2.476   0.318
 1420TIP3    H125819   1.391   2.565   0.321
 1420TIP3    H225820   1.340   2.460   0.225
 1421TIP3   OH225821   4.455   3.214   8.858
 1421TIP3    H125822   4.541   3.174   8.874
 1421TIP3    H225823   4.400   3.141   8.830
 1422TIP3   OH225824   6.344   0.594   7.087
 1422TIP3    H125825   6.431   0.609   7.125
 1422TIP3    H225826   6.349   0.633   6.999
 1423TIP3   OH225827   4.270   3.738   8.480
 1423TIP3    H125828   4.250   3.739   8.574
 1423TIP3    H225829   4.325   3.661   8.468
 1424TIP3   OH225830   6.302   3.572   8.435
 1424TIP3    H125831   6.288   3.481   8.411
 1424TIP3    H225832   6.227   3.595   8.490
 1425TIP3   OH225833   4.054   3.166   0.515
 1425TIP3    H125834   4.129   3.185   0.572
 1425TIP3    H225835   3.979   3.202   0.562
 1426TIP3   OH225836   3.930   0.046   8.562
 1426TIP3    H125837   3.901   0.054   8.652
 1426TIP3    H225838   4.009   6.789   8.567
 1427TIP3   OH225839   4.971   3.476   1.185
 1427TIP3    H125840   4.909   3.513   1.122
 1427TIP3    H225841   4.947   3.383   1.191
 1428TIP3   OH225842   1.801   0.429   8.115
 1428TIP3    H125843   1.837   0.460   8.198
 1428TIP3    H225844   1.731   0.369   8.140
 1429TIP3   OH225845   3.780   6.736   8.760
 1429TIP3    H125846   3.719   6.794   8.807
 1429TIP3    H225847   3.843   6.708   8.826
 1430TIP3   OH225848   5.430   2.308   0.541
 1430TIP3    H125849   5.409   2.226   0.496
 1430TIP3    H225850   5.347   2.335   0.580
 1431TIP3   OH225851   1.861   3.035   8.401
 1431TIP3    H125852   1.818   2.985   8.332
 1431TIP3    H225853   1.789   3.070   8.454
 1432TIP3   OH225854   1.268   0.521   0.216
 1432TIP3    H125855   1.277   0.427   0.231
 1432TIP3    H225856   1.214   0.551   0.289
 1433TIP3   OH225857   4.228   0.001   8.240
 1433TIP3    H125858   4.282   6.749   8.303
 1433TIP3    H225859   4.256   0.092   8.249
 1434TIP3   OH225860   5.178   0.588   7.985
 1434TIP3    H125861   5.241   0.591   8.057
 1434TIP3    H225862   5.230   0.561   7.909
 1435TIP3   OH225863   1.905   4.285   1.603
 1435TIP3    H125864   1.966   4.293   1.677
 1435TIP3    H225865   1.819   4.282   1.645
 1436TIP3   OH225866   3.020   6.016   8.009
 1436TIP3    H125867   2.956   5.993   7.942
 1436TIP3    H225868   2.978   6.084   8.061
 1437TIP3   OH225869   1.405   2.425   8.187
 1437TIP3    H125870   1.404   2.399   8.279
 1437TIP3    H225871   1.316   2.455   8.170
 1438TIP3   OH225872   3.136   4.161   1.252
 1438TIP3    H125873   3.163   4.203   1.334
 1438TIP3    H225874   3.170   4.219   1.183
 1439TIP3   OH225875   5.896   1.616   0.471
 1439TIP3    H125876   5.890   1.583   0.382
 1439TIP3    H225877   5.928   1.706   0.461
 1440TIP3   OH225878   2.436   0.289   6.495
 1440TIP3    H125879   2.499   0.223   6.466
 1440TIP3    H225880   2.372   0.294   6.424
 1441TIP3   OH225881   3.011   2.166   6.949
 1441TIP3    H125882   2.969   2.248   6.975
 1441TIP3    H225883   2.954   2.097   6.982
 1442TIP3   OH225884   4.545   1.537   1.913
 1442TIP3    H125885   4.598   1.465   1.879
 1442TIP3    H225886   4.562   1.537   2.008
 1443TIP3   OH225887   3.973   2.981   0.177
 1443TIP3    H125888   4.054   2.932   0.169
 1443TIP3    H225889   3.934   2.950   0.259
 1444TIP3   OH225890   5.400   2.172   0.150
 1444TIP3    H125891   5.330   2.229   0.118
 1444TIP3    H225892   5.473   2.189   0.091
 1445TIP3   OH225893   0.062   2.743   1.420
 1445TIP3    H125894   0.133   2.802   1.444
 1445TIP3    H225895   0.004   2.797   1.365
 1446TIP3   OH225896   1.374   2.784   2.499
 1446TIP3    H125897   1.353   2.709   2.555
 1446TIP3    H225898   1.357   2.860   2.554
 1447TIP3   OH225899   5.009   1.510   0.890
 1447TIP3    H125900   5.006   1.469   0.976
 1447TIP3    H225901   4.928   1.482   0.847
 1448TIP3   OH225902   6.432   4.517   2.267
 1448TIP3    H125903   6.369   4.485   2.201
 1448TIP3    H225904   6.516   4.479   2.240
 1449TIP3   OH225905   6.587   2.582   1.383
 1449TIP3    H125906   6.584   2.502   1.330
 1449TIP3    H225907   6.616   2.552   1.469
 1450TIP3   OH225908   1.892   3.398   8.171
 1450TIP3    H125909   1.798   3.379   8.171
 1450TIP3    H225910   1.902   3.464   8.102
 1451TIP3   OH225911   5.339   5.441   7.582
 1451TIP3    H125912   5.338   5.346   7.589
 1451TIP3    H225913   5.255   5.463   7.541
 1452TIP3   OH225914   2.222   0.802   6.546
 1452TIP3    H125915   2.235   0.731   6.483
 1452TIP3    H225916   2.279   0.872   6.515
 1453TIP3   OH225917   6.141   6.056   0.581
 1453TIP3    H125918   6.179   6.113   0.514
 1453TIP3    H225919   6.193   6.073   0.660
 1454TIP3   OH225920   0.755   4.854   1.477
 1454TIP3    H125921   0.673   4.811   1.452
 1454TIP3    H225922   0.824   4.799   1.440
 1455TIP3   OH225923   5.768   4.666   2.493
 1455TIP3    H125924   5.815   4.748   2.509
 1455TIP3    H225925   5.702   4.689   2.427
 1456TIP3   OH225926   2.249   3.038   1.035
 1456TIP3    H125927   2.204   3.021   1.117
 1456TIP3    H225928   2.338   3.062   1.060
 1457TIP3   OH225929   2.494   3.625   7.737
 1457TIP3    H125930   2.527   3.536   7.730
 1457TIP3    H225931   2.508   3.648   7.829
 1458TIP3   OH225932   2.118   6.371   0.691
 1458TIP3    H125933   2.138   6.450   0.741
 1458TIP3    H225934   2.189   6.311   0.712
 1459TIP3   OH225935   3.824   0.689   1.553
 1459TIP3    H125936   3.897   0.737   1.513
 1459TIP3    H225937   3.866   0.626   1.612
 1460TIP3   OH225938   2.526   5.965   0.114
 1460TIP3    H125939   2.458   5.952   0.048
 1460TIP3    H225940   2.478   5.966   0.197
 1461TIP3   OH225941   5.001   1.921   0.195
 1461TIP3    H125942   5.037   1.875   0.271
 1461TIP3    H225943   4.944   1.857   0.153
 1462TIP3   OH225944   2.584   1.647   1.516
 1462TIP3    H125945   2.515   1.713   1.518
 1462TIP3    H225946   2.538   1.564   1.524
 1463TIP3   OH225947   4.867   5.937   0.518
 1463TIP3    H125948   4.818   6.013   0.487
 1463TIP3    H225949   4.911   5.903   0.440
 1464TIP3   OH225950   3.500   1.969   7.427
 1464TIP3    H125951   3.504   1.985   7.522
 1464TIP3    H225952   3.427   2.023   7.397
 1465TIP3   OH225953   4.867   6.347   2.589
 1465TIP3    H125954   4.865   6.262   2.633
 1465TIP3    H225955   4.958   6.357   2.560
 1466TIP3   OH225956   0.758   2.646   7.168
 1466TIP3    H125957   0.687   2.676   7.226
 1466TIP3    H225958   0.729   2.560   7.138
 1467TIP3   OH225959   1.216   2.520   1.990
 1467TIP3    H125960   1.287   2.486   2.044
 1467TIP3    H225961   1.160   2.444   1.973
 1468TIP3   OH225962   5.095   4.190   8.285
 1468TIP3    H125963   5.021   4.201   8.225
 1468TIP3    H225964   5.062   4.222   8.369
 1469TIP3   OH225965   6.442   3.381   0.747
 1469TIP3    H125966   6.348   3.363   0.735
 1469TIP3    H225967   6.445   3.473   0.773
 1470TIP3   OH225968   6.571   0.763   1.793
 1470TIP3    H125969   6.532   0.824   1.856
 1470TIP3    H225970   6.654   0.737   1.833
 1471TIP3   OH225971   2.486   5.202   2.472
 1471TIP3    H125972   2.482   5.152   2.391
 1471TIP3    H225973   2.472   5.137   2.541
 1472TIP3   OH225974   1.422   1.421   0.649
 1472TIP3    H125975   1.371   1.364   0.591
 1472TIP3    H225976   1.511   1.386   0.644
 1473TIP3   OH225977   0.336   5.383   1.537
 1473TIP3    H125978   0.388   5.455   1.501
 1473TIP3    H225979   0.365   5.375   1.628
 1474TIP3   OH225980   5.093   2.649   0.202
 1474TIP3    H125981   5.055   2.681   0.120
 1474TIP3    H225982   5.027   2.588   0.236
 1475TIP3   OH225983   0.573   2.025   0.391
 1475TIP3    H125984   0.665   1.998   0.382
 1475TIP3    H225985   0.574   2.093   0.458
 1476TIP3   OH225986   4.568   4.607   1.756
 1476TIP3    H125987   4.548   4.513   1.760
 1476TIP3    H225988   4.604   4.627   1.843
 1477TIP3   OH225989   3.669   3.650   1.811
 1477TIP3    H125990   3.698   3.738   1.790
 1477TIP3    H225991   3.743   3.610   1.857
 1478TIP3   OH225992   0.003   3.040   6.903
 1478TIP3    H125993   6.738   2.998   6.963
 1478TIP3    H225994   6.744   3.096   6.849
 1479TIP3   OH225995   5.798   5.233   0.299
 1479TIP3    H125996   5.870   5.289   0.271
 1479TIP3    H225997   5.800   5.159   0.238
 1480TIP3   OH225998   5.063   3.735   2.174
 1480TIP3    H125999   5.022   3.821   2.188
 1480TIP3    H226000   5.063   3.695   2.261
 1481TIP3   OH226001   5.782   2.633   6.940
 1481TIP3    H126002   5.755   2.724   6.928
 1481TIP3    H226003   5.846   2.636   7.011
 1482TIP3   OH226004   6.218   3.100   8.506
 1482TIP3    H126005   6.146   3.112   8.568
 1482TIP3    H226006   6.247   3.009   8.520
 1483TIP3   OH226007   3.102   0.828   1.179
 1483TIP3    H126008   3.010   0.839   1.152
 1483TIP3    H226009   3.138   0.917   1.176
 1484TIP3   OH226010   3.565   5.562   0.765
 1484TIP3    H126011   3.626   5.629   0.735
 1484TIP3    H226012   3.568   5.567   0.860
 1485TIP3   OH226013   1.109   0.323   6.253
 1485TIP3    H126014   1.047   0.336   6.324
 1485TIP3    H226015   1.066   0.259   6.195
 1486TIP3   OH226016   2.291   2.823   1.339
 1486TIP3    H126017   2.340   2.799   1.260
 1486TIP3    H226018   2.328   2.907   1.365
 1487TIP3   OH226019   0.452   1.647   7.777
 1487TIP3    H126020   0.520   1.593   7.817
 1487TIP3    H226021   0.481   1.737   7.790
 1488TIP3   OH226022   1.300   2.343   7.643
 1488TIP3    H126023   1.351   2.267   7.615
 1488TIP3    H226024   1.250   2.368   7.566
 1489TIP3   OH226025   0.946   5.251   1.808
 1489TIP3    H126026   0.989   5.167   1.824
 1489TIP3    H226027   0.944   5.259   1.712
 1490TIP3   OH226028   1.864   2.186   1.379
 1490TIP3    H126029   1.916   2.230   1.447
 1490TIP3    H226030   1.847   2.099   1.415
 1491TIP3   OH226031   2.699   5.290   2.208
 1491TIP3    H126032   2.768   5.322   2.149
 1491TIP3    H226033   2.720   5.198   2.222
 1492TIP3   OH226034   0.973   4.540   8.082
 1492TIP3    H126035   1.021   4.501   8.154
 1492TIP3    H226036   0.906   4.475   8.060
 1493TIP3   OH226037   2.052   1.526   8.390
 1493TIP3    H126038   2.019   1.460   8.329
 1493TIP3    H226039   2.026   1.493   8.476
 1494TIP3   OH226040   0.342   2.792   1.671
 1494TIP3    H126041   0.294   2.731   1.726
 1494TIP3    H226042   0.290   2.873   1.673
 1495TIP3   OH226043   4.820   5.841   1.723
 1495TIP3    H126044   4.780   5.928   1.726
 1495TIP3    H226045   4.880   5.840   1.798
 1496TIP3   OH226046   0.177   2.013   1.504
 1496TIP3    H126047   0.108   2.045   1.562
 1496TIP3    H226048   0.148   2.038   1.416
 1497TIP3   OH226049   5.445   6.001   2.481
 1497TIP3    H126050   5.486   5.969   2.401
 1497TIP3    H226051   5.498   6.078   2.506
 1498TIP3   OH226052   0.753   5.310   8.231
 1498TIP3    H126053   0.836   5.263   8.222
 1498TIP3    H226054   0.780   5.402   8.241
 1499TIP3   OH226055   1.519   3.805   0.812
 1499TIP3    H126056   1.473   3.841   0.888
 1499TIP3    H226057   1.553   3.721   0.842
 1500TIP3   OH226058   4.971   5.512   2.071
 1500TIP3    H126059   4.985   5.480   2.160
 1500TIP3    H226060   4.934   5.600   2.083
 1501TIP3   OH226061   3.912   3.757   7.585
 1501TIP3    H126062   3.881   3.823   7.524
 1501TIP3    H226063   4.005   3.746   7.563
 1502TIP3   OH226064   3.838   1.206   7.406
 1502TIP3    H126065   3.745   1.183   7.416
 1502TIP3    H226066   3.854   1.203   7.311
 1503TIP3   OH226067   3.533   1.601   0.092
 1503TIP3    H126068   3.608   1.572   0.144
 1503TIP3    H226069   3.520   1.532   0.027
 1504TIP3   OH226070   6.604   3.362   2.627
 1504TIP3    H126071   6.585   3.295   2.692
 1504TIP3    H226072   6.519   3.384   2.588
 1505TIP3   OH226073   2.774   0.608   8.013
 1505TIP3    H126074   2.769   0.525   7.966
 1505TIP3    H226075   2.748   0.586   8.103
 1506TIP3   OH226076   0.106   6.275   7.213
 1506TIP3    H126077   0.123   6.356   7.261
 1506TIP3    H226078   0.023   6.291   7.168
 1507TIP3   OH226079   2.140   1.089   1.452
 1507TIP3    H126080   2.216   1.042   1.419
 1507TIP3    H226081   2.156   1.098   1.546
 1508TIP3   OH226082   2.068   0.142   1.505
 1508TIP3    H126083   2.131   0.079   1.470
 1508TIP3    H226084   2.109   0.176   1.585
 1509TIP3   OH226085   5.025   5.206   7.228
 1509TIP3    H126086   4.929   5.198   7.229
 1509TIP3    H226087   5.053   5.137   7.167
 1510TIP3   OH226088   1.969   3.992   0.404
 1510TIP3    H126089   2.035   4.049   0.364
 1510TIP3    H226090   1.888   4.013   0.357
 1511TIP3   OH226091   0.157   5.708   2.458
 1511TIP3    H126092   0.188   5.666   2.538
 1511TIP3    H226093   0.133   5.797   2.485
 1512TIP3   OH226094   1.131   6.315   2.184
 1512TIP3    H126095   1.179   6.395   2.164
 1512TIP3    H226096   1.044   6.328   2.146
 1513TIP3   OH226097   1.420   4.780   1.401
 1513TIP3    H126098   1.442   4.852   1.341
 1513TIP3    H226099   1.325   4.787   1.414
 1514TIP3   OH226100   2.758   3.638   6.969
 1514TIP3    H126101   2.821   3.566   6.956
 1514TIP3    H226102   2.694   3.626   6.899
 1515TIP3   OH226103   3.554   2.965   6.929
 1515TIP3    H126104   3.644   2.969   6.960
 1515TIP3    H226105   3.551   2.887   6.873
 1516TIP3   OH226106   5.320   3.009   1.516
 1516TIP3    H126107   5.403   3.041   1.482
 1516TIP3    H226108   5.283   3.082   1.564
 1517TIP3   OH226109   4.519   1.978   1.159
 1517TIP3    H126110   4.495   2.059   1.114
 1517TIP3    H226111   4.524   1.912   1.090
 1518TIP3   OH226112   3.299   2.831   7.567
 1518TIP3    H126113   3.383   2.865   7.599
 1518TIP3    H226114   3.253   2.908   7.534
 1519TIP3   OH226115   1.076   4.116   7.505
 1519TIP3    H126116   0.985   4.127   7.530
 1519TIP3    H226117   1.101   4.201   7.469
 1520TIP3   OH226118   1.276   5.496   0.196
 1520TIP3    H126119   1.308   5.563   0.136
 1520TIP3    H226120   1.220   5.544   0.258
 1521TIP3   OH226121   0.228   1.668   8.021
 1521TIP3    H126122   0.195   1.737   7.963
 1521TIP3    H226123   0.322   1.670   8.008
 1522TIP3   OH226124   3.872   6.752   0.161
 1522TIP3    H126125   3.905   6.673   0.203
 1522TIP3    H226126   3.936   0.024   0.182
 1523TIP3   OH226127   4.899   1.051   1.326
 1523TIP3    H126128   4.971   1.007   1.280
 1523TIP3    H226129   4.855   1.103   1.258
 1524TIP3   OH226130   2.959   6.261   7.477
 1524TIP3    H126131   2.973   6.350   7.445
 1524TIP3    H226132   2.909   6.218   7.408
 1525TIP3   OH226133   6.138   0.363   7.766
 1525TIP3    H126134   6.216   0.413   7.742
 1525TIP3    H226135   6.082   0.367   7.688
 1526TIP3   OH226136   2.052   1.855   1.903
 1526TIP3    H126137   1.997   1.802   1.961
 1526TIP3    H226138   2.100   1.792   1.850
 1527TIP3   OH226139   0.534   3.043   2.369
 1527TIP3    H126140   0.511   3.117   2.425
 1527TIP3    H226141   0.598   2.993   2.419
 1528TIP3   OH226142   6.615   2.945   8.318
 1528TIP3    H126143   6.669   3.005   8.369
 1528TIP3    H226144   6.531   2.942   8.364
 1529TIP3   OH226145   1.422   0.986   1.835
 1529TIP3    H126146   1.508   1.003   1.874
 1529TIP3    H226147   1.380   0.923   1.894
 1530TIP3   OH226148   0.742   1.732   0.989
 1530TIP3    H126149   0.793   1.764   0.914
 1530TIP3    H226150   0.807   1.712   1.056
 1531TIP3   OH226151   0.326   5.868   2.054
 1531TIP3    H126152   0.374   5.914   1.985
 1531TIP3    H226153   0.240   5.850   2.015
 1532TIP3   OH226154   0.782   4.100   6.758
 1532TIP3    H126155   0.711   4.101   6.694
 1532TIP3    H226156   0.819   4.188   6.754
 1533TIP3   OH226157   4.264   6.466   0.853
 1533TIP3    H126158   4.248   6.504   0.766
 1533TIP3    H226159   4.210   6.386   0.854
 1534TIP3   OH226160   6.452   3.808   0.820
 1534TIP3    H126161   6.510   3.786   0.747
 1534TIP3    H226162   6.368   3.767   0.797
 1535TIP3   OH226163   0.348   0.528   1.146
 1535TIP3    H126164   0.270   0.522   1.201
 1535TIP3    H226165   0.341   0.614   1.104
 1536TIP3   OH226166   3.391   6.408   2.129
 1536TIP3    H126167   3.457   6.363   2.182
 1536TIP3    H226168   3.440   6.447   2.057
 1537TIP3   OH226169   1.839   4.269   2.262
 1537TIP3    H126170   1.761   4.261   2.206
 1537TIP3    H226171   1.881   4.349   2.232
 1538TIP3   OH226172   4.101   2.827   2.381
 1538TIP3    H126173   4.058   2.870   2.307
 1538TIP3    H226174   4.184   2.796   2.346
 1539TIP3   OH226175   2.679   0.528   8.274
 1539TIP3    H126176   2.718   0.456   8.323
 1539TIP3    H226177   2.605   0.556   8.329
 1540TIP3   OH226178   4.483   3.065   7.311
 1540TIP3    H126179   4.449   3.128   7.248
 1540TIP3    H226180   4.471   2.979   7.269
 1541TIP3   OH226181   0.170   0.505   1.368
 1541TIP3    H126182   0.135   0.548   1.446
 1541TIP3    H226183   0.209   0.424   1.400
 1542TIP3   OH226184   2.186   5.487   0.043
 1542TIP3    H126185   2.208   5.407   8.870
 1542TIP3    H226186   2.227   5.557   8.866
 1543TIP3   OH226187   2.443   4.974   8.460
 1543TIP3    H126188   2.522   4.991   8.409
 1543TIP3    H226189   2.467   4.995   8.550
 1544TIP3   OH226190   1.942   1.927   0.961
 1544TIP3    H126191   1.885   1.930   0.884
 1544TIP3    H226192   1.972   1.836   0.965
 1545TIP3   OH226193   6.331   2.005   8.737
 1545TIP3    H126194   6.238   2.008   8.715
 1545TIP3    H226195   6.374   1.980   8.655
 1546TIP3   OH226196   2.525   5.882   7.342
 1546TIP3    H126197   2.611   5.874   7.301
 1546TIP3    H226198   2.463   5.872   7.269
 1547TIP3   OH226199   5.741   2.859   7.152
 1547TIP3    H126200   5.688   2.919   7.205
 1547TIP3    H226201   5.717   2.881   7.062
 1548TIP3   OH226202   5.632   4.416   6.521
 1548TIP3    H126203   5.716   4.393   6.561
 1548TIP3    H226204   5.592   4.331   6.500
 1549TIP3   OH226205   1.448   0.406   1.329
 1549TIP3    H126206   1.477   0.330   1.379
 1549TIP3    H226207   1.444   0.477   1.393
 1550TIP3   OH226208   0.177   1.792   2.092
 1550TIP3    H126209   0.160   1.770   2.000
 1550TIP3    H226210   0.268   1.823   2.093
 1551TIP3   OH226211   0.341   0.226   0.231
 1551TIP3    H126212   0.275   0.210   0.299
 1551TIP3    H226213   0.381   0.310   0.256
 1552TIP3   OH226214   2.724   6.770   0.472
 1552TIP3    H126215   2.712   0.061   0.434
 1552TIP3    H226216   2.694   6.709   0.405
 1553TIP3   OH226217   2.840   6.467   1.385
 1553TIP3    H126218   2.847   6.436   1.295
 1553TIP3    H226219   2.812   6.558   1.376
 1554TIP3   OH226220   3.781   4.025   0.590
 1554TIP3    H126221   3.818   3.938   0.604
 1554TIP3    H226222   3.696   4.009   0.549
 1555TIP3   OH226223   0.698   5.496   0.930
 1555TIP3    H126224   0.693   5.582   0.971
 1555TIP3    H226225   0.751   5.510   0.852
 1556TIP3   OH226226   5.428   0.724   1.932
 1556TIP3    H126227   5.411   0.767   2.016
 1556TIP3    H226228   5.347   0.735   1.883
 1557TIP3   OH226229   1.822   1.802   7.339
 1557TIP3    H126230   1.732   1.770   7.333
 1557TIP3    H226231   1.815   1.897   7.338
 1558TIP3   OH226232   6.138   4.755   7.458
 1558TIP3    H126233   6.090   4.694   7.514
 1558TIP3    H226234   6.073   4.785   7.395
 1559TIP3   OH226235   0.535   2.577   0.147
 1559TIP3    H126236   0.557   2.489   0.117
 1559TIP3    H226237   0.602   2.633   0.108
 1560TIP3   OH226238   3.443   3.383   7.845
 1560TIP3    H126239   3.377   3.368   7.777
 1560TIP3    H226240   3.500   3.450   7.809
 1561TIP3   OH226241   1.895   3.178   1.006
 1561TIP3    H126242   1.849   3.201   0.925
 1561TIP3    H226243   1.896   3.082   1.006
 1562TIP3   OH226244   3.986   0.163   0.537
 1562TIP3    H126245   3.929   0.220   0.487
 1562TIP3    H226246   4.041   0.222   0.589
 1563TIP3   OH226247   5.563   5.978   8.854
 1563TIP3    H126248   5.497   5.950   8.790
 1563TIP3    H226249   5.515   5.991   0.061
 1564TIP3   OH226250   1.692   2.983   1.999
 1564TIP3    H126251   1.615   3.040   2.004
 1564TIP3    H226252   1.690   2.933   2.081
 1565TIP3   OH226253   0.523   1.911   7.747
 1565TIP3    H126254   0.508   1.862   7.666
 1565TIP3    H226255   0.489   1.999   7.729
 1566TIP3   OH226256   5.313   6.576   2.050
 1566TIP3    H126257   5.247   6.544   2.112
 1566TIP3    H226258   5.285   6.541   1.966
 1567TIP3   OH226259   6.701   6.774   1.975
 1567TIP3    H126260   6.677   6.697   2.027
 1567TIP3    H226261   6.793   6.788   1.994
 1568TIP3   OH226262   4.512   2.009   0.039
 1568TIP3    H126263   4.477   1.966   8.835
 1568TIP3    H226264   4.469   1.963   0.111
 1569TIP3   OH226265   1.835   5.540   1.368
 1569TIP3    H126266   1.740   5.553   1.358
 1569TIP3    H226267   1.865   5.619   1.413
 1570TIP3   OH226268   6.140   0.498   1.659
 1570TIP3    H126269   6.156   0.527   1.569
 1570TIP3    H226270   6.216   0.529   1.708
 1571TIP3   OH226271   2.036   5.297   8.119
 1571TIP3    H126272   1.982   5.306   8.041
 1571TIP3    H226273   2.019   5.208   8.150
 1572TIP3   OH226274   1.191   0.764   8.010
 1572TIP3    H126275   1.178   0.731   7.922
 1572TIP3    H226276   1.137   0.708   8.066
 1573TIP3   OH226277   0.200   2.346   8.540
 1573TIP3    H126278   0.205   2.342   8.636
 1573TIP3    H226279   0.117   2.304   8.518
 1574TIP3   OH226280   2.228   0.011   1.926
 1574TIP3    H126281   2.272   6.734   1.970
 1574TIP3    H226282   2.171   0.048   1.994
 1575TIP3   OH226283   0.407   2.129   7.652
 1575TIP3    H126284   0.320   2.152   7.686
 1575TIP3    H226285   0.418   2.186   7.576
 1576TIP3   OH226286   6.172   1.025   0.854
 1576TIP3    H126287   6.258   1.017   0.814
 1576TIP3    H226288   6.124   1.085   0.797
 1577TIP3   OH226289   1.974   4.468   7.934
 1577TIP3    H126290   2.065   4.494   7.945
 1577TIP3    H226291   1.946   4.441   8.021
 1578TIP3   OH226292   5.093   2.570   1.710
 1578TIP3    H126293   5.142   2.653   1.717
 1578TIP3    H226294   5.160   2.503   1.722
 1579TIP3   OH226295   4.131   1.188   8.653
 1579TIP3    H126296   4.079   1.148   8.723
 1579TIP3    H226297   4.105   1.280   8.653
 1580TIP3   OH226298   3.190   0.624   1.322
 1580TIP3    H126299   3.162   0.705   1.280
 1580TIP3    H226300   3.118   0.562   1.305
 1581TIP3   OH226301   6.275   2.252   8.859
 1581TIP3    H126302   6.302   2.163   8.839
 1581TIP3    H226303   6.280   2.298   8.776
 1582TIP3   OH226304   4.584   4.485   0.715
 1582TIP3    H126305   4.577   4.423   0.787
 1582TIP3    H226306   4.494   4.501   0.687
 1583TIP3   OH226307   1.407   5.479   1.695
 1583TIP3    H126308   1.359   5.492   1.777
 1583TIP3    H226309   1.456   5.561   1.683
 1584TIP3   OH226310   2.411   4.001   0.234
 1584TIP3    H126311   2.449   4.055   0.303
 1584TIP3    H226312   2.367   3.930   0.280
 1585TIP3   OH226313   0.013   3.619   1.125
 1585TIP3    H126314   0.002   3.709   1.095
 1585TIP3    H226315   0.107   3.609   1.137
 1586TIP3   OH226316   3.130   1.969   7.415
 1586TIP3    H126317   3.194   2.006   7.355
 1586TIP3    H226318   3.062   2.036   7.422
 1587TIP3   OH226319   2.539   4.596   8.033
 1587TIP3    H126320   2.468   4.554   8.080
 1587TIP3    H226321   2.613   4.536   8.044
 1588TIP3   OH226322   3.772   3.036   1.761
 1588TIP3    H126323   3.764   3.045   1.856
 1588TIP3    H226324   3.806   3.120   1.731
 1589TIP3   OH226325   2.038   3.800   7.929
 1589TIP3    H126326   2.059   3.880   7.976
 1589TIP3    H226327   2.124   3.763   7.906
 1590TIP3   OH226328   6.384   3.564   7.648
 1590TIP3    H126329   6.362   3.471   7.651
 1590TIP3    H226330   6.335   3.603   7.721
 1591TIP3   OH226331   4.756   3.064   7.912
 1591TIP3    H126332   4.690   3.130   7.890
 1591TIP3    H226333   4.819   3.070   7.840
 1592TIP3   OH226334   6.301   6.258   1.861
 1592TIP3    H126335   6.362   6.184   1.856
 1592TIP3    H226336   6.305   6.285   1.953
 1593TIP3   OH226337   3.108   5.555   7.221
 1593TIP3    H126338   3.130   5.648   7.212
 1593TIP3    H226339   3.171   5.521   7.284
 1594TIP3   OH226340   0.467   1.477   7.424
 1594TIP3    H126341   0.383   1.461   7.466
 1594TIP3    H226342   0.449   1.470   7.330
 1595TIP3   OH226343   3.340   2.175   1.820
 1595TIP3    H126344   3.389   2.149   1.898
 1595TIP3    H226345   3.255   2.133   1.830
 1596TIP3   OH226346   5.914   3.861   7.390
 1596TIP3    H126347   5.941   3.906   7.310
 1596TIP3    H226348   5.877   3.930   7.445
 1597TIP3   OH226349   2.126   3.239   2.549
 1597TIP3    H126350   2.105   3.212   2.460
 1597TIP3    H226351   2.200   3.298   2.540
 1598TIP3   OH226352   3.032   6.784   8.104
 1598TIP3    H126353   3.049   6.714   8.167
 1598TIP3    H226354   3.098   0.053   8.122
 1599TIP3   OH226355   4.338   5.623   1.826
 1599TIP3    H126356   4.418   5.598   1.871
 1599TIP3    H226357   4.268   5.578   1.874
 1600TIP3   OH226358   2.283   4.714   0.355
 1600TIP3    H126359   2.357   4.763   0.390
 1600TIP3    H226360   2.238   4.679   0.432
 1601TIP3   OH226361   3.786   5.426   0.888
 1601TIP3    H126362   3.817   5.336   0.874
 1601TIP3    H226363   3.710   5.417   0.944
 1602TIP3   OH226364   3.905   0.212   8.332
 1602TIP3    H126365   3.934   0.201   8.422
 1602TIP3    H226366   3.819   0.253   8.339
 1603TIP3   OH226367   6.583   2.383   0.587
 1603TIP3    H126368   6.596   2.465   0.539
 1603TIP3    H226369   6.631   2.318   0.536
 1604TIP3   OH226370   6.182   0.815   0.078
 1604TIP3    H126371   6.250   0.755   0.048
 1604TIP3    H226372   6.227   0.874   0.139
 1605TIP3   OH226373   2.321   2.334   6.400
 1605TIP3    H126374   2.336   2.325   6.494
 1605TIP3    H226375   2.403   2.305   6.360
 1606TIP3   OH226376   3.483   2.260   1.276
 1606TIP3    H126377   3.395   2.223   1.280
 1606TIP3    H226378   3.541   2.184   1.274
 1607TIP3   OH226379   4.778   5.271   2.076
 1607TIP3    H126380   4.802   5.332   2.006
 1607TIP3    H226381   4.682   5.269   2.073
 1608TIP3   OH226382   0.017   3.145   1.377
 1608TIP3    H126383   0.032   3.068   1.323
 1608TIP3    H226384   0.037   3.219   1.321
 1609TIP3   OH226385   2.410   5.261   7.613
 1609TIP3    H126386   2.440   5.241   7.701
 1609TIP3    H226387   2.385   5.354   7.616
 1610TIP3   OH226388   4.462   5.349   6.671
 1610TIP3    H126389   4.538   5.397   6.637
 1610TIP3    H226390   4.390   5.374   6.613
 1611TIP3   OH226391   3.990   6.323   6.203
 1611TIP3    H126392   3.917   6.304   6.262
 1611TIP3    H226393   4.067   6.290   6.249
 1612TIP3   OH226394   2.890   3.070   8.311
 1612TIP3    H126395   2.815   3.104   8.360
 1612TIP3    H226396   2.960   3.064   8.376
 1613TIP3   OH226397   1.569   1.526   8.665
 1613TIP3    H126398   1.620   1.598   8.627
 1613TIP3    H226399   1.498   1.511   8.603
 1614TIP3   OH226400   6.741   6.470   0.911
 1614TIP3    H126401   6.746   6.480   1.006
 1614TIP3    H226402   6.658   6.425   0.896
 1615TIP3   OH226403   2.116   1.642   1.722
 1615TIP3    H126404   2.099   1.637   1.628
 1615TIP3    H226405   2.079   1.561   1.757
 1616TIP3   OH226406   2.836   4.238   2.043
 1616TIP3    H126407   2.864   4.147   2.036
 1616TIP3    H226408   2.742   4.234   2.055
 1617TIP3   OH226409   4.775   0.012   1.923
 1617TIP3    H126410   4.775   0.070   1.999
 1617TIP3    H226411   4.698   6.752   1.936
 1618TIP3   OH226412   2.369   0.281   8.220
 1618TIP3    H126413   2.429   0.218   8.259
 1618TIP3    H226414   2.397   0.287   8.128
 1619TIP3   OH226415   4.006   1.811   1.121
 1619TIP3    H126416   3.933   1.868   1.100
 1619TIP3    H226417   4.084   1.866   1.111
 1620TIP3   OH226418   6.553   1.897   8.874
 1620TIP3    H126419   6.605   1.838   8.819
 1620TIP3    H226420   6.482   1.927   8.817
 1621TIP3   OH226421   0.491   5.970   7.709
 1621TIP3    H126422   0.439   5.899   7.747
 1621TIP3    H226423   0.446   5.990   7.627
 1622TIP3   OH226424   0.593   0.718   0.213
 1622TIP3    H126425   0.650   0.782   0.170
 1622TIP3    H226426   0.595   0.743   0.305
 1623TIP3   OH226427   3.518   2.971   8.013
 1623TIP3    H126428   3.492   2.884   7.983
 1623TIP3    H226429   3.454   3.030   7.972
 1624TIP3   OH226430   3.557   2.938   7.627
 1624TIP3    H126431   3.581   3.029   7.641
 1624TIP3    H226432   3.631   2.888   7.662
 1625TIP3   OH226433   6.531   6.250   6.463
 1625TIP3    H126434   6.595   6.208   6.519
 1625TIP3    H226435   6.581   6.315   6.414
 1626TIP3   OH226436   3.686   3.562   6.947
 1626TIP3    H126437   3.615   3.519   6.994
 1626TIP3    H226438   3.753   3.494   6.939
 1627TIP3   OH226439   5.719   0.131   0.940
 1627TIP3    H126440   5.793   0.189   0.927
 1627TIP3    H226441   5.688   0.151   1.029
 1628TIP3   OH226442   3.944   3.512   8.193
 1628TIP3    H126443   3.877   3.572   8.225
 1628TIP3    H226444   3.993   3.487   8.272
 1629TIP3   OH226445   2.382   3.349   7.870
 1629TIP3    H126446   2.328   3.424   7.896
 1629TIP3    H226447   2.447   3.342   7.939
 1630TIP3   OH226448   5.991   6.716   1.573
 1630TIP3    H126449   5.975   6.697   1.481
 1630TIP3    H226450   5.926   6.783   1.596
 1631TIP3   OH226451   3.506   4.298   1.513
 1631TIP3    H126452   3.415   4.283   1.487
 1631TIP3    H226453   3.501   4.316   1.607
 1632TIP3   OH226454   0.898   3.695   8.201
 1632TIP3    H126455   0.803   3.708   8.193
 1632TIP3    H226456   0.909   3.603   8.221
 1633TIP3   OH226457   0.205   2.446   8.793
 1633TIP3    H126458   0.123   2.496   8.787
 1633TIP3    H226459   0.272   2.506   8.761
 1634TIP3   OH226460   2.338   4.221   1.888
 1634TIP3    H126461   2.365   4.145   1.940
 1634TIP3    H226462   2.352   4.296   1.946
 1635TIP3   OH226463   4.631   0.400   7.550
 1635TIP3    H126464   4.647   0.306   7.560
 1635TIP3    H226465   4.546   0.406   7.508
 1636TIP3   OH226466   2.538   0.044   1.340
 1636TIP3    H126467   2.595   0.116   1.369
 1636TIP3    H226468   2.573   0.019   1.254
 1637TIP3   OH226469   4.165   4.350   8.713
 1637TIP3    H126470   4.077   4.342   8.749
 1637TIP3    H226471   4.222   4.358   8.790
 1638TIP3   OH226472   1.499   6.457   8.361
 1638TIP3    H126473   1.482   6.537   8.413
 1638TIP3    H226474   1.415   6.439   8.319
 1639TIP3   OH226475   6.768   2.765   7.797
 1639TIP3    H126476   0.012   2.745   7.882
 1639TIP3    H226477   6.677   2.784   7.817
 1640TIP3   OH226478   6.407   4.189   0.455
 1640TIP3    H126479   6.346   4.116   0.465
 1640TIP3    H226480   6.386   4.227   0.370
 1641TIP3   OH226481   2.592   5.632   2.158
 1641TIP3    H126482   2.661   5.637   2.225
 1641TIP3    H226483   2.639   5.617   2.076
 1642TIP3   OH226484   0.737   0.492   6.820
 1642TIP3    H126485   0.833   0.489   6.817
 1642TIP3    H226486   0.712   0.530   6.736
 1643TIP3   OH226487   0.542   6.682   1.411
 1643TIP3    H126488   0.505   6.719   1.331
 1643TIP3    H226489   0.554   6.589   1.391
 1644TIP3   OH226490   0.939   1.988   7.996
 1644TIP3    H126491   0.917   1.912   8.050
 1644TIP3    H226492   0.894   1.972   7.913
 1645TIP3   OH226493   2.476   3.986   7.373
 1645TIP3    H126494   2.457   3.896   7.347
 1645TIP3    H226495   2.394   4.033   7.361
 1646TIP3   OH226496   3.216   0.628   0.865
 1646TIP3    H126497   3.123   0.645   0.856
 1646TIP3    H226498   3.221   0.539   0.899
 1647TIP3   OH226499   4.536   1.199   1.180
 1647TIP3    H126500   4.463   1.161   1.228
 1647TIP3    H226501   4.501   1.279   1.142
 1648TIP3   OH226502   2.467   1.683   2.214
 1648TIP3    H126503   2.521   1.638   2.150
 1648TIP3    H226504   2.403   1.617   2.242
 1649TIP3   OH226505   3.587   3.679   6.351
 1649TIP3    H126506   3.653   3.661   6.283
 1649TIP3    H226507   3.538   3.754   6.317
 1650TIP3   OH226508   5.250   5.005   1.599
 1650TIP3    H126509   5.221   4.915   1.616
 1650TIP3    H226510   5.237   5.050   1.683
 1651TIP3   OH226511   1.315   0.228   6.566
 1651TIP3    H126512   1.318   0.140   6.602
 1651TIP3    H226513   1.331   0.216   6.472
 1652TIP3   OH226514   3.505   5.488   0.455
 1652TIP3    H126515   3.521   5.533   0.537
 1652TIP3    H226516   3.581   5.508   0.401
 1653TIP3   OH226517   2.906   3.483   1.781
 1653TIP3    H126518   2.937   3.515   1.865
 1653TIP3    H226519   2.949   3.398   1.770
 1654TIP3   OH226520   6.530   5.218   1.707
 1654TIP3    H126521   6.524   5.292   1.647
 1654TIP3    H226522   6.579   5.252   1.782
 1655TIP3   OH226523   6.725   1.264   7.326
 1655TIP3    H126524   6.678   1.182   7.344
 1655TIP3    H226525   6.657   1.331   7.328
 1656TIP3   OH226526   5.877   1.586   0.202
 1656TIP3    H126527   5.918   1.501   0.182
 1656TIP3    H226528   5.938   1.651   0.166
 1657TIP3   OH226529   4.067   1.054   0.524
 1657TIP3    H126530   4.019   1.136   0.518
 1657TIP3    H226531   4.022   0.996   0.463
 1658TIP3   OH226532   1.120   5.671   7.400
 1658TIP3    H126533   1.212   5.675   7.429
 1658TIP3    H226534   1.076   5.739   7.451
 1659TIP3   OH226535   2.855   3.300   8.694
 1659TIP3    H126536   2.851   3.344   8.778
 1659TIP3    H226537   2.947   3.277   8.683
 1660TIP3   OH226538   0.288   4.392   2.292
 1660TIP3    H126539   0.245   4.444   2.224
 1660TIP3    H226540   0.347   4.453   2.336
 1661TIP3   OH226541   6.077   2.527   8.142
 1661TIP3    H126542   6.135   2.562   8.074
 1661TIP3    H226543   6.133   2.519   8.219
 1662TIP3   OH226544   0.857   0.632   7.755
 1662TIP3    H126545   0.897   0.711   7.717
 1662TIP3    H226546   0.765   0.656   7.767
 1663TIP3   OH226547   5.268   5.075   0.277
 1663TIP3    H126548   5.308   5.102   0.194
 1663TIP3    H226549   5.208   5.005   0.253
 1664TIP3   OH226550   0.524   1.755   7.003
 1664TIP3    H126551   0.584   1.793   6.938
 1664TIP3    H226552   0.471   1.830   7.032
 1665TIP3   OH226553   0.046   5.559   8.614
 1665TIP3    H126554   6.752   5.530   8.602
 1665TIP3    H226555   0.040   5.653   8.627
 1666TIP3   OH226556   1.496   6.094   7.651
 1666TIP3    H126557   1.459   6.135   7.573
 1666TIP3    H226558   1.571   6.150   7.674
 1667TIP3   OH226559   2.554   2.305   1.323
 1667TIP3    H126560   2.543   2.346   1.237
 1667TIP3    H226561   2.518   2.369   1.385
 1668TIP3   OH226562   2.532   5.664   7.736
 1668TIP3    H126563   2.608   5.625   7.693
 1668TIP3    H226564   2.541   5.758   7.720
 1669TIP3   OH226565   0.042   1.456   7.109
 1669TIP3    H126566   0.053   1.446   7.204
 1669TIP3    H226567   0.117   1.409   7.072
 1670TIP3   OH226568   2.437   1.875   1.922
 1670TIP3    H126569   2.472   1.842   2.005
 1670TIP3    H226570   2.512   1.877   1.863
 1671TIP3   OH226571   6.000   2.895   1.551
 1671TIP3    H126572   6.039   2.982   1.552
 1671TIP3    H226573   6.064   2.840   1.595
 1672TIP3   OH226574   6.395   5.466   0.498
 1672TIP3    H126575   6.418   5.374   0.513
 1672TIP3    H226576   6.323   5.462   0.434
 1673TIP3   OH226577   2.793   4.868   1.456
 1673TIP3    H126578   2.791   4.927   1.381
 1673TIP3    H226579   2.703   4.869   1.490
 1674TIP3   OH226580   4.402   2.887   0.099
 1674TIP3    H126581   4.357   2.822   0.153
 1674TIP3    H226582   4.335   2.920   0.040
 1675TIP3   OH226583   5.574   3.384   1.072
 1675TIP3    H126584   5.649   3.391   1.131
 1675TIP3    H226585   5.500   3.364   1.129
 1676TIP3   OH226586   0.329   4.804   1.644
 1676TIP3    H126587   0.388   4.840   1.578
 1676TIP3    H226588   0.322   4.872   1.711
 1677TIP3   OH226589   2.753   2.801   6.933
 1677TIP3    H126590   2.836   2.779   6.890
 1677TIP3    H226591   2.750   2.745   7.010
 1678TIP3   OH226592   1.054   1.918   6.028
 1678TIP3    H126593   1.026   1.950   6.113
 1678TIP3    H226594   1.148   1.938   6.025
 1679TIP3   OH226595   0.523   6.676   7.482
 1679TIP3    H126596   0.579   6.684   7.559
 1679TIP3    H226597   0.435   6.662   7.517
 1680TIP3   OH226598   5.185   0.947   1.893
 1680TIP3    H126599   5.102   0.983   1.925
 1680TIP3    H226600   5.229   1.021   1.852
 1681TIP3   OH226601   1.785   3.556   0.047
 1681TIP3    H126602   1.695   3.523   0.045
 1681TIP3    H226603   1.777   3.649   0.024
 1682TIP3   OH226604   0.724   3.833   1.117
 1682TIP3    H126605   0.800   3.775   1.128
 1682TIP3    H226606   0.731   3.896   1.189
 1683TIP3   OH226607   2.905   4.318   0.497
 1683TIP3    H126608   2.953   4.313   0.414
 1683TIP3    H226609   2.831   4.258   0.486
 1684TIP3   OH226610   2.027   5.405   7.370
 1684TIP3    H126611   2.098   5.389   7.307
 1684TIP3    H226612   1.969   5.466   7.325
 1685TIP3   OH226613   2.528   2.017   8.593
 1685TIP3    H126614   2.552   2.005   8.684
 1685TIP3    H226615   2.494   1.932   8.565
 1686TIP3   OH226616   4.635   0.684   0.282
 1686TIP3    H126617   4.562   0.697   0.221
 1686TIP3    H226618   4.640   0.766   0.331
 1687TIP3   OH226619   2.957   4.683   8.553
 1687TIP3    H126620   3.007   4.623   8.608
 1687TIP3    H226621   2.873   4.692   8.598
 1688TIP3   OH226622   3.041   5.483   6.715
 1688TIP3    H126623   2.950   5.462   6.696
 1688TIP3    H226624   3.058   5.443   6.801
 1689TIP3   OH226625   5.229   5.987   8.304
 1689TIP3    H126626   5.224   6.072   8.348
 1689TIP3    H226627   5.302   5.943   8.347
 1690TIP3   OH226628   3.776   2.011   7.702
 1690TIP3    H126629   3.850   1.952   7.719
 1690TIP3    H226630   3.813   2.099   7.709
 1691TIP3   OH226631   0.754   2.899   2.485
 1691TIP3    H126632   0.830   2.954   2.505
 1691TIP3    H226633   0.766   2.872   2.394
 1692TIP3   OH226634   5.922   1.472   8.032
 1692TIP3    H126635   5.988   1.403   8.025
 1692TIP3    H226636   5.846   1.427   8.071
 1693TIP3   OH226637   3.462   1.170   8.200
 1693TIP3    H126638   3.458   1.116   8.121
 1693TIP3    H226639   3.449   1.108   8.272
 1694TIP3   OH226640   0.804   5.852   8.212
 1694TIP3    H126641   0.810   5.769   8.164
 1694TIP3    H226642   0.801   5.919   8.144
 1695TIP3   OH226643   1.838   2.949   0.558
 1695TIP3    H126644   1.893   2.950   0.480
 1695TIP3    H226645   1.888   2.998   0.623
 1696TIP3   OH226646   0.432   2.307   1.374
 1696TIP3    H126647   0.357   2.249   1.359
 1696TIP3    H226648   0.405   2.390   1.335
 1697TIP3   OH226649   0.747   3.493   6.434
 1697TIP3    H126650   0.783   3.582   6.437
 1697TIP3    H226651   0.729   3.472   6.526
 1698TIP3   OH226652   1.264   5.489   0.957
 1698TIP3    H126653   1.244   5.530   1.041
 1698TIP3    H226654   1.203   5.415   0.952
 1699TIP3   OH226655   4.905   6.433   7.207
 1699TIP3    H126656   4.985   6.485   7.193
 1699TIP3    H226657   4.934   6.342   7.198
 1700TIP3   OH226658   3.080   4.792   6.795
 1700TIP3    H126659   3.083   4.880   6.757
 1700TIP3    H226660   3.029   4.741   6.732
 1701TIP3   OH226661   2.922   0.950   8.861
 1701TIP3    H126662   2.894   1.031   0.029
 1701TIP3    H226663   2.862   0.939   8.787
 1702TIP3   OH226664   2.538   5.473   1.775
 1702TIP3    H126665   2.454   5.517   1.784
 1702TIP3    H226666   2.542   5.414   1.850
 1703TIP3   OH226667   0.822   0.124   8.547
 1703TIP3    H126668   0.865   0.161   8.624
 1703TIP3    H226669   0.742   0.084   8.582
 1704TIP3   OH226670   4.657   5.550   2.256
 1704TIP3    H126671   4.675   5.631   2.210
 1704TIP3    H226672   4.586   5.509   2.207
 1705TIP3   OH226673   3.432   5.664   7.780
 1705TIP3    H126674   3.454   5.707   7.862
 1705TIP3    H226675   3.435   5.734   7.715
 1706TIP3   OH226676   2.363   1.796   8.392
 1706TIP3    H126677   2.395   1.862   8.330
 1706TIP3    H226678   2.268   1.795   8.378
 1707TIP3   OH226679   1.334   2.437   0.988
 1707TIP3    H126680   1.407   2.421   1.047
 1707TIP3    H226681   1.364   2.405   0.903
 1708TIP3   OH226682   6.286   3.294   6.585
 1708TIP3    H126683   6.210   3.246   6.620
 1708TIP3    H226684   6.353   3.227   6.573
 1709TIP3   OH226685   1.180   5.515   8.449
 1709TIP3    H126686   1.223   5.599   8.432
 1709TIP3    H226687   1.205   5.493   8.538
 1710TIP3   OH226688   6.051   2.052   8.361
 1710TIP3    H126689   6.104   1.999   8.302
 1710TIP3    H226690   5.963   2.048   8.323
 1711TIP3   OH226691   0.586   5.242   7.163
 1711TIP3    H126692   0.594   5.184   7.087
 1711TIP3    H226693   0.553   5.324   7.127
 1712TIP3   OH226694   3.095   3.606   7.573
 1712TIP3    H126695   3.175   3.609   7.521
 1712TIP3    H226696   3.043   3.679   7.541
 1713TIP3   OH226697   4.221   0.054   7.452
 1713TIP3    H126698   4.283   0.113   7.410
 1713TIP3    H226699   4.259   6.763   7.441
 1714TIP3   OH226700   5.444   5.794   8.331
 1714TIP3    H126701   5.446   5.725   8.398
 1714TIP3    H226702   5.494   5.866   8.369
 1715TIP3   OH226703   0.249   4.323   0.757
 1715TIP3    H126704   0.239   4.365   0.842
 1715TIP3    H226705   0.214   4.235   0.769
 1716TIP3   OH226706   6.506   3.778   6.963
 1716TIP3    H126707   6.539   3.753   6.876
 1716TIP3    H226708   6.418   3.813   6.945
 1717TIP3   OH226709   1.547   6.293   7.425
 1717TIP3    H126710   1.590   6.346   7.492
 1717TIP3    H226711   1.453   6.308   7.440
 1718TIP3   OH226712   1.569   5.723   1.033
 1718TIP3    H126713   1.487   5.770   1.044
 1718TIP3    H226714   1.546   5.631   1.042
 1719TIP3   OH226715   4.035   5.056   0.628
 1719TIP3    H126716   4.068   4.971   0.598
 1719TIP3    H226717   3.956   5.071   0.577
 1720TIP3   OH226718   1.382   4.373   2.017
 1720TIP3    H126719   1.392   4.441   1.950
 1720TIP3    H226720   1.293   4.384   2.050
 1721TIP3   OH226721   5.442   0.751   7.925
 1721TIP3    H126722   5.399   0.700   7.856
 1721TIP3    H226723   5.534   0.752   7.901
 1722TIP3   OH226724   0.671   1.278   1.741
 1722TIP3    H126725   0.646   1.370   1.727
 1722TIP3    H226726   0.696   1.274   1.834
 1723TIP3   OH226727   6.178   5.733   2.410
 1723TIP3    H126728   6.225   5.654   2.434
 1723TIP3    H226729   6.122   5.752   2.485
 1724TIP3   OH226730   5.281   0.002   1.708
 1724TIP3    H126731   5.192   6.785   1.743
 1724TIP3    H226732   5.307   6.711   1.678
 1725TIP3   OH226733   2.653   5.850   1.018
 1725TIP3    H126734   2.713   5.791   1.064
 1725TIP3    H226735   2.574   5.798   1.005
 1726TIP3   OH226736   6.663   3.167   8.728
 1726TIP3    H126737   6.656   3.192   8.820
 1726TIP3    H226738   6.727   3.095   8.728
 1727TIP3   OH226739   5.743   3.780   1.906
 1727TIP3    H126740   5.718   3.748   1.993
 1727TIP3    H226741   5.831   3.815   1.919
 1728TIP3   OH226742   1.104   2.927   2.132
 1728TIP3    H126743   1.133   2.847   2.089
 1728TIP3    H226744   1.016   2.906   2.163
 1729TIP3   OH226745   2.751   2.886   0.274
 1729TIP3    H126746   2.677   2.853   0.324
 1729TIP3    H226747   2.781   2.963   0.322
 1730TIP3   OH226748   0.107   0.829   8.210
 1730TIP3    H126749   0.122   0.860   8.299
 1730TIP3    H226750   0.030   0.877   8.179
 1731TIP3   OH226751   0.512   2.871   7.797
 1731TIP3    H126752   0.559   2.795   7.834
 1731TIP3    H226753   0.557   2.947   7.834
 1732TIP3   OH226754   5.249   3.042   8.384
 1732TIP3    H126755   5.300   2.984   8.441
 1732TIP3    H226756   5.213   3.108   8.444
 1733TIP3   OH226757   2.991   0.599   0.248
 1733TIP3    H126758   3.026   0.545   0.319
 1733TIP3    H226759   2.898   0.576   0.245
 1734TIP3   OH226760   4.460   1.167   7.581
 1734TIP3    H126761   4.443   1.259   7.597
 1734TIP3    H226762   4.436   1.124   7.663
 1735TIP3   OH226763   2.081   4.974   7.709
 1735TIP3    H126764   1.987   4.985   7.722
 1735TIP3    H226765   2.114   5.063   7.693
 1736TIP3   OH226766   3.205   4.597   8.714
 1736TIP3    H126767   3.236   4.509   8.693
 1736TIP3    H226768   3.255   4.622   8.791
 1737TIP3   OH226769   5.715   5.900   7.103
 1737TIP3    H126770   5.665   5.848   7.042
 1737TIP3    H226771   5.651   5.957   7.145
 1738TIP3   OH226772   2.047   6.309   6.489
 1738TIP3    H126773   1.990   6.236   6.513
 1738TIP3    H226774   1.992   6.365   6.434
 1739TIP3   OH226775   4.834   4.541   7.545
 1739TIP3    H126776   4.810   4.630   7.519
 1739TIP3    H226777   4.774   4.519   7.616
 1740TIP3   OH226778   1.832   5.232   7.400
 1740TIP3    H126779   1.917   5.275   7.389
 1740TIP3    H226780   1.854   5.141   7.418
 1741TIP3   OH226781   0.573   1.843   6.058
 1741TIP3    H126782   0.628   1.804   5.989
 1741TIP3    H226783   0.485   1.812   6.037
 1742TIP3   OH226784   3.554   0.082   0.021
 1742TIP3    H126785   3.478   0.088   8.837
 1742TIP3    H226786   3.574   0.173   0.044
 1743TIP3   OH226787   0.153   1.354   8.445
 1743TIP3    H126788   0.170   1.282   8.384
 1743TIP3    H226789   0.156   1.313   8.532
 1744TIP3   OH226790   4.289   1.331   0.763
 1744TIP3    H126791   4.207   1.298   0.726
 1744TIP3    H226792   4.317   1.264   0.825
 1745TIP3   OH226793   1.584   4.477   0.790
 1745TIP3    H126794   1.647   4.539   0.828
 1745TIP3    H226795   1.578   4.407   0.855
 1746TIP3   OH226796   3.945   3.589   1.165
 1746TIP3    H126797   3.974   3.644   1.093
 1746TIP3    H226798   3.981   3.631   1.243
 1747TIP3   OH226799   0.725   4.519   1.262
 1747TIP3    H126800   0.751   4.461   1.333
 1747TIP3    H226801   0.743   4.469   1.182
 1748TIP3   OH226802   4.694   5.848   0.710
 1748TIP3    H126803   4.742   5.851   0.627
 1748TIP3    H226804   4.662   5.937   0.723
 1749TIP3   OH226805   4.753   6.350   7.427
 1749TIP3    H126806   4.761   6.430   7.374
 1749TIP3    H226807   4.693   6.374   7.497
 1750TIP3   OH226808   4.789   2.054   1.636
 1750TIP3    H126809   4.837   1.972   1.651
 1750TIP3    H226810   4.816   2.082   1.549
 1751TIP3   OH226811   4.508   6.425   0.989
 1751TIP3    H126812   4.428   6.424   0.935
 1751TIP3    H226813   4.575   6.459   0.930
 1752TIP3   OH226814   4.153   0.295   6.553
 1752TIP3    H126815   4.087   0.290   6.484
 1752TIP3    H226816   4.152   0.207   6.592
 1753TIP3   OH226817   4.345   5.968   7.930
 1753TIP3    H126818   4.260   5.980   7.973
 1753TIP3    H226819   4.346   5.876   7.905
 1754TIP3   OH226820   0.509   5.049   8.052
 1754TIP3    H126821   0.501   5.008   7.966
 1754TIP3    H226822   0.430   5.103   8.060
 1755TIP3   OH226823   5.718   3.982   7.975
 1755TIP3    H126824   5.712   4.062   7.924
 1755TIP3    H226825   5.691   4.007   8.064
 1756TIP3   OH226826   2.254   1.203   2.072
 1756TIP3    H126827   2.292   1.222   1.986
 1756TIP3    H226828   2.175   1.258   2.076
 1757TIP3   OH226829   2.283   5.173   0.782
 1757TIP3    H126830   2.235   5.150   0.861
 1757TIP3    H226831   2.255   5.263   0.762
 1758TIP3   OH226832   5.330   3.601   0.098
 1758TIP3    H126833   5.419   3.613   0.064
 1758TIP3    H226834   5.332   3.643   0.185
 1759TIP3   OH226835   5.656   5.232   0.690
 1759TIP3    H126836   5.743   5.194   0.682
 1759TIP3    H226837   5.624   5.240   0.600
 1760TIP3   OH226838   3.715   4.851   6.628
 1760TIP3    H126839   3.770   4.925   6.604
 1760TIP3    H226840   3.721   4.791   6.554
 1761TIP3   OH226841   2.133   3.476   6.674
 1761TIP3    H126842   2.197   3.546   6.683
 1761TIP3    H226843   2.183   3.395   6.690
 1762TIP3   OH226844   3.452   2.164   8.693
 1762TIP3    H126845   3.504   2.094   8.654
 1762TIP3    H226846   3.440   2.137   8.784
 1763TIP3   OH226847   0.747   4.379   1.515
 1763TIP3    H126848   0.664   4.427   1.520
 1763TIP3    H226849   0.728   4.293   1.552
 1764TIP3   OH226850   2.719   2.011   1.470
 1764TIP3    H126851   2.780   2.061   1.415
 1764TIP3    H226852   2.772   1.983   1.545
 1765TIP3   OH226853   4.593   1.653   7.181
 1765TIP3    H126854   4.646   1.628   7.257
 1765TIP3    H226855   4.654   1.698   7.123
 1766TIP3   OH226856   1.431   4.617   6.882
 1766TIP3    H126857   1.443   4.691   6.941
 1766TIP3    H226858   1.432   4.655   6.794
 1767TIP3   OH226859   1.682   2.765   7.163
 1767TIP3    H126860   1.767   2.802   7.187
 1767TIP3    H226861   1.702   2.703   7.092
 1768TIP3   OH226862   5.646   2.953   8.688
 1768TIP3    H126863   5.574   2.915   8.638
 1768TIP3    H226864   5.687   2.879   8.731
 1769TIP3   OH226865   6.145   5.295   7.934
 1769TIP3    H126866   6.218   5.234   7.944
 1769TIP3    H226867   6.155   5.356   8.007
 1770TIP3   OH226868   4.068   4.448   7.588
 1770TIP3    H126869   4.088   4.441   7.495
 1770TIP3    H226870   4.040   4.538   7.600
 1771TIP3   OH226871   6.214   6.315   7.501
 1771TIP3    H126872   6.219   6.223   7.477
 1771TIP3    H226873   6.227   6.362   7.418
 1772TIP3   OH226874   0.372   5.581   2.286
 1772TIP3    H126875   0.305   5.620   2.341
 1772TIP3    H226876   0.427   5.531   2.346
 1773TIP3   OH226877   5.601   3.711   7.959
 1773TIP3    H126878   5.660   3.786   7.963
 1773TIP3    H226879   5.532   3.738   7.899
 1774TIP3   OH226880   6.359   3.913   7.836
 1774TIP3    H126881   6.288   3.919   7.900
 1774TIP3    H226882   6.416   3.844   7.869
 1775TIP3   OH226883   0.962   0.872   7.603
 1775TIP3    H126884   1.009   0.953   7.586
 1775TIP3    H226885   0.877   0.900   7.638
 1776TIP3   OH226886   0.707   5.378   8.797
 1776TIP3    H126887   0.691   5.455   8.852
 1776TIP3    H226888   0.707   5.412   8.708
 1777TIP3   OH226889   1.497   5.759   0.406
 1777TIP3    H126890   1.519   5.671   0.377
 1777TIP3    H226891   1.505   5.755   0.501
 1778TIP3   OH226892   3.535   0.755   7.987
 1778TIP3    H126893   3.601   0.688   7.966
 1778TIP3    H226894   3.512   0.792   7.902
 1779TIP3   OH226895   1.894   2.223   7.238
 1779TIP3    H126896   1.912   2.250   7.148
 1779TIP3    H226897   1.956   2.273   7.291
 1780TIP3   OH226898   5.197   3.797   0.860
 1780TIP3    H126899   5.277   3.745   0.860
 1780TIP3    H226900   5.130   3.738   0.824
 1781TIP3   OH226901   2.377   0.426   1.861
 1781TIP3    H126902   2.354   0.414   1.769
 1781TIP3    H226903   2.295   0.455   1.903
 1782TIP3   OH226904   5.917   2.399   0.497
 1782TIP3    H126905   5.917   2.439   0.583
 1782TIP3    H226906   5.978   2.451   0.446
 1783TIP3   OH226907   6.097   3.153   6.738
 1783TIP3    H126908   6.151   3.079   6.713
 1783TIP3    H226909   6.019   3.114   6.777
 1784TIP3   OH226910   1.928   2.711   2.792
 1784TIP3    H126911   1.850   2.683   2.744
 1784TIP3    H226912   1.940   2.803   2.767
 1785TIP3   OH226913   5.560   4.954   8.368
 1785TIP3    H126914   5.519   4.996   8.444
 1785TIP3    H226915   5.647   4.993   8.363
 1786TIP3   OH226916   2.290   5.632   8.193
 1786TIP3    H126917   2.305   5.571   8.265
 1786TIP3    H226918   2.202   5.612   8.162
 1787TIP3   OH226919   3.585   2.394   6.887
 1787TIP3    H126920   3.594   2.472   6.942
 1787TIP3    H226921   3.674   2.376   6.857
 1788TIP3   OH226922   3.378   5.350   1.503
 1788TIP3    H126923   3.473   5.346   1.493
 1788TIP3    H226924   3.345   5.289   1.437
 1789TIP3   OH226925   4.785   1.169   1.097
 1789TIP3    H126926   4.757   1.079   1.079
 1789TIP3    H226927   4.711   1.208   1.145
 1790TIP3   OH226928   3.787   2.728   6.952
 1790TIP3    H126929   3.766   2.811   6.994
 1790TIP3    H226930   3.706   2.703   6.906
 1791TIP3   OH226931   1.476   5.939   7.890
 1791TIP3    H126932   1.480   5.997   7.814
 1791TIP3    H226933   1.567   5.913   7.904
 1792TIP3   OH226934   0.807   4.227   1.754
 1792TIP3    H126935   0.833   4.154   1.698
 1792TIP3    H226936   0.711   4.230   1.747
 1793TIP3   OH226937   5.579   0.947   8.075
 1793TIP3    H126938   5.631   0.952   7.995
 1793TIP3    H226939   5.522   0.871   8.061
 1794TIP3   OH226940   1.867   2.624   7.740
 1794TIP3    H126941   1.837   2.543   7.698
 1794TIP3    H226942   1.935   2.657   7.681
 1795TIP3   OH226943   2.080   5.121   0.979
 1795TIP3    H126944   2.039   5.176   1.046
 1795TIP3    H226945   2.008   5.069   0.944
 1796TIP3   OH226946   6.540   3.963   1.373
 1796TIP3    H126947   6.460   3.980   1.323
 1796TIP3    H226948   6.555   3.869   1.362
 1797TIP3   OH226949   5.542   5.426   7.882
 1797TIP3    H126950   5.574   5.405   7.795
 1797TIP3    H226951   5.482   5.499   7.870
 1798TIP3   OH226952   1.740   6.660   7.458
 1798TIP3    H126953   1.692   6.647   7.540
 1798TIP3    H226954   1.672   6.662   7.390
 1799TIP3   OH226955   1.325   6.726   7.758
 1799TIP3    H126956   1.241   6.684   7.739
 1799TIP3    H226957   1.317   6.757   7.848
 1800TIP3   OH226958   2.442   2.527   0.002
 1800TIP3    H126959   2.417   2.579   8.800
 1800TIP3    H226960   2.454   2.438   8.843
 1801TIP3   OH226961   5.860   0.112   0.263
 1801TIP3    H126962   5.926   0.092   0.197
 1801TIP3    H226963   5.906   0.105   0.347
 1802TIP3   OH226964   5.850   1.211   6.923
 1802TIP3    H126965   5.914   1.175   6.862
 1802TIP3    H226966   5.810   1.134   6.963
 1803TIP3   OH226967   5.517   5.523   1.156
 1803TIP3    H126968   5.554   5.453   1.101
 1803TIP3    H226969   5.453   5.567   1.100
 1804TIP3   OH226970   0.822   0.248   8.216
 1804TIP3    H126971   0.727   0.254   8.231
 1804TIP3    H226972   0.861   0.283   8.296
 1805TIP3   OH226973   4.052   0.795   7.282
 1805TIP3    H126974   3.968   0.753   7.298
 1805TIP3    H226975   4.093   0.742   7.213
 1806TIP3   OH226976   0.512   2.647   7.276
 1806TIP3    H126977   0.450   2.665   7.346
 1806TIP3    H226978   0.477   2.694   7.200
 1807TIP3   OH226979   4.518   5.214   6.903
 1807TIP3    H126980   4.439   5.185   6.949
 1807TIP3    H226981   4.486   5.271   6.834
 1808TIP3   OH226982   3.457   5.166   8.813
 1808TIP3    H126983   3.494   5.208   0.015
 1808TIP3    H226984   3.392   5.105   8.848
 1809TIP3   OH226985   4.947   3.720   8.234
 1809TIP3    H126986   4.961   3.753   8.323
 1809TIP3    H226987   4.959   3.626   8.240
 1810TIP3   OH226988   2.845   6.423   6.349
 1810TIP3    H126989   2.795   6.410   6.269
 1810TIP3    H226990   2.866   6.335   6.379
 1811TIP3   OH226991   1.273   3.398   6.490
 1811TIP3    H126992   1.200   3.339   6.511
 1811TIP3    H226993   1.232   3.471   6.444
 1812TIP3   OH226994   4.642   0.872   1.417
 1812TIP3    H126995   4.714   0.855   1.478
 1812TIP3    H226996   4.616   0.962   1.435
 1813TIP3   OH226997   0.513   4.329   7.821
 1813TIP3    H126998   0.483   4.321   7.731
 1813TIP3    H226999   0.529   4.238   7.849
 1814TIP3   OH227000   1.509   4.558   7.166
 1814TIP3    H127001   1.440   4.623   7.181
 1814TIP3    H227002   1.502   4.536   7.073
 1815TIP3   OH227003   0.755   0.517   1.034
 1815TIP3    H127004   0.707   0.436   1.050
 1815TIP3    H227005   0.753   0.528   0.939
 1816TIP3   OH227006   5.234   5.838   7.634
 1816TIP3    H127007   5.208   5.749   7.610
 1816TIP3    H227008   5.281   5.828   7.717
 1817TIP3   OH227009   6.434   3.819   8.402
 1817TIP3    H127010   6.391   3.734   8.406
 1817TIP3    H227011   6.379   3.870   8.342
 1818TIP3   OH227012   6.625   0.810   0.531
 1818TIP3    H127013   6.580   0.868   0.470
 1818TIP3    H227014   6.572   0.814   0.611
 1819TIP3   OH227015   4.256   3.884   0.470
 1819TIP3    H127016   4.265   3.813   0.407
 1819TIP3    H227017   4.304   3.854   0.547
 1820TIP3   OH227018   6.414   0.537   1.798
 1820TIP3    H127019   6.430   0.628   1.771
 1820TIP3    H227020   6.393   0.543   1.891
 1821TIP3   OH227021   5.567   3.136   8.271
 1821TIP3    H127022   5.605   3.090   8.346
 1821TIP3    H227023   5.590   3.082   8.195
 1822TIP3   OH227024   0.683   1.904   6.826
 1822TIP3    H127025   0.623   1.868   6.761
 1822TIP3    H227026   0.763   1.922   6.777
 1823TIP3   OH227027   5.341   2.740   8.809
 1823TIP3    H127028   5.404   2.755   8.739
 1823TIP3    H227029   5.358   2.651   8.839
 1824TIP3   OH227030   2.480   4.729   2.699
 1824TIP3    H127031   2.556   4.713   2.754
 1824TIP3    H227032   2.455   4.819   2.719
 1825TIP3   OH227033   1.176   4.276   0.345
 1825TIP3    H127034   1.193   4.198   0.292
 1825TIP3    H227035   1.263   4.302   0.376
 1826TIP3   OH227036   2.331   0.374   7.873
 1826TIP3    H127037   2.389   0.305   7.842
 1826TIP3    H227038   2.251   0.328   7.900
 1827TIP3   OH227039   4.801   4.136   1.367
 1827TIP3    H127040   4.855   4.141   1.288
 1827TIP3    H227041   4.727   4.081   1.342
 1828TIP3   OH227042   4.170   1.866   7.372
 1828TIP3    H127043   4.236   1.830   7.312
 1828TIP3    H227044   4.220   1.924   7.430
 1829TIP3   OH227045   1.893   3.681   1.524
 1829TIP3    H127046   1.814   3.646   1.566
 1829TIP3    H227047   1.965   3.642   1.574
 1830TIP3   OH227048   0.251   6.361   7.692
 1830TIP3    H127049   0.222   6.292   7.632
 1830TIP3    H227050   0.337   6.331   7.722
 1831TIP3   OH227051   6.353   4.897   2.342
 1831TIP3    H127052   6.291   4.884   2.271
 1831TIP3    H227053   6.322   4.839   2.412
 1832TIP3   OH227054   2.240   0.644   7.826
 1832TIP3    H127055   2.220   0.663   7.917
 1832TIP3    H227056   2.277   0.555   7.827
 1833TIP3   OH227057   1.593   1.957   0.909
 1833TIP3    H127058   1.602   2.052   0.898
 1833TIP3    H227059   1.627   1.940   0.996
 1834TIP3   OH227060   5.282   3.860   7.130
 1834TIP3    H127061   5.340   3.786   7.114
 1834TIP3    H227062   5.285   3.911   7.049
 1835TIP3   OH227063   0.846   5.503   0.691
 1835TIP3    H127064   0.941   5.518   0.685
 1835TIP3    H227065   0.817   5.495   0.601
 1836TIP3   OH227066   2.815   1.199   0.050
 1836TIP3    H127067   2.792   1.215   8.833
 1836TIP3    H227068   2.894   1.252   0.064
 1837TIP3   OH227069   0.406   1.062   2.407
 1837TIP3    H127070   0.383   1.010   2.330
 1837TIP3    H227071   0.323   1.074   2.453
 1838TIP3   OH227072   5.534   1.357   0.649
 1838TIP3    H127073   5.468   1.427   0.652
 1838TIP3    H227074   5.490   1.285   0.604
 1839TIP3   OH227075   5.642   4.696   8.357
 1839TIP3    H127076   5.630   4.790   8.345
 1839TIP3    H227077   5.553   4.660   8.360
 1840TIP3   OH227078   6.211   1.977   7.784
 1840TIP3    H127079   6.291   2.012   7.823
 1840TIP3    H227080   6.146   1.982   7.854
 1841TIP3   OH227081   2.916   6.022   1.704
 1841TIP3    H127082   2.984   5.958   1.722
 1841TIP3    H227083   2.947   6.103   1.746
 1842TIP3   OH227084   2.152   1.704   6.542
 1842TIP3    H127085   2.230   1.755   6.519
 1842TIP3    H227086   2.174   1.614   6.516
 1843TIP3   OH227087   1.328   0.315   8.240
 1843TIP3    H127088   1.318   0.346   8.331
 1843TIP3    H227089   1.254   0.354   8.194
 1844TIP3   OH227090   0.574   5.631   0.591
 1844TIP3    H127091   0.587   5.540   0.617
 1844TIP3    H227092   0.482   5.636   0.565
 1845TIP3   OH227093   3.933   1.305   0.982
 1845TIP3    H127094   3.977   1.245   0.922
 1845TIP3    H227095   4.001   1.366   1.009
 1846TIP3   OH227096   6.389   0.105   8.010
 1846TIP3    H127097   6.428   0.054   8.082
 1846TIP3    H227098   6.399   0.196   8.037
 1847TIP3   OH227099   6.175   4.346   8.860
 1847TIP3    H127100   6.083   4.346   8.833
 1847TIP3    H227101   6.212   4.267   8.822
 1848TIP3   OH227102   6.652   3.420   6.555
 1848TIP3    H127103   6.668   3.346   6.497
 1848TIP3    H227104   6.558   3.418   6.571
 1849TIP3   OH227105   2.136   6.429   6.957
 1849TIP3    H127106   2.214   6.450   6.905
 1849TIP3    H227107   2.092   6.361   6.908
 1850TIP3   OH227108   0.382   1.179   7.647
 1850TIP3    H127109   0.299   1.132   7.643
 1850TIP3    H227110   0.441   1.129   7.591
 1851TIP3   OH227111   2.937   2.717   8.492
 1851TIP3    H127112   2.852   2.759   8.498
 1851TIP3    H227113   2.999   2.788   8.475
 1852TIP3   OH227114   5.115   4.121   7.063
 1852TIP3    H127115   5.060   4.194   7.093
 1852TIP3    H227116   5.203   4.145   7.090
 1853TIP3   OH227117   1.327   0.643   8.272
 1853TIP3    H127118   1.266   0.584   8.228
 1853TIP3    H227119   1.274   0.721   8.290
 1854TIP3   OH227120   0.992   3.014   7.713
 1854TIP3    H127121   0.942   2.982   7.638
 1854TIP3    H227122   1.079   3.033   7.679
 1855TIP3   OH227123   2.396   5.662   6.436
 1855TIP3    H127124   2.480   5.669   6.389
 1855TIP3    H227125   2.388   5.744   6.483
 1856TIP3   OH227126   6.027   1.165   0.650
 1856TIP3    H127127   5.940   1.206   0.649
 1856TIP3    H227128   6.022   1.096   0.584
 1857TIP3   OH227129   5.914   6.086   2.129
 1857TIP3    H127130   5.896   6.148   2.199
 1857TIP3    H227131   5.911   6.000   2.171
 1858TIP3   OH227132   0.823   4.475   1.888
 1858TIP3    H127133   0.770   4.427   1.951
 1858TIP3    H227134   0.833   4.415   1.814
 1859TIP3   OH227135   3.569   2.631   6.318
 1859TIP3    H127136   3.609   2.701   6.266
 1859TIP3    H227137   3.617   2.633   6.401
 1860TIP3   OH227138   6.242   1.791   1.027
 1860TIP3    H127139   6.278   1.859   0.971
 1860TIP3    H227140   6.234   1.832   1.113
 1861TIP3   OH227141   3.609   1.741   0.758
 1861TIP3    H127142   3.675   1.690   0.805
 1861TIP3    H227143   3.526   1.717   0.800
 1862TIP3   OH227144   2.942   0.372   1.629
 1862TIP3    H127145   3.021   0.341   1.586
 1862TIP3    H227146   2.913   0.445   1.575
 1863TIP3   OH227147   1.920   2.843   2.448
 1863TIP3    H127148   1.960   2.884   2.524
 1863TIP3    H227149   1.870   2.769   2.484
 1864TIP3   OH227150   5.540   5.063   8.072
 1864TIP3    H127151   5.503   5.003   8.007
 1864TIP3    H227152   5.529   5.017   8.156
 1865TIP3   OH227153   0.102   5.150   0.797
 1865TIP3    H127154   0.130   5.068   0.756
 1865TIP3    H227155   0.049   5.193   0.730
 1866TIP3   OH227156   0.497   1.759   0.336
 1866TIP3    H127157   0.533   1.732   0.251
 1866TIP3    H227158   0.528   1.848   0.348
 1867TIP3   OH227159   5.713   2.970   1.825
 1867TIP3    H127160   5.724   3.065   1.815
 1867TIP3    H227161   5.728   2.935   1.737
 1868TIP3   OH227162   6.754   2.137   8.160
 1868TIP3    H127163   0.006   2.117   8.240
 1868TIP3    H227164   6.716   2.223   8.175
 1869TIP3   OH227165   0.459   4.585   7.291
 1869TIP3    H127166   0.491   4.645   7.358
 1869TIP3    H227167   0.386   4.631   7.250
 1870TIP3   OH227168   3.649   3.806   2.248
 1870TIP3    H127169   3.719   3.832   2.308
 1870TIP3    H227170   3.655   3.711   2.244
 1871TIP3   OH227171   0.073   1.471   7.943
 1871TIP3    H127172   0.141   1.536   7.962
 1871TIP3    H227173   0.038   1.449   8.030
 1872TIP3   OH227174   1.308   1.663   6.957
 1872TIP3    H127175   1.261   1.744   6.937
 1872TIP3    H227176   1.351   1.640   6.874
 1873TIP3   OH227177   2.538   2.886   0.720
 1873TIP3    H127178   2.529   2.865   0.813
 1873TIP3    H227179   2.630   2.869   0.700
 1874TIP3   OH227180   0.952   2.800   1.168
 1874TIP3    H127181   0.990   2.781   1.083
 1874TIP3    H227182   1.006   2.750   1.230
 1875TIP3   OH227183   2.083   2.348   7.372
 1875TIP3    H127184   2.091   2.437   7.336
 1875TIP3    H227185   2.149   2.345   7.441
 1876TIP3   OH227186   5.162   5.137   1.370
 1876TIP3    H127187   5.211   5.096   1.441
 1876TIP3    H227188   5.230   5.164   1.308
 1877TIP3   OH227189   1.256   5.010   0.555
 1877TIP3    H127190   1.226   5.049   0.638
 1877TIP3    H227191   1.311   4.936   0.582
 1878TIP3   OH227192   3.299   0.858   8.592
 1878TIP3    H127193   3.294   0.792   8.661
 1878TIP3    H227194   3.239   0.927   8.620
 1879TIP3   OH227195   5.731   4.840   1.987
 1879TIP3    H127196   5.782   4.842   2.068
 1879TIP3    H227197   5.646   4.876   2.011
 1880TIP3   OH227198   1.436   0.922   0.113
 1880TIP3    H127199   1.425   0.869   0.193
 1880TIP3    H227200   1.407   1.009   0.139
 1881TIP3   OH227201   6.462   2.998   0.383
 1881TIP3    H127202   6.418   2.966   0.304
 1881TIP3    H227203   6.437   3.091   0.388
 1882TIP3   OH227204   4.245   2.922   7.822
 1882TIP3    H127205   4.246   2.832   7.789
 1882TIP3    H227206   4.183   2.920   7.895
 1883TIP3   OH227207   0.365   6.549   1.693
 1883TIP3    H127208   0.342   6.641   1.685
 1883TIP3    H227209   0.360   6.530   1.786
 1884TIP3   OH227210   2.391   1.834   1.584
 1884TIP3    H127211   2.300   1.858   1.564
 1884TIP3    H227212   2.436   1.918   1.594
 1885TIP3   OH227213   6.127   6.790   7.949
 1885TIP3    H127214   6.213   0.010   7.989
 1885TIP3    H227215   6.142   0.003   7.855
 1886TIP3   OH227216   6.270   5.909   1.400
 1886TIP3    H127217   6.349   5.870   1.363
 1886TIP3    H227218   6.223   5.944   1.325
 1887TIP3   OH227219   3.992   4.729   0.213
 1887TIP3    H127220   4.058   4.697   0.151
 1887TIP3    H227221   3.955   4.807   0.172
 1888TIP3   OH227222   3.791   3.881   8.498
 1888TIP3    H127223   3.787   3.905   8.405
 1888TIP3    H227224   3.860   3.938   8.534
 1889TIP3   OH227225   6.619   3.622   8.689
 1889TIP3    H127226   6.603   3.565   8.614
 1889TIP3    H227227   6.714   3.624   8.698
 1890TIP3   OH227228   5.944   0.244   7.340
 1890TIP3    H127229   5.951   0.311   7.409
 1890TIP3    H227230   5.850   0.224   7.337
 1891TIP3   OH227231   4.253   4.095   0.311
 1891TIP3    H127232   4.218   4.028   0.371
 1891TIP3    H227233   4.348   4.082   0.313
 1892TIP3   OH227234   2.754   6.781   7.744
 1892TIP3    H127235   2.829   0.035   7.712
 1892TIP3    H227236   2.726   6.728   7.669
 1893TIP3   OH227237   0.095   2.970   2.120
 1893TIP3    H127238   0.185   2.954   2.091
 1893TIP3    H227239   0.070   3.050   2.072
 1894TIP3   OH227240   2.223   1.757   7.784
 1894TIP3    H127241   2.178   1.753   7.868
 1894TIP3    H227242   2.199   1.843   7.748
 1895TIP3   OH227243   0.339   5.242   7.385
 1895TIP3    H127244   0.396   5.318   7.390
 1895TIP3    H227245   0.258   5.269   7.429
 1896TIP3   OH227246   3.757   1.609   2.275
 1896TIP3    H127247   3.809   1.688   2.288
 1896TIP3    H227248   3.822   1.540   2.261
 1897TIP3   OH227249   6.548   2.374   8.089
 1897TIP3    H127250   6.614   2.441   8.106
 1897TIP3    H227251   6.550   2.362   7.994
 1898TIP3   OH227252   1.152   4.623   8.685
 1898TIP3    H127253   1.196   4.568   8.751
 1898TIP3    H227254   1.059   4.603   8.696
 1899TIP3   OH227255   6.269   2.949   7.924
 1899TIP3    H127256   6.195   2.945   7.985
 1899TIP3    H227257   6.336   2.998   7.971
 1900TIP3   OH227258   1.121   5.674   1.110
 1900TIP3    H127259   1.111   5.723   1.029
 1900TIP3    H227260   1.089   5.733   1.178
 1901TIP3   OH227261   6.300   1.854   7.233
 1901TIP3    H127262   6.266   1.823   7.316
 1901TIP3    H227263   6.329   1.775   7.187
 1902TIP3   OH227264   5.376   1.817   7.001
 1902TIP3    H127265   5.295   1.844   6.956
 1902TIP3    H227266   5.422   1.763   6.936
 1903TIP3   OH227267   2.559   5.644   6.678
 1903TIP3    H127268   2.526   5.575   6.621
 1903TIP3    H227269   2.498   5.717   6.667
 1904TIP3   OH227270   2.022   0.498   1.593
 1904TIP3    H127271   2.076   0.505   1.671
 1904TIP3    H227272   2.041   0.577   1.543
 1905TIP3   OH227273   3.396   4.875   0.765
 1905TIP3    H127274   3.344   4.880   0.846
 1905TIP3    H227275   3.441   4.790   0.771
 1906TIP3   OH227276   3.839   6.397   1.256
 1906TIP3    H127277   3.766   6.456   1.237
 1906TIP3    H227278   3.910   6.456   1.281
 1907TIP3   OH227279   0.772   3.014   0.045
 1907TIP3    H127280   0.812   3.064   0.117
 1907TIP3    H227281   0.703   2.964   0.087
 1908TIP3   OH227282   3.521   2.062   7.679
 1908TIP3    H127283   3.615   2.054   7.695
 1908TIP3    H227284   3.505   2.156   7.675
 1909TIP3   OH227285   5.243   4.729   1.690
 1909TIP3    H127286   5.265   4.638   1.710
 1909TIP3    H227287   5.218   4.766   1.775
 1910TIP3   OH227288   3.290   5.778   6.993
 1910TIP3    H127289   3.223   5.759   7.059
 1910TIP3    H227290   3.244   5.825   6.925
 1911TIP3   OH227291   0.339   0.681   8.427
 1911TIP3    H127292   0.304   0.690   8.338
 1911TIP3    H227293   0.366   0.770   8.451
 1912TIP3   OH227294   2.060   2.875   6.956
 1912TIP3    H127295   2.106   2.947   6.912
 1912TIP3    H227296   1.968   2.892   6.938
 1913TIP3   OH227297   2.795   4.462   8.064
 1913TIP3    H127298   2.856   4.531   8.037
 1913TIP3    H227299   2.789   4.473   8.159
 1914TIP3   OH227300   0.566   0.209   0.447
 1914TIP3    H127301   0.571   0.140   0.513
 1914TIP3    H227302   0.477   0.202   0.413
 1915TIP3   OH227303   3.187   4.371   8.021
 1915TIP3    H127304   3.208   4.375   8.115
 1915TIP3    H227305   3.153   4.282   8.008
 1916TIP3   OH227306   6.625   3.841   7.640
 1916TIP3    H127307   6.574   3.905   7.689
 1916TIP3    H227308   6.559   3.787   7.595
 1917TIP3   OH227309   4.201   6.217   6.349
 1917TIP3    H127310   4.264   6.241   6.416
 1917TIP3    H227311   4.202   6.121   6.348
 1918TIP3   OH227312   4.633   3.841   7.600
 1918TIP3    H127313   4.568   3.878   7.540
 1918TIP3    H227314   4.623   3.746   7.592
 1919TIP3   OH227315   3.306   6.134   7.979
 1919TIP3    H127316   3.220   6.093   7.997
 1919TIP3    H227317   3.293   6.226   7.999
 1920TIP3   OH227318   3.829   4.840   1.586
 1920TIP3    H127319   3.899   4.876   1.531
 1920TIP3    H227320   3.852   4.868   1.675
 1921TIP3   OH227321   3.879   4.748   6.834
 1921TIP3    H127322   3.895   4.709   6.748
 1921TIP3    H227323   3.832   4.830   6.815
 1922TIP3   OH227324   0.410   6.597   1.170
 1922TIP3    H127325   0.363   6.539   1.112
 1922TIP3    H227326   0.500   6.595   1.138
 1923TIP3   OH227327   5.295   5.630   1.014
 1923TIP3    H127328   5.281   5.722   0.991
 1923TIP3    H227329   5.207   5.596   1.031
 1924TIP3   OH227330   5.253   3.984   7.992
 1924TIP3    H127331   5.285   3.926   7.923
 1924TIP3    H227332   5.158   3.979   7.986
 1925TIP3   OH227333   1.194   0.373   8.618
 1925TIP3    H127334   1.277   0.407   8.652
 1925TIP3    H227335   1.158   0.321   8.690
 1926TIP3   OH227336   3.183   0.385   0.423
 1926TIP3    H127337   3.257   0.445   0.413
 1926TIP3    H227338   3.212   0.322   0.489
 1927TIP3   OH227339   5.179   2.913   0.752
 1927TIP3    H127340   5.105   2.967   0.724
 1927TIP3    H227341   5.257   2.964   0.729
 1928TIP3   OH227342   0.887   4.104   2.617
 1928TIP3    H127343   0.968   4.056   2.600
 1928TIP3    H227344   0.876   4.102   2.712
 1929TIP3   OH227345   1.770   3.255   1.476
 1929TIP3    H127346   1.678   3.266   1.499
 1929TIP3    H227347   1.783   3.315   1.402
 1930TIP3   OH227348   1.987   1.418   1.792
 1930TIP3    H127349   1.922   1.435   1.861
 1930TIP3    H227350   1.981   1.324   1.776
 1931TIP3   OH227351   3.841   5.637   8.017
 1931TIP3    H127352   3.891   5.716   8.038
 1931TIP3    H227353   3.897   5.565   8.046
 1932TIP3   OH227354   2.363   0.043   2.598
 1932TIP3    H127355   2.299   0.113   2.587
 1932TIP3    H227356   2.314   6.759   2.584
 1933TIP3   OH227357   1.349   6.067   8.103
 1933TIP3    H127358   1.420   6.122   8.137
 1933TIP3    H227359   1.366   6.060   8.009
 1934TIP3   OH227360   4.211   2.108   8.555
 1934TIP3    H127361   4.181   2.167   8.624
 1934TIP3    H227362   4.275   2.159   8.507
 1935TIP3   OH227363   6.149   1.833   8.188
 1935TIP3    H127364   6.209   1.760   8.201
 1935TIP3    H227365   6.063   1.798   8.212
 1936TIP3   OH227366   0.349   2.250   0.682
 1936TIP3    H127367   0.306   2.184   0.737
 1936TIP3    H227368   0.437   2.215   0.667
 1937TIP3   OH227369   5.841   0.516   0.270
 1937TIP3    H127370   5.814   0.606   0.255
 1937TIP3    H227371   5.799   0.466   0.200
 1938TIP3   OH227372   0.987   3.929   8.084
 1938TIP3    H127373   0.907   3.969   8.051
 1938TIP3    H227374   0.959   3.846   8.123
 1939TIP3   OH227375   1.471   0.727   8.817
 1939TIP3    H127376   1.459   0.798   0.006
 1939TIP3    H227377   1.541   0.758   8.760
 1940TIP3   OH227378   4.984   5.211   7.744
 1940TIP3    H127379   4.895   5.195   7.713
 1940TIP3    H227380   5.036   5.218   7.664
 1941TIP3   OH227381   3.371   0.149   6.963
 1941TIP3    H127382   3.439   0.213   6.940
 1941TIP3    H227383   3.384   0.077   6.901
 1942TIP3   OH227384   4.497   2.533   1.773
 1942TIP3    H127385   4.585   2.500   1.755
 1942TIP3    H227386   4.464   2.476   1.842
 1943TIP3   OH227387   5.409   3.337   8.358
 1943TIP3    H127388   5.369   3.374   8.279
 1943TIP3    H227389   5.449   3.255   8.328
 1944TIP3   OH227390   3.004   1.001   8.560
 1944TIP3    H127391   2.923   0.960   8.529
 1944TIP3    H227392   2.974   1.070   8.619
 1945TIP3   OH227393   5.891   3.043   8.330
 1945TIP3    H127394   5.825   2.974   8.332
 1945TIP3    H227395   5.956   3.015   8.394
 1946TIP3   OH227396   1.919   2.747   8.297
 1946TIP3    H127397   1.951   2.787   8.216
 1946TIP3    H227398   1.860   2.678   8.268
 1947TIP3   OH227399   5.487   2.897   0.251
 1947TIP3    H127400   5.407   2.850   0.273
 1947TIP3    H227401   5.558   2.841   0.282
 1948TIP3   OH227402   1.843   0.107   7.073
 1948TIP3    H127403   1.835   0.122   7.168
 1948TIP3    H227404   1.871   0.191   7.038
 1949TIP3   OH227405   2.560   1.597   8.006
 1949TIP3    H127406   2.504   1.519   8.004
 1949TIP3    H227407   2.567   1.620   8.098
 1950TIP3   OH227408   2.130   5.262   7.703
 1950TIP3    H127409   2.183   5.288   7.628
 1950TIP3    H227410   2.080   5.340   7.726
 1951TIP3   OH227411   0.018   1.618   1.044
 1951TIP3    H127412   0.042   1.693   0.989
 1951TIP3    H227413   0.073   1.546   1.011
 1952TIP3   OH227414   4.952   1.916   1.254
 1952TIP3    H127415   4.863   1.888   1.277
 1952TIP3    H227416   4.940   2.003   1.216
 1953TIP3   OH227417   4.835   0.799   1.608
 1953TIP3    H127418   4.903   0.866   1.605
 1953TIP3    H227419   4.824   0.780   1.701
 1954TIP3   OH227420   3.558   3.889   0.491
 1954TIP3    H127421   3.548   3.795   0.482
 1954TIP3    H227422   3.537   3.924   0.405
 1955TIP3   OH227423   3.973   5.576   0.075
 1955TIP3    H127424   3.918   5.512   0.030
 1955TIP3    H227425   3.916   5.651   0.088
 1956TIP3   OH227426   4.822   1.476   7.921
 1956TIP3    H127427   4.914   1.480   7.948
 1956TIP3    H227428   4.808   1.558   7.873
 1957TIP3   OH227429   0.658   5.397   0.287
 1957TIP3    H127430   0.587   5.333   0.280
 1957TIP3    H227431   0.641   5.459   0.215
 1958TIP3   OH227432   6.717   5.917   6.753
 1958TIP3    H127433   0.002   5.865   6.761
 1958TIP3    H227434   6.704   5.954   6.840
 1959TIP3   OH227435   4.930   4.102   0.556
 1959TIP3    H127436   4.855   4.127   0.610
 1959TIP3    H227437   5.003   4.152   0.592
 1960TIP3   OH227438   1.901   5.991   8.011
 1960TIP3    H127439   1.837   5.920   8.004
 1960TIP3    H227440   1.982   5.952   7.978
 1961TIP3   OH227441   5.786   3.060   0.824
 1961TIP3    H127442   5.707   3.098   0.863
 1961TIP3    H227443   5.858   3.103   0.871
 1962TIP3   OH227444   5.711   5.173   6.863
 1962TIP3    H127445   5.805   5.162   6.850
 1962TIP3    H227446   5.672   5.129   6.787
 1963TIP3   OH227447   1.134   2.853   7.348
 1963TIP3    H127448   1.117   2.835   7.440
 1963TIP3    H227449   1.122   2.768   7.305
 1964TIP3   OH227450   5.491   2.263   1.913
 1964TIP3    H127451   5.439   2.259   1.993
 1964TIP3    H227452   5.512   2.172   1.893
 1965TIP3   OH227453   1.659   1.107   1.878
 1965TIP3    H127454   1.669   1.138   1.968
 1965TIP3    H227455   1.729   1.043   1.867
 1966TIP3   OH227456   4.013   2.340   0.110
 1966TIP3    H127457   3.929   2.374   0.078
 1966TIP3    H227458   3.994   2.250   0.136
 1967TIP3   OH227459   5.950   2.584   0.702
 1967TIP3    H127460   5.924   2.665   0.657
 1967TIP3    H227461   6.046   2.587   0.703
 1968TIP3   OH227462   2.338   4.758   1.521
 1968TIP3    H127463   2.305   4.763   1.610
 1968TIP3    H227464   2.431   4.779   1.528
 1969TIP3   OH227465   5.704   3.021   1.138
 1969TIP3    H127466   5.743   2.934   1.148
 1969TIP3    H227467   5.662   3.039   1.222
 1970TIP3   OH227468   3.635   1.480   8.600
 1970TIP3    H127469   3.695   1.450   8.669
 1970TIP3    H227470   3.616   1.402   8.549
 1971TIP3   OH227471   4.677   3.089   0.016
 1971TIP3    H127472   4.770   3.076   0.035
 1971TIP3    H227473   4.636   3.007   0.043
 1972TIP3   OH227474   2.351   5.382   7.290
 1972TIP3    H127475   2.320   5.460   7.337
 1972TIP3    H227476   2.440   5.405   7.263
 1973TIP3   OH227477   2.464   3.871   8.584
 1973TIP3    H127478   2.435   3.862   8.675
 1973TIP3    H227479   2.537   3.810   8.576
 1974TIP3   OH227480   2.142   1.429   0.596
 1974TIP3    H127481   2.130   1.439   0.502
 1974TIP3    H227482   2.054   1.439   0.633
 1975TIP3   OH227483   4.234   3.801   1.580
 1975TIP3    H127484   4.272   3.746   1.648
 1975TIP3    H227485   4.246   3.891   1.611
 1976TIP3   OH227486   1.180   1.876   6.869
 1976TIP3    H127487   1.206   1.888   6.778
 1976TIP3    H227488   1.119   1.948   6.887
 1977TIP3   OH227489   0.166   2.248   7.901
 1977TIP3    H127490   0.166   2.325   7.844
 1977TIP3    H227491   0.160   2.284   7.990
 1978TIP3   OH227492   5.865   5.734   6.929
 1978TIP3    H127493   5.780   5.692   6.941
 1978TIP3    H227494   5.876   5.739   6.834
 1979TIP3   OH227495   3.438   2.916   7.175
 1979TIP3    H127496   3.519   2.949   7.214
 1979TIP3    H227497   3.445   2.937   7.082
 1980TIP3   OH227498   0.740   1.142   7.329
 1980TIP3    H127499   0.750   1.085   7.253
 1980TIP3    H227500   0.776   1.226   7.301
 1981TIP3   OH227501   0.950   4.677   1.348
 1981TIP3    H127502   0.999   4.595   1.357
 1981TIP3    H227503   0.872   4.652   1.298
 1982TIP3   OH227504   3.731   4.119   1.480
 1982TIP3    H127505   3.789   4.124   1.556
 1982TIP3    H227506   3.729   4.208   1.446
 1983TIP3   OH227507   3.661   4.266   0.611
 1983TIP3    H127508   3.731   4.202   0.599
 1983TIP3    H227509   3.666   4.322   0.534
 1984TIP3   OH227510   6.379   0.439   0.765
 1984TIP3    H127511   6.370   0.369   0.830
 1984TIP3    H227512   6.373   0.395   0.681
 1985TIP3   OH227513   2.896   3.363   8.418
 1985TIP3    H127514   2.822   3.356   8.477
 1985TIP3    H227515   2.892   3.453   8.384
 1986TIP3   OH227516   6.315   2.745   1.505
 1986TIP3    H127517   6.401   2.783   1.525
 1986TIP3    H227518   6.300   2.768   1.413
 1987TIP3   OH227519   3.937   2.592   1.443
 1987TIP3    H127520   3.945   2.679   1.403
 1987TIP3    H227521   3.939   2.609   1.537
 1988TIP3   OH227522   5.733   0.987   7.058
 1988TIP3    H127523   5.672   0.933   7.108
 1988TIP3    H227524   5.781   0.924   7.004
 1989TIP3   OH227525   4.669   0.911   1.098
 1989TIP3    H127526   4.670   0.932   1.191
 1989TIP3    H227527   4.624   0.827   1.092
 1990TIP3   OH227528   2.324   6.241   8.257
 1990TIP3    H127529   2.338   6.335   8.267
 1990TIP3    H227530   2.251   6.234   8.195
 1991TIP3   OH227531   2.490   6.152   7.919
 1991TIP3    H127532   2.546   6.159   7.842
 1991TIP3    H227533   2.402   6.171   7.887
 1992TIP3   OH227534   6.081   1.481   1.438
 1992TIP3    H127535   6.157   1.535   1.415
 1992TIP3    H227536   6.109   1.391   1.419
 1993TIP3   OH227537   5.709   0.114   7.302
 1993TIP3    H127538   5.679   0.043   7.246
 1993TIP3    H227539   5.637   0.129   7.363
 1994TIP3   OH227540   0.943   0.812   1.379
 1994TIP3    H127541   0.965   0.723   1.351
 1994TIP3    H227542   1.020   0.864   1.356
 1995TIP3   OH227543   6.278   1.695   7.833
 1995TIP3    H127544   6.360   1.696   7.883
 1995TIP3    H227545   6.221   1.756   7.878
 1996TIP3   OH227546   6.397   6.152   0.959
 1996TIP3    H127547   6.453   6.209   1.012
 1996TIP3    H227548   6.457   6.087   0.922
 1997TIP3   OH227549   4.873   5.837   0.993
 1997TIP3    H127550   4.896   5.853   0.901
 1997TIP3    H227551   4.857   5.925   1.029
 1998TIP3   OH227552   3.657   4.801   0.362
 1998TIP3    H127553   3.597   4.777   0.291
 1998TIP3    H227554   3.660   4.724   0.418
 1999TIP3   OH227555   4.418   3.852   0.118
 1999TIP3    H127556   4.448   3.928   0.168
 1999TIP3    H227557   4.493   3.828   0.063
 2000TIP3   OH227558   4.245   3.189   0.293
 2000TIP3    H127559   4.211   3.176   0.204
 2000TIP3    H227560   4.172   3.165   0.350
 2001TIP3   OH227561   6.492   4.562   1.439
 2001TIP3    H127562   6.461   4.551   1.349
 2001TIP3    H227563   6.418   4.534   1.493
 2002TIP3   OH227564   0.356   6.530   0.380
 2002TIP3    H127565   0.435   6.506   0.429
 2002TIP3    H227566   0.304   6.450   0.376
 2003TIP3   OH227567   4.412   3.861   1.295
 2003TIP3    H127568   4.393   3.787   1.353
 2003TIP3    H227569   4.495   3.838   1.253
 2004TIP3   OH227570   4.989   1.223   8.644
 2004TIP3    H127571   4.904   1.260   8.620
 2004TIP3    H227572   5.027   1.287   8.704
 2005TIP3   OH227573   0.379   1.819   7.302
 2005TIP3    H127574   0.389   1.727   7.279
 2005TIP3    H227575   0.322   1.819   7.379
 2006TIP3   OH227576   1.237   3.108   7.610
 2006TIP3    H127577   1.325   3.102   7.572
 2006TIP3    H227578   1.252   3.121   7.703
 2007TIP3   OH227579   3.044   6.795   0.490
 2007TIP3    H127580   2.949   6.783   0.491
 2007TIP3    H227581   3.061   0.049   0.410
 2008TIP3   OH227582   2.995   0.430   7.697
 2008TIP3    H127583   3.041   0.461   7.619
 2008TIP3    H227584   3.048   0.461   7.771
 2009TIP3   OH227585   0.345   1.600   1.800
 2009TIP3    H127586   0.406   1.559   1.740
 2009TIP3    H227587   0.332   1.688   1.764
 2010TIP3   OH227588   6.729   5.878   2.081
 2010TIP3    H127589   6.710   5.816   2.152
 2010TIP3    H227590   6.743   5.962   2.126
 2011TIP3   OH227591   1.578   0.803   6.537
 2011TIP3    H127592   1.559   0.756   6.456
 2011TIP3    H227593   1.595   0.735   6.602
 2012TIP3   OH227594   2.036   4.678   0.911
 2012TIP3    H127595   2.067   4.658   0.999
 2012TIP3    H227596   2.113   4.714   0.866
 2013TIP3   OH227597   4.053   1.625   0.889
 2013TIP3    H127598   4.028   1.714   0.915
 2013TIP3    H227599   4.078   1.582   0.971
 2014TIP3   OH227600   5.691   4.572   0.957
 2014TIP3    H127601   5.758   4.607   0.899
 2014TIP3    H227602   5.733   4.498   1.001
 2015TIP3   OH227603   2.621   6.761   1.088
 2015TIP3    H127604   2.712   6.732   1.087
 2015TIP3    H227605   2.619   0.041   1.030
 2016TIP3   OH227606   1.671   5.033   0.454
 2016TIP3    H127607   1.765   5.043   0.468
 2016TIP3    H227608   1.631   5.090   0.520
 2017TIP3   OH227609   1.613   1.229   1.390
 2017TIP3    H127610   1.575   1.278   1.463
 2017TIP3    H227611   1.635   1.144   1.428
 2018TIP3   OH227612   3.061   3.941   0.241
 2018TIP3    H127613   3.040   4.034   0.244
 2018TIP3    H227614   3.014   3.904   0.316
 2019TIP3   OH227615   2.262   3.547   7.259
 2019TIP3    H127616   2.191   3.600   7.222
 2019TIP3    H227617   2.337   3.607   7.264
 2020TIP3   OH227618   1.323   1.008   7.132
 2020TIP3    H127619   1.276   1.089   7.155
 2020TIP3    H227620   1.363   1.027   7.047
 2021TIP3   OH227621   6.206   5.616   1.261
 2021TIP3    H127622   6.241   5.623   1.350
 2021TIP3    H227623   6.111   5.612   1.273
 2022TIP3   OH227624   5.566   5.820   7.783
 2022TIP3    H127625   5.639   5.825   7.845
 2022TIP3    H227626   5.526   5.734   7.800
 2023TIP3   OH227627   3.433   5.655   1.018
 2023TIP3    H127628   3.396   5.596   1.084
 2023TIP3    H227629   3.380   5.735   1.025
 2024TIP3   OH227630   2.002   5.328   1.712
 2024TIP3    H127631   2.083   5.366   1.746
 2024TIP3    H227632   1.934   5.391   1.736
 2025TIP3   OH227633   3.057   2.290   0.005
 2025TIP3    H127634   3.077   2.196   0.007
 2025TIP3    H227635   3.024   2.305   8.790
 2026TIP3   OH227636   0.096   5.002   1.457
 2026TIP3    H127637   0.182   5.042   1.440
 2026TIP3    H227638   0.081   5.018   1.550
 2027TIP3   OH227639   6.706   2.749   8.112
 2027TIP3    H127640   6.757   2.679   8.152
 2027TIP3    H227641   6.701   2.817   8.180
 2028TIP3   OH227642   3.156   1.527   8.867
 2028TIP3    H127643   3.190   1.596   0.050
 2028TIP3    H227644   3.229   1.506   8.809
 2029TIP3   OH227645   0.279   1.716   6.650
 2029TIP3    H127646   0.318   1.672   6.574
 2029TIP3    H227647   0.226   1.648   6.692
 2030TIP3   OH227648   0.912   2.152   1.968
 2030TIP3    H127649   0.887   2.093   2.039
 2030TIP3    H227650   0.981   2.207   2.005
 2031TIP3   OH227651   6.662   5.393   1.148
 2031TIP3    H127652   6.569   5.406   1.169
 2031TIP3    H227653   6.688   5.317   1.200
 2032TIP3   OH227654   4.431   1.422   1.060
 2032TIP3    H127655   4.345   1.429   1.018
 2032TIP3    H227656   4.426   1.481   1.135
 2033TIP3   OH227657   0.578   4.971   6.951
 2033TIP3    H127658   0.650   4.925   6.908
 2033TIP3    H227659   0.518   4.993   6.881
 2034TIP3   OH227660   1.960   1.176   0.771
 2034TIP3    H127661   1.900   1.195   0.699
 2034TIP3    H227662   1.949   1.083   0.789
 2035TIP3   OH227663   1.837   6.016   0.741
 2035TIP3    H127664   1.846   6.111   0.737
 2035TIP3    H227665   1.759   5.997   0.689
 2036TIP3   OH227666   1.730   0.821   1.090
 2036TIP3    H127667   1.797   0.880   1.124
 2036TIP3    H227668   1.738   0.742   1.144
 2037TIP3   OH227669   5.892   6.022   8.020
 2037TIP3    H127670   5.911   6.107   7.981
 2037TIP3    H227671   5.800   6.028   8.047
 2038TIP3   OH227672   3.433   4.171   0.561
 2038TIP3    H127673   3.528   4.168   0.573
 2038TIP3    H227674   3.417   4.254   0.516
 2039TIP3   OH227675   0.071   3.340   1.191
 2039TIP3    H127676   0.051   3.309   1.103
 2039TIP3    H227677   0.033   3.428   1.194
 2040TIP3   OH227678   1.118   2.924   6.917
 2040TIP3    H127679   1.110   2.961   6.829
 2040TIP3    H227680   1.030   2.894   6.939
 2041TIP3   OH227681   3.972   2.870   1.883
 2041TIP3    H127682   3.887   2.897   1.918
 2041TIP3    H227683   4.029   2.946   1.897
 2042TIP3   OH227684   2.919   0.816   6.673
 2042TIP3    H127685   2.877   0.901   6.663
 2042TIP3    H227686   3.007   0.828   6.637
 2043TIP3   OH227687   6.059   3.857   8.793
 2043TIP3    H127688   6.057   3.926   8.727
 2043TIP3    H227689   6.135   3.879   8.847
 2044TIP3   OH227690   5.291   4.476   1.791
 2044TIP3    H127691   5.355   4.417   1.751
 2044TIP3    H227692   5.206   4.436   1.772
 2045TIP3   OH227693   5.790   1.880   6.795
 2045TIP3    H127694   5.742   1.960   6.773
 2045TIP3    H227695   5.778   1.823   6.719
 2046TIP3   OH227696   5.562   3.834   0.935
 2046TIP3    H127697   5.593   3.751   0.972
 2046TIP3    H227698   5.570   3.823   0.841
 2047TIP3   OH227699   5.737   3.214   8.634
 2047TIP3    H127700   5.662   3.274   8.640
 2047TIP3    H227701   5.705   3.131   8.668
 2048TIP3   OH227702   5.387   2.913   7.409
 2048TIP3    H127703   5.323   2.844   7.429
 2048TIP3    H227704   5.389   2.966   7.489
 2049TIP3   OH227705   6.716   5.705   2.302
 2049TIP3    H127706   0.003   5.704   2.348
 2049TIP3    H227707   6.654   5.742   2.365
 2050TIP3   OH227708   5.829   2.310   2.029
 2050TIP3    H127709   5.878   2.271   1.957
 2050TIP3    H227710   5.879   2.285   2.107
 2051TIP3   OH227711   5.507   1.084   1.567
 2051TIP3    H127712   5.570   1.014   1.549
 2051TIP3    H227713   5.559   1.165   1.562
 2052TIP3   OH227714   3.974   1.070   8.872
 2052TIP3    H127715   3.992   0.989   0.044
 2052TIP3    H227716   4.022   1.137   0.047
 2053TIP3   OH227717   3.127   1.075   0.603
 2053TIP3    H127718   3.147   1.093   0.511
 2053TIP3    H227719   3.160   0.987   0.618
 2054TIP3   OH227720   5.115   2.920   7.755
 2054TIP3    H127721   5.203   2.897   7.784
 2054TIP3    H227722   5.118   2.909   7.660
 2055TIP3   OH227723   0.192   1.779   0.810
 2055TIP3    H127724   0.104   1.748   0.788
 2055TIP3    H227725   0.233   1.795   0.725
 2056TIP3   OH227726   4.742   0.291   7.854
 2056TIP3    H127727   4.836   0.275   7.846
 2056TIP3    H227728   4.702   0.204   7.846
 2057TIP3   OH227729   6.290   5.462   8.172
 2057TIP3    H127730   6.350   5.495   8.238
 2057TIP3    H227731   6.286   5.532   8.106
 2058TIP3   OH227732   5.719   6.039   0.522
 2058TIP3    H127733   5.777   6.067   0.451
 2058TIP3    H227734   5.778   6.003   0.588
 2059TIP3   OH227735   4.944   0.366   0.212
 2059TIP3    H127736   4.968   0.298   0.149
 2059TIP3    H227737   4.866   0.332   0.255
 2060TIP3   OH227738   1.536   5.430   8.872
 2060TIP3    H127739   1.626   5.455   0.019
 2060TIP3    H227740   1.534   5.335   0.009
 2061TIP3   OH227741   0.081   4.437   1.902
 2061TIP3    H127742   0.053   4.371   1.839
 2061TIP3    H227743   0.002   4.460   1.951
 2062TIP3   OH227744   5.578   6.689   1.091
 2062TIP3    H127745   5.601   6.601   1.061
 2062TIP3    H227746   5.537   6.730   1.016
 2063TIP3   OH227747   4.058   5.138   8.035
 2063TIP3    H127748   4.050   5.231   8.054
 2063TIP3    H227749   4.130   5.108   8.090
 2064TIP3   OH227750   5.454   1.322   8.622
 2064TIP3    H127751   5.479   1.411   8.595
 2064TIP3    H227752   5.360   1.318   8.603
 2065TIP3   OH227753   2.602   3.812   8.206
 2065TIP3    H127754   2.616   3.851   8.120
 2065TIP3    H227755   2.553   3.878   8.255
 2066TIP3   OH227756   2.813   5.966   7.442
 2066TIP3    H127757   2.812   5.927   7.354
 2066TIP3    H227758   2.870   5.908   7.493
 2067TIP3   OH227759   1.294   3.907   7.521
 2067TIP3    H127760   1.224   3.968   7.546
 2067TIP3    H227761   1.327   3.942   7.438
 2068TIP3   OH227762   1.039   4.587   7.293
 2068TIP3    H127763   1.126   4.547   7.297
 2068TIP3    H227764   0.984   4.531   7.348
 2069TIP3   OH227765   5.145   1.517   8.485
 2069TIP3    H127766   5.116   1.553   8.569
 2069TIP3    H227767   5.225   1.565   8.465
 2070TIP3   OH227768   0.240   2.339   1.003
 2070TIP3    H127769   0.330   2.334   1.038
 2070TIP3    H227770   0.230   2.259   0.951
 2071TIP3   OH227771   0.949   0.741   6.745
 2071TIP3    H127772   0.861   0.749   6.782
 2071TIP3    H227773   1.005   0.783   6.809
 2072TIP3   OH227774   5.779   5.620   2.394
 2072TIP3    H127775   5.817   5.532   2.393
 2072TIP3    H227776   5.774   5.642   2.487
 2073TIP3   OH227777   2.856   4.938   1.875
 2073TIP3    H127778   2.949   4.944   1.900
 2073TIP3    H227779   2.815   4.891   1.947
 2074TIP3   OH227780   0.699   6.675   0.068
 2074TIP3    H127781   0.645   6.753   0.085
 2074TIP3    H227782   0.750   6.664   0.148
 2075TIP3   OH227783   5.037   1.345   7.699
 2075TIP3    H127784   5.103   1.367   7.765
 2075TIP3    H227785   5.043   1.250   7.689
 2076TIP3   OH227786   4.473   2.479   1.037
 2076TIP3    H127787   4.394   2.470   1.092
 2076TIP3    H227788   4.542   2.436   1.087
 2077TIP3   OH227789   1.414   5.120   7.936
 2077TIP3    H127790   1.424   5.116   7.840
 2077TIP3    H227791   1.350   5.191   7.950
 2078TIP3   OH227792   6.732   1.063   0.634
 2078TIP3    H127793   6.644   1.044   0.666
 2078TIP3    H227794   6.790   1.042   0.707
 2079TIP3   OH227795   4.266   5.647   0.097
 2079TIP3    H127796   4.250   5.681   0.185
 2079TIP3    H227797   4.187   5.600   0.074
 2080TIP3   OH227798   6.075   3.917   7.952
 2080TIP3    H127799   6.051   3.998   7.999
 2080TIP3    H227800   6.000   3.899   7.896
 2081TIP3   OH227801   6.122   5.674   7.397
 2081TIP3    H127802   6.168   5.601   7.355
 2081TIP3    H227803   6.149   5.669   7.489
 2082TIP3   OH227804   4.813   5.457   1.849
 2082TIP3    H127805   4.843   5.483   1.762
 2082TIP3    H227806   4.889   5.470   1.906
 2083TIP3   OH227807   1.277   1.166   0.111
 2083TIP3    H127808   1.304   1.249   0.150
 2083TIP3    H227809   1.213   1.130   0.172
 2084TIP3   OH227810   6.703   0.073   8.522
 2084TIP3    H127811   6.740   0.049   8.606
 2084TIP3    H227812   6.671   0.163   8.534
 2085TIP3   OH227813   5.298   0.973   0.968
 2085TIP3    H127814   5.377   1.013   1.003
 2085TIP3    H227815   5.317   0.879   0.969
 2086TIP3   OH227816   0.614   5.583   0.087
 2086TIP3    H127817   0.538   5.625   0.048
 2086TIP3    H227818   0.654   5.649   0.143
 2087TIP3   OH227819   2.493   2.337   0.235
 2087TIP3    H127820   2.496   2.397   0.160
 2087TIP3    H227821   2.462   2.254   0.198
 2088TIP3   OH227822   1.890   3.649   7.537
 2088TIP3    H127823   1.979   3.629   7.568
 2088TIP3    H227824   1.893   3.630   7.443
 2089TIP3   OH227825   6.058   4.117   1.145
 2089TIP3    H127826   6.020   4.029   1.146
 2089TIP3    H227827   6.036   4.154   1.231
 2090TIP3   OH227828   5.285   2.347   7.397
 2090TIP3    H127829   5.369   2.337   7.351
 2090TIP3    H227830   5.297   2.425   7.451
 2091TIP3   OH227831   0.131   0.927   8.470
 2091TIP3    H127832   0.190   0.991   8.510
 2091TIP3    H227833   0.150   0.845   8.516
 2092TIP3   OH227834   3.208   5.335   0.244
 2092TIP3    H127835   3.184   5.425   0.223
 2092TIP3    H227836   3.163   5.282   0.178
 2093TIP3   OH227837   4.258   3.668   7.302
 2093TIP3    H127838   4.237   3.583   7.263
 2093TIP3    H227839   4.231   3.660   7.393
 2094TIP3   OH227840   3.768   5.980   6.435
 2094TIP3    H127841   3.750   5.904   6.379
 2094TIP3    H227842   3.781   6.052   6.374
 2095TIP3   OH227843   6.166   6.622   1.941
 2095TIP3    H127844   6.215   6.556   1.990
 2095TIP3    H227845   6.144   6.688   2.007
 2096TIP3   OH227846   1.691   4.584   7.368
 2096TIP3    H127847   1.638   4.597   7.290
 2096TIP3    H227848   1.680   4.665   7.419
 2097TIP3   OH227849   0.532   0.195   8.592
 2097TIP3    H127850   0.581   0.215   8.671
 2097TIP3    H227851   0.500   0.280   8.561
 2098TIP3   OH227852   0.968   3.311   0.517
 2098TIP3    H127853   0.992   3.403   0.503
 2098TIP3    H227854   0.990   3.296   0.609
 2099TIP3   OH227855   5.239   2.086   6.576
 2099TIP3    H127856   5.167   2.138   6.541
 2099TIP3    H227857   5.305   2.150   6.602
 2100TIP3   OH227858   2.152   6.346   7.269
 2100TIP3    H127859   2.099   6.273   7.300
 2100TIP3    H227860   2.202   6.374   7.346
 2101TIP3   OH227861   6.203   5.812   8.765
 2101TIP3    H127862   6.162   5.849   8.687
 2101TIP3    H227863   6.265   5.748   8.731
 2102TIP3   OH227864   2.976   4.973   7.264
 2102TIP3    H127865   3.025   4.931   7.193
 2102TIP3    H227866   2.941   4.899   7.315
 2103TIP3   OH227867   4.580   0.094   1.612
 2103TIP3    H127868   4.587   0.103   1.517
 2103TIP3    H227869   4.520   0.021   1.624
 2104TIP3   OH227870   6.606   4.511   0.376
 2104TIP3    H127871   6.599   4.442   0.310
 2104TIP3    H227872   6.516   4.522   0.408
 2105TIP3   OH227873   6.505   4.123   7.486
 2105TIP3    H127874   6.548   4.187   7.542
 2105TIP3    H227875   6.546   4.134   7.400
 2106TIP3   OH227876   4.209   3.605   6.874
 2106TIP3    H127877   4.152   3.681   6.881
 2106TIP3    H227878   4.150   3.532   6.858
 2107TIP3   OH227879   0.576   0.639   7.820
 2107TIP3    H127880   0.534   0.591   7.748
 2107TIP3    H227881   0.522   0.718   7.831
 2108TIP3   OH227882   2.357   6.493   7.161
 2108TIP3    H127883   2.279   6.436   7.165
 2108TIP3    H227884   2.353   6.533   7.074
 2109TIP3   OH227885   4.381   0.577   1.832
 2109TIP3    H127886   4.474   0.575   1.853
 2109TIP3    H227887   4.338   0.545   1.912
 2110TIP3   OH227888   2.628   4.193   7.879
 2110TIP3    H127889   2.714   4.233   7.866
 2110TIP3    H227890   2.569   4.243   7.822
 2111TIP3   OH227891   2.785   2.187   7.322
 2111TIP3    H127892   2.721   2.226   7.382
 2111TIP3    H227893   2.805   2.102   7.361
 2112TIP3   OH227894   3.955   4.190   0.394
 2112TIP3    H127895   4.042   4.183   0.355
 2112TIP3    H227896   3.912   4.108   0.373
 2113TIP3   OH227897   6.665   5.459   2.174
 2113TIP3    H127898   6.691   5.540   2.218
 2113TIP3    H227899   6.741   5.402   2.180
 2114TIP3   OH227900   4.216   4.242   8.448
 2114TIP3    H127901   4.184   4.301   8.516
 2114TIP3    H227902   4.307   4.268   8.435
 2115TIP3   OH227903   4.822   1.093   1.825
 2115TIP3    H127904   4.853   1.074   1.914
 2115TIP3    H227905   4.885   1.049   1.768
 2116TIP3   OH227906   6.650   0.498   0.603
 2116TIP3    H127907   6.661   0.470   0.694
 2116TIP3    H227908   6.581   0.565   0.607
 2117TIP3   OH227909   4.786   6.713   7.133
 2117TIP3    H127910   4.799   0.006   7.164
 2117TIP3    H227911   4.730   6.673   7.199
 2118TIP3   OH227912   2.958   2.684   6.544
 2118TIP3    H127913   2.882   2.683   6.487
 2118TIP3    H227914   3.029   2.716   6.489
 2119TIP3   OH227915   0.155   3.318   1.695
 2119TIP3    H127916   0.157   3.395   1.751
 2119TIP3    H227917   0.068   3.319   1.655
 2120TIP3   OH227918   4.587   0.339   8.103
 2120TIP3    H127919   4.612   0.258   8.147
 2120TIP3    H227920   4.620   0.328   8.014
 2121TIP3   OH227921   0.571   6.588   7.228
 2121TIP3    H127922   0.606   6.671   7.195
 2121TIP3    H227923   0.555   6.604   7.321
 2122TIP3   OH227924   2.254   5.827   6.945
 2122TIP3    H127925   2.277   5.744   6.904
 2122TIP3    H227926   2.332   5.881   6.935
 2123TIP3   OH227927   2.330   0.605   0.346
 2123TIP3    H127928   2.399   0.571   0.402
 2123TIP3    H227929   2.252   0.607   0.402
 2124TIP3   OH227930   5.744   4.480   8.577
 2124TIP3    H127931   5.759   4.531   8.498
 2124TIP3    H227932   5.743   4.389   8.547
 2125TIP3   OH227933   2.083   3.030   8.236
 2125TIP3    H127934   2.033   3.032   8.317
 2125TIP3    H227935   2.022   3.060   8.169
 2126TIP3   OH227936   3.984   0.940   7.688
 2126TIP3    H127937   3.902   0.989   7.702
 2126TIP3    H227938   4.015   0.971   7.602
 2127TIP3   OH227939   3.679   2.424   8.602
 2127TIP3    H127940   3.725   2.343   8.624
 2127TIP3    H227941   3.587   2.400   8.599
 2128TIP3   OH227942   2.466   6.472   7.671
 2128TIP3    H127943   2.412   6.550   7.684
 2128TIP3    H227944   2.532   6.478   7.740
 2129TIP3   OH227945   3.254   1.530   0.731
 2129TIP3    H127946   3.265   1.588   0.807
 2129TIP3    H227947   3.232   1.588   0.659
 2130TIP3   OH227948   2.925   3.375   2.589
 2130TIP3    H127949   2.926   3.315   2.664
 2130TIP3    H227950   2.864   3.336   2.527
 2131TIP3   OH227951   6.359   3.889   7.445
 2131TIP3    H127952   6.273   3.908   7.482
 2131TIP3    H227953   6.402   3.974   7.438
 2132TIP3   OH227954   2.307   5.065   2.102
 2132TIP3    H127955   2.250   5.030   2.170
 2132TIP3    H227956   2.313   5.159   2.120
 2133TIP3   OH227957   3.282   5.886   1.036
 2133TIP3    H127958   3.227   5.903   1.112
 2133TIP3    H227959   3.257   5.954   0.973
 2134TIP3   OH227960   2.314   2.315   7.147
 2134TIP3    H127961   2.229   2.310   7.103
 2134TIP3    H227962   2.292   2.320   7.240
 2135TIP3   OH227963   5.312   1.460   1.668
 2135TIP3    H127964   5.404   1.486   1.668
 2135TIP3    H227965   5.284   1.471   1.759
 2136TIP3   OH227966   2.910   6.500   7.325
 2136TIP3    H127967   2.949   6.452   7.253
 2136TIP3    H227968   2.816   6.498   7.308
 2137TIP3   OH227969   3.155   2.194   7.863
 2137TIP3    H127970   3.163   2.100   7.849
 2137TIP3    H227971   3.095   2.202   7.937
 2138TIP3   OH227972   3.985   2.408   8.108
 2138TIP3    H127973   3.962   2.427   8.199
 2138TIP3    H227974   4.014   2.317   8.109
 2139TIP3   OH227975   5.842   1.296   6.324
 2139TIP3    H127976   5.829   1.388   6.348
 2139TIP3    H227977   5.819   1.247   6.403
 2140TIP3   OH227978   0.714   6.083   6.750
 2140TIP3    H127979   0.790   6.111   6.801
 2140TIP3    H227980   0.710   6.144   6.677
 2141TIP3   OH227981   2.794   3.420   0.519
 2141TIP3    H127982   2.867   3.394   0.463
 2141TIP3    H227983   2.760   3.338   0.554
 2142TIP3   OH227984   1.143   2.563   6.696
 2142TIP3    H127985   1.148   2.489   6.636
 2142TIP3    H227986   1.098   2.632   6.647
 2143TIP3   OH227987   4.332   1.050   0.140
 2143TIP3    H127988   4.313   0.972   0.192
 2143TIP3    H227989   4.390   1.019   0.071
 2144TIP3   OH227990   2.507   6.434   0.784
 2144TIP3    H127991   2.507   6.405   0.693
 2144TIP3    H227992   2.497   6.529   0.779
 2145TIP3   OH227993   3.297   1.652   8.560
 2145TIP3    H127994   3.253   1.712   8.620
 2145TIP3    H227995   3.324   1.578   8.614
 2146TIP3   OH227996   1.688   4.136   8.226
 2146TIP3    H127997   1.639   4.213   8.254
 2146TIP3    H227998   1.672   4.129   8.132
 2147TIP3   OH227999   0.736   3.557   8.614
 2147TIP3    H128000   0.824   3.520   8.624
 2147TIP3    H228001   0.679   3.500   8.665
 2148TIP3   OH228002   5.697   2.118   6.249
 2148TIP3    H128003   5.683   2.072   6.167
 2148TIP3    H228004   5.788   2.097   6.273
 2149TIP3   OH228005   0.008   4.181   2.107
 2149TIP3    H128006   6.713   4.204   2.087
 2149TIP3    H228007   0.018   4.203   2.200
 2150TIP3   OH228008   5.310   3.823   1.923
 2150TIP3    H128009   5.353   3.842   2.007
 2150TIP3    H228010   5.288   3.730   1.927
 2151TIP3   OH228011   1.719   2.393   1.800
 2151TIP3    H128012   1.701   2.485   1.817
 2151TIP3    H228013   1.759   2.361   1.880
 2152TIP3   OH228014   3.375   6.353   7.223
 2152TIP3    H128015   3.321   6.392   7.154
 2152TIP3    H228016   3.382   6.421   7.289
 2153TIP3   OH228017   5.562   2.204   2.480
 2153TIP3    H128018   5.599   2.205   2.568
 2153TIP3    H228019   5.571   2.294   2.450
 2154TIP3   OH228020   4.837   0.451   0.939
 2154TIP3    H128021   4.841   0.520   1.006
 2154TIP3    H228022   4.887   0.486   0.865
 2155TIP3   OH228023   1.394   5.068   0.841
 2155TIP3    H128024   1.416   5.003   0.908
 2155TIP3    H228025   1.303   5.050   0.818
 2156TIP3   OH228026   0.819   2.324   0.726
 2156TIP3    H128027   0.886   2.259   0.747
 2156TIP3    H228028   0.774   2.340   0.809
 2157TIP3   OH228029   1.082   2.579   8.030
 2157TIP3    H128030   1.085   2.527   7.950
 2157TIP3    H228031   1.134   2.657   8.010
 2158TIP3   OH228032   2.656   6.473   6.704
 2158TIP3    H128033   2.662   6.559   6.662
 2158TIP3    H228034   2.724   6.421   6.663
 2159TIP3   OH228035   4.352   5.734   7.014
 2159TIP3    H128036   4.336   5.657   6.960
 2159TIP3    H228037   4.372   5.698   7.101
 2160TIP3   OH228038   4.504   0.763   7.381
 2160TIP3    H128039   4.458   0.680   7.394
 2160TIP3    H228040   4.503   0.776   7.286
 2161TIP3   OH228041   0.674   3.857   0.477
 2161TIP3    H128042   0.609   3.796   0.443
 2161TIP3    H228043   0.696   3.823   0.564
 2162TIP3   OH228044   0.975   1.427   1.044
 2162TIP3    H128045   1.007   1.403   1.132
 2162TIP3    H228046   1.052   1.421   0.988
 2163TIP3   OH228047   1.779   1.385   7.728
 2163TIP3    H128048   1.800   1.363   7.638
 2163TIP3    H228049   1.863   1.380   7.774
 2164TIP3   OH228050   3.675   2.553   0.519
 2164TIP3    H128051   3.734   2.616   0.559
 2164TIP3    H228052   3.668   2.482   0.583
 2165TIP3   OH228053   2.605   1.978   0.885
 2165TIP3    H128054   2.543   2.015   0.822
 2165TIP3    H228055   2.618   1.888   0.857
 2166TIP3   OH228056   0.470   1.937   1.958
 2166TIP3    H128057   0.555   1.939   1.913
 2166TIP3    H228058   0.424   2.013   1.924
 2167TIP3   OH228059   5.550   6.696   0.565
 2167TIP3    H128060   5.597   6.687   0.482
 2167TIP3    H228061   5.481   6.759   0.547
 2168TIP3   OH228062   2.768   3.087   1.008
 2168TIP3    H128063   2.753   3.164   1.063
 2168TIP3    H228064   2.689   3.034   1.018
 2169TIP3   OH228065   3.971   3.670   6.534
 2169TIP3    H128066   3.998   3.751   6.492
 2169TIP3    H228067   4.031   3.604   6.500
 2170TIP3   OH228068   5.291   3.473   8.112
 2170TIP3    H128069   5.319   3.475   8.020
 2170TIP3    H228070   5.206   3.430   8.110
 2171TIP3   OH228071   1.903   6.759   0.049
 2171TIP3    H128072   1.895   6.664   0.045
 2171TIP3    H228073   1.987   6.775   0.091
 2172TIP3   OH228074   0.457   5.235   8.817
 2172TIP3    H128075   0.374   5.261   8.778
 2172TIP3    H228076   0.518   5.306   8.795
 2173TIP3   OH228077   4.177   2.601   8.637
 2173TIP3    H128078   4.083   2.588   8.644
 2173TIP3    H228079   4.216   2.524   8.677
 2174TIP3   OH228080   3.133   0.547   2.112
 2174TIP3    H128081   3.203   0.482   2.111
 2174TIP3    H228082   3.053   0.496   2.108
 2175TIP3   OH228083   6.358   0.648   0.324
 2175TIP3    H128084   6.346   0.727   0.376
 2175TIP3    H228085   6.269   0.617   0.306
 2176TIP3   OH228086   0.743   5.157   0.164
 2176TIP3    H128087   0.821   5.212   0.168
 2176TIP3    H228088   0.678   5.204   0.217
 2177TIP3   OH228089   1.214   1.438   6.717
 2177TIP3    H128090   1.297   1.483   6.707
 2177TIP3    H228091   1.206   1.384   6.638
 2178TIP3   OH228092   2.137   2.691   7.670
 2178TIP3    H128093   2.147   2.604   7.708
 2178TIP3    H228094   2.189   2.688   7.590
 2179TIP3   OH228095   6.432   6.572   8.677
 2179TIP3    H128096   6.422   6.659   8.638
 2179TIP3    H228097   6.440   6.513   8.601
 2180TIP3   OH228098   4.791   3.860   8.766
 2180TIP3    H128099   4.747   3.862   8.681
 2180TIP3    H228100   4.737   3.917   8.822
 2181TIP3   OH228101   5.327   0.419   2.212
 2181TIP3    H128102   5.401   0.359   2.203
 2181TIP3    H228103   5.249   0.363   2.201
 2182TIP3   OH228104   1.483   5.684   8.139
 2182TIP3    H128105   1.457   5.592   8.147
 2182TIP3    H228106   1.429   5.718   8.067
 2183TIP3   OH228107   1.602   3.790   0.305
 2183TIP3    H128108   1.648   3.784   0.389
 2183TIP3    H228109   1.636   3.870   0.265
 2184TIP3   OH228110   0.441   3.538   0.187
 2184TIP3    H128111   0.449   3.580   0.273
 2184TIP3    H228112   0.423   3.610   0.127
 2185TIP3   OH228113   3.740   1.660   2.570
 2185TIP3    H128114   3.667   1.718   2.550
 2185TIP3    H228115   3.804   1.678   2.501
 2186TIP3   OH228116   0.100   1.365   0.300
 2186TIP3    H128117   0.068   1.342   0.387
 2186TIP3    H228118   0.188   1.400   0.315
 2187TIP3   OH228119   6.034   3.323   7.829
 2187TIP3    H128120   5.996   3.406   7.858
 2187TIP3    H228121   6.080   3.289   7.906
 2188TIP3   OH228122   6.515   5.650   1.498
 2188TIP3    H128123   6.523   5.671   1.591
 2188TIP3    H228124   6.432   5.604   1.491
 2189TIP3   OH228125   2.965   6.705   8.792
 2189TIP3    H128126   2.970   6.620   8.834
 2189TIP3    H228127   2.873   6.715   8.769
 2190TIP3   OH228128   0.872   1.028   0.615
 2190TIP3    H128129   0.963   1.025   0.644
 2190TIP3    H228130   0.834   0.946   0.646
 2191TIP3   OH228131   3.694   1.155   0.536
 2191TIP3    H128132   3.739   1.124   0.614
 2191TIP3    H228133   3.604   1.126   0.547
 2192TIP3   OH228134   0.050   6.196   0.576
 2192TIP3    H128135   6.756   6.169   0.595
 2192TIP3    H228136   0.086   6.219   0.662
 2193TIP3   OH228137   0.909   0.379   6.446
 2193TIP3    H128138   0.858   0.430   6.384
 2193TIP3    H228139   0.844   0.343   6.507
 2194TIP3   OH228140   6.435   2.531   8.306
 2194TIP3    H128141   6.365   2.499   8.363
 2194TIP3    H228142   6.445   2.462   8.240
 2195TIP3   OH228143   6.092   6.306   8.749
 2195TIP3    H128144   6.040   6.266   8.819
 2195TIP3    H228145   6.157   6.239   8.726
 2196TIP3   OH228146   6.697   5.763   0.618
 2196TIP3    H128147   6.650   5.785   0.538
 2196TIP3    H228148   6.755   5.691   0.592
 2197TIP3   OH228149   5.399   0.437   0.440
 2197TIP3    H128150   5.319   0.426   0.389
 2197TIP3    H228151   5.421   0.529   0.430
 2198TIP3   OH228152   3.975   3.212   1.457
 2198TIP3    H128153   4.066   3.240   1.453
 2198TIP3    H228154   3.960   3.190   1.549
 2199TIP3   OH228155   5.023   0.985   1.633
 2199TIP3    H128156   5.098   1.041   1.656
 2199TIP3    H228157   5.022   0.986   1.537
 2200TIP3   OH228158   1.874   3.774   1.262
 2200TIP3    H128159   1.797   3.829   1.253
 2200TIP3    H228160   1.877   3.752   1.355
 2201TIP3   OH228161   1.527   1.852   0.107
 2201TIP3    H128162   1.505   1.823   0.019
 2201TIP3    H228163   1.601   1.912   0.095
 2202TIP3   OH228164   0.843   1.692   5.965
 2202TIP3    H128165   0.869   1.600   5.962
 2202TIP3    H228166   0.924   1.740   5.947
 2203TIP3   OH228167   5.327   4.486   7.227
 2203TIP3    H128168   5.260   4.535   7.276
 2203TIP3    H228169   5.289   4.476   7.140
 2204TIP3   OH228170   6.678   3.766   2.217
 2204TIP3    H128171   6.712   3.735   2.301
 2204TIP3    H228172   6.710   3.702   2.153
 2205TIP3   OH228173   0.574   3.706   7.635
 2205TIP3    H128174   0.498   3.760   7.614
 2205TIP3    H228175   0.644   3.742   7.581
 2206TIP3   OH228176   0.633   6.514   0.417
 2206TIP3    H128177   0.635   6.442   0.480
 2206TIP3    H228178   0.724   6.524   0.390
 2207TIP3   OH228179   5.220   3.163   1.034
 2207TIP3    H128180   5.260   3.214   1.105
 2207TIP3    H228181   5.240   3.212   0.955
 2208TIP3   OH228182   3.048   5.976   1.173
 2208TIP3    H128183   3.051   6.063   1.211
 2208TIP3    H228184   3.057   5.916   1.247
 2209TIP3   OH228185   5.393   1.361   0.007
 2209TIP3    H128186   5.380   1.272   0.038
 2209TIP3    H228187   5.450   1.352   8.805
 2210TIP3   OH228188   0.032   4.629   2.468
 2210TIP3    H128189   0.020   4.717   2.502
 2210TIP3    H228190   0.105   4.593   2.520
 2211TIP3   OH228191   3.521   4.759   0.133
 2211TIP3    H128192   3.461   4.813   0.081
 2211TIP3    H228193   3.583   4.724   0.069
 2212TIP3   OH228194   4.651   0.300   2.629
 2212TIP3    H128195   4.611   0.251   2.557
 2212TIP3    H228196   4.699   0.371   2.587
 2213TIP3   OH228197   0.471   6.349   7.286
 2213TIP3    H128198   0.412   6.407   7.238
 2213TIP3    H228199   0.556   6.393   7.283
 2214TIP3   OH228200   2.334   3.080   1.402
 2214TIP3    H128201   2.362   3.075   1.493
 2214TIP3    H228202   2.370   3.162   1.370
 2215TIP3   OH228203   3.594   0.400   1.861
 2215TIP3    H128204   3.592   0.305   1.874
 2215TIP3    H228205   3.644   0.434   1.935
 2216TIP3   OH228206   0.041   0.577   7.105
 2216TIP3    H128207   0.063   0.505   7.046
 2216TIP3    H228208   0.123   0.627   7.114
 2217TIP3   OH228209   3.964   2.748   8.371
 2217TIP3    H128210   4.035   2.809   8.392
 2217TIP3    H228211   3.884   2.800   8.378
 2218TIP3   OH228212   5.015   0.722   7.592
 2218TIP3    H128213   5.085   0.700   7.531
 2218TIP3    H228214   4.943   0.753   7.535
 2219TIP3   OH228215   5.181   2.926   2.031
 2219TIP3    H128216   5.134   2.902   1.951
 2219TIP3    H228217   5.113   2.937   2.097
 2220TIP3   OH228218   4.280   1.660   1.278
 2220TIP3    H128219   4.273   1.722   1.351
 2220TIP3    H228220   4.296   1.715   1.201
 2221TIP3   OH228221   5.700   3.186   7.484
 2221TIP3    H128222   5.677   3.104   7.440
 2221TIP3    H228223   5.789   3.172   7.516
 2222TIP3   OH228224   5.869   6.437   1.690
 2222TIP3    H128225   5.951   6.388   1.684
 2222TIP3    H228226   5.813   6.399   1.623
 2223TIP3   OH228227   1.044   0.887   7.310
 2223TIP3    H128228   1.091   0.952   7.363
 2223TIP3    H228229   1.004   0.828   7.374
 2224TIP3   OH228230   1.555   0.211   7.434
 2224TIP3    H128231   1.559   0.243   7.344
 2224TIP3    H228232   1.607   0.274   7.484
 2225TIP3   OH228233   5.074   0.027   8.437
 2225TIP3    H128234   5.164   0.013   8.468
 2225TIP3    H228235   5.048   6.738   8.402
 2226TIP3   OH228236   5.862   1.502   6.823
 2226TIP3    H128237   5.858   1.592   6.856
 2226TIP3    H228238   5.949   1.495   6.784
 2227TIP3   OH228239   2.916   4.061   7.668
 2227TIP3    H128240   2.899   4.101   7.753
 2227TIP3    H228241   2.956   4.131   7.616
 2228TIP3   OH228242   5.263   2.688   7.509
 2228TIP3    H128243   5.310   2.649   7.583
 2228TIP3    H228244   5.171   2.668   7.526
 2229TIP3   OH228245   4.828   6.759   1.505
 2229TIP3    H128246   4.749   0.010   1.531
 2229TIP3    H228247   4.844   6.788   1.415
 2230TIP3   OH228248   5.685   0.284   6.812
 2230TIP3    H128249   5.707   0.337   6.889
 2230TIP3    H228250   5.752   0.216   6.809
 2231TIP3   OH228251   6.763   5.412   7.055
 2231TIP3    H128252   6.698   5.420   6.985
 2231TIP3    H228253   0.023   5.339   7.028
 2232TIP3   OH228254   2.777   5.804   1.655
 2232TIP3    H128255   2.823   5.780   1.736
 2232TIP3    H228256   2.821   5.883   1.625
 2233TIP3   OH228257   2.420   0.163   0.048
 2233TIP3    H128258   2.399   0.116   8.841
 2233TIP3    H228259   2.432   0.254   0.021
 2234TIP3   OH228260   4.709   5.795   8.083
 2234TIP3    H128261   4.711   5.715   8.135
 2234TIP3    H228262   4.731   5.767   7.994
 2235TIP3   OH228263   4.309   1.171   2.109
 2235TIP3    H128264   4.240   1.122   2.153
 2235TIP3    H228265   4.346   1.110   2.046
 2236TIP3   OH228266   3.590   1.317   7.944
 2236TIP3    H128267   3.678   1.347   7.965
 2236TIP3    H228268   3.534   1.360   8.008
 2237TIP3   OH228269   5.751   2.403   7.533
 2237TIP3    H128270   5.727   2.495   7.540
 2237TIP3    H228271   5.809   2.387   7.608
 2238TIP3   OH228272   2.435   5.931   0.723
 2238TIP3    H128273   2.409   5.894   0.808
 2238TIP3    H228274   2.461   5.855   0.671
 2239TIP3   OH228275   1.117   5.663   0.333
 2239TIP3    H128276   1.057   5.621   0.394
 2239TIP3    H228277   1.151   5.739   0.382
 2240TIP3   OH228278   4.478   5.659   1.147
 2240TIP3    H128279   4.538   5.669   1.073
 2240TIP3    H228280   4.391   5.662   1.108
 2241TIP3   OH228281   6.348   1.148   7.381
 2241TIP3    H128282   6.317   1.238   7.371
 2241TIP3    H228283   6.279   1.105   7.431
 2242TIP3   OH228284   6.106   0.016   0.432
 2242TIP3    H128285   6.110   0.071   0.510
 2242TIP3    H228286   6.189   0.033   0.387
 2243TIP3   OH228287   1.335   6.736   6.630
 2243TIP3    H128288   1.376   6.694   6.705
 2243TIP3    H228289   1.300   6.664   6.578
 2244TIP3   OH228290   4.773   3.337   1.408
 2244TIP3    H128291   4.723   3.259   1.431
 2244TIP3    H228292   4.737   3.364   1.323
 2245TIP3   OH228293   5.368   3.415   7.804
 2245TIP3    H128294   5.457   3.449   7.795
 2245TIP3    H228295   5.379   3.322   7.824
 2246TIP3   OH228296   0.225   0.045   8.443
 2246TIP3    H128297   0.288   0.035   8.372
 2246TIP3    H228298   0.274   0.023   8.522
 2247TIP3   OH228299   2.138   4.636   7.711
 2247TIP3    H128300   2.211   4.677   7.757
 2247TIP3    H228301   2.133   4.681   7.627
 2248TIP3   OH228302   3.465   5.081   1.863
 2248TIP3    H128303   3.556   5.070   1.890
 2248TIP3    H228304   3.430   5.148   1.922
 2249TIP3   OH228305   0.377   0.312   6.476
 2249TIP3    H128306   0.444   0.339   6.414
 2249TIP3    H228307   0.309   0.379   6.469
 2250TIP3   OH228308   2.750   2.948   0.017
 2250TIP3    H128309   2.689   2.877   8.872
 2250TIP3    H228310   2.749   2.955   0.113
 2251TIP3   OH228311   5.479   5.279   0.965
 2251TIP3    H128312   5.510   5.364   0.934
 2251TIP3    H228313   5.447   5.235   0.886
 2252TIP3   OH228314   4.358   3.270   8.569
 2252TIP3    H128315   4.392   3.262   8.658
 2252TIP3    H228316   4.318   3.186   8.551
 2253TIP3   OH228317   4.354   6.364   7.087
 2253TIP3    H128318   4.341   6.409   7.004
 2253TIP3    H228319   4.449   6.350   7.093
 2254TIP3   OH228320   0.231   1.186   8.251
 2254TIP3    H128321   0.201   1.126   8.183
 2254TIP3    H228322   0.310   1.145   8.286
 2255TIP3   OH228323   1.369   6.307   1.001
 2255TIP3    H128324   1.295   6.264   1.043
 2255TIP3    H228325   1.345   6.310   0.908
 2256TIP3   OH228326   1.130   3.775   1.665
 2256TIP3    H128327   1.153   3.734   1.749
 2256TIP3    H228328   1.185   3.853   1.661
 2257TIP3   OH228329   3.126   5.760   0.538
 2257TIP3    H128330   3.151   5.837   0.486
 2257TIP3    H228331   3.198   5.749   0.600
 2258TIP3   OH228332   6.329   1.547   1.086
 2258TIP3    H128333   6.284   1.619   1.040
 2258TIP3    H228334   6.372   1.497   1.017
 2259TIP3   OH228335   6.550   2.108   7.440
 2259TIP3    H128336   6.551   2.014   7.420
 2259TIP3    H228337   6.518   2.150   7.360
 2260TIP3   OH228338   3.325   3.527   7.098
 2260TIP3    H128339   3.356   3.613   7.124
 2260TIP3    H228340   3.257   3.544   7.034
 2261TIP3   OH228341   3.239   2.352   8.595
 2261TIP3    H128342   3.250   2.278   8.654
 2261TIP3    H228343   3.320   2.355   8.544
 2262TIP3   OH228344   1.299   2.784   2.006
 2262TIP3    H128345   1.245   2.705   2.005
 2262TIP3    H228346   1.356   2.773   2.082
 2263TIP3   OH228347   5.612   1.736   8.456
 2263TIP3    H128348   5.641   1.680   8.528
 2263TIP3    H228349   5.683   1.799   8.445
 2264TIP3   OH228350   2.360   1.981   0.783
 2264TIP3    H128351   2.350   2.003   0.876
 2264TIP3    H228352   2.286   1.924   0.764
 2265TIP3   OH228353   5.709   5.641   8.608
 2265TIP3    H128354   5.709   5.569   8.672
 2265TIP3    H228355   5.756   5.605   8.533
 2266TIP3   OH228356   5.077   0.226   8.862
 2266TIP3    H128357   5.138   0.193   0.053
 2266TIP3    H228358   5.064   0.153   8.802
 2267TIP3   OH228359   6.458   6.488   7.880
 2267TIP3    H128360   6.452   6.558   7.945
 2267TIP3    H228361   6.536   6.509   7.829
 2268TIP3   OH228362   6.489   2.249   1.536
 2268TIP3    H128363   6.448   2.317   1.589
 2268TIP3    H228364   6.428   2.175   1.541
 2269TIP3   OH228365   2.990   4.817   7.905
 2269TIP3    H128366   3.068   4.873   7.899
 2269TIP3    H228367   3.010   4.758   7.978
 2270TIP3   OH228368   2.551   2.771   0.437
 2270TIP3    H128369   2.553   2.686   0.394
 2270TIP3    H228370   2.524   2.752   0.527
 2271TIP3   OH228371   1.613   1.308   8.137
 2271TIP3    H128372   1.572   1.240   8.083
 2271TIP3    H228373   1.659   1.259   8.205
 2272TIP3   OH228374   3.844   2.119   0.140
 2272TIP3    H128375   3.768   2.061   0.132
 2272TIP3    H228376   3.888   2.091   0.220
 2273TIP3   OH228377   2.519   5.909   1.667
 2273TIP3    H128378   2.457   5.904   1.739
 2273TIP3    H228379   2.581   5.839   1.683
 2274TIP3   OH228380   4.593   4.604   8.224
 2274TIP3    H128381   4.635   4.539   8.167
 2274TIP3    H228382   4.499   4.593   8.207
 2275TIP3   OH228383   1.288   0.890   0.947
 2275TIP3    H128384   1.229   0.838   1.002
 2275TIP3    H228385   1.315   0.829   0.878
 2276TIP3   OH228386   3.147   2.582   7.132
 2276TIP3    H128387   3.179   2.559   7.045
 2276TIP3    H228388   3.079   2.517   7.151
 2277TIP3   OH228389   1.070   1.205   2.296
 2277TIP3    H128390   1.009   1.277   2.316
 2277TIP3    H228391   1.014   1.132   2.271
 2278TIP3   OH228392   3.055   4.475   0.080
 2278TIP3    H128393   3.126   4.523   0.037
 2278TIP3    H228394   2.993   4.456   0.010
 2279TIP3   OH228395   6.311   1.044   1.089
 2279TIP3    H128396   6.405   1.056   1.081
 2279TIP3    H228397   6.279   1.045   0.999
 2280TIP3   OH228398   6.045   2.713   7.156
 2280TIP3    H128399   5.992   2.639   7.126
 2280TIP3    H228400   6.052   2.770   7.080
 2281TIP3   OH228401   5.900   5.402   2.601
 2281TIP3    H128402   5.863   5.488   2.621
 2281TIP3    H228403   5.905   5.400   2.505
 2282TIP3   OH228404   5.564   4.848   7.518
 2282TIP3    H128405   5.565   4.844   7.423
 2282TIP3    H228406   5.578   4.758   7.546
 2283TIP3   OH228407   5.799   2.463   8.145
 2283TIP3    H128408   5.893   2.479   8.135
 2283TIP3    H228409   5.758   2.548   8.130
 2284TIP3   OH228410   2.186   5.663   0.667
 2284TIP3    H128411   2.282   5.662   0.666
 2284TIP3    H228412   2.160   5.576   0.639
 2285TIP3   OH228413   1.476   3.213   1.510
 2285TIP3    H128414   1.448   3.203   1.601
 2285TIP3    H228415   1.476   3.308   1.495
 2286TIP3   OH228416   1.282   4.000   1.629
 2286TIP3    H128417   1.309   4.067   1.566
 2286TIP3    H228418   1.335   4.018   1.706
 2287TIP3   OH228419   1.117   3.773   2.800
 2287TIP3    H128420   1.182   3.818   2.747
 2287TIP3    H228421   1.081   3.706   2.742
 2288TIP3   OH228422   4.685   3.416   8.651
 2288TIP3    H128423   4.747   3.388   8.718
 2288TIP3    H228424   4.653   3.335   8.612
 2289TIP3   OH228425   5.344   4.670   2.015
 2289TIP3    H128426   5.248   4.667   2.018
 2289TIP3    H228427   5.365   4.759   2.044
 2290TIP3   OH228428   4.989   6.774   1.714
 2290TIP3    H128429   4.911   6.775   1.769
 2290TIP3    H228430   4.957   6.790   1.625
 2291TIP3   OH228431   4.288   0.236   2.334
 2291TIP3    H128432   4.259   0.288   2.409
 2291TIP3    H228433   4.208   0.219   2.285
 2292TIP3   OH228434   1.926   1.007   6.826
 2292TIP3    H128435   1.899   1.070   6.758
 2292TIP3    H228436   2.001   1.049   6.869
 2293TIP3   OH228437   0.166   2.490   7.751
 2293TIP3    H128438   0.186   2.576   7.788
 2293TIP3    H228439   0.079   2.501   7.711
 2294TIP3   OH228440   2.095   5.757   8.705
 2294TIP3    H128441   2.056   5.676   8.673
 2294TIP3    H228442   2.022   5.818   8.712
 2295TIP3   OH228443   6.301   4.849   0.639
 2295TIP3    H128444   6.385   4.853   0.686
 2295TIP3    H228445   6.262   4.766   0.666
 2296TIP3   OH228446   1.508   1.349   7.797
 2296TIP3    H128447   1.514   1.275   7.858
 2296TIP3    H228448   1.599   1.379   7.787
 2297TIP3   OH228449   0.957   6.627   6.118
 2297TIP3    H128450   0.888   6.563   6.099
 2297TIP3    H228451   1.012   6.584   6.184
 2298TIP3   OH228452   4.652   3.416   1.133
 2298TIP3    H128453   4.565   3.387   1.103
 2298TIP3    H228454   4.707   3.339   1.123
 2299TIP3   OH228455   4.260   3.760   1.032
 2299TIP3    H128456   4.260   3.705   1.111
 2299TIP3    H228457   4.306   3.839   1.059
 2300TIP3   OH228458   1.471   0.776   8.027
 2300TIP3    H128459   1.377   0.769   8.044
 2300TIP3    H228460   1.505   0.828   8.100
 2301TIP3   OH228461   1.437   4.156   6.913
 2301TIP3    H128462   1.524   4.195   6.905
 2301TIP3    H228463   1.435   4.117   7.001
 2302TIP3   OH228464   6.416   0.235   0.948
 2302TIP3    H128465   6.486   0.203   1.006
 2302TIP3    H228466   6.399   0.162   0.888
 2303TIP3   OH228467   6.039   1.244   1.028
 2303TIP3    H128468   5.965   1.189   1.054
 2303TIP3    H228469   6.111   1.182   1.014
 2304TIP3   OH228470   6.236   4.990   0.360
 2304TIP3    H128471   6.214   4.968   0.450
 2304TIP3    H228472   6.229   4.908   0.312
 2305TIP3   OH228473   2.389   6.615   1.045
 2305TIP3    H128474   2.393   6.530   1.089
 2305TIP3    H228475   2.468   6.661   1.074
 2306TIP3   OH228476   5.090   5.666   7.437
 2306TIP3    H128477   5.036   5.633   7.509
 2306TIP3    H228478   5.086   5.598   7.370
 2307TIP3   OH228479   0.031   3.865   6.382
 2307TIP3    H128480   0.032   3.782   6.429
 2307TIP3    H228481   0.036   3.841   6.290
 2308TIP3   OH228482   5.411   6.029   1.752
 2308TIP3    H128483   5.471   5.998   1.820
 2308TIP3    H228484   5.375   6.111   1.787
 2309TIP3   OH228485   4.003   0.599   0.621
 2309TIP3    H128486   3.946   0.636   0.554
 2309TIP3    H228487   4.007   0.666   0.689
 2310TIP3   OH228488   2.401   3.299   7.581
 2310TIP3    H128489   2.384   3.378   7.530
 2310TIP3    H228490   2.391   3.325   7.672
 2311TIP3   OH228491   5.057   6.459   1.088
 2311TIP3    H128492   5.079   6.516   1.014
 2311TIP3    H228493   5.136   6.458   1.142
 2312TIP3   OH228494   5.948   5.996   8.407
 2312TIP3    H128495   5.925   5.930   8.473
 2312TIP3    H228496   5.889   6.069   8.424
 2313TIP3   OH228497   2.799   3.848   2.039
 2313TIP3    H128498   2.745   3.892   2.105
 2313TIP3    H228499   2.883   3.832   2.083
 2314TIP3   OH228500   5.223   6.391   8.864
 2314TIP3    H128501   5.268   6.428   8.788
 2314TIP3    H228502   5.237   6.455   0.059
 2315TIP3   OH228503   0.598   3.424   8.792
 2315TIP3    H128504   0.527   3.424   8.856
 2315TIP3    H228505   0.582   3.345   8.739
 2316TIP3   OH228506   4.473   1.324   8.492
 2316TIP3    H128507   4.435   1.411   8.489
 2316TIP3    H228508   4.496   1.304   8.401
 2317TIP3   OH228509   4.659   1.499   0.602
 2317TIP3    H128510   4.594   1.431   0.591
 2317TIP3    H228511   4.614   1.580   0.577
 2318TIP3   OH228512   4.303   5.812   8.390
 2318TIP3    H128513   4.360   5.819   8.467
 2318TIP3    H228514   4.284   5.902   8.365
 2319TIP3   OH228515   3.604   3.329   0.353
 2319TIP3    H128516   3.550   3.262   0.311
 2319TIP3    H228517   3.654   3.281   0.419
 2320TIP3   OH228518   3.861   6.595   1.758
 2320TIP3    H128519   3.777   6.641   1.759
 2320TIP3    H228520   3.863   6.547   1.841
 2321TIP3   OH228521   2.440   2.485   7.991
 2321TIP3    H128522   2.507   2.548   7.964
 2321TIP3    H228523   2.367   2.539   8.022
 2322TIP3   OH228524   5.449   4.925   1.874
 2322TIP3    H128525   5.453   4.999   1.935
 2322TIP3    H228526   5.360   4.890   1.884
 2323TIP3   OH228527   2.495   0.710   6.341
 2323TIP3    H128528   2.467   0.798   6.365
 2323TIP3    H228529   2.560   0.723   6.272
 2324TIP3   OH228530   4.993   1.977   8.192
 2324TIP3    H128531   4.991   2.057   8.244
 2324TIP3    H228532   5.032   2.004   8.109
 2325TIP3   OH228533   2.194   2.471   8.344
 2325TIP3    H128534   2.205   2.564   8.361
 2325TIP3    H228535   2.283   2.437   8.334
 2326TIP3   OH228536   5.119   1.124   0.035
 2326TIP3    H128537   5.080   1.159   0.115
 2326TIP3    H228538   5.050   1.129   8.844
 2327TIP3   OH228539   5.350   6.457   0.577
 2327TIP3    H128540   5.426   6.511   0.598
 2327TIP3    H228541   5.358   6.439   0.483
 2328TIP3   OH228542   0.889   6.643   0.272
 2328TIP3    H128543   0.903   6.736   0.256
 2328TIP3    H228544   0.970   6.613   0.313
 2329TIP3   OH228545   2.906   1.117   1.473
 2329TIP3    H128546   2.938   1.143   1.387
 2329TIP3    H228547   2.870   1.029   1.460
 2330TIP3   OH228548   1.557   6.118   1.213
 2330TIP3    H128549   1.495   6.177   1.256
 2330TIP3    H228550   1.637   6.170   1.203
 2331TIP3   OH228551   4.679   1.736   0.863
 2331TIP3    H128552   4.734   1.690   0.927
 2331TIP3    H228553   4.613   1.671   0.838
 2332TIP3   OH228554   3.114   1.803   0.979
 2332TIP3    H128555   3.020   1.788   0.985
 2332TIP3    H228556   3.126   1.855   0.900
 2333TIP3   OH228557   1.816   0.363   1.482
 2333TIP3    H128558   1.841   0.273   1.460
 2333TIP3    H228559   1.892   0.399   1.528
 2334TIP3   OH228560   4.476   4.714   7.682
 2334TIP3    H128561   4.404   4.702   7.620
 2334TIP3    H228562   4.518   4.628   7.686
 2335TIP3   OH228563   1.164   0.269   1.537
 2335TIP3    H128564   1.145   0.220   1.617
 2335TIP3    H228565   1.090   0.328   1.526
 2336TIP3   OH228566   3.366   5.692   8.598
 2336TIP3    H128567   3.340   5.715   8.509
 2336TIP3    H228568   3.456   5.661   8.590
 2337TIP3   OH228569   4.769   0.384   2.032
 2337TIP3    H128570   4.843   0.427   1.989
 2337TIP3    H228571   4.802   0.298   2.057
 2338TIP3   OH228572   0.169   4.086   6.504
 2338TIP3    H128573   0.148   4.009   6.451
 2338TIP3    H228574   0.240   4.057   6.561
 2339TIP3   OH228575   5.614   1.703   0.506
 2339TIP3    H128576   5.603   1.714   0.600
 2339TIP3    H228577   5.707   1.681   0.495
 2340TIP3   OH228578   4.098   1.208   0.205
 2340TIP3    H128579   4.184   1.176   0.233
 2340TIP3    H228580   4.059   1.244   0.284
 2341TIP3   OH228581   1.114   4.744   7.847
 2341TIP3    H128582   1.151   4.657   7.859
 2341TIP3    H228583   1.055   4.756   7.921
 2342TIP3   OH228584   6.419   2.839   7.075
 2342TIP3    H128585   6.383   2.752   7.063
 2342TIP3    H228586   6.514   2.828   7.065
 2343TIP3   OH228587   3.254   6.125   1.495
 2343TIP3    H128588   3.332   6.176   1.516
 2343TIP3    H228589   3.182   6.172   1.537
 2344TIP3   OH228590   3.304   3.154   1.921
 2344TIP3    H128591   3.383   3.206   1.932
 2344TIP3    H228592   3.254   3.167   2.001
 2345TIP3   OH228593   5.442   4.406   0.555
 2345TIP3    H128594   5.441   4.317   0.519
 2345TIP3    H228595   5.468   4.461   0.482
 2346TIP3   OH228596   2.194   1.010   8.058
 2346TIP3    H128597   2.103   1.023   8.031
 2346TIP3    H228598   2.244   1.065   7.998
 2347TIP3   OH228599   6.658   4.142   7.266
 2347TIP3    H128600   6.734   4.106   7.311
 2347TIP3    H228601   6.690   4.168   7.180
 2348TIP3   OH228602   3.927   0.665   7.599
 2348TIP3    H128603   3.979   0.662   7.519
 2348TIP3    H228604   3.914   0.758   7.615
 2349TIP3   OH228605   5.642   2.692   7.897
 2349TIP3    H128606   5.564   2.735   7.932
 2349TIP3    H228607   5.612   2.606   7.870
 2350TIP3   OH228608   1.364   3.739   0.573
 2350TIP3    H128609   1.421   3.675   0.533
 2350TIP3    H228610   1.422   3.810   0.601
 2351TIP3   OH228611   1.696   6.379   0.540
 2351TIP3    H128612   1.735   6.361   0.626
 2351TIP3    H228613   1.621   6.320   0.535
 2352TIP3   OH228614   1.467   6.796   1.234
 2352TIP3    H128615   1.410   0.050   1.292
 2352TIP3    H228616   1.527   6.750   1.293
 2353TIP3   OH228617   1.474   6.117   8.429
 2353TIP3    H128618   1.380   6.137   8.423
 2353TIP3    H228619   1.479   6.023   8.409
 2354TIP3   OH228620   1.107   4.216   6.768
 2354TIP3    H128621   1.068   4.174   6.845
 2354TIP3    H228622   1.141   4.299   6.801
 2355TIP3   OH228623   1.391   4.012   6.280
 2355TIP3    H128624   1.374   3.924   6.247
 2355TIP3    H228625   1.477   4.035   6.246
 2356TIP3   OH228626   4.324   6.034   7.230
 2356TIP3    H128627   4.401   6.090   7.226
 2356TIP3    H228628   4.292   6.044   7.320
 2357TIP3   OH228629   4.837   0.647   1.136
 2357TIP3    H128630   4.745   0.672   1.125
 2357TIP3    H228631   4.846   0.631   1.230
 2358TIP3   OH228632   6.136   2.875   0.363
 2358TIP3    H128633   6.066   2.927   0.323
 2358TIP3    H228634   6.139   2.905   0.453
 2359TIP3   OH228635   2.845   0.898   1.129
 2359TIP3    H128636   2.769   0.851   1.163
 2359TIP3    H228637   2.817   0.989   1.126
 2360TIP3   OH228638   3.308   3.759   8.700
 2360TIP3    H128639   3.343   3.838   8.741
 2360TIP3    H228640   3.223   3.745   8.743
 2361TIP3   OH228641   1.115   2.734   7.615
 2361TIP3    H128642   1.198   2.716   7.660
 2361TIP3    H228643   1.048   2.698   7.673
 2362TIP3   OH228644   3.210   4.275   1.515
 2362TIP3    H128645   3.171   4.189   1.531
 2362TIP3    H228646   3.154   4.336   1.563
 2363TIP3   OH228647   1.050   1.195   8.117
 2363TIP3    H128648   0.986   1.154   8.059
 2363TIP3    H228649   1.116   1.231   8.058
 2364TIP3   OH228650   4.620   3.233   8.470
 2364TIP3    H128651   4.529   3.254   8.448
 2364TIP3    H228652   4.638   3.152   8.422
 2365TIP3   OH228653   6.372   1.607   7.145
 2365TIP3    H128654   6.400   1.647   7.063
 2365TIP3    H228655   6.328   1.526   7.118
 2366TIP3   OH228656   0.649   0.951   2.412
 2366TIP3    H128657   0.700   0.957   2.493
 2366TIP3    H228658   0.563   0.986   2.437
 2367TIP3   OH228659   4.922   0.352   8.686
 2367TIP3    H128660   4.969   0.336   8.605
 2367TIP3    H228661   4.981   0.320   8.755
 2368TIP3   OH228662   3.877   5.181   7.348
 2368TIP3    H128663   3.783   5.167   7.356
 2368TIP3    H228664   3.914   5.141   7.427
 2369TIP3   OH228665   2.490   5.851   8.430
 2369TIP3    H128666   2.531   5.838   8.515
 2369TIP3    H228667   2.484   5.764   8.392
 2370TIP3   OH228668   6.776   2.036   0.011
 2370TIP3    H128669   6.688   1.999   0.004
 2370TIP3    H228670   6.764   2.117   0.060
 2371TIP3   OH228671   0.332   0.837   0.943
 2371TIP3    H128672   0.331   0.892   1.022
 2371TIP3    H228673   0.240   0.833   0.916
 2372TIP3   OH228674   4.680   4.028   0.916
 2372TIP3    H128675   4.711   3.938   0.931
 2372TIP3    H228676   4.760   4.078   0.899
 2373TIP3   OH228677   0.760   3.789   1.648
 2373TIP3    H128678   0.800   3.708   1.618
 2373TIP3    H228679   0.751   3.778   1.743
 2374TIP3   OH228680   4.999   0.340   7.781
 2374TIP3    H128681   5.081   0.335   7.830
 2374TIP3    H228682   5.021   0.307   7.694
 2375TIP3   OH228683   2.329   1.197   0.642
 2375TIP3    H128684   2.270   1.272   0.642
 2375TIP3    H228685   2.385   1.211   0.718
 2376TIP3   OH228686   0.224   0.569   8.653
 2376TIP3    H128687   0.261   0.590   8.567
 2376TIP3    H228688   0.281   0.613   8.715
 2377TIP3   OH228689   1.790   2.881   6.924
 2377TIP3    H128690   1.793   2.892   6.829
 2377TIP3    H228691   1.698   2.864   6.943
 2378TIP3   OH228692   0.395   5.090   0.592
 2378TIP3    H128693   0.422   5.017   0.647
 2378TIP3    H228694   0.477   5.136   0.572
 2379TIP3   OH228695   0.163   1.151   2.511
 2379TIP3    H128696   0.121   1.155   2.597
 2379TIP3    H228697   0.091   1.149   2.448
 2380TIP3   OH228698   5.994   5.841   1.532
 2380TIP3    H128699   6.063   5.897   1.498
 2380TIP3    H228700   5.998   5.762   1.479
 2381TIP3   OH228701   0.982   0.345   8.458
 2381TIP3    H128702   1.066   0.356   8.502
 2381TIP3    H228703   0.936   0.279   8.511
 2382TIP3   OH228704   1.588   3.129   8.459
 2382TIP3    H128705   1.526   3.116   8.531
 2382TIP3    H228706   1.597   3.224   8.452
 2383TIP3   OH228707   3.548   5.103   6.388
 2383TIP3    H128708   3.496   5.023   6.389
 2383TIP3    H228709   3.634   5.076   6.422
 2384TIP3   OH228710   2.860   2.349   1.317
 2384TIP3    H128711   2.769   2.353   1.344
 2384TIP3    H228712   2.877   2.255   1.305
 2385TIP3   OH228713   6.194   2.015   6.675
 2385TIP3    H128714   6.117   2.068   6.695
 2385TIP3    H228715   6.266   2.062   6.717
 2386TIP3   OH228716   2.955   3.814   7.516
 2386TIP3    H128717   2.962   3.854   7.430
 2386TIP3    H228718   2.953   3.888   7.577
 2387TIP3   OH228719   5.674   5.991   1.950
 2387TIP3    H128720   5.755   5.985   2.001
 2387TIP3    H228721   5.614   5.929   1.992
 2388TIP3   OH228722   0.801   3.399   0.266
 2388TIP3    H128723   0.790   3.466   0.198
 2388TIP3    H228724   0.849   3.444   0.336
 2389TIP3   OH228725   4.262   1.972   1.859
 2389TIP3    H128726   4.230   2.006   1.775
 2389TIP3    H228727   4.238   1.879   1.857
 2390TIP3   OH228728   6.400   1.440   0.810
 2390TIP3    H128729   6.305   1.443   0.796
 2390TIP3    H228730   6.432   1.524   0.777
 2391TIP3   OH228731   4.107   3.043   8.447
 2391TIP3    H128732   4.192   3.006   8.426
 2391TIP3    H228733   4.067   3.062   8.362
 2392TIP3   OH228734   4.070   3.827   7.243
 2392TIP3    H128735   4.098   3.868   7.161
 2392TIP3    H228736   4.151   3.794   7.282
 2393TIP3   OH228737   0.162   6.428   6.926
 2393TIP3    H128738   0.083   6.387   6.891
 2393TIP3    H228739   0.217   6.443   6.850
 2394TIP3   OH228740   0.298   1.761   0.540
 2394TIP3    H128741   0.222   1.770   0.482
 2394TIP3    H228742   0.374   1.771   0.482
 2395TIP3   OH228743   5.157   5.931   8.039
 2395TIP3    H128744   5.104   6.008   8.017
 2395TIP3    H228745   5.177   5.941   8.132
 2396TIP3   OH228746   2.367   1.081   8.480
 2396TIP3    H128747   2.403   1.130   8.554
 2396TIP3    H228748   2.444   1.056   8.429
 2397TIP3   OH228749   2.088   5.372   0.271
 2397TIP3    H128750   2.141   5.382   0.192
 2397TIP3    H228751   2.027   5.301   0.249
 2398TIP3   OH228752   6.412   6.420   0.731
 2398TIP3    H128753   6.389   6.439   0.640
 2398TIP3    H228754   6.329   6.399   0.773
 2399TIP3   OH228755   3.843   2.193   8.729
 2399TIP3    H128756   3.851   2.114   8.674
 2399TIP3    H228757   3.867   2.163   8.817
 2400TIP3   OH228758   0.026   0.758   7.480
 2400TIP3    H128759   0.024   0.671   7.440
 2400TIP3    H228760   6.765   0.750   7.556
 2401TIP3   OH228761   2.882   5.975   0.926
 2401TIP3    H128762   2.945   5.974   0.998
 2401TIP3    H228763   2.797   5.961   0.968
 2402TIP3   OH228764   2.336   0.943   7.362
 2402TIP3    H128765   2.394   0.868   7.348
 2402TIP3    H228766   2.283   0.918   7.438
 2403TIP3   OH228767   5.365   4.437   6.800
 2403TIP3    H128768   5.291   4.434   6.860
 2403TIP3    H228769   5.327   4.450   6.713
 2404TIP3   OH228770   0.463   1.809   8.338
 2404TIP3    H128771   0.457   1.729   8.392
 2404TIP3    H228772   0.537   1.793   8.280
 2405TIP3   OH228773   2.280   0.184   0.726
 2405TIP3    H128774   2.198   0.212   0.766
 2405TIP3    H228775   2.334   0.155   0.799
 2406TIP3   OH228776   0.414   4.301   8.686
 2406TIP3    H128777   0.367   4.352   8.752
 2406TIP3    H228778   0.505   4.302   8.716
 2407TIP3   OH228779   1.652   1.246   0.623
 2407TIP3    H128780   1.722   1.263   0.560
 2407TIP3    H228781   1.619   1.159   0.599
 2408TIP3   OH228782   4.281   5.868   0.949
 2408TIP3    H128783   4.240   5.903   0.870
 2408TIP3    H228784   4.367   5.910   0.952
 2409TIP3   OH228785   3.714   6.326   7.728
 2409TIP3    H128786   3.682   6.245   7.689
 2409TIP3    H228787   3.809   6.313   7.736
 2410TIP3   OH228788   3.069   3.788   8.393
 2410TIP3    H128789   3.013   3.768   8.468
 2410TIP3    H228790   3.146   3.734   8.405
 2411TIP3   OH228791   5.344   5.139   1.177
 2411TIP3    H128792   5.421   5.168   1.127
 2411TIP3    H228793   5.270   5.153   1.118
 2412TIP3   OH228794   0.445   1.134   6.312
 2412TIP3    H128795   0.474   1.058   6.362
 2412TIP3    H228796   0.428   1.202   6.377
 2413TIP3   OH228797   1.946   4.379   0.569
 2413TIP3    H128798   1.963   4.472   0.583
 2413TIP3    H228799   1.897   4.375   0.488
 2414TIP3   OH228800   1.674   4.212   1.787
 2414TIP3    H128801   1.584   4.180   1.793
 2414TIP3    H228802   1.715   4.182   1.868
 2415TIP3   OH228803   3.097   3.782   6.806
 2415TIP3    H128804   3.047   3.823   6.877
 2415TIP3    H228805   3.064   3.824   6.727
 2416TIP3   OH228806   6.360   4.366   7.926
 2416TIP3    H128807   6.388   4.451   7.890
 2416TIP3    H228808   6.274   4.384   7.963
 2417TIP3   OH228809   0.735   3.322   2.403
 2417TIP3    H128810   0.656   3.330   2.350
 2417TIP3    H228811   0.771   3.237   2.378
 2418TIP3   OH228812   4.565   3.023   8.254
 2418TIP3    H128813   4.583   2.959   8.185
 2418TIP3    H228814   4.489   3.073   8.222
 2419TIP3   OH228815   1.944   2.820   7.215
 2419TIP3    H128816   1.997   2.857   7.144
 2419TIP3    H228817   1.940   2.889   7.281
 2420TIP3   OH228818   2.675   3.194   0.115
 2420TIP3    H128819   2.600   3.147   0.150
 2420TIP3    H228820   2.710   3.138   0.047
 2421TIP3   OH228821   0.761   5.946   0.866
 2421TIP3    H128822   0.744   5.942   0.961
 2421TIP3    H228823   0.764   5.855   0.838
 2422TIP3   OH228824   1.149   1.537   8.288
 2422TIP3    H128825   1.095   1.500   8.218
 2422TIP3    H228826   1.153   1.630   8.268
 2423TIP3   OH228827   6.572   2.885   2.030
 2423TIP3    H128828   6.543   2.805   2.075
 2423TIP3    H228829   6.610   2.939   2.100
 2424TIP3   OH228830   0.955   5.182   6.549
 2424TIP3    H128831   0.900   5.103   6.550
 2424TIP3    H228832   1.043   5.149   6.531
 2425TIP3   OH228833   5.679   6.559   7.383
 2425TIP3    H128834   5.650   6.591   7.298
 2425TIP3    H228835   5.769   6.529   7.368
 2426TIP3   OH228836   3.050   1.308   8.505
 2426TIP3    H128837   3.143   1.310   8.526
 2426TIP3    H228838   3.046   1.319   8.410
 2427TIP3   OH228839   5.125   6.577   1.835
 2427TIP3    H128840   5.070   6.648   1.803
 2427TIP3    H228841   5.190   6.564   1.766
 2428TIP3   OH228842   5.386   4.617   1.023
 2428TIP3    H128843   5.394   4.615   1.119
 2428TIP3    H228844   5.422   4.702   0.998
 2429TIP3   OH228845   3.226   4.394   1.104
 2429TIP3    H128846   3.264   4.474   1.138
 2429TIP3    H228847   3.246   4.396   1.010
 2430TIP3   OH228848   0.786   3.312   1.371
 2430TIP3    H128849   0.843   3.243   1.337
 2430TIP3    H228850   0.720   3.324   1.303
 2431TIP3   OH228851   3.160   1.901   6.975
 2431TIP3    H128852   3.084   1.908   7.034
 2431TIP3    H228853   3.121   1.891   6.888
 2432TIP3   OH228854   5.485   0.144   0.427
 2432TIP3    H128855   5.435   0.225   0.413
 2432TIP3    H228856   5.542   0.165   0.501
 2433TIP3   OH228857   3.566   5.213   0.551
 2433TIP3    H128858   3.604   5.298   0.531
 2433TIP3    H228859   3.511   5.228   0.629
 2434TIP3   OH228860   4.614   3.701   1.167
 2434TIP3    H128861   4.659   3.632   1.119
 2434TIP3    H228862   4.684   3.758   1.199
 2435TIP3   OH228863   3.343   5.370   6.957
 2435TIP3    H128864   3.254   5.397   6.980
 2435TIP3    H228865   3.332   5.307   6.887
 2436TIP3   OH228866   0.505   6.074   8.194
 2436TIP3    H128867   0.499   5.979   8.204
 2436TIP3    H228868   0.564   6.087   8.120
 2437TIP3   OH228869   2.981   1.673   1.850
 2437TIP3    H128870   3.059   1.720   1.879
 2437TIP3    H228871   2.935   1.649   1.931
 2438TIP3   OH228872   6.139   5.392   8.473
 2438TIP3    H128873   6.067   5.454   8.465
 2438TIP3    H228874   6.116   5.321   8.412
 2439TIP3   OH228875   2.831   1.020   7.461
 2439TIP3    H128876   2.892   1.093   7.472
 2439TIP3    H228877   2.841   0.994   7.369
 2440TIP3   OH228878   5.185   4.675   7.369
 2440TIP3    H128879   5.148   4.613   7.432
 2440TIP3    H228880   5.203   4.754   7.420
 2441TIP3   OH228881   2.379   6.619   2.070
 2441TIP3    H128882   2.317   6.600   2.141
 2441TIP3    H228883   2.443   6.548   2.074
 2442TIP3   OH228884   0.742   4.211   7.477
 2442TIP3    H128885   0.669   4.206   7.415
 2442TIP3    H228886   0.718   4.149   7.547
 2443TIP3   OH228887   5.801   3.286   8.100
 2443TIP3    H128888   5.735   3.265   8.035
 2443TIP3    H228889   5.795   3.215   8.165
 2444TIP3   OH228890   4.448   3.475   7.163
 2444TIP3    H128891   4.519   3.468   7.227
 2444TIP3    H228892   4.430   3.385   7.136
 2445TIP3   OH228893   4.580   0.498   8.349
 2445TIP3    H128894   4.621   0.454   8.275
 2445TIP3    H228895   4.604   0.446   8.426
 2446TIP3   OH228896   0.990   2.345   7.124
 2446TIP3    H128897   0.989   2.424   7.070
 2446TIP3    H228898   0.948   2.372   7.206
 2447TIP3   OH228899   4.939   6.170   8.372
 2447TIP3    H128900   4.890   6.230   8.427
 2447TIP3    H228901   4.883   6.094   8.363
 2448TIP3   OH228902   3.581   0.616   0.935
 2448TIP3    H128903   3.531   0.550   0.887
 2448TIP3    H228904   3.525   0.693   0.935
 2449TIP3   OH228905   3.719   0.535   1.345
 2449TIP3    H128906   3.640   0.562   1.298
 2449TIP3    H228907   3.721   0.591   1.422
 2450TIP3   OH228908   2.140   1.733   0.458
 2450TIP3    H128909   2.147   1.637   0.461
 2450TIP3    H228910   2.192   1.758   0.382
 2451TIP3   OH228911   2.045   3.035   1.252
 2451TIP3    H128912   2.076   2.964   1.308
 2451TIP3    H228913   1.955   3.011   1.230
 2452TIP3   OH228914   2.748   0.440   8.841
 2452TIP3    H128915   2.765   0.359   8.793
 2452TIP3    H228916   2.748   0.414   0.059
 2453TIP3   OH228917   3.075   5.098   6.751
 2453TIP3    H128918   3.024   5.145   6.686
 2453TIP3    H228919   3.025   5.107   6.833
 2454TIP3   OH228920   4.017   4.448   1.226
 2454TIP3    H128921   4.075   4.482   1.158
 2454TIP3    H228922   4.068   4.380   1.270
 2455TIP3   OH228923   3.835   3.667   0.910
 2455TIP3    H128924   3.815   3.594   0.851
 2455TIP3    H228925   3.750   3.702   0.936
 2456TIP3   OH228926   4.227   5.731   0.638
 2456TIP3    H128927   4.176   5.810   0.655
 2456TIP3    H228928   4.312   5.763   0.606
 2457TIP3   OH228929   5.273   1.387   2.434
 2457TIP3    H128930   5.285   1.464   2.378
 2457TIP3    H228931   5.360   1.372   2.473
 2458TIP3   OH228932   5.211   6.706   6.828
 2458TIP3    H128933   5.249   6.623   6.856
 2458TIP3    H228934   5.276   6.772   6.852
 2459TIP3   OH228935   0.621   2.508   0.637
 2459TIP3    H128936   0.591   2.501   0.546
 2459TIP3    H228937   0.706   2.466   0.638
 2460TIP3   OH228938   6.140   0.681   2.282
 2460TIP3    H128939   6.202   0.754   2.286
 2460TIP3    H228940   6.140   0.645   2.370
 2461TIP3   OH228941   4.378   1.686   7.569
 2461TIP3    H128942   4.421   1.747   7.509
 2461TIP3    H228943   4.356   1.739   7.645
 2462TIP3   OH228944   5.837   2.609   0.982
 2462TIP3    H128945   5.889   2.607   0.902
 2462TIP3    H228946   5.754   2.649   0.954
 2463TIP3   OH228947   2.766   5.284   7.914
 2463TIP3    H128948   2.692   5.342   7.932
 2463TIP3    H228949   2.799   5.313   7.829
 2464TIP3   OH228950   1.106   1.841   8.285
 2464TIP3    H128951   1.109   1.926   8.327
 2464TIP3    H228952   1.157   1.853   8.204
 2465TIP3   OH228953   6.006   3.729   2.111
 2465TIP3    H128954   6.027   3.793   2.179
 2465TIP3    H228955   6.081   3.731   2.052
 2466TIP3   OH228956   2.921   6.313   8.268
 2466TIP3    H128957   2.930   6.318   8.173
 2466TIP3    H228958   2.836   6.270   8.281
 2467TIP3   OH228959   4.979   0.327   1.312
 2467TIP3    H128960   4.941   0.411   1.339
 2467TIP3    H228961   5.060   0.320   1.362
 2468TIP3   OH228962   4.446   2.268   8.859
 2468TIP3    H128963   4.457   2.176   0.009
 2468TIP3    H228964   4.435   2.314   0.068
 2469TIP3   OH228965   2.715   5.412   0.630
 2469TIP3    H128966   2.719   5.494   0.582
 2469TIP3    H228967   2.716   5.344   0.562
 2470TIP3   OH228968   4.592   6.231   8.647
 2470TIP3    H128969   4.506   6.194   8.669
 2470TIP3    H228970   4.575   6.283   8.568
 2471TIP3   OH228971   1.479   4.750   6.649
 2471TIP3    H128972   1.502   4.839   6.624
 2471TIP3    H228973   1.417   4.721   6.583
 2472TIP3   OH228974   1.046   2.105   6.966
 2472TIP3    H128975   1.063   2.185   7.016
 2472TIP3    H228976   0.976   2.061   7.015
 2473TIP3   OH228977   4.456   4.264   7.035
 2473TIP3    H128978   4.538   4.303   7.063
 2473TIP3    H228979   4.421   4.324   6.969
 2474TIP3   OH228980   2.343   1.616   7.351
 2474TIP3    H128981   2.334   1.569   7.434
 2474TIP3    H228982   2.284   1.570   7.291
 2475TIP3   OH228983   3.874   3.489   1.498
 2475TIP3    H128984   3.871   3.394   1.495
 2475TIP3    H228985   3.949   3.512   1.444
 2476TIP3   OH228986   6.438   0.685   7.424
 2476TIP3    H128987   6.364   0.637   7.460
 2476TIP3    H228988   6.484   0.622   7.369
 2477TIP3   OH228989   0.559   5.016   7.368
 2477TIP3    H128990   0.509   4.999   7.287
 2477TIP3    H228991   0.530   5.102   7.397
 2478TIP3   OH228992   2.826   6.541   8.618
 2478TIP3    H128993   2.753   6.480   8.626
 2478TIP3    H228994   2.871   6.514   8.538
 2479TIP3   OH228995   3.138   2.971   1.821
 2479TIP3    H128996   3.066   3.032   1.829
 2479TIP3    H228997   3.212   3.014   1.864
 2480TIP3   OH228998   0.482   0.664   0.802
 2480TIP3    H128999   0.498   0.585   0.854
 2480TIP3    H229000   0.427   0.719   0.858
 2481TIP3   OH229001   2.402   1.566   0.622
 2481TIP3    H129002   2.379   1.620   0.697
 2481TIP3    H229003   2.321   1.522   0.597
 2482TIP3   OH229004   5.221   4.689   6.675
 2482TIP3    H129005   5.187   4.602   6.694
 2482TIP3    H229006   5.300   4.673   6.624
 2483TIP3   OH229007   6.207   2.366   0.962
 2483TIP3    H129008   6.198   2.460   0.944
 2483TIP3    H229009   6.141   2.324   0.906
 2484TIP3   OH229010   5.918   3.317   1.553
 2484TIP3    H129011   5.912   3.406   1.588
 2484TIP3    H229012   6.012   3.300   1.548
 2485TIP3   OH229013   4.297   2.195   7.325
 2485TIP3    H129014   4.281   2.196   7.419
 2485TIP3    H229015   4.259   2.276   7.293
 2486TIP3   OH229016   4.518   2.729   7.854
 2486TIP3    H129017   4.460   2.788   7.806
 2486TIP3    H229018   4.577   2.693   7.788
 2487TIP3   OH229019   4.102   0.480   2.214
 2487TIP3    H129020   4.065   0.392   2.218
 2487TIP3    H229021   4.109   0.507   2.306
 2488TIP3   OH229022   5.311   5.187   8.863
 2488TIP3    H129023   5.318   5.242   8.785
 2488TIP3    H229024   5.372   5.115   8.846
 2489TIP3   OH229025   1.353   3.083   0.333
 2489TIP3    H129026   1.416   3.018   0.365
 2489TIP3    H229027   1.268   3.042   0.348
 2490TIP3   OH229028   4.571   5.780   1.658
 2490TIP3    H129029   4.539   5.757   1.745
 2490TIP3    H229030   4.666   5.776   1.665
 2491TIP3   OH229031   6.755   3.577   0.201
 2491TIP3    H129032   6.691   3.610   0.138
 2491TIP3    H229033   6.772   3.651   0.259
 2492TIP3   OH229034   4.861   2.335   2.386
 2492TIP3    H129035   4.942   2.284   2.386
 2492TIP3    H229036   4.812   2.301   2.461
 2493TIP3   OH229037   4.171   0.591   7.104
 2493TIP3    H129038   4.257   0.610   7.066
 2493TIP3    H229039   4.139   0.516   7.053
 2494TIP3   OH229040   5.217   5.100   8.175
 2494TIP3    H129041   5.221   5.114   8.080
 2494TIP3    H229042   5.269   5.172   8.211
 2495TIP3   OH229043   0.213   5.435   6.758
 2495TIP3    H129044   0.217   5.366   6.824
 2495TIP3    H229045   0.263   5.507   6.795
 2496TIP3   OH229046   5.320   3.831   7.757
 2496TIP3    H129047   5.248   3.857   7.700
 2496TIP3    H229048   5.373   3.772   7.703
 2497TIP3   OH229049   1.758   6.240   0.281
 2497TIP3    H129050   1.704   6.164   0.300
 2497TIP3    H229051   1.777   6.279   0.366
 2498TIP3   OH229052   5.783   2.376   0.172
 2498TIP3    H129053   5.824   2.325   0.241
 2498TIP3    H229054   5.736   2.311   0.119
 2499TIP3   OH229055   2.987   3.958   8.615
 2499TIP3    H129056   2.902   3.980   8.654
 2499TIP3    H229057   3.023   3.891   8.673
 2500TIP3   OH229058   6.067   1.242   7.965
 2500TIP3    H129059   6.098   1.204   7.884
 2500TIP3    H229060   6.112   1.193   8.034
 2501TIP3   OH229061   5.585   3.834   0.657
 2501TIP3    H129062   5.506   3.783   0.639
 2501TIP3    H229063   5.602   3.881   0.575
 2502TIP3   OH229064   3.728   1.712   6.964
 2502TIP3    H129065   3.662   1.766   7.007
 2502TIP3    H229066   3.681   1.665   6.896
 2503TIP3   OH229067   4.109   1.893   0.819
 2503TIP3    H129068   4.100   1.937   0.904
 2503TIP3    H229069   4.173   1.946   0.772
 2504TIP3   OH229070   4.981   6.154   8.082
 2504TIP3    H129071   4.892   6.163   8.048
 2504TIP3    H229072   4.970   6.158   8.177
 2505TIP3   OH229073   2.727   2.299   0.622
 2505TIP3    H129074   2.641   2.294   0.664
 2505TIP3    H229075   2.709   2.302   0.529
 2506TIP3   OH229076   1.955   3.306   7.147
 2506TIP3    H129077   1.943   3.254   7.067
 2506TIP3    H229078   2.033   3.268   7.188
 2507TIP3   OH229079   2.313   4.999   1.022
 2507TIP3    H129080   2.226   5.034   1.002
 2507TIP3    H229081   2.299   4.946   1.101
 2508TIP3   OH229082   6.555   3.308   2.231
 2508TIP3    H129083   6.534   3.219   2.260
 2508TIP3    H229084   6.507   3.365   2.290
 2509TIP3   OH229085   5.238   0.282   7.309
 2509TIP3    H129086   5.240   0.364   7.261
 2509TIP3    H229087   5.329   0.266   7.334
 2510TIP3   OH229088   0.000   5.326   7.304
 2510TIP3    H129089   6.789   5.379   7.224
 2510TIP3    H229090   6.788   5.236   7.275
 2511TIP3   OH229091   5.899   2.615   0.231
 2511TIP3    H129092   5.846   2.540   0.205
 2511TIP3    H229093   5.847   2.658   0.300
 2512TIP3   OH229094   1.111   0.407   7.708
 2512TIP3    H129095   1.126   0.316   7.685
 2512TIP3    H229096   1.031   0.406   7.760
 2513TIP3   OH229097   0.792   6.787   0.949
 2513TIP3    H129098   0.821   6.756   0.863
 2513TIP3    H229099   0.869   0.032   0.987
 2514TIP3   OH229100   5.172   1.759   7.988
 2514TIP3    H129101   5.218   1.819   7.929
 2514TIP3    H229102   5.169   1.676   7.940
 2515TIP3   OH229103   2.966   3.909   1.332
 2515TIP3    H129104   2.943   3.825   1.292
 2515TIP3    H229105   3.061   3.916   1.320
 2516TIP3   OH229106   0.541   1.030   7.485
 2516TIP3    H129107   0.603   1.076   7.429
 2516TIP3    H229108   0.510   0.956   7.433
 2517TIP3   OH229109   1.744   5.545   2.272
 2517TIP3    H129110   1.708   5.602   2.339
 2517TIP3    H229111   1.716   5.457   2.297
 2518TIP3   OH229112   3.338   0.297   0.118
 2518TIP3    H129113   3.259   0.343   0.147
 2518TIP3    H229114   3.391   0.289   0.197
 2519TIP3   OH229115   1.895   3.385   7.768
 2519TIP3    H129116   1.901   3.290   7.763
 2519TIP3    H229117   1.863   3.411   7.681
 2520TIP3   OH229118   2.878   0.842   6.961
 2520TIP3    H129119   2.951   0.796   7.003
 2520TIP3    H229120   2.906   0.855   6.870
 2521TIP3   OH229121   0.867   1.263   7.095
 2521TIP3    H129122   0.898   1.340   7.046
 2521TIP3    H229123   0.925   1.192   7.067
 2522TIP3   OH229124   1.513   3.446   5.902
 2522TIP3    H129125   1.499   3.517   5.966
 2522TIP3    H229126   1.562   3.379   5.951
 2523TIP3   OH229127   5.047   3.856   0.535
 2523TIP3    H129128   5.097   3.866   0.454
 2523TIP3    H229129   5.003   3.940   0.546
 2524TIP3   OH229130   2.477   6.368   0.528
 2524TIP3    H129131   2.457   6.279   0.556
 2524TIP3    H229132   2.417   6.385   0.456
 2525TIP3   OH229133   1.397   3.700   6.486
 2525TIP3    H129134   1.420   3.624   6.433
 2525TIP3    H229135   1.459   3.768   6.459
 2526TIP3   OH229136   5.436   2.966   2.047
 2526TIP3    H129137   5.467   3.055   2.030
 2526TIP3    H229138   5.358   2.957   1.993
 2527TIP3   OH229139   0.382   0.509   0.333
 2527TIP3    H129140   0.410   0.592   0.372
 2527TIP3    H229141   0.290   0.500   0.360
 2528TIP3   OH229142   0.279   0.762   6.586
 2528TIP3    H129143   0.269   0.699   6.657
 2528TIP3    H229144   0.189   0.786   6.562
 2529TIP3   OH229145   2.360   6.522   6.782
 2529TIP3    H129146   2.449   6.517   6.749
 2529TIP3    H229147   2.360   6.598   6.840
 2530TIP3   OH229148   2.732   4.936   2.239
 2530TIP3    H129149   2.680   4.930   2.320
 2530TIP3    H229150   2.749   4.845   2.214
 2531TIP3   OH229151   6.669   3.908   6.613
 2531TIP3    H129152   6.701   3.904   6.523
 2531TIP3    H229153   6.744   3.936   6.664
 2532TIP3   OH229154   1.485   0.459   8.752
 2532TIP3    H129155   1.504   0.548   8.782
 2532TIP3    H229156   1.521   0.456   8.663
 2533TIP3   OH229157   4.396   2.598   1.532
 2533TIP3    H129158   4.396   2.568   1.623
 2533TIP3    H229159   4.477   2.563   1.495
 2534TIP3   OH229160   2.440   3.569   1.830
 2534TIP3    H129161   2.439   3.663   1.846
 2534TIP3    H229162   2.368   3.554   1.768
 2535TIP3   OH229163   5.433   5.746   0.674
 2535TIP3    H129164   5.421   5.808   0.746
 2535TIP3    H229165   5.523   5.716   0.683
 2536TIP3   OH229166   2.680   3.934   7.948
 2536TIP3    H129167   2.658   3.896   7.863
 2536TIP3    H229168   2.648   4.024   7.942
 2537TIP3   OH229169   5.896   4.118   7.465
 2537TIP3    H129170   5.911   4.169   7.386
 2537TIP3    H229171   5.832   4.169   7.515
 2538TIP3   OH229172   1.682   2.656   1.870
 2538TIP3    H129173   1.693   2.735   1.818
 2538TIP3    H229174   1.606   2.675   1.926
 2539TIP3   OH229175   2.978   6.596   6.507
 2539TIP3    H129176   2.905   6.641   6.549
 2539TIP3    H229177   2.937   6.537   6.444
 2540TIP3   OH229178   6.273   2.354   0.522
 2540TIP3    H129179   6.237   2.434   0.485
 2540TIP3    H229180   6.326   2.317   0.451
 2541TIP3   OH229181   6.147   0.875   1.513
 2541TIP3    H129182   6.073   0.914   1.468
 2541TIP3    H229183   6.112   0.849   1.598
 2542TIP3   OH229184   0.027   5.988   8.527
 2542TIP3    H129185   0.039   5.930   8.602
 2542TIP3    H229186   6.770   6.060   8.560
 2543TIP3   OH229187   1.919   0.608   7.570
 2543TIP3    H129188   1.904   0.513   7.572
 2543TIP3    H229189   1.856   0.641   7.507
 2544TIP3   OH229190   5.325   0.278   8.278
 2544TIP3    H129191   5.292   0.204   8.226
 2544TIP3    H229192   5.265   0.284   8.352
 2545TIP3   OH229193   0.007   6.638   1.718
 2545TIP3    H129194   0.082   6.698   1.720
 2545TIP3    H229195   0.023   6.578   1.791
 2546TIP3   OH229196   0.559   5.741   1.786
 2546TIP3    H129197   0.598   5.790   1.859
 2546TIP3    H229198   0.467   5.768   1.786
 2547TIP3   OH229199   2.919   2.427   8.675
 2547TIP3    H129200   2.848   2.400   8.616
 2547TIP3    H229201   2.875   2.477   8.743
 2548TIP3   OH229202   3.432   6.664   6.998
 2548TIP3    H129203   3.351   6.614   7.003
 2548TIP3    H229204   3.475   6.631   6.918
 2549TIP3   OH229205   3.782   0.607   8.477
 2549TIP3    H129206   3.847   0.677   8.484
 2549TIP3    H229207   3.698   0.652   8.487
 2550TIP3   OH229208   2.505   0.599   8.483
 2550TIP3    H129209   2.457   0.681   8.491
 2550TIP3    H229210   2.505   0.563   8.572
 2551TIP3   OH229211   6.541   2.220   7.195
 2551TIP3    H129212   6.625   2.266   7.205
 2551TIP3    H229213   6.523   2.223   7.101
 2552TIP3   OH229214   3.234   1.211   0.319
 2552TIP3    H129215   3.206   1.121   0.301
 2552TIP3    H229216   3.293   1.232   0.247
 2553TIP3   OH229217   0.902   2.270   8.080
 2553TIP3    H129218   0.853   2.263   7.998
 2553TIP3    H229219   0.917   2.179   8.107
 2554TIP3   OH229220   3.048   6.341   8.530
 2554TIP3    H129221   2.989   6.284   8.481
 2554TIP3    H229222   3.122   6.356   8.470
 2555TIP3   OH229223   6.599   3.679   1.756
 2555TIP3    H129224   6.639   3.629   1.685
 2555TIP3    H229225   6.618   3.628   1.835
 2556TIP3   OH229226   3.703   3.159   1.407
 2556TIP3    H129227   3.652   3.184   1.484
 2556TIP3    H229228   3.791   3.195   1.424
 2557TIP3   OH229229   1.733   0.977   7.506
 2557TIP3    H129230   1.663   1.035   7.534
 2557TIP3    H229231   1.689   0.896   7.479
 2558TIP3   OH229232   0.897   0.777   1.652
 2558TIP3    H129233   0.937   0.812   1.573
 2558TIP3    H229234   0.869   0.855   1.701
 2559TIP3   OH229235   0.276   5.586   7.085
 2559TIP3    H129236   0.191   5.542   7.077
 2559TIP3    H229237   0.301   5.605   6.994
 2560TIP3   OH229238   6.196   3.236   1.838
 2560TIP3    H129239   6.188   3.154   1.885
 2560TIP3    H229240   6.285   3.265   1.854
 2561TIP3   OH229241   2.202   3.716   0.991
 2561TIP3    H129242   2.108   3.707   0.983
 2561TIP3    H229243   2.234   3.718   0.901
 2562TIP3   OH229244   3.177   2.912   8.076
 2562TIP3    H129245   3.253   2.934   8.023
 2562TIP3    H229246   3.161   2.989   8.130
 2563TIP3   OH229247   2.192   5.786   0.393
 2563TIP3    H129248   2.116   5.836   0.421
 2563TIP3    H229249   2.218   5.736   0.471
 2564TIP3   OH229250   1.828   2.277   2.085
 2564TIP3    H129251   1.896   2.277   2.153
 2564TIP3    H229252   1.746   2.270   2.134
 2565TIP3   OH229253   2.766   5.805   8.058
 2565TIP3    H129254   2.777   5.846   7.972
 2565TIP3    H229255   2.778   5.712   8.042
 2566TIP3   OH229256   4.471   1.912   2.268
 2566TIP3    H129257   4.526   1.904   2.190
 2566TIP3    H229258   4.500   1.991   2.311
 2567TIP3   OH229259   5.958   2.111   6.226
 2567TIP3    H129260   6.026   2.147   6.168
 2567TIP3    H229261   5.996   2.031   6.262
 2568TIP3   OH229262   4.019   6.388   8.014
 2568TIP3    H129263   4.081   6.436   8.070
 2568TIP3    H229264   4.071   6.319   7.974
 2569TIP3   OH229265   2.404   6.269   0.970
 2569TIP3    H129266   2.463   6.327   0.923
 2569TIP3    H229267   2.372   6.321   1.044
 2570TIP3   OH229268   6.408   5.440   1.164
 2570TIP3    H129269   6.373   5.523   1.195
 2570TIP3    H229270   6.341   5.375   1.188
 2571TIP3   OH229271   2.709   3.261   7.110
 2571TIP3    H129272   2.720   3.178   7.064
 2571TIP3    H229273   2.786   3.269   7.166
 2572TIP3   OH229274   4.864   3.382   8.847
 2572TIP3    H129275   4.822   3.350   0.053
 2572TIP3    H229276   4.951   3.411   0.001
 2573TIP3   OH229277   5.618   1.552   7.892
 2573TIP3    H129278   5.578   1.638   7.899
 2573TIP3    H229279   5.544   1.490   7.895
 2574TIP3   OH229280   4.559   4.529   7.100
 2574TIP3    H129281   4.512   4.562   7.176
 2574TIP3    H229282   4.524   4.579   7.026
 2575TIP3   OH229283   3.630   0.446   7.867
 2575TIP3    H129284   3.545   0.432   7.825
 2575TIP3    H229285   3.623   0.402   7.952
 2576TIP3   OH229286   0.455   4.821   0.725
 2576TIP3    H129287   0.477   4.732   0.754
 2576TIP3    H229288   0.361   4.829   0.740
 2577TIP3   OH229289   0.212   3.231   8.452
 2577TIP3    H129290   0.284   3.288   8.424
 2577TIP3    H229291   0.186   3.266   8.537
 2578TIP3   OH229292   2.795   3.583   0.981
 2578TIP3    H129293   2.746   3.665   0.988
 2578TIP3    H229294   2.808   3.571   0.887
 2579TIP3   OH229295   6.730   3.188   7.672
 2579TIP3    H129296   6.722   3.189   7.767
 2579TIP3    H229297   6.703   3.276   7.644
 2580TIP3   OH229298   1.841   2.169   0.545
 2580TIP3    H129299   1.892   2.102   0.590
 2580TIP3    H229300   1.816   2.128   0.462
 2581TIP3   OH229301   1.474   3.493   1.553
 2581TIP3    H129302   1.499   3.491   1.461
 2581TIP3    H229303   1.492   3.583   1.581
 2582TIP3   OH229304   0.949   2.239   1.262
 2582TIP3    H129305   0.972   2.154   1.300
 2582TIP3    H229306   0.884   2.219   1.195
 2583TIP3   OH229307   0.748   3.048   2.030
 2583TIP3    H129308   0.673   3.003   2.068
 2583TIP3    H229309   0.713   3.132   2.001
 2584TIP3   OH229310   4.535   1.850   7.426
 2584TIP3    H129311   4.552   1.928   7.371
 2584TIP3    H229312   4.614   1.798   7.417
 2585TIP3   OH229313   4.829   3.764   7.966
 2585TIP3    H129314   4.881   3.751   8.045
 2585TIP3    H229315   4.891   3.750   7.894
 2586TIP3   OH229316   2.156   0.330   1.239
 2586TIP3    H129317   2.221   0.356   1.304
 2586TIP3    H229318   2.086   0.288   1.289
 2587TIP3   OH229319   1.387   4.235   1.540
 2587TIP3    H129320   1.313   4.273   1.586
 2587TIP3    H229321   1.464   4.276   1.580
 2588TIP3   OH229322   0.334   4.252   1.807
 2588TIP3    H129323   0.413   4.259   1.860
 2588TIP3    H229324   0.326   4.338   1.765
 2589TIP3   OH229325   2.100   6.565   7.781
 2589TIP3    H129326   2.070   6.649   7.816
 2589TIP3    H229327   2.143   6.522   7.855
 2590TIP3   OH229328   6.739   6.246   2.489
 2590TIP3    H129329   6.669   6.310   2.502
 2590TIP3    H229330   0.014   6.296   2.449
 2591TIP3   OH229331   4.221   1.820   2.336
 2591TIP3    H129332   4.227   1.777   2.421
 2591TIP3    H229333   4.308   1.857   2.321
 2592TIP3   OH229334   2.299   4.407   2.108
 2592TIP3    H129335   2.221   4.447   2.068
 2592TIP3    H229336   2.284   4.415   2.202
 2593TIP3   OH229337   3.132   3.864   0.997
 2593TIP3    H129338   3.167   3.795   0.940
 2593TIP3    H229339   3.202   3.930   1.000
 2594TIP3   OH229340   4.661   3.849   8.503
 2594TIP3    H129341   4.631   3.828   8.414
 2594TIP3    H229342   4.583   3.839   8.558
 2595TIP3   OH229343   5.763   6.280   1.482
 2595TIP3    H129344   5.742   6.187   1.486
 2595TIP3    H229345   5.851   6.283   1.443
 2596TIP3   OH229346   2.096   1.348   1.318
 2596TIP3    H129347   2.003   1.371   1.315
 2596TIP3    H229348   2.099   1.267   1.369
 2597TIP3   OH229349   5.540   0.815   0.082
 2597TIP3    H129350   5.480   0.741   0.095
 2597TIP3    H229351   5.486   0.882   0.039
 2598TIP3   OH229352   4.110   4.158   7.859
 2598TIP3    H129353   4.116   4.221   7.930
 2598TIP3    H229354   4.195   4.115   7.857
 2599TIP3   OH229355   2.962   2.561   2.668
 2599TIP3    H129356   3.013   2.607   2.734
 2599TIP3    H229357   2.995   2.472   2.669
 2600TIP3   OH229358   6.274   1.223   8.680
 2600TIP3    H129359   6.286   1.215   8.774
 2600TIP3    H229360   6.193   1.272   8.670
 2601TIP3   OH229361   1.765   5.626   8.187
 2601TIP3    H129362   1.718   5.543   8.180
 2601TIP3    H229363   1.729   5.668   8.266
 2602TIP3   OH229364   0.398   5.751   0.797
 2602TIP3    H129365   0.470   5.689   0.810
 2602TIP3    H229366   0.325   5.697   0.768
 2603TIP3   OH229367   0.358   4.157   8.260
 2603TIP3    H129368   0.358   4.111   8.176
 2603TIP3    H229369   0.273   4.200   8.264
 2604TIP3   OH229370   3.410   4.712   7.355
 2604TIP3    H129371   3.377   4.798   7.331
 2604TIP3    H229372   3.410   4.712   7.450
 2605TIP3   OH229373   5.214   1.384   0.750
 2605TIP3    H129374   5.181   1.295   0.735
 2605TIP3    H229375   5.135   1.436   0.767
 2606TIP3   OH229376   3.630   5.787   7.530
 2606TIP3    H129377   3.672   5.732   7.597
 2606TIP3    H229378   3.598   5.864   7.578
 2607TIP3   OH229379   6.062   1.811   0.136
 2607TIP3    H129380   5.992   1.865   0.174
 2607TIP3    H229381   6.140   1.835   0.185
 2608TIP3   OH229382   1.378   2.394   0.033
 2608TIP3    H129383   1.440   2.464   0.013
 2608TIP3    H229384   1.428   2.313   0.024
 2609TIP3   OH229385   1.095   1.710   0.488
 2609TIP3    H129386   1.147   1.789   0.503
 2609TIP3    H229387   1.105   1.658   0.568
 2610TIP3   OH229388   0.636   0.764   8.268
 2610TIP3    H129389   0.604   0.846   8.231
 2610TIP3    H229390   0.642   0.705   8.193
 2611TIP3   OH229391   3.479   4.187   2.166
 2611TIP3    H129392   3.448   4.268   2.125
 2611TIP3    H229393   3.442   4.118   2.112
 2612TIP3   OH229394   6.266   2.142   7.172
 2612TIP3    H129395   6.260   2.046   7.182
 2612TIP3    H229396   6.358   2.162   7.190
 2613TIP3   OH229397   0.583   0.458   7.557
 2613TIP3    H129398   0.612   0.382   7.606
 2613TIP3    H229399   0.664   0.505   7.535
 2614TIP3   OH229400   6.118   4.769   0.915
 2614TIP3    H129401   6.201   4.768   0.866
 2614TIP3    H229402   6.113   4.681   0.953
 2615TIP3   OH229403   1.534   5.186   0.629
 2615TIP3    H129404   1.479   5.197   0.707
 2615TIP3    H229405   1.472   5.193   0.555
 2616TIP3   OH229406   0.780   2.658   0.101
 2616TIP3    H129407   0.811   2.568   0.108
 2616TIP3    H229408   0.810   2.700   0.182
 2617TIP3   OH229409   2.708   0.632   0.223
 2617TIP3    H129410   2.664   0.672   0.298
 2617TIP3    H229411   2.726   0.542   0.250
 2618TIP3   OH229412   6.625   3.154   0.117
 2618TIP3    H129413   6.542   3.188   0.152
 2618TIP3    H229414   6.688   3.167   0.188
 2619TIP3   OH229415   3.838   5.347   1.241
 2619TIP3    H129416   3.757   5.306   1.212
 2619TIP3    H229417   3.906   5.285   1.213
 2620TIP3   OH229418   4.254   4.464   1.559
 2620TIP3    H129419   4.222   4.552   1.538
 2620TIP3    H229420   4.207   4.406   1.499
 2621TIP3   OH229421   3.509   3.850   7.655
 2621TIP3    H129422   3.453   3.871   7.580
 2621TIP3    H229423   3.554   3.931   7.676
 2622TIP3   OH229424   5.263   1.117   1.698
 2622TIP3    H129425   5.329   1.187   1.694
 2622TIP3    H229426   5.295   1.050   1.638
 2623TIP3   OH229427   1.241   2.463   2.304
 2623TIP3    H129428   1.301   2.389   2.301
 2623TIP3    H229429   1.298   2.540   2.307
 2624TIP3   OH229430   0.985   4.963   0.400
 2624TIP3    H129431   1.004   4.968   0.306
 2624TIP3    H229432   1.071   4.960   0.442
 2625TIP3   OH229433   6.516   6.768   7.625
 2625TIP3    H129434   6.498   0.045   7.684
 2625TIP3    H229435   6.566   6.706   7.679
 2626TIP3   OH229436   4.802   1.732   0.197
 2626TIP3    H129437   4.735   1.775   0.251
 2626TIP3    H229438   4.854   1.681   0.258
 2627TIP3   OH229439   1.443   6.326   6.977
 2627TIP3    H129440   1.510   6.343   6.911
 2627TIP3    H229441   1.461   6.390   7.046
 2628TIP3   OH229442   1.960   3.084   7.787
 2628TIP3    H129443   2.049   3.101   7.815
 2628TIP3    H229444   1.910   3.078   7.868
 2629TIP3   OH229445   5.092   3.639   7.139
 2629TIP3    H129446   5.150   3.715   7.133
 2629TIP3    H229447   5.102   3.595   7.055
 2630TIP3   OH229448   3.695   6.423   0.875
 2630TIP3    H129449   3.683   6.329   0.889
 2630TIP3    H229450   3.612   6.452   0.837
 2631TIP3   OH229451   0.827   0.530   8.872
 2631TIP3    H129452   0.881   0.570   8.805
 2631TIP3    H229453   0.808   0.601   0.060
 2632TIP3   OH229454   4.918   2.683   8.491
 2632TIP3    H129455   4.901   2.589   8.489
 2632TIP3    H229456   4.879   2.716   8.409
 2633TIP3   OH229457   6.047   2.970   7.377
 2633TIP3    H129458   6.097   3.050   7.395
 2633TIP3    H229459   6.015   2.981   7.288
 2634TIP3   OH229460   3.805   3.083   6.546
 2634TIP3    H129461   3.821   3.134   6.625
 2634TIP3    H229462   3.733   3.128   6.502
 2635TIP3   OH229463   2.707   3.574   8.265
 2635TIP3    H129464   2.747   3.545   8.184
 2635TIP3    H229465   2.678   3.663   8.248
 2636TIP3   OH229466   4.883   0.591   1.405
 2636TIP3    H129467   4.878   0.660   1.471
 2636TIP3    H229468   4.822   0.524   1.436
 2637TIP3   OH229469   2.373   1.107   2.302
 2637TIP3    H129470   2.442   1.061   2.255
 2637TIP3    H229471   2.333   1.164   2.236
 2638TIP3   OH229472   3.239   5.713   8.331
 2638TIP3    H129473   3.151   5.734   8.364
 2638TIP3    H229474   3.238   5.742   8.240
 2639TIP3   OH229475   4.210   6.687   7.137
 2639TIP3    H129476   4.269   6.762   7.130
 2639TIP3    H229477   4.247   6.634   7.208
 2640TIP3   OH229478   6.467   2.028   8.497
 2640TIP3    H129479   6.505   1.940   8.491
 2640TIP3    H229480   6.413   2.036   8.418
 2641TIP3   OH229481   2.187   3.451   8.763
 2641TIP3    H129482   2.147   3.534   8.786
 2641TIP3    H229483   2.252   3.473   8.696
 2642TIP3   OH229484   6.245   5.101   2.033
 2642TIP3    H129485   6.336   5.099   2.063
 2642TIP3    H229486   6.250   5.103   1.938
 2643TIP3   OH229487   1.628   3.663   8.508
 2643TIP3    H129488   1.573   3.687   8.582
 2643TIP3    H229489   1.630   3.741   8.452
 2644TIP3   OH229490   0.476   0.246   1.634
 2644TIP3    H129491   0.396   0.220   1.588
 2644TIP3    H229492   0.449   0.315   1.694
 2645TIP3   OH229493   1.523   6.287   8.652
 2645TIP3    H129494   1.502   6.248   8.567
 2645TIP3    H229495   1.598   6.344   8.635
 2646TIP3   OH229496   2.116   5.970   2.285
 2646TIP3    H129497   2.025   5.998   2.299
 2646TIP3    H229498   2.155   5.969   2.372
 2647TIP3   OH229499   0.840   5.039   7.464
 2647TIP3    H129500   0.777   4.995   7.407
 2647TIP3    H229501   0.791   5.061   7.543
 2648TIP3   OH229502   3.921   3.971   7.413
 2648TIP3    H129503   3.985   3.944   7.347
 2648TIP3    H229504   3.928   4.067   7.415
 2649TIP3   OH229505   3.631   4.395   7.857
 2649TIP3    H129506   3.605   4.356   7.940
 2649TIP3    H229507   3.720   4.362   7.842
 2650TIP3   OH229508   3.447   4.604   8.506
 2650TIP3    H129509   3.442   4.537   8.438
 2650TIP3    H229510   3.403   4.565   8.581
 2651TIP3   OH229511   0.351   2.743   1.063
 2651TIP3    H129512   0.340   2.838   1.061
 2651TIP3    H229513   0.263   2.708   1.049
 2652TIP3   OH229514   0.087   3.661   8.744
 2652TIP3    H129515   0.139   3.648   8.823
 2652TIP3    H229516   0.149   3.652   8.672
 2653TIP3   OH229517   1.050   3.871   0.882
 2653TIP3    H129518   0.959   3.859   0.855
 2653TIP3    H229519   1.099   3.806   0.831
 2654TIP3   OH229520   3.173   1.274   2.569
 2654TIP3    H129521   3.180   1.181   2.550
 2654TIP3    H229522   3.232   1.316   2.506
 2655TIP3   OH229523   1.590   6.105   1.603
 2655TIP3    H129524   1.640   6.047   1.547
 2655TIP3    H229525   1.503   6.065   1.609
 2656TIP3   OH229526   3.608   4.462   7.113
 2656TIP3    H129527   3.534   4.514   7.082
 2656TIP3    H229528   3.683   4.522   7.106
 2657TIP3   OH229529   3.296   6.343   7.751
 2657TIP3    H129530   3.374   6.305   7.792
 2657TIP3    H229531   3.249   6.269   7.714
 2658TIP3   OH229532   4.116   1.962   8.870
 2658TIP3    H129533   4.176   1.919   8.808
 2658TIP3    H229534   4.052   1.895   0.017
 2659TIP3   OH229535   1.865   4.967   0.858
 2659TIP3    H129536   1.871   4.918   0.940
 2659TIP3    H229537   1.773   4.960   0.832
 2660TIP3   OH229538   3.995   6.110   7.232
 2660TIP3    H129539   3.933   6.068   7.291
 2660TIP3    H229540   3.964   6.086   7.144
 2661TIP3   OH229541   5.524   1.924   8.208
 2661TIP3    H129542   5.498   1.947   8.297
 2661TIP3    H229543   5.452   1.871   8.174
 2662TIP3   OH229544   2.359   3.490   1.086
 2662TIP3    H129545   2.267   3.469   1.072
 2662TIP3    H229546   2.370   3.577   1.046
 2663TIP3   OH229547   5.330   3.772   8.546
 2663TIP3    H129548   5.363   3.860   8.562
 2663TIP3    H229549   5.324   3.766   8.450
 2664TIP3   OH229550   3.073   2.456   1.205
 2664TIP3    H129551   2.989   2.422   1.233
 2664TIP3    H229552   3.127   2.378   1.190
 2665TIP3   OH229553   4.401   3.548   7.573
 2665TIP3    H129554   4.342   3.481   7.539
 2665TIP3    H229555   4.489   3.517   7.550
 2666TIP3   OH229556   2.711   5.052   7.798
 2666TIP3    H129557   2.730   5.128   7.853
 2666TIP3    H229558   2.784   4.992   7.815
 2667TIP3   OH229559   0.307   1.563   8.455
 2667TIP3    H129560   0.253   1.489   8.427
 2667TIP3    H229561   0.298   1.564   8.550
 2668TIP3   OH229562   3.318   6.600   7.641
 2668TIP3    H129563   3.406   6.602   7.678
 2668TIP3    H229564   3.277   6.524   7.682
 2669TIP3   OH229565   6.073   5.737   8.230
 2669TIP3    H129566   6.146   5.743   8.168
 2669TIP3    H229567   6.104   5.784   8.308
 2670TIP3   OH229568   0.304   5.333   0.447
 2670TIP3    H129569   0.343   5.308   0.364
 2670TIP3    H229570   0.333   5.265   0.508
 2671TIP3   OH229571   5.986   2.173   6.753
 2671TIP3    H129572   5.933   2.252   6.753
 2671TIP3    H229573   5.994   2.149   6.845
 2672TIP3   OH229574   3.275   6.295   1.055
 2672TIP3    H129575   3.238   6.226   0.999
 2672TIP3    H229576   3.253   6.268   1.144
 2673TIP3   OH229577   0.307   4.665   8.245
 2673TIP3    H129578   0.310   4.634   8.335
 2673TIP3    H229579   0.310   4.585   8.192
 2674TIP3   OH229580   3.428   1.841   1.860
 2674TIP3    H129581   3.479   1.913   1.897
 2674TIP3    H229582   3.337   1.864   1.877
 2675TIP3   OH229583   0.071   4.404   0.282
 2675TIP3    H129584   0.031   4.429   0.365
 2675TIP3    H229585   0.146   4.462   0.272
 2676TIP3   OH229586   0.606   5.965   8.485
 2676TIP3    H129587   0.596   5.995   8.576
 2676TIP3    H229588   0.536   6.009   8.438
 2677TIP3   OH229589   6.068   5.070   1.273
 2677TIP3    H129590   6.030   5.066   1.185
 2677TIP3    H229591   5.992   5.076   1.331
 2678TIP3   OH229592   5.003   5.380   8.710
 2678TIP3    H129593   4.933   5.344   8.656
 2678TIP3    H229594   5.018   5.314   8.778
 2679TIP3   OH229595   0.270   1.218   0.654
 2679TIP3    H129596   0.196   1.271   0.623
 2679TIP3    H229597   0.236   1.171   0.730
 2680TIP3   OH229598   0.786   4.079   0.699
 2680TIP3    H129599   0.731   4.073   0.621
 2680TIP3    H229600   0.795   3.989   0.730
 2681TIP3   OH229601   1.981   0.885   0.006
 2681TIP3    H129602   2.046   0.955   0.016
 2681TIP3    H229603   1.901   0.931   8.854
 2682TIP3   OH229604   1.247   2.243   7.105
 2682TIP3    H129605   1.235   2.294   7.185
 2682TIP3    H229606   1.301   2.299   7.049
 2683TIP3   OH229607   4.102   4.321   8.091
 2683TIP3    H129608   4.023   4.374   8.082
 2683TIP3    H229609   4.085   4.265   8.166
 2684TIP3   OH229610   4.920   2.549   7.260
 2684TIP3    H129611   4.917   2.506   7.345
 2684TIP3    H229612   4.932   2.477   7.198
 2685TIP3   OH229613   5.420   1.841   6.674
 2685TIP3    H129614   5.489   1.869   6.614
 2685TIP3    H229615   5.448   1.755   6.705
 2686TIP3   OH229616   0.535   6.701   6.518
 2686TIP3    H129617   0.550   6.607   6.528
 2686TIP3    H229618   0.608   6.732   6.465
 2687TIP3   OH229619   0.613   0.234   7.698
 2687TIP3    H129620   0.645   0.189   7.776
 2687TIP3    H229621   0.517   0.233   7.707
 2688TIP3   OH229622   5.248   4.582   0.775
 2688TIP3    H129623   5.329   4.624   0.748
 2688TIP3    H229624   5.271   4.535   0.855
 2689TIP3   OH229625   2.241   3.831   8.447
 2689TIP3    H129626   2.318   3.851   8.500
 2689TIP3    H229627   2.213   3.916   8.413
 2690TIP3   OH229628   6.665   5.422   1.483
 2690TIP3    H129629   6.740   5.451   1.535
 2690TIP3    H229630   6.607   5.498   1.480
 2691TIP3   OH229631   1.253   4.176   8.226
 2691TIP3    H129632   1.168   4.139   8.250
 2691TIP3    H229633   1.317   4.115   8.264
 2692TIP3   OH229634   1.987   5.491   7.685
 2692TIP3    H129635   2.039   5.563   7.719
 2692TIP3    H229636   1.971   5.514   7.593
 2693TIP3   OH229637   3.763   5.923   6.700
 2693TIP3    H129638   3.765   5.958   6.611
 2693TIP3    H229639   3.836   5.967   6.744
 2694TIP3   OH229640   2.207   2.077   7.307
 2694TIP3    H129641   2.158   2.158   7.291
 2694TIP3    H229642   2.206   2.032   7.223
 2695TIP3   OH229643   6.157   5.241   2.280
 2695TIP3    H129644   6.110   5.158   2.274
 2695TIP3    H229645   6.227   5.234   2.215
 2696TIP3   OH229646   1.130   5.170   6.873
 2696TIP3    H129647   1.043   5.138   6.894
 2696TIP3    H229648   1.143   5.147   6.781
 2697TIP3   OH229649   1.388   5.146   7.599
 2697TIP3    H129650   1.307   5.120   7.643
 2697TIP3    H229651   1.388   5.094   7.518
 2698TIP3   OH229652   0.809   2.776   8.277
 2698TIP3    H129653   0.803   2.691   8.233
 2698TIP3    H229654   0.877   2.764   8.343
 2699TIP3   OH229655   4.052   3.377   8.434
 2699TIP3    H129656   4.132   3.406   8.479
 2699TIP3    H229657   4.001   3.333   8.501
 2700TIP3   OH229658   0.010   6.728   7.076
 2700TIP3    H129659   6.773   0.017   7.049
 2700TIP3    H229660   0.085   6.712   7.019
 2701TIP3   OH229661   2.037   1.379   0.935
 2701TIP3    H129662   2.111   1.347   0.987
 2701TIP3    H229663   2.027   1.314   0.865
 2702TIP3   OH229664   0.971   2.042   1.624
 2702TIP3    H129665   0.926   2.115   1.583
 2702TIP3    H229666   0.979   2.067   1.716
 2703TIP3   OH229667   4.706   5.924   0.206
 2703TIP3    H129668   4.663   5.839   0.215
 2703TIP3    H229669   4.795   5.910   0.239
 2704TIP3   OH229670   0.906   5.081   7.784
 2704TIP3    H129671   0.865   5.146   7.841
 2704TIP3    H229672   0.835   5.052   7.727
 2705TIP3   OH229673   0.184   0.367   8.157
 2705TIP3    H129674   0.186   0.285   8.107
 2705TIP3    H229675   0.177   0.339   8.248
 2706TIP3   OH229676   6.379   2.457   1.690
 2706TIP3    H129677   6.386   2.460   1.786
 2706TIP3    H229678   6.424   2.537   1.661
 2707TIP3   OH229679   0.077   2.141   1.265
 2707TIP3    H129680   0.016   2.184   1.325
 2707TIP3    H229681   0.084   2.201   1.191
 2708TIP3   OH229682   1.316   4.161   1.019
 2708TIP3    H129683   1.328   4.245   1.063
 2708TIP3    H229684   1.222   4.153   1.006
 2709TIP3   OH229685   0.316   2.698   8.250
 2709TIP3    H129686   0.403   2.737   8.259
 2709TIP3    H229687   0.331   2.604   8.255
 2710TIP3   OH229688   3.735   3.031   2.042
 2710TIP3    H129689   3.667   2.969   2.069
 2710TIP3    H229690   3.693   3.117   2.045
 2711TIP3   OH229691   4.199   0.856   6.949
 2711TIP3    H129692   4.249   0.818   7.021
 2711TIP3    H229693   4.163   0.937   6.986
 2712TIP3   OH229694   0.123   5.193   6.946
 2712TIP3    H129695   0.075   5.111   6.929
 2712TIP3    H229696   0.186   5.170   7.014
 2713TIP3   OH229697   4.904   2.285   8.106
 2713TIP3    H129698   4.954   2.279   8.187
 2713TIP3    H229699   4.829   2.340   8.127
 2714TIP3   OH229700   2.412   4.052   8.227
 2714TIP3    H129701   2.453   4.138   8.220
 2714TIP3    H229702   2.334   4.067   8.281
 2715TIP3   OH229703   4.686   5.638   0.260
 2715TIP3    H129704   4.735   5.604   0.185
 2715TIP3    H229705   4.734   5.606   0.337
 2716TIP3   OH229706   2.871   4.896   1.077
 2716TIP3    H129707   2.894   4.803   1.064
 2716TIP3    H229708   2.776   4.898   1.075
 2717TIP3   OH229709   6.525   3.951   2.049
 2717TIP3    H129710   6.578   3.889   2.098
 2717TIP3    H229711   6.555   3.942   1.958
 2718TIP3   OH229712   2.280   4.345   1.304
 2718TIP3    H129713   2.258   4.398   1.380
 2718TIP3    H229714   2.374   4.329   1.313
 2719TIP3   OH229715   3.947   5.727   7.079
 2719TIP3    H129716   3.932   5.646   7.127
 2719TIP3    H229717   3.868   5.739   7.027
 2720TIP3   OH229718   5.383   6.407   1.144
 2720TIP3    H129719   5.414   6.495   1.166
 2720TIP3    H229720   5.394   6.357   1.225
 2721TIP3   OH229721   2.752   1.195   0.796
 2721TIP3    H129722   2.717   1.247   0.724
 2721TIP3    H229723   2.846   1.213   0.795
 2722TIP3   OH229724   5.254   0.308   7.863
 2722TIP3    H129725   5.317   0.279   7.930
 2722TIP3    H229726   5.257   0.239   7.797
 2723TIP3   OH229727   0.347   3.956   0.510
 2723TIP3    H129728   0.295   3.911   0.576
 2723TIP3    H229729   0.299   4.037   0.493
 2724TIP3   OH229730   2.685   2.673   1.297
 2724TIP3    H129731   2.630   2.629   1.361
 2724TIP3    H229732   2.689   2.612   1.223
 2725TIP3   OH229733   5.410   1.038   0.021
 2725TIP3    H129734   5.315   1.031   0.010
 2725TIP3    H229735   5.444   1.042   8.806
 2726TIP3   OH229736   3.686   0.009   0.921
 2726TIP3    H129737   3.722   0.057   0.846
 2726TIP3    H229738   3.659   6.721   0.885
 2727TIP3   OH229739   6.726   1.308   1.242
 2727TIP3    H129740   6.746   1.401   1.258
 2727TIP3    H229741   6.780   1.261   1.305
 2728TIP3   OH229742   0.072   2.712   2.481
 2728TIP3    H129743   0.053   2.652   2.553
 2728TIP3    H229744   0.162   2.689   2.455
 2729TIP3   OH229745   1.540   0.043   0.479
 2729TIP3    H129746   1.612   0.076   0.425
 2729TIP3    H229747   1.536   6.746   0.459
 2730TIP3   OH229748   5.953   3.059   8.629
 2730TIP3    H129749   5.862   3.087   8.618
 2730TIP3    H229750   5.949   2.988   8.693
 2731TIP3   OH229751   1.941   5.316   0.689
 2731TIP3    H129752   2.017   5.368   0.662
 2731TIP3    H229753   1.866   5.365   0.656
 2732TIP3   OH229754   0.503   4.772   1.343
 2732TIP3    H129755   0.510   4.820   1.260
 2732TIP3    H229756   0.495   4.681   1.317
 2733TIP3   OH229757   6.423   1.846   2.407
 2733TIP3    H129758   6.467   1.876   2.486
 2733TIP3    H229759   6.482   1.780   2.370
 2734TIP3   OH229760   3.823   3.733   7.193
 2734TIP3    H129761   3.900   3.779   7.227
 2734TIP3    H229762   3.858   3.662   7.140
 2735TIP3   OH229763   0.307   1.314   7.874
 2735TIP3    H129764   0.239   1.380   7.864
 2735TIP3    H229765   0.331   1.291   7.784
 2736TIP3   OH229766   5.861   5.064   7.116
 2736TIP3    H129767   5.828   5.150   7.089
 2736TIP3    H229768   5.949   5.060   7.078
 2737TIP3   OH229769   4.249   5.027   0.164
 2737TIP3    H129770   4.210   4.997   0.081
 2737TIP3    H229771   4.177   5.065   0.212
 2738TIP3   OH229772   3.461   3.162   2.235
 2738TIP3    H129773   3.545   3.202   2.214
 2738TIP3    H229774   3.413   3.230   2.282
 2739TIP3   OH229775   4.095   4.817   0.481
 2739TIP3    H129776   4.001   4.831   0.469
 2739TIP3    H229777   4.128   4.797   0.394
 2740TIP3   OH229778   5.253   0.588   7.442
 2740TIP3    H129779   5.227   0.501   7.473
 2740TIP3    H229780   5.349   0.585   7.440
 2741TIP3   OH229781   2.061   3.385   0.781
 2741TIP3    H129782   2.069   3.370   0.875
 2741TIP3    H229783   2.147   3.363   0.745
 2742TIP3   OH229784   3.466   4.263   1.779
 2742TIP3    H129785   3.380   4.247   1.819
 2742TIP3    H229786   3.519   4.188   1.808
 2743TIP3   OH229787   5.509   2.389   8.691
 2743TIP3    H129788   5.564   2.333   8.746
 2743TIP3    H229789   5.467   2.449   8.752
 2744TIP3   OH229790   6.694   0.080   7.331
 2744TIP3    H129791   6.703   0.108   7.422
 2744TIP3    H229792   6.783   0.058   7.304
 2745TIP3   OH229793   6.262   0.024   1.170
 2745TIP3    H129794   6.287   6.730   1.148
 2745TIP3    H229795   6.209   0.052   1.096
 2746TIP3   OH229796   3.229   0.135   8.250
 2746TIP3    H129797   3.284   0.090   8.314
 2746TIP3    H229798   3.285   0.143   8.172
 2747TIP3   OH229799   2.343   6.739   7.642
 2747TIP3    H129800   2.284   6.721   7.568
 2747TIP3    H229801   2.364   0.036   7.634
 2748TIP3   OH229802   0.592   3.202   1.553
 2748TIP3    H129803   0.641   3.256   1.490
 2748TIP3    H229804   0.659   3.147   1.594
 2749TIP3   OH229805   6.050   3.143   0.922
 2749TIP3    H129806   6.066   3.212   0.986
 2749TIP3    H229807   6.060   3.186   0.837
 2750TIP3   OH229808   2.359   3.384   2.065
 2750TIP3    H129809   2.275   3.414   2.100
 2750TIP3    H229810   2.377   3.443   1.992
 2751TIP3   OH229811   3.650   1.805   7.285
 2751TIP3    H129812   3.734   1.816   7.329
 2751TIP3    H229813   3.592   1.868   7.328
 2752TIP3   OH229814   2.308   5.325   6.860
 2752TIP3    H129815   2.364   5.348   6.786
 2752TIP3    H229816   2.320   5.231   6.872
 2753TIP3   OH229817   4.658   0.591   1.859
 2753TIP3    H129818   4.677   0.517   1.918
 2753TIP3    H229819   4.692   0.667   1.905
 2754TIP3   OH229820   3.112   0.382   0.989
 2754TIP3    H129821   3.073   0.385   1.077
 2754TIP3    H229822   3.125   0.289   0.971
 2755TIP3   OH229823   1.313   1.432   1.267
 2755TIP3    H129824   1.371   1.403   1.197
 2755TIP3    H229825   1.296   1.524   1.248
 2756TIP3   OH229826   0.776   5.525   1.476
 2756TIP3    H129827   0.723   5.465   1.529
 2756TIP3    H229828   0.824   5.577   1.539
 2757TIP3   OH229829   1.735   6.576   2.118
 2757TIP3    H129830   1.827   6.566   2.142
 2757TIP3    H229831   1.702   6.486   2.113
 2758TIP3   OH229832   5.398   5.539   0.401
 2758TIP3    H129833   5.314   5.499   0.380
 2758TIP3    H229834   5.377   5.608   0.463
 2759TIP3   OH229835   4.880   2.183   7.623
 2759TIP3    H129836   4.928   2.265   7.617
 2759TIP3    H229837   4.882   2.160   7.716
 2760TIP3   OH229838   1.177   3.833   8.649
 2760TIP3    H129839   1.152   3.799   8.563
 2760TIP3    H229840   1.097   3.870   8.685
 2761TIP3   OH229841   4.934   2.933   1.781
 2761TIP3    H129842   4.890   2.927   1.865
 2761TIP3    H229843   4.884   2.875   1.723
 2762TIP3   OH229844   2.795   2.790   1.855
 2762TIP3    H129845   2.882   2.749   1.857
 2762TIP3    H229846   2.807   2.872   1.903
 2763TIP3   OH229847   3.779   2.945   8.123
 2763TIP3    H129848   3.704   2.971   8.071
 2763TIP3    H229849   3.806   3.024   8.169
 2764TIP3   OH229850   0.046   0.556   1.613
 2764TIP3    H129851   0.033   0.598   1.698
 2764TIP3    H229852   0.035   0.462   1.632
 2765TIP3   OH229853   5.583   4.211   1.506
 2765TIP3    H129854   5.529   4.264   1.446
 2765TIP3    H229855   5.668   4.254   1.505
 2766TIP3   OH229856   1.561   0.752   6.906
 2766TIP3    H129857   1.589   0.708   6.826
 2766TIP3    H229858   1.517   0.831   6.875
 2767TIP3   OH229859   1.334   5.135   8.643
 2767TIP3    H129860   1.289   5.052   8.654
 2767TIP3    H229861   1.416   5.124   8.690
 2768TIP3   OH229862   3.230   1.039   1.963
 2768TIP3    H129863   3.139   1.044   1.993
 2768TIP3    H229864   3.274   1.111   2.009
 2769TIP3   OH229865   3.710   0.839   1.186
 2769TIP3    H129866   3.788   0.851   1.241
 2769TIP3    H229867   3.744   0.835   1.097
 2770TIP3   OH229868   3.258   4.206   0.764
 2770TIP3    H129869   3.311   4.207   0.685
 2770TIP3    H229870   3.312   4.160   0.829
 2771TIP3   OH229871   2.812   4.335   7.118
 2771TIP3    H129872   2.743   4.270   7.102
 2771TIP3    H229873   2.894   4.287   7.105
 2772TIP3   OH229874   2.744   4.438   1.042
 2772TIP3    H129875   2.811   4.496   1.007
 2772TIP3    H229876   2.714   4.481   1.123
 2773TIP3   OH229877   5.463   0.597   8.659
 2773TIP3    H129878   5.527   0.647   8.708
 2773TIP3    H229879   5.390   0.585   8.720
 2774TIP3   OH229880   3.935   1.043   6.796
 2774TIP3    H129881   3.951   1.137   6.795
 2774TIP3    H229882   4.006   1.006   6.848
 2775TIP3   OH229883   4.427   0.709   0.101
 2775TIP3    H129884   4.377   0.652   0.043
 2775TIP3    H229885   4.463   0.776   0.044
 2776TIP3   OH229886   2.095   4.813   7.480
 2776TIP3    H129887   2.006   4.821   7.444
 2776TIP3    H229888   2.094   4.870   7.557
 2777TIP3   OH229889   1.810   4.455   7.594
 2777TIP3    H129890   1.743   4.392   7.620
 2777TIP3    H229891   1.770   4.504   7.522
 2778TIP3   OH229892   0.572   3.593   0.916
 2778TIP3    H129893   0.600   3.617   1.005
 2778TIP3    H229894   0.648   3.549   0.878
 2779TIP3   OH229895   0.158   4.583   2.122
 2779TIP3    H129896   0.152   4.534   2.041
 2779TIP3    H229897   0.097   4.656   2.111
 2780TIP3   OH229898   1.057   6.250   1.679
 2780TIP3    H129899   0.987   6.291   1.729
 2780TIP3    H229900   1.138   6.281   1.721
 2781TIP3   OH229901   4.367   0.832   8.560
 2781TIP3    H129902   4.386   0.771   8.630
 2781TIP3    H229903   4.401   0.916   8.591
 2782TIP3   OH229904   5.543   3.964   1.794
 2782TIP3    H129905   5.603   4.022   1.841
 2782TIP3    H229906   5.572   3.876   1.817
 2783TIP3   OH229907   0.966   0.556   1.220
 2783TIP3    H129908   0.975   0.497   1.295
 2783TIP3    H229909   0.906   0.511   1.161
 2784TIP3   OH229910   3.359   4.012   0.990
 2784TIP3    H129911   3.381   3.970   0.907
 2784TIP3    H229912   3.440   4.058   1.015
 2785TIP3   OH229913   3.672   6.511   8.647
 2785TIP3    H129914   3.749   6.456   8.660
 2785TIP3    H229915   3.695   6.594   8.689
 2786TIP3   OH229916   0.526   3.740   0.699
 2786TIP3    H129917   0.436   3.772   0.696
 2786TIP3    H229918   0.524   3.668   0.762
 2787TIP3   OH229919   5.938   6.450   8.576
 2787TIP3    H129920   5.990   6.385   8.623
 2787TIP3    H229921   5.999   6.521   8.557
 2788TIP3   OH229922   3.028   5.105   7.541
 2788TIP3    H129923   3.004   5.110   7.448
 2788TIP3    H229924   3.003   5.016   7.567
 2789TIP3   OH229925   1.864   6.288   7.098
 2789TIP3    H129926   1.827   6.323   7.017
 2789TIP3    H229927   1.798   6.227   7.130
 2790TIP3   OH229928   6.048   4.247   1.841
 2790TIP3    H129929   5.970   4.261   1.895
 2790TIP3    H229930   6.116   4.219   1.903
 2791TIP3   OH229931   0.855   0.920   8.385
 2791TIP3    H129932   0.790   0.972   8.432
 2791TIP3    H229933   0.804   0.858   8.333
 2792TIP3   OH229934   6.458   1.070   7.830
 2792TIP3    H129935   6.459   0.982   7.868
 2792TIP3    H229936   6.548   1.085   7.801
 2793TIP3   OH229937   6.290   1.370   7.069
 2793TIP3    H129938   6.310   1.280   7.092
 2793TIP3    H229939   6.194   1.374   7.065
 2794TIP3   OH229940   5.723   1.724   7.004
 2794TIP3    H129941   5.646   1.710   6.949
 2794TIP3    H229942   5.764   1.803   6.968
 2795TIP3   OH229943   2.139   2.425   0.336
 2795TIP3    H129944   2.064   2.408   0.278
 2795TIP3    H229945   2.100   2.446   0.420
 2796TIP3   OH229946   1.869   0.111   7.342
 2796TIP3    H129947   1.833   0.041   7.398
 2796TIP3    H229948   1.915   0.169   7.403
 2797TIP3   OH229949   1.482   4.862   1.798
 2797TIP3    H129950   1.482   4.940   1.854
 2797TIP3    H229951   1.540   4.885   1.725
 2798TIP3   OH229952   5.605   5.821   2.637
 2798TIP3    H129953   5.552   5.861   2.567
 2798TIP3    H229954   5.590   5.878   2.713
 2799TIP3   OH229955   5.682   5.223   7.668
 2799TIP3    H129956   5.771   5.253   7.684
 2799TIP3    H229957   5.684   5.129   7.689
 2800TIP3   OH229958   0.200   0.007   7.815
 2800TIP3    H129959   0.260   0.081   7.807
 2800TIP3    H229960   0.113   0.047   7.821
 2801TIP3   OH229961   2.523   0.266   6.185
 2801TIP3    H129962   2.583   0.297   6.253
 2801TIP3    H229963   2.563   0.185   6.154
 2802TIP3   OH229964   0.319   3.271   1.483
 2802TIP3    H129965   0.405   3.266   1.523
 2802TIP3    H229966   0.260   3.291   1.556
 2803TIP3   OH229967   6.646   5.034   0.035
 2803TIP3    H129968   6.609   4.966   8.854
 2803TIP3    H229969   6.575   5.057   0.096
 2804TIP3   OH229970   5.023   6.030   1.262
 2804TIP3    H129971   5.079   6.105   1.241
 2804TIP3    H229972   5.083   5.955   1.263
 2805TIP3   OH229973   6.714   4.192   0.490
 2805TIP3    H129974   6.621   4.204   0.472
 2805TIP3    H229975   6.723   4.213   0.583
 2806TIP3   OH229976   3.456   6.260   1.349
 2806TIP3    H129977   3.518   6.259   1.422
 2806TIP3    H229978   3.469   6.175   1.306
 2807TIP3   OH229979   5.584   5.862   1.595
 2807TIP3    H129980   5.529   5.928   1.638
 2807TIP3    H229981   5.559   5.779   1.637
 2808TIP3   OH229982   3.045   6.544   0.394
 2808TIP3    H129983   3.065   6.637   0.403
 2808TIP3    H229984   3.130   6.501   0.396
 2809TIP3   OH229985   1.165   2.349   0.478
 2809TIP3    H129986   1.243   2.382   0.434
 2809TIP3    H229987   1.152   2.261   0.442
 2810TIP3   OH229988   5.365   1.825   0.657
 2810TIP3    H129989   5.421   1.799   0.584
 2810TIP3    H229990   5.425   1.862   0.722
 2811TIP3   OH229991   1.404   3.104   2.046
 2811TIP3    H129992   1.396   3.196   2.069
 2811TIP3    H229993   1.368   3.057   2.121
 2812TIP3   OH229994   0.294   5.426   7.710
 2812TIP3    H129995   0.222   5.436   7.648
 2812TIP3    H229996   0.365   5.479   7.673
 2813TIP3   OH229997   5.618   5.058   1.330
 2813TIP3    H129998   5.664   5.072   1.247
 2813TIP3    H229999   5.603   5.146   1.364
 2814TIP3   OH230000   6.201   0.143   1.412
 2814TIP3    H130001   6.253   0.092   1.474
 2814TIP3    H230002   6.230   0.113   1.326
 2815TIP3   OH230003   3.600   1.389   2.200
 2815TIP3    H130004   3.657   1.350   2.134
 2815TIP3    H230005   3.659   1.438   2.257
 2816TIP3   OH230006   3.370   5.726   7.433
 2816TIP3    H130007   3.336   5.639   7.411
 2816TIP3    H230008   3.464   5.713   7.440
 2817TIP3   OH230009   2.939   4.720   0.230
 2817TIP3    H130010   2.976   4.633   0.215
 2817TIP3    H230011   2.929   4.758   0.142
 2818TIP3   OH230012   0.567   2.975   1.007
 2818TIP3    H130013   0.534   3.024   0.931
 2818TIP3    H230014   0.512   3.004   1.079
 2819TIP3   OH230015   3.860   6.105   0.098
 2819TIP3    H130016   3.765   6.099   0.107
 2819TIP3    H230017   3.887   6.164   0.168
 2820TIP3   OH230018   2.957   3.666   1.189
 2820TIP3    H130019   3.034   3.651   1.134
 2820TIP3    H230020   2.883   3.643   1.133
 2821TIP3   OH230021   2.042   2.348   6.398
 2821TIP3    H130022   2.066   2.372   6.488
 2821TIP3    H230023   2.126   2.340   6.353
 2822TIP3   OH230024   1.542   2.399   1.201
 2822TIP3    H130025   1.629   2.386   1.163
 2822TIP3    H230026   1.513   2.311   1.226
 2823TIP3   OH230027   5.427   6.169   2.042
 2823TIP3    H130028   5.507   6.219   2.055
 2823TIP3    H230029   5.455   6.078   2.038
 2824TIP3   OH230030   5.118   2.375   8.258
 2824TIP3    H130031   5.198   2.401   8.304
 2824TIP3    H230032   5.094   2.452   8.207
 2825TIP3   OH230033   1.950   6.438   8.482
 2825TIP3    H130034   1.963   6.343   8.487
 2825TIP3    H230035   1.878   6.456   8.542
 2826TIP3   OH230036   3.943   6.529   0.917
 2826TIP3    H130037   4.009   6.459   0.910
 2826TIP3    H230038   3.860   6.482   0.922
 2827TIP3   OH230039   2.230   4.645   1.781
 2827TIP3    H130040   2.226   4.677   1.871
 2827TIP3    H230041   2.306   4.587   1.779
 2828TIP3   OH230042   6.453   0.746   2.074
 2828TIP3    H130043   6.429   0.654   2.067
 2828TIP3    H230044   6.412   0.776   2.155
 2829TIP3   OH230045   5.393   5.991   7.927
 2829TIP3    H130046   5.423   5.905   7.897
 2829TIP3    H230047   5.305   5.975   7.960
 2830TIP3   OH230048   2.998   5.745   6.840
 2830TIP3    H130049   3.003   5.655   6.809
 2830TIP3    H230050   2.908   5.755   6.869
 2831TIP3   OH230051   3.577   3.605   7.707
 2831TIP3    H130052   3.526   3.684   7.695
 2831TIP3    H230053   3.664   3.636   7.733
 2832TIP3   OH230054   4.137   6.493   1.891
 2832TIP3    H130055   4.153   6.485   1.985
 2832TIP3    H230056   4.059   6.440   1.875
 2833TIP3   OH230057   2.032   2.537   8.732
 2833TIP3    H130058   2.067   2.597   8.798
 2833TIP3    H230059   1.977   2.592   8.676
 2834TIP3   OH230060   0.200   2.635   7.455
 2834TIP3    H130061   0.224   2.712   7.404
 2834TIP3    H230062   0.227   2.655   7.544
 2835TIP3   OH230063   1.966   2.734   6.631
 2835TIP3    H130064   1.978   2.735   6.536
 2835TIP3    H230065   1.909   2.809   6.648
 2836TIP3   OH230066   4.115   0.995   7.447
 2836TIP3    H130067   4.205   1.026   7.431
 2836TIP3    H230068   4.107   0.918   7.391
 2837TIP3   OH230069   1.877   6.043   1.392
 2837TIP3    H130070   1.865   5.970   1.452
 2837TIP3    H230071   1.932   6.008   1.322
 2838TIP3   OH230072   5.241   3.653   7.402
 2838TIP3    H130073   5.187   3.622   7.329
 2838TIP3    H230074   5.210   3.603   7.478
 2839TIP3   OH230075   6.372   3.561   6.529
 2839TIP3    H130076   6.312   3.603   6.468
 2839TIP3    H230077   6.334   3.475   6.545
 2840TIP3   OH230078   3.304   3.357   8.101
 2840TIP3    H130079   3.353   3.410   8.165
 2840TIP3    H230080   3.348   3.374   8.018
 2841TIP3   OH230081   2.584   2.710   7.436
 2841TIP3    H130082   2.575   2.645   7.366
 2841TIP3    H230083   2.594   2.793   7.391
 2842TIP3   OH230084   1.244   0.303   1.198
 2842TIP3    H130085   1.227   0.215   1.230
 2842TIP3    H230086   1.301   0.343   1.263
 2843TIP3   OH230087   1.602   3.933   0.039
 2843TIP3    H130088   1.664   3.880   8.863
 2843TIP3    H230089   1.519   3.886   0.033
 2844TIP3   OH230090   6.142   6.690   0.754
 2844TIP3    H130091   6.072   6.718   0.695
 2844TIP3    H230092   6.122   6.598   0.773
 2845TIP3   OH230093   5.216   4.167   7.615
 2845TIP3    H130094   5.202   4.191   7.524
 2845TIP3    H230095   5.217   4.072   7.616
 2846TIP3   OH230096   6.589   6.087   0.342
 2846TIP3    H130097   6.635   6.003   0.352
 2846TIP3    H230098   6.565   6.111   0.432
 2847TIP3   OH230099   6.591   5.992   0.836
 2847TIP3    H130100   6.535   5.917   0.816
 2847TIP3    H230101   6.672   5.953   0.867
 2848TIP3   OH230102   0.831   2.116   6.499
 2848TIP3    H130103   0.920   2.101   6.529
 2848TIP3    H230104   0.827   2.210   6.481
 2849TIP3   OH230105   5.028   3.315   1.510
 2849TIP3    H130106   4.949   3.346   1.465
 2849TIP3    H230107   5.020   3.220   1.511
 2850TIP3   OH230108   0.728   2.375   6.761
 2850TIP3    H130109   0.803   2.336   6.806
 2850TIP3    H230110   0.758   2.389   6.671
 2851TIP3   OH230111   5.640   2.390   0.692
 2851TIP3    H130112   5.569   2.347   0.645
 2851TIP3    H230113   5.598   2.427   0.770
 2852TIP3   OH230114   6.502   3.748   2.504
 2852TIP3    H130115   6.587   3.792   2.516
 2852TIP3    H230116   6.514   3.693   2.427
 2853TIP3   OH230117   1.892   4.095   1.297
 2853TIP3    H130118   1.840   4.163   1.255
 2853TIP3    H230119   1.978   4.099   1.255
 2854TIP3   OH230120   6.462   0.149   8.859
 2854TIP3    H130121   6.554   0.165   0.009
 2854TIP3    H230122   6.412   0.202   0.046
 2855TIP3   OH230123   0.436   2.688   6.999
 2855TIP3    H130124   0.501   2.690   6.929
 2855TIP3    H230125   0.365   2.745   6.967
 2856TIP3   OH230126   2.125   5.639   7.876
 2856TIP3    H130127   2.191   5.705   7.894
 2856TIP3    H230128   2.071   5.636   7.955
 2857TIP3   OH230129   6.354   0.052   1.638
 2857TIP3    H130130   6.438   0.053   1.683
 2857TIP3    H230131   6.312   6.767   1.666
 2858TIP3   OH230132   3.672   4.970   0.786
 2858TIP3    H130133   3.581   4.991   0.765
 2858TIP3    H230134   3.696   4.903   0.723
 2859TIP3   OH230135   1.253   3.073   0.689
 2859TIP3    H130136   1.186   3.127   0.731
 2859TIP3    H230137   1.298   3.030   0.761
 2860TIP3   OH230138   2.770   5.395   6.766
 2860TIP3    H130139   2.709   5.455   6.723
 2860TIP3    H230140   2.718   5.317   6.784
 2861TIP3   OH230141   3.373   0.782   1.013
 2861TIP3    H130142   3.323   0.848   1.062
 2861TIP3    H230143   3.307   0.730   0.968
 2862TIP3   OH230144   4.413   5.904   1.462
 2862TIP3    H130145   4.491   5.903   1.517
 2862TIP3    H230146   4.344   5.867   1.517
 2863TIP3   OH230147   1.078   6.127   8.096
 2863TIP3    H130148   1.169   6.104   8.114
 2863TIP3    H230149   1.051   6.067   8.027
 2864TIP3   OH230150   1.664   4.087   7.114
 2864TIP3    H130151   1.728   4.089   7.043
 2864TIP3    H230152   1.691   4.159   7.172
 2865TIP3   OH230153   6.433   4.862   1.811
 2865TIP3    H130154   6.498   4.796   1.836
 2865TIP3    H230155   6.400   4.831   1.726
 2866TIP3   OH230156   4.876   5.509   1.592
 2866TIP3    H130157   4.800   5.530   1.538
 2866TIP3    H230158   4.936   5.464   1.533
 2867TIP3   OH230159   0.345   6.149   0.824
 2867TIP3    H130160   0.422   6.198   0.855
 2867TIP3    H230161   0.274   6.213   0.826
 2868TIP3   OH230162   5.268   1.968   7.831
 2868TIP3    H130163   5.261   2.024   7.754
 2868TIP3    H230164   5.228   2.020   7.901
 2869TIP3   OH230165   0.292   6.668   6.964
 2869TIP3    H130166   0.244   6.585   6.960
 2869TIP3    H230167   0.382   6.644   6.940
 2870TIP3   OH230168   3.636   5.698   0.094
 2870TIP3    H130169   3.699   5.770   0.102
 2870TIP3    H230170   3.599   5.689   0.181
 2871TIP3   OH230171   1.917   6.488   0.019
 2871TIP3    H130172   1.950   6.425   8.830
 2871TIP3    H230173   1.905   6.437   0.099
 2872TIP3   OH230174   0.313   1.854   1.712
 2872TIP3    H130175   0.364   1.915   1.765
 2872TIP3    H230176   0.265   1.910   1.651
 2873TIP3   OH230177   2.845   2.194   2.814
 2873TIP3    H130178   2.871   2.110   2.852
 2873TIP3    H230179   2.768   2.174   2.762
 2874TIP3   OH230180   0.100   1.500   6.751
 2874TIP3    H130181   0.085   1.505   6.845
 2874TIP3    H230182   0.013   1.488   6.713
 2875TIP3   OH230183   0.393   5.926   7.312
 2875TIP3    H130184   0.398   6.003   7.369
 2875TIP3    H230185   0.390   5.852   7.371
 2876TIP3   OH230186   1.750   1.914   8.288
 2876TIP3    H130187   1.771   1.863   8.210
 2876TIP3    H230188   1.699   1.988   8.255
 2877TIP3   OH230189   4.589   5.001   1.081
 2877TIP3    H130190   4.643   5.076   1.106
 2877TIP3    H230191   4.516   5.039   1.032
 2878TIP3   OH230192   6.739   4.233   0.782
 2878TIP3    H130193   6.728   4.182   0.862
 2878TIP3    H230194   6.735   4.324   0.810
 2879TIP3   OH230195   3.874   5.079   7.653
 2879TIP3    H130196   3.938   5.030   7.705
 2879TIP3    H230197   3.819   5.011   7.613
 2880TIP3   OH230198   4.206   6.452   0.484
 2880TIP3    H130199   4.182   6.544   0.484
 2880TIP3    H230200   4.123   6.405   0.497
 2881TIP3   OH230201   3.689   5.718   6.265
 2881TIP3    H130202   3.766   5.678   6.223
 2881TIP3    H230203   3.618   5.655   6.249
 2882TIP3   OH230204   0.895   4.588   8.552
 2882TIP3    H130205   0.856   4.519   8.499
 2882TIP3    H230206   0.873   4.565   8.642
 2883TIP3   OH230207   5.415   2.426   1.448
 2883TIP3    H130208   5.463   2.373   1.512
 2883TIP3    H230209   5.475   2.498   1.427
 2884TIP3   OH230210   2.109   4.766   8.790
 2884TIP3    H130211   2.129   4.831   8.857
 2884TIP3    H230212   2.025   4.794   8.754
 2885TIP3   OH230213   6.110   2.475   7.419
 2885TIP3    H130214   6.163   2.396   7.412
 2885TIP3    H230215   6.021   2.448   7.394
 2886TIP3   OH230216   2.419   2.890   1.631
 2886TIP3    H130217   2.511   2.868   1.617
 2886TIP3    H230218   2.376   2.805   1.646
 2887TIP3   OH230219   4.371   6.089   1.275
 2887TIP3    H130220   4.296   6.032   1.257
 2887TIP3    H230221   4.417   6.046   1.347
 2888TIP3   OH230222   3.890   5.218   0.787
 2888TIP3    H130223   3.830   5.143   0.792
 2888TIP3    H230224   3.975   5.179   0.766
 2889TIP3   OH230225   4.312   6.636   7.764
 2889TIP3    H130226   4.222   6.614   7.739
 2889TIP3    H230227   4.366   6.570   7.721
 2890TIP3   OH230228   0.708   2.019   8.353
 2890TIP3    H130229   0.660   2.066   8.285
 2890TIP3    H230230   0.712   1.929   8.321
 2891TIP3   OH230231   0.540   5.365   0.757
 2891TIP3    H130232   0.568   5.411   0.835
 2891TIP3    H230233   0.456   5.326   0.780
 2892TIP3   OH230234   6.011   5.275   0.996
 2892TIP3    H130235   5.970   5.194   1.025
 2892TIP3    H230236   6.052   5.253   0.912
 2893TIP3   OH230237   1.622   4.356   6.891
 2893TIP3    H130238   1.625   4.387   6.981
 2893TIP3    H230239   1.700   4.301   6.882
 2894TIP3   OH230240   4.467   6.198   8.065
 2894TIP3    H130241   4.478   6.173   7.973
 2894TIP3    H230242   4.398   6.140   8.098
 2895TIP3   OH230243   4.339   3.206   0.634
 2895TIP3    H130244   4.327   3.123   0.680
 2895TIP3    H230245   4.432   3.209   0.615
 2896TIP3   OH230246   3.747   1.584   0.927
 2896TIP3    H130247   3.826   1.563   0.977
 2896TIP3    H230248   3.675   1.569   0.989
 2897TIP3   OH230249   3.641   0.578   0.545
 2897TIP3    H130250   3.657   0.551   0.635
 2897TIP3    H230251   3.578   0.515   0.511
 2898TIP3   OH230252   2.865   6.378   0.012
 2898TIP3    H130253   2.844   6.431   8.810
 2898TIP3    H230254   2.812   6.298   0.001
 2899TIP3   OH230255   1.056   3.482   0.950
 2899TIP3    H130256   1.135   3.516   0.909
 2899TIP3    H230257   1.086   3.444   1.032
 2900TIP3   OH230258   5.888   3.532   8.180
 2900TIP3    H130259   5.813   3.591   8.188
 2900TIP3    H230260   5.849   3.445   8.168
 2901TIP3   OH230261   3.023   6.268   1.595
 2901TIP3    H130262   2.928   6.255   1.593
 2901TIP3    H230263   3.041   6.299   1.684
 2902TIP3   OH230264   2.891   4.880   6.977
 2902TIP3    H130265   2.939   4.894   6.895
 2902TIP3    H230266   2.939   4.810   7.021
 2903TIP3   OH230267   5.115   0.705   7.191
 2903TIP3    H130268   5.135   0.647   7.264
 2903TIP3    H230269   5.020   0.708   7.187
 2904TIP3   OH230270   0.025   6.190   1.346
 2904TIP3    H130271   6.777   6.257   1.398
 2904TIP3    H230272   6.778   6.109   1.370
 2905TIP3   OH230273   1.867   1.134   2.215
 2905TIP3    H130274   1.780   1.139   2.176
 2905TIP3    H230275   1.868   1.049   2.260
 2906TIP3   OH230276   1.567   4.638   7.662
 2906TIP3    H130277   1.534   4.573   7.599
 2906TIP3    H230278   1.585   4.587   7.741
 2907TIP3   OH230279   4.053   5.171   8.740
 2907TIP3    H130280   3.988   5.240   8.726
 2907TIP3    H230281   4.020   5.121   8.815
 2908TIP3   OH230282   1.333   1.336   1.523
 2908TIP3    H130283   1.338   1.367   1.433
 2908TIP3    H230284   1.359   1.411   1.576
 2909TIP3   OH230285   4.000   5.150   0.263
 2909TIP3    H130286   3.944   5.123   0.335
 2909TIP3    H230287   3.944   5.147   0.186
 2910TIP3   OH230288   5.378   3.148   7.891
 2910TIP3    H130289   5.341   3.067   7.855
 2910TIP3    H230290   5.333   3.160   7.974
 2911TIP3   OH230291   3.017   2.874   7.813
 2911TIP3    H130292   3.066   2.901   7.891
 2911TIP3    H230293   2.968   2.951   7.787
 2912TIP3   OH230294   3.633   2.921   6.365
 2912TIP3    H130295   3.576   2.886   6.433
 2912TIP3    H230296   3.608   3.013   6.358
 2913TIP3   OH230297   2.085   6.199   8.108
 2913TIP3    H130298   2.014   6.260   8.128
 2913TIP3    H230299   2.041   6.116   8.087
 2914TIP3   OH230300   4.897   6.729   6.387
 2914TIP3    H130301   4.973   6.784   6.365
 2914TIP3    H230302   4.828   6.759   6.328
 2915TIP3   OH230303   4.684   2.334   0.456
 2915TIP3    H130304   4.594   2.338   0.490
 2915TIP3    H230305   4.730   2.279   0.519
 2916TIP3   OH230306   6.021   6.580   8.093
 2916TIP3    H130307   6.057   6.628   8.018
 2916TIP3    H230308   6.098   6.551   8.142
 2917TIP3   OH230309   4.669   5.146   0.485
 2917TIP3    H130310   4.607   5.219   0.489
 2917TIP3    H230311   4.751   5.182   0.519
 2918TIP3   OH230312   2.069   3.044   1.707
 2918TIP3    H130313   2.158   3.061   1.736
 2918TIP3    H230314   2.075   2.961   1.659
 2919TIP3   OH230315   6.600   1.010   1.046
 2919TIP3    H130316   6.647   1.087   1.016
 2919TIP3    H230317   6.595   0.953   0.969
 2920TIP3   OH230318   3.668   0.736   6.995
 2920TIP3    H130319   3.716   0.660   7.028
 2920TIP3    H230320   3.579   0.703   6.980
 2921TIP3   OH230321   5.973   3.756   0.587
 2921TIP3    H130322   5.927   3.817   0.645
 2921TIP3    H230323   5.938   3.670   0.610
 2922TIP3   OH230324   6.023   4.842   1.527
 2922TIP3    H130325   5.980   4.873   1.606
 2922TIP3    H230326   6.022   4.747   1.535
 2923TIP3   OH230327   3.223   0.124   0.882
 2923TIP3    H130328   3.143   0.073   0.876
 2923TIP3    H230329   3.261   0.121   0.794
 2924TIP3   OH230330   3.056   5.716   2.068
 2924TIP3    H130331   3.089   5.778   2.133
 2924TIP3    H230332   3.036   5.636   2.118
 2925TIP3   OH230333   0.918   4.878   8.569
 2925TIP3    H130334   0.860   4.903   8.498
 2925TIP3    H230335   0.904   4.784   8.581
 2926TIP3   OH230336   1.195   5.036   6.630
 2926TIP3    H130337   1.166   4.946   6.643
 2926TIP3    H230338   1.290   5.033   6.646
 2927TIP3   OH230339   6.022   2.618   1.344
 2927TIP3    H130340   6.030   2.676   1.419
 2927TIP3    H230341   6.109   2.618   1.304
 2928TIP3   OH230342   2.326   5.486   7.746
 2928TIP3    H130343   2.399   5.547   7.737
 2928TIP3    H230344   2.262   5.533   7.800
 2929TIP3   OH230345   3.144   3.017   2.394
 2929TIP3    H130346   3.057   3.053   2.377
 2929TIP3    H230347   3.144   2.999   2.488
 2930TIP3   OH230348   1.986   6.458   8.204
 2930TIP3    H130349   2.031   6.539   8.181
 2930TIP3    H230350   1.971   6.464   8.298
 2931TIP3   OH230351   0.418   5.367   8.158
 2931TIP3    H130352   0.445   5.443   8.209
 2931TIP3    H230353   0.401   5.299   8.223
 2932TIP3   OH230354   3.861   3.757   1.562
 2932TIP3    H130355   3.952   3.784   1.552
 2932TIP3    H230356   3.863   3.662   1.552
 2933TIP3   OH230357   2.753   3.346   1.145
 2933TIP3    H130358   2.798   3.406   1.085
 2933TIP3    H230359   2.704   3.404   1.204
 2934TIP3   OH230360   2.560   4.306   1.351
 2934TIP3    H130361   2.616   4.336   1.279
 2934TIP3    H230362   2.607   4.332   1.430
 2935TIP3   OH230363   4.056   0.568   6.456
 2935TIP3    H130364   4.084   0.630   6.389
 2935TIP3    H230365   4.016   0.496   6.406
 2936TIP3   OH230366   1.528   5.701   7.431
 2936TIP3    H130367   1.485   5.617   7.411
 2936TIP3    H230368   1.621   5.682   7.422
 2937TIP3   OH230369   3.240   3.729   6.437
 2937TIP3    H130370   3.239   3.684   6.521
 2937TIP3    H230371   3.198   3.668   6.376
 2938TIP3   OH230372   1.237   5.240   0.137
 2938TIP3    H130373   1.313   5.188   0.163
 2938TIP3    H230374   1.270   5.330   0.132
 2939TIP3   OH230375   0.568   5.825   7.991
 2939TIP3    H130376   0.592   5.884   7.920
 2939TIP3    H230377   0.652   5.791   8.023
 2940TIP3   OH230378   0.568   5.357   1.113
 2940TIP3    H130379   0.483   5.399   1.103
 2940TIP3    H230380   0.631   5.419   1.078
 2941TIP3   OH230381   5.876   6.699   1.882
 2941TIP3    H130382   5.941   6.633   1.859
 2941TIP3    H230383   5.839   6.728   1.799
 2942TIP3   OH230384   4.265   1.603   2.533
 2942TIP3    H130385   4.312   1.547   2.595
 2942TIP3    H230386   4.189   1.634   2.581
 2943TIP3   OH230387   4.219   3.466   1.519
 2943TIP3    H130388   4.312   3.477   1.499
 2943TIP3    H230389   4.215   3.386   1.572
 2944TIP3   OH230390   0.593   4.049   2.119
 2944TIP3    H130391   0.546   4.003   2.188
 2944TIP3    H230392   0.578   3.996   2.040
 2945TIP3   OH230393   3.460   0.147   7.490
 2945TIP3    H130394   3.536   0.204   7.492
 2945TIP3    H230395   3.476   0.087   7.417
 2946TIP3   OH230396   5.336   6.063   8.675
 2946TIP3    H130397   5.287   6.128   8.626
 2946TIP3    H230398   5.273   5.993   8.692
 2947TIP3   OH230399   2.855   1.985   7.141
 2947TIP3    H130400   2.780   2.034   7.173
 2947TIP3    H230401   2.892   1.943   7.219
 2948TIP3   OH230402   1.674   4.565   7.894
 2948TIP3    H130403   1.763   4.595   7.876
 2948TIP3    H230404   1.684   4.496   7.960
 2949TIP3   OH230405   4.345   0.438   8.584
 2949TIP3    H130406   4.311   0.455   8.496
 2949TIP3    H230407   4.440   0.441   8.574
 2950TIP3   OH230408   6.287   6.489   8.293
 2950TIP3    H130409   6.362   6.471   8.348
 2950TIP3    H230410   6.233   6.550   8.344
 2951TIP3   OH230411   0.662   1.558   8.837
 2951TIP3    H130412   0.691   1.551   8.746
 2951TIP3    H230413   0.684   1.648   8.862
 2952TIP3   OH230414   3.538   4.787   2.410
 2952TIP3    H130415   3.453   4.811   2.371
 2952TIP3    H230416   3.575   4.723   2.349
 2953TIP3   OH230417   3.520   5.854   7.989
 2953TIP3    H130418   3.575   5.922   7.949
 2953TIP3    H230419   3.575   5.818   8.058
 2954TIP3   OH230420   5.664   2.167   7.270
 2954TIP3    H130421   5.619   2.123   7.197
 2954TIP3    H230422   5.642   2.114   7.347
 2955TIP3   OH230423   3.664   5.423   1.817
 2955TIP3    H130424   3.701   5.340   1.848
 2955TIP3    H230425   3.692   5.429   1.726
 2956TIP3   OH230426   2.615   0.977   0.731
 2956TIP3    H130427   2.668   1.041   0.778
 2956TIP3    H230428   2.660   0.965   0.648
 2957TIP3   OH230429   2.981   5.793   7.573
 2957TIP3    H130430   3.008   5.707   7.603
 2957TIP3    H230431   3.057   5.828   7.527
 2958TIP3   OH230432   5.235   5.369   6.974
 2958TIP3    H130433   5.311   5.428   6.971
 2958TIP3    H230434   5.271   5.285   7.002
 2959TIP3   OH230435   1.136   6.145   1.039
 2959TIP3    H130436   1.157   6.117   0.950
 2959TIP3    H230437   1.060   6.202   1.029
 2960TIP3   OH230438   2.653   0.301   1.357
 2960TIP3    H130439   2.738   0.263   1.381
 2960TIP3    H230440   2.669   0.346   1.273
 2961TIP3   OH230441   1.765   2.949   1.359
 2961TIP3    H130442   1.724   2.949   1.273
 2961TIP3    H230443   1.755   3.039   1.390
 2962TIP3   OH230444   3.994   1.703   0.354
 2962TIP3    H130445   3.996   1.702   0.450
 2962TIP3    H230446   3.950   1.785   0.331
 2963TIP3   OH230447   5.860   5.074   1.457
 2963TIP3    H130448   5.770   5.052   1.432
 2963TIP3    H230449   5.901   4.989   1.474
 2964TIP3   OH230450   2.428   3.306   1.308
 2964TIP3    H130451   2.387   3.358   1.239
 2964TIP3    H230452   2.509   3.353   1.329
 2965TIP3   OH230453   0.694   4.220   8.692
 2965TIP3    H130454   0.733   4.233   8.605
 2965TIP3    H230455   0.645   4.138   8.685
 2966TIP3   OH230456   1.172   3.748   8.394
 2966TIP3    H130457   1.248   3.785   8.348
 2966TIP3    H230458   1.101   3.754   8.330
 2967TIP3   OH230459   0.445   0.738   6.906
 2967TIP3    H130460   0.396   0.746   6.987
 2967TIP3    H230461   0.385   0.694   6.846
 2968TIP3   OH230462   5.455   6.366   7.859
 2968TIP3    H130463   5.390   6.353   7.791
 2968TIP3    H230464   5.505   6.284   7.861
 2969TIP3   OH230465   5.243   2.820   1.765
 2969TIP3    H130466   5.311   2.822   1.698
 2969TIP3    H230467   5.281   2.767   1.835
 2970TIP3   OH230468   2.033   6.302   1.168
 2970TIP3    H130469   1.968   6.297   1.239
 2970TIP3    H230470   1.988   6.267   1.091
 2971TIP3   OH230471   6.544   5.791   0.392
 2971TIP3    H130472   6.551   5.704   0.353
 2971TIP3    H230473   6.450   5.811   0.391
 2972TIP3   OH230474   4.867   0.636   0.164
 2972TIP3    H130475   4.927   0.574   0.205
 2972TIP3    H230476   4.799   0.651   0.229
 2973TIP3   OH230477   1.203   2.766   7.889
 2973TIP3    H130478   1.264   2.818   7.943
 2973TIP3    H230479   1.257   2.732   7.818
 2974TIP3   OH230480   2.052   4.835   1.316
 2974TIP3    H130481   1.997   4.820   1.393
 2974TIP3    H230482   2.116   4.900   1.346
 2975TIP3   OH230483   0.182   0.852   1.320
 2975TIP3    H130484   0.164   0.887   1.408
 2975TIP3    H230485   0.232   0.772   1.336
 2976TIP3   OH230486   5.939   6.543   7.775
 2976TIP3    H130487   6.031   6.525   7.793
 2976TIP3    H230488   5.939   6.630   7.735
 2977TIP3   OH230489   2.860   0.918   8.059
 2977TIP3    H130490   2.835   0.942   8.148
 2977TIP3    H230491   2.804   0.843   8.038
 2978TIP3   OH230492   4.773   5.558   7.651
 2978TIP3    H130493   4.803   5.498   7.583
 2978TIP3    H230494   4.728   5.503   7.714
 2979TIP3   OH230495   2.297   4.029   6.981
 2979TIP3    H130496   2.288   3.953   7.040
 2979TIP3    H230497   2.258   4.102   7.029
 2980TIP3   OH230498   0.345   1.485   0.354
 2980TIP3    H130499   0.396   1.413   0.392
 2980TIP3    H230500   0.345   1.552   0.421
 2981TIP3   OH230501   3.200   1.418   8.002
 2981TIP3    H130502   3.134   1.377   8.058
 2981TIP3    H230503   3.229   1.348   7.944
 2982TIP3   OH230504   1.571   3.535   6.335
 2982TIP3    H130505   1.563   3.487   6.418
 2982TIP3    H230506   1.614   3.474   6.276
 2983TIP3   OH230507   3.017   2.837   2.855
 2983TIP3    H130508   3.080   2.766   2.868
 2983TIP3    H230509   3.057   2.894   2.790
 2984TIP3   OH230510   5.438   1.225   0.388
 2984TIP3    H130511   5.416   1.153   0.447
 2984TIP3    H230512   5.511   1.192   0.336
 2985TIP3   OH230513   1.018   5.854   8.704
 2985TIP3    H130514   1.016   5.787   8.772
 2985TIP3    H230515   0.949   5.829   8.643
 2986TIP3   OH230516   5.728   1.232   8.835
 2986TIP3    H130517   5.739   1.269   8.747
 2986TIP3    H230518   5.722   1.137   8.820
 2987TIP3   OH230519   0.095   2.523   0.299
 2987TIP3    H130520   0.170   2.479   0.339
 2987TIP3    H230521   0.112   2.616   0.313
 2988TIP3   OH230522   6.532   4.168   8.554
 2988TIP3    H130523   6.542   4.079   8.588
 2988TIP3    H230524   6.618   4.190   8.519
 2989TIP3   OH230525   3.746   4.208   6.792
 2989TIP3    H130526   3.680   4.267   6.757
 2989TIP3    H230527   3.816   4.208   6.726
 2990TIP3   OH230528   2.418   1.946   2.203
 2990TIP3    H130529   2.434   1.862   2.246
 2990TIP3    H230530   2.435   2.011   2.271
 2991TIP3   OH230531   3.157   5.816   2.518
 2991TIP3    H130532   3.079   5.866   2.495
 2991TIP3    H230533   3.126   5.727   2.533
 2992TIP3   OH230534   4.934   0.233   7.178
 2992TIP3    H130535   4.854   0.285   7.176
 2992TIP3    H230536   5.005   0.296   7.168
 2993TIP3   OH230537   0.642   0.983   8.108
 2993TIP3    H130538   0.725   0.998   8.062
 2993TIP3    H230539   0.575   0.992   8.040
 2994TIP3   OH230540   5.865   3.860   7.768
 2994TIP3    H130541   5.819   3.914   7.831
 2994TIP3    H230542   5.808   3.858   7.691
 2995TIP3   OH230543   0.108   1.038   0.845
 2995TIP3    H130544   0.074   0.950   0.862
 2995TIP3    H230545   0.104   1.081   0.931
 2996TIP3   OH230546   1.855   1.941   7.733
 2996TIP3    H130547   1.869   1.973   7.643
 2996TIP3    H230548   1.805   1.860   7.722
 2997TIP3   OH230549   4.157   5.317   1.834
 2997TIP3    H130550   4.129   5.233   1.798
 2997TIP3    H230551   4.079   5.353   1.876
 2998TIP3   OH230552   1.229   1.605   7.590
 2998TIP3    H130553   1.210   1.612   7.497
 2998TIP3    H230554   1.148   1.574   7.629
 2999TIP3   OH230555   1.114   5.534   0.738
 2999TIP3    H130556   1.164   5.520   0.819
 2999TIP3    H230557   1.153   5.611   0.698
 3000TIP3   OH230558   2.668   4.775   2.498
 3000TIP3    H130559   2.690   4.689   2.462
 3000TIP3    H230560   2.594   4.758   2.556
 3001TIP3   OH230561   1.658   4.641   1.434
 3001TIP3    H130562   1.680   4.629   1.341
 3001TIP3    H230563   1.570   4.678   1.433
 3002TIP3   OH230564   0.038   1.041   0.375
 3002TIP3    H130565   0.069   0.952   0.389
 3002TIP3    H230566   0.010   1.071   0.462
 3003TIP3   OH230567   6.093   1.851   6.328
 3003TIP3    H130568   6.136   1.832   6.245
 3003TIP3    H230569   6.163   1.844   6.394
 3004TIP3   OH230570   2.072   4.063   8.005
 3004TIP3    H130571   2.020   4.103   7.935
 3004TIP3    H230572   2.018   4.071   8.083
 3005TIP3   OH230573   1.963   4.815   8.110
 3005TIP3    H130574   1.993   4.727   8.134
 3005TIP3    H230575   1.909   4.801   8.032
 3006TIP3   OH230576   4.482   5.297   6.324
 3006TIP3    H130577   4.520   5.337   6.246
 3006TIP3    H230578   4.448   5.370   6.375
 3007TIP3   OH230579   6.345   2.049   8.250
 3007TIP3    H130580   6.300   1.986   8.194
 3007TIP3    H230581   6.307   2.133   8.226
 3008TIP3   OH230582   5.912   0.930   0.909
 3008TIP3    H130583   6.001   0.956   0.883
 3008TIP3    H230584   5.856   0.970   0.842
 3009TIP3   OH230585   4.936   4.227   8.060
 3009TIP3    H130586   4.854   4.210   8.105
 3009TIP3    H230587   4.919   4.203   7.969
 3010TIP3   OH230588   0.392   2.647   8.778
 3010TIP3    H130589   0.451   2.646   8.703
 3010TIP3    H230590   0.446   2.622   8.852
 3011TIP3   OH230591   2.904   4.301   2.587
 3011TIP3    H130592   2.911   4.255   2.504
 3011TIP3    H230593   2.994   4.312   2.617
 3012TIP3   OH230594   0.395   4.939   8.290
 3012TIP3    H130595   0.436   4.982   8.215
 3012TIP3    H230596   0.370   4.853   8.258
 3013TIP3   OH230597   2.431   5.840   1.388
 3013TIP3    H130598   2.384   5.785   1.325
 3013TIP3    H230599   2.449   5.781   1.461
 3014TIP3   OH230600   5.015   2.178   6.969
 3014TIP3    H130601   4.987   2.117   7.037
 3014TIP3    H230602   4.987   2.264   7.001
 3015TIP3   OH230603   3.459   3.160   0.168
 3015TIP3    H130604   3.515   3.169   0.091
 3015TIP3    H230605   3.451   3.065   0.180
 3016TIP3   OH230606   2.542   4.983   2.013
 3016TIP3    H130607   2.615   4.986   2.075
 3016TIP3    H230608   2.465   5.003   2.067
 3017TIP3   OH230609   0.497   0.759   1.333
 3017TIP3    H130610   0.535   0.679   1.370
 3017TIP3    H230611   0.562   0.789   1.269
 3018TIP3   OH230612   5.217   5.897   1.571
 3018TIP3    H130613   5.311   5.910   1.581
 3018TIP3    H230614   5.178   5.981   1.595
 3019TIP3   OH230615   3.707   5.627   2.076
 3019TIP3    H130616   3.700   5.669   2.162
 3019TIP3    H230617   3.799   5.640   2.051
 3020TIP3   OH230618   0.566   3.404   6.239
 3020TIP3    H130619   0.612   3.319   6.230
 3020TIP3    H230620   0.616   3.451   6.305
 3021TIP3   OH230621   2.462   2.369   1.076
 3021TIP3    H130622   2.551   2.388   1.047
 3021TIP3    H230623   2.451   2.275   1.063
 3022TIP3   OH230624   1.022   3.127   8.622
 3022TIP3    H130625   0.954   3.069   8.655
 3022TIP3    H230626   1.093   3.120   8.685
 3023TIP3   OH230627   4.471   2.946   8.514
 3023TIP3    H130628   4.499   2.927   8.424
 3023TIP3    H230629   4.552   2.951   8.564
 3024TIP3   OH230630   1.575   0.605   0.171
 3024TIP3    H130631   1.551   0.606   0.078
 3024TIP3    H230632   1.498   0.571   0.216
 3025TIP3   OH230633   3.173   1.976   8.247
 3025TIP3    H130634   3.127   2.060   8.251
 3025TIP3    H230635   3.105   1.911   8.261
 3026TIP3   OH230636   1.043   1.301   1.298
 3026TIP3    H130637   1.135   1.321   1.319
 3026TIP3    H230638   0.993   1.348   1.364
 3027TIP3   OH230639   6.567   0.517   1.510
 3027TIP3    H130640   6.611   0.434   1.526
 3027TIP3    H230641   6.612   0.580   1.567
 3028TIP3   OH230642   6.660   6.426   0.475
 3028TIP3    H130643   6.737   6.470   0.511
 3028TIP3    H230644   6.696   6.355   0.422
 3029TIP3   OH230645   0.667   6.786   8.369
 3029TIP3    H130646   0.721   0.068   8.383
 3029TIP3    H230647   0.660   6.746   8.456
 3030TIP3   OH230648   1.416   3.012   1.330
 3030TIP3    H130649   1.460   3.088   1.367
 3030TIP3    H230650   1.457   2.937   1.371
 3031TIP3   OH230651   3.161   0.439   7.939
 3031TIP3    H130652   3.113   0.433   8.021
 3031TIP3    H230653   3.249   0.406   7.959
 3032TIP3   OH230654   3.707   2.104   1.306
 3032TIP3    H130655   3.721   2.158   1.384
 3032TIP3    H230656   3.785   2.119   1.253
 3033TIP3   OH230657   0.174   5.521   2.087
 3033TIP3    H130658   0.150   5.438   2.128
 3033TIP3    H230659   0.247   5.553   2.140
 3034TIP3   OH230660   5.518   4.388   0.808
 3034TIP3    H130661   5.514   4.414   0.716
 3034TIP3    H230662   5.576   4.453   0.849
 3035TIP3   OH230663   5.314   1.954   1.392
 3035TIP3    H130664   5.275   1.929   1.476
 3035TIP3    H230665   5.275   1.894   1.329
 3036TIP3   OH230666   3.702   6.741   8.446
 3036TIP3    H130667   3.678   6.698   8.528
 3036TIP3    H230668   3.773   0.004   8.469
 3037TIP3   OH230669   3.768   5.712   8.316
 3037TIP3    H130670   3.798   5.634   8.270
 3037TIP3    H230671   3.847   5.749   8.355
 3038TIP3   OH230672   4.322   6.262   2.629
 3038TIP3    H130673   4.231   6.233   2.628
 3038TIP3    H230674   4.360   6.216   2.704
 3039TIP3   OH230675   3.386   3.944   0.738
 3039TIP3    H130676   3.313   3.985   0.691
 3039TIP3    H230677   3.451   3.925   0.671
 3040TIP3   OH230678   2.524   5.052   0.661
 3040TIP3    H130679   2.585   5.109   0.614
 3040TIP3    H230680   2.454   5.110   0.689
 3041TIP3   OH230681   5.013   0.460   1.938
 3041TIP3    H130682   5.066   0.397   1.985
 3041TIP3    H230683   5.073   0.532   1.918
 3042TIP3   OH230684   2.389   1.261   1.829
 3042TIP3    H130685   2.435   1.307   1.758
 3042TIP3    H230686   2.455   1.249   1.897
 3043TIP3   OH230687   2.033   5.253   1.212
 3043TIP3    H130688   2.040   5.344   1.186
 3043TIP3    H230689   1.971   5.253   1.285
 3044TIP3   OH230690   5.851   0.215   1.316
 3044TIP3    H130691   5.767   0.239   1.276
 3044TIP3    H230692   5.917   0.247   1.256
 3045TIP3   OH230693   2.758   2.357   7.542
 3045TIP3    H130694   2.806   2.326   7.619
 3045TIP3    H230695   2.674   2.386   7.576
 3046TIP3   OH230696   3.061   5.382   6.980
 3046TIP3    H130697   2.993   5.315   6.987
 3046TIP3    H230698   3.054   5.432   7.061
 3047TIP3   OH230699   0.903   5.036   8.816
 3047TIP3    H130700   0.912   4.979   8.739
 3047TIP3    H230701   0.975   5.009   8.874
 3048TIP3   OH230702   0.416   3.068   1.251
 3048TIP3    H130703   0.344   3.112   1.207
 3048TIP3    H230704   0.453   3.134   1.309
 3049TIP3   OH230705   2.696   1.356   8.541
 3049TIP3    H130706   2.753   1.334   8.614
 3049TIP3    H230707   2.676   1.272   8.500
 3050TIP3   OH230708   1.770   2.573   2.264
 3050TIP3    H130709   1.779   2.504   2.329
 3050TIP3    H230710   1.856   2.577   2.221
 3051TIP3   OH230711   5.385   2.062   0.451
 3051TIP3    H130712   5.363   2.064   0.358
 3051TIP3    H230713   5.304   2.035   0.495
 3052TIP3   OH230714   5.486   1.800   7.911
 3052TIP3    H130715   5.572   1.839   7.896
 3052TIP3    H230716   5.424   1.871   7.894
 3053TIP3   OH230717   0.971   4.911   2.806
 3053TIP3    H130718   1.017   4.853   2.745
 3053TIP3    H230719   0.927   4.974   2.749
 3054TIP3   OH230720   6.163   6.016   2.029
 3054TIP3    H130721   6.161   5.994   1.936
 3054TIP3    H230722   6.080   6.062   2.044
 3055TIP3   OH230723   0.675   5.111   8.606
 3055TIP3    H130724   0.621   5.177   8.562
 3055TIP3    H230725   0.713   5.060   8.535
 3056TIP3   OH230726   3.227   3.035   7.292
 3056TIP3    H130727   3.185   3.107   7.245
 3056TIP3    H230728   3.297   3.006   7.233
 3057TIP3   OH230729   4.913   1.898   0.788
 3057TIP3    H130730   4.842   1.840   0.816
 3057TIP3    H230731   4.974   1.841   0.741
 3058TIP3   OH230732   3.741   3.010   0.608
 3058TIP3    H130733   3.757   2.953   0.683
 3058TIP3    H230734   3.811   3.076   0.612
 3059TIP3   OH230735   2.998   6.260   1.875
 3059TIP3    H130736   2.935   6.319   1.916
 3059TIP3    H230737   3.082   6.281   1.916
 3060TIP3   OH230738   4.416   5.329   5.955
 3060TIP3    H130739   4.410   5.404   6.015
 3060TIP3    H230740   4.479   5.270   5.997
 3061TIP3   OH230741   5.150   0.276   8.515
 3061TIP3    H130742   5.231   0.244   8.555
 3061TIP3    H230743   5.097   0.197   8.502
 3062TIP3   OH230744   4.337   4.137   1.319
 3062TIP3    H130745   4.375   4.054   1.290
 3062TIP3    H230746   4.243   4.119   1.327
 3063TIP3   OH230747   2.706   6.145   8.854
 3063TIP3    H130748   2.644   6.212   8.824
 3063TIP3    H230749   2.656   6.090   0.039
 3064TIP3   OH230750   3.032   4.623   8.084
 3064TIP3    H130751   3.083   4.553   8.044
 3064TIP3    H230752   3.084   4.650   8.160
 3065TIP3   OH230753   5.939   2.179   1.824
 3065TIP3    H130754   6.024   2.174   1.780
 3065TIP3    H230755   5.889   2.241   1.770
 3066TIP3   OH230756   4.021   3.871   8.334
 3066TIP3    H130757   4.072   3.861   8.254
 3066TIP3    H230758   4.079   3.843   8.404
 3067TIP3   OH230759   3.272   5.227   7.600
 3067TIP3    H130760   3.191   5.176   7.598
 3067TIP3    H230761   3.251   5.302   7.656
 3068TIP3   OH230762   1.605   0.696   8.285
 3068TIP3    H130763   1.599   0.788   8.261
 3068TIP3    H230764   1.519   0.659   8.262
 3069TIP3   OH230765   3.915   1.401   0.686
 3069TIP3    H130766   3.940   1.430   0.774
 3069TIP3    H230767   3.831   1.444   0.671
 3070TIP3   OH230768   6.643   4.511   2.012
 3070TIP3    H130769   6.584   4.446   1.974
 3070TIP3    H230770   6.651   4.486   2.104
 3071TIP3   OH230771   0.841   1.752   8.322
 3071TIP3    H130772   0.793   1.729   8.242
 3071TIP3    H230773   0.927   1.781   8.291
 3072TIP3   OH230774   6.626   3.436   7.589
 3072TIP3    H130775   6.701   3.496   7.593
 3072TIP3    H230776   6.550   3.493   7.587
 3073TIP3   OH230777   4.850   3.751   1.284
 3073TIP3    H130778   4.933   3.796   1.299
 3073TIP3    H230779   4.873   3.659   1.280
 3074TIP3   OH230780   6.326   2.036   1.670
 3074TIP3    H130781   6.302   1.947   1.697
 3074TIP3    H230782   6.246   2.071   1.631
 3075TIP3   OH230783   5.021   2.704   0.814
 3075TIP3    H130784   5.006   2.712   0.909
 3075TIP3    H230785   5.076   2.780   0.793
 3076TIP3   OH230786   3.438   4.434   7.321
 3076TIP3    H130787   3.367   4.498   7.328
 3076TIP3    H230788   3.486   4.460   7.243
 3077TIP3   OH230789   2.755   4.663   2.082
 3077TIP3    H130790   2.849   4.668   2.064
 3077TIP3    H230791   2.744   4.583   2.133
 3078TIP3   OH230792   0.348   5.152   1.407
 3078TIP3    H130793   0.352   5.223   1.471
 3078TIP3    H230794   0.434   5.152   1.365
 3079TIP3   OH230795   0.300   3.237   7.406
 3079TIP3    H130796   0.231   3.187   7.362
 3079TIP3    H230797   0.326   3.182   7.480
 3080TIP3   OH230798   4.041   5.341   6.930
 3080TIP3    H130799   4.119   5.393   6.948
 3080TIP3    H230800   4.043   5.328   6.835
 3081TIP3   OH230801   5.053   3.761   8.508
 3081TIP3    H130802   5.015   3.834   8.556
 3081TIP3    H230803   5.148   3.776   8.513
 3082TIP3   OH230804   3.422   1.450   0.478
 3082TIP3    H130805   3.373   1.384   0.430
 3082TIP3    H230806   3.370   1.465   0.558
 3083TIP3   OH230807   5.377   4.050   8.522
 3083TIP3    H130808   5.371   4.142   8.545
 3083TIP3    H230809   5.394   4.050   8.427
 3084TIP3   OH230810   6.204   2.226   8.069
 3084TIP3    H130811   6.109   2.227   8.060
 3084TIP3    H230812   6.232   2.316   8.053
 3085TIP3   OH230813   0.219   3.001   8.073
 3085TIP3    H130814   0.247   3.024   7.984
 3085TIP3    H230815   0.299   2.974   8.118
 3086TIP3   OH230816   5.042   3.404   8.180
 3086TIP3    H130817   5.002   3.374   8.262
 3086TIP3    H230818   4.982   3.373   8.112
 3087TIP3   OH230819   4.103   1.418   1.414
 3087TIP3    H130820   4.082   1.503   1.452
 3087TIP3    H230821   4.033   1.403   1.350
 3088TIP3   OH230822   3.934   4.795   8.314
 3088TIP3    H130823   3.846   4.811   8.350
 3088TIP3    H230824   3.983   4.875   8.333
 3089TIP3   OH230825   6.592   3.461   0.528
 3089TIP3    H130826   6.534   3.506   0.467
 3089TIP3    H230827   6.533   3.422   0.593
 3090TIP3   OH230828   1.586   5.846   7.182
 3090TIP3    H130829   1.656   5.828   7.244
 3090TIP3    H230830   1.624   5.829   7.096
 3091TIP3   OH230831   0.489   0.466   8.510
 3091TIP3    H130832   0.448   0.552   8.517
 3091TIP3    H230833   0.572   0.482   8.465
 3092TIP3   OH230834   5.364   6.547   1.670
 3092TIP3    H130835   5.448   6.563   1.713
 3092TIP3    H230836   5.386   6.489   1.597
 3093TIP3   OH230837   5.220   3.504   1.310
 3093TIP3    H130838   5.229   3.599   1.306
 3093TIP3    H230839   5.133   3.486   1.274
 3094TIP3   OH230840   3.191   1.922   7.852
 3094TIP3    H130841   3.186   1.866   7.774
 3094TIP3    H230842   3.197   1.860   7.925
 3095TIP3   OH230843   3.845   5.044   6.453
 3095TIP3    H130844   3.897   4.965   6.435
 3095TIP3    H230845   3.904   5.116   6.431
 3096TIP3   OH230846   1.318   5.790   7.185
 3096TIP3    H130847   1.412   5.800   7.200
 3096TIP3    H230848   1.304   5.696   7.178
 3097TIP3   OH230849   5.666   6.169   7.796
 3097TIP3    H130850   5.646   6.104   7.863
 3097TIP3    H230851   5.684   6.118   7.717
 3098TIP3   OH230852   5.780   1.326   8.577
 3098TIP3    H130853   5.862   1.329   8.527
 3098TIP3    H230854   5.712   1.312   8.511
 3099TIP3   OH230855   4.441   0.329   7.765
 3099TIP3    H130856   4.356   0.364   7.793
 3099TIP3    H230857   4.424   0.237   7.749
 3100TIP3   OH230858   4.596   1.952   0.723
 3100TIP3    H130859   4.617   1.885   0.789
 3100TIP3    H230860   4.584   1.903   0.642
 3101TIP3   OH230861   3.212   2.375   0.470
 3101TIP3    H130862   3.273   2.340   0.535
 3101TIP3    H230863   3.128   2.334   0.492
 3102TIP3   OH230864   4.037   0.436   6.810
 3102TIP3    H130865   4.063   0.394   6.892
 3102TIP3    H230866   3.942   0.428   6.807
 3103TIP3   OH230867   5.727   4.393   2.504
 3103TIP3    H130868   5.755   4.483   2.492
 3103TIP3    H230869   5.663   4.397   2.575
 3104TIP3   OH230870   5.129   1.029   1.206
 3104TIP3    H130871   5.193   1.078   1.257
 3104TIP3    H230872   5.175   1.006   1.125
 3105TIP3   OH230873   5.460   0.515   1.305
 3105TIP3    H130874   5.424   0.522   1.394
 3105TIP3    H230875   5.555   0.520   1.317
 3106TIP3   OH230876   0.666   6.616   1.121
 3106TIP3    H130877   0.720   6.671   1.064
 3106TIP3    H230878   0.726   6.549   1.153
 3107TIP3   OH230879   2.520   2.875   2.189
 3107TIP3    H130880   2.507   2.928   2.111
 3107TIP3    H230881   2.544   2.939   2.257
 3108TIP3   OH230882   4.717   1.365   7.033
 3108TIP3    H130883   4.751   1.383   7.121
 3108TIP3    H230884   4.752   1.435   6.979
 3109TIP3   OH230885   3.813   1.995   8.093
 3109TIP3    H130886   3.838   2.038   8.175
 3109TIP3    H230887   3.742   2.050   8.059
 3110TIP3   OH230888   5.960   6.155   1.113
 3110TIP3    H130889   5.972   6.208   1.034
 3110TIP3    H230890   5.937   6.219   1.180
 3111TIP3   OH230891   0.777   0.773   2.002
 3111TIP3    H130892   0.857   0.754   2.051
 3111TIP3    H230893   0.715   0.804   2.069
 3112TIP3   OH230894   4.411   0.068   2.116
 3112TIP3    H130895   4.397   0.051   2.209
 3112TIP3    H230896   4.437   0.160   2.112
 3113TIP3   OH230897   0.781   5.707   2.033
 3113TIP3    H130898   0.691   5.727   2.059
 3113TIP3    H230899   0.814   5.652   2.104
 3114TIP3   OH230900   1.761   2.272   1.115
 3114TIP3    H130901   1.803   2.201   1.067
 3114TIP3    H230902   1.770   2.248   1.207
 3115TIP3   OH230903   0.625   3.275   1.942
 3115TIP3    H130904   0.533   3.296   1.953
 3115TIP3    H230905   0.651   3.324   1.864
 3116TIP3   OH230906   2.178   0.925   0.272
 3116TIP3    H130907   2.183   1.010   0.227
 3116TIP3    H230908   2.110   0.877   0.225
 3117TIP3   OH230909   5.115   5.168   1.058
 3117TIP3    H130910   5.090   5.164   0.965
 3117TIP3    H230911   5.053   5.229   1.097
 3118TIP3   OH230912   0.480   6.316   0.532
 3118TIP3    H130913   0.422   6.247   0.500
 3118TIP3    H230914   0.430   6.357   0.604
 3119TIP3   OH230915   1.230   1.237   7.226
 3119TIP3    H130916   1.154   1.294   7.232
 3119TIP3    H230917   1.298   1.292   7.186
 3120TIP3   OH230918   1.417   3.840   1.332
 3120TIP3    H130919   1.447   3.928   1.352
 3120TIP3    H230920   1.445   3.787   1.407
 3121TIP3   OH230921   1.525   1.687   0.509
 3121TIP3    H130922   1.484   1.633   0.576
 3121TIP3    H230923   1.537   1.772   0.550
 3122TIP3   OH230924   2.756   4.695   7.841
 3122TIP3    H130925   2.834   4.726   7.888
 3122TIP3    H230926   2.698   4.665   7.910
 3123TIP3   OH230927   3.623   3.434   1.649
 3123TIP3    H130928   3.647   3.467   1.563
 3123TIP3    H230929   3.626   3.511   1.706
 3124TIP3   OH230930   5.107   5.880   8.627
 3124TIP3    H130931   5.023   5.897   8.585
 3124TIP3    H230932   5.112   5.784   8.632
 3125TIP3   OH230933   2.572   5.397   0.014
 3125TIP3    H130934   2.492   5.431   0.052
 3125TIP3    H230935   2.589   5.453   8.813
 3126TIP3   OH230936   2.535   3.609   8.004
 3126TIP3    H130937   2.543   3.678   8.070
 3126TIP3    H230938   2.606   3.549   8.023
 3127TIP3   OH230939   1.819   1.929   2.263
 3127TIP3    H130940   1.892   1.938   2.325
 3127TIP3    H230941   1.764   1.861   2.301
 3128TIP3   OH230942   4.112   1.724   8.220
 3128TIP3    H130943   4.117   1.817   8.244
 3128TIP3    H230944   4.063   1.684   8.292
 3129TIP3   OH230945   1.166   2.378   1.307
 3129TIP3    H130946   1.239   2.327   1.271
 3129TIP3    H230947   1.089   2.324   1.289
 3130TIP3   OH230948   4.610   6.525   6.727
 3130TIP3    H130949   4.537   6.561   6.676
 3130TIP3    H230950   4.578   6.441   6.759
 3131TIP3   OH230951   1.381   2.904   8.367
 3131TIP3    H130952   1.332   2.860   8.436
 3131TIP3    H230953   1.396   2.837   8.301
 3132TIP3   OH230954   5.860   2.743   7.375
 3132TIP3    H130955   5.772   2.707   7.383
 3132TIP3    H230956   5.852   2.813   7.311
 3133TIP3   OH230957   2.049   0.625   0.087
 3133TIP3    H130958   1.989   0.577   0.144
 3133TIP3    H230959   1.998   0.700   0.056
 3134TIP3   OH230960   0.517   2.940   2.118
 3134TIP3    H130961   0.508   2.968   2.209
 3134TIP3    H230962   0.434   2.896   2.099
 3135TIP3   OH230963   4.753   4.462   8.622
 3135TIP3    H130964   4.815   4.514   8.674
 3135TIP3    H230965   4.780   4.475   8.532
 3136TIP3   OH230966   2.184   2.442   7.739
 3136TIP3    H130967   2.179   2.396   7.823
 3136TIP3    H230968   2.228   2.380   7.681
 3137TIP3   OH230969   2.361   6.380   1.483
 3137TIP3    H130970   2.403   6.297   1.506
 3137TIP3    H230971   2.347   6.424   1.566
 3138TIP3   OH230972   1.089   3.681   7.951
 3138TIP3    H130973   1.151   3.746   7.983
 3138TIP3    H230974   1.032   3.662   8.025
 3139TIP3   OH230975   2.059   2.965   2.655
 3139TIP3    H130976   2.071   3.057   2.632
 3139TIP3    H230977   2.139   2.922   2.625
 3140TIP3   OH230978   2.714   3.612   1.655
 3140TIP3    H130979   2.770   3.571   1.721
 3140TIP3    H230980   2.773   3.630   1.582
 3141TIP3   OH230981   2.308   3.427   8.372
 3141TIP3    H130982   2.277   3.510   8.335
 3141TIP3    H230983   2.272   3.360   8.313
 3142TIP3   OH230984   2.432   4.712   2.223
 3142TIP3    H130985   2.481   4.639   2.186
 3142TIP3    H230986   2.387   4.675   2.299
 3143TIP3   OH230987   3.031   0.236   8.518
 3143TIP3    H130988   3.120   0.268   8.504
 3143TIP3    H230989   2.976   0.314   8.520
 3144TIP3   OH230990   1.564   5.259   1.688
 3144TIP3    H130991   1.577   5.225   1.599
 3144TIP3    H230992   1.494   5.324   1.679
 3145TIP3   OH230993   1.299   2.010   0.872
 3145TIP3    H130994   1.325   1.918   0.871
 3145TIP3    H230995   1.251   2.020   0.954
 3146TIP3   OH230996   3.839   4.634   2.016
 3146TIP3    H130997   3.868   4.712   2.064
 3146TIP3    H230998   3.909   4.570   2.030
 3147TIP3   OH230999   1.759   1.151   1.138
 3147TIP3    H131000   1.768   1.112   1.225
 3147TIP3    H231001   1.664   1.152   1.122
 3148TIP3   OH231002   2.197   6.435   0.447
 3148TIP3    H131003   2.186   6.530   0.438
 3148TIP3    H231004   2.146   6.413   0.525
 3149TIP3   OH231005   1.615   3.767   7.165
 3149TIP3    H131006   1.599   3.696   7.226
 3149TIP3    H231007   1.683   3.820   7.206
 3150TIP3   OH231008   5.944   0.149   8.874
 3150TIP3    H131009   5.919   0.216   8.810
 3150TIP3    H231010   5.996   0.086   8.823
 3151TIP3   OH231011   0.181   6.361   2.352
 3151TIP3    H131012   0.204   6.450   2.326
 3151TIP3    H231013   0.262   6.311   2.340
 3152TIP3   OH231014   6.782   5.042   7.249
 3152TIP3    H131015   6.762   4.948   7.250
 3152TIP3    H231016   0.080   5.046   7.234
 3153TIP3   OH231017   4.212   6.026   0.684
 3153TIP3    H131018   4.177   6.010   0.597
 3153TIP3    H231019   4.277   6.095   0.673
 3154TIP3   OH231020   2.759   0.504   1.180
 3154TIP3    H131021   2.698   0.577   1.184
 3154TIP3    H231022   2.754   0.473   1.089
 3155TIP3   OH231023   4.966   0.289   8.239
 3155TIP3    H131024   4.975   0.218   8.175
 3155TIP3    H231025   5.054   0.299   8.276
 3156TIP3   OH231026   3.051   5.098   1.155
 3156TIP3    H131027   2.999   5.177   1.137
 3156TIP3    H231028   2.990   5.026   1.140
 3157TIP3   OH231029   3.453   3.528   8.271
 3157TIP3    H131030   3.419   3.589   8.337
 3157TIP3    H231031   3.539   3.562   8.249
 3158TIP3   OH231032   6.367   1.967   6.379
 3158TIP3    H131033   6.357   2.062   6.384
 3158TIP3    H231034   6.445   1.954   6.325
 3159TIP3   OH231035   0.266   1.063   6.915
 3159TIP3    H131036   0.192   1.016   6.953
 3159TIP3    H231037   0.289   1.129   6.981
 3160TIP3   OH231038   5.402   0.094   6.968
 3160TIP3    H131039   5.387   0.168   6.909
 3160TIP3    H231040   5.472   0.124   7.026
 3161TIP3   OH231041   3.683   6.455   7.233
 3161TIP3    H131042   3.598   6.485   7.265
 3161TIP3    H231043   3.693   6.366   7.267
 3162TIP3   OH231044   4.013   2.399   0.655
 3162TIP3    H131045   3.959   2.347   0.596
 3162TIP3    H231046   3.950   2.453   0.703
 3163TIP3   OH231047   0.449   1.027   8.289
 3163TIP3    H131048   0.503   1.015   8.210
 3163TIP3    H231049   0.511   1.052   8.357
 3164TIP3   OH231050   3.709   4.928   1.957
 3164TIP3    H131051   3.784   4.931   1.898
 3164TIP3    H231052   3.746   4.900   2.041
 3165TIP3   OH231053   0.511   1.276   2.197
 3165TIP3    H131054   0.451   1.318   2.259
 3165TIP3    H231055   0.534   1.192   2.238
 3166TIP3   OH231056   1.829   5.756   6.217
 3166TIP3    H131057   1.800   5.847   6.212
 3166TIP3    H231058   1.748   5.705   6.215
 3167TIP3   OH231059   5.011   6.280   0.574
 3167TIP3    H131060   5.009   6.376   0.579
 3167TIP3    H231061   4.980   6.251   0.659
 3168TIP3   OH231062   2.572   0.804   1.213
 3168TIP3    H131063   2.505   0.758   1.263
 3168TIP3    H231064   2.526   0.877   1.172
 3169TIP3   OH231065   1.354   6.768   0.187
 3169TIP3    H131066   1.308   6.691   0.220
 3169TIP3    H231067   1.445   6.753   0.212
 3170TIP3   OH231068   2.161   5.770   1.318
 3170TIP3    H131069   2.100   5.794   1.247
 3170TIP3    H231070   2.190   5.854   1.353
 3171TIP3   OH231071   2.909   3.145   1.771
 3171TIP3    H131072   2.847   3.116   1.839
 3171TIP3    H231073   2.876   3.105   1.691
 3172TIP3   OH231074   6.226   0.763   8.377
 3172TIP3    H131075   6.262   0.846   8.346
 3172TIP3    H231076   6.171   0.732   8.305
 3173TIP3   OH231077   4.099   2.152   8.091
 3173TIP3    H131078   4.045   2.082   8.054
 3173TIP3    H231079   4.176   2.155   8.036
 3174TIP3   OH231080   1.409   4.121   1.867
 3174TIP3    H131081   1.429   4.043   1.920
 3174TIP3    H231082   1.423   4.194   1.927
 3175TIP3   OH231083   3.522   0.826   1.568
 3175TIP3    H131084   3.449   0.784   1.522
 3175TIP3    H231085   3.585   0.755   1.583
 3176TIP3   OH231086   2.788   0.601   8.634
 3176TIP3    H131087   2.714   0.577   8.578
 3176TIP3    H231088   2.770   0.559   8.718
 3177TIP3   OH231089   3.533   3.549   1.425
 3177TIP3    H131090   3.555   3.641   1.440
 3177TIP3    H231091   3.460   3.551   1.363
 3178TIP3   OH231092   3.626   1.249   8.463
 3178TIP3    H131093   3.566   1.175   8.477
 3178TIP3    H231094   3.684   1.219   8.394
 3179TIP3   OH231095   5.401   6.577   2.775
 3179TIP3    H131096   5.347   6.655   2.775
 3179TIP3    H231097   5.340   6.505   2.762
 3180TIP3   OH231098   5.361   1.688   7.258
 3180TIP3    H131099   5.386   1.721   7.172
 3180TIP3    H231100   5.427   1.723   7.317
 3181TIP3   OH231101   2.883   1.733   1.090
 3181TIP3    H131102   2.855   1.771   1.174
 3181TIP3    H231103   2.801   1.706   1.048
 3182TIP3   OH231104   5.559   0.488   1.873
 3182TIP3    H131105   5.503   0.412   1.856
 3182TIP3    H231106   5.498   0.559   1.893
 3183TIP3   OH231107   3.132   2.237   6.718
 3183TIP3    H131108   3.102   2.223   6.808
 3183TIP3    H231109   3.051   2.252   6.668
 3184TIP3   OH231110   5.935   2.384   1.116
 3184TIP3    H131111   6.004   2.434   1.160
 3184TIP3    H231112   5.889   2.449   1.063
 3185TIP3   OH231113   3.190   0.697   7.464
 3185TIP3    H131114   3.161   0.732   7.548
 3185TIP3    H231115   3.205   0.604   7.482
 3186TIP3   OH231116   5.037   4.138   1.194
 3186TIP3    H131117   5.108   4.201   1.188
 3186TIP3    H231118   5.022   4.110   1.103
 3187TIP3   OH231119   3.062   3.232   6.793
 3187TIP3    H131120   3.068   3.136   6.786
 3187TIP3    H231121   3.128   3.255   6.859
 3188TIP3   OH231122   0.217   2.775   0.499
 3188TIP3    H131123   0.295   2.726   0.525
 3188TIP3    H231124   0.244   2.825   0.422
 3189TIP3   OH231125   4.572   0.202   2.382
 3189TIP3    H131126   4.502   0.252   2.341
 3189TIP3    H231127   4.535   0.115   2.396
 3190TIP3   OH231128   3.332   4.689   7.617
 3190TIP3    H131129   3.258   4.660   7.671
 3190TIP3    H231130   3.297   4.760   7.564
 3191TIP3   OH231131   4.272   0.066   0.861
 3191TIP3    H131132   4.274   0.153   0.901
 3191TIP3    H231133   4.190   0.064   0.812
 3192TIP3   OH231134   3.078   5.386   8.772
 3192TIP3    H131135   3.161   5.361   8.730
 3192TIP3    H231136   3.102   5.457   8.832
 3193TIP3   OH231137   4.414   4.534   0.345
 3193TIP3    H131138   4.411   4.627   0.324
 3193TIP3    H231139   4.493   4.502   0.302
 3194TIP3   OH231140   6.040   0.282   8.006
 3194TIP3    H131141   6.072   0.306   7.919
 3194TIP3    H231142   6.059   0.189   8.013
 3195TIP3   OH231143   4.161   3.038   1.207
 3195TIP3    H131144   4.249   3.067   1.232
 3195TIP3    H231145   4.116   3.118   1.182
 3196TIP3   OH231146   1.954   0.482   8.698
 3196TIP3    H131147   2.005   0.443   8.627
 3196TIP3    H231148   2.017   0.500   8.767
 3197TIP3   OH231149   0.144   0.874   7.245
 3197TIP3    H131150   0.081   0.857   7.315
 3197TIP3    H231151   0.204   0.938   7.283
 3198TIP3   OH231152   0.045   5.911   1.369
 3198TIP3    H131153   0.134   5.938   1.346
 3198TIP3    H231154   0.039   5.821   1.335
 3199TIP3   OH231155   4.213   0.369   7.592
 3199TIP3    H131156   4.182   0.424   7.520
 3199TIP3    H231157   4.309   0.375   7.586
 3200TIP3   OH231158   6.661   5.279   0.664
 3200TIP3    H131159   6.713   5.266   0.585
 3200TIP3    H231160   6.640   5.373   0.664
 3201TIP3   OH231161   3.640   2.206   8.013
 3201TIP3    H131162   3.642   2.224   8.107
 3201TIP3    H231163   3.548   2.190   7.993
 3202TIP3   OH231164   4.937   2.464   1.118
 3202TIP3    H131165   4.920   2.552   1.084
 3202TIP3    H231166   5.007   2.476   1.182
 3203TIP3   OH231167   4.050   4.453   2.025
 3203TIP3    H131168   4.046   4.379   2.086
 3203TIP3    H231169   4.099   4.420   1.950
 3204TIP3   OH231170   4.609   2.151   7.992
 3204TIP3    H131171   4.629   2.242   7.971
 3204TIP3    H231172   4.514   2.144   7.979
 3205TIP3   OH231173   3.082   0.729   7.112
 3205TIP3    H131174   3.174   0.745   7.131
 3205TIP3    H231175   3.049   0.684   7.189
 3206TIP3   OH231176   0.130   2.937   1.845
 3206TIP3    H131177   0.129   2.857   1.898
 3206TIP3    H231178   0.217   2.974   1.858
 3207TIP3   OH231179   4.614   5.647   1.926
 3207TIP3    H131180   4.667   5.694   1.991
 3207TIP3    H231181   4.662   5.565   1.911
 3208TIP3   OH231182   6.601   1.514   8.318
 3208TIP3    H131183   6.695   1.525   8.302
 3208TIP3    H231184   6.596   1.439   8.377
 3209TIP3   OH231185   1.916   1.843   8.087
 3209TIP3    H131186   2.008   1.825   8.103
 3209TIP3    H231187   1.894   1.792   8.009
 3210TIP3   OH231188   6.691   1.567   7.536
 3210TIP3    H131189   6.614   1.526   7.496
 3210TIP3    H231190   6.672   1.567   7.630
 3211TIP3   OH231191   4.930   0.967   0.467
 3211TIP3    H131192   4.972   0.889   0.429
 3211TIP3    H231193   4.837   0.946   0.469
 3212TIP3   OH231194   0.966   5.170   8.209
 3212TIP3    H131195   1.030   5.230   8.246
 3212TIP3    H231196   1.016   5.115   8.149
 3213TIP3   OH231197   5.557   0.832   0.851
 3213TIP3    H131198   5.533   0.745   0.820
 3213TIP3    H231199   5.618   0.816   0.923
 3214TIP3   OH231200   5.534   2.420   0.327
 3214TIP3    H131201   5.498   2.373   0.402
 3214TIP3    H231202   5.600   2.360   0.291
 3215TIP3   OH231203   1.840   5.444   0.031
 3215TIP3    H131204   1.884   5.499   8.840
 3215TIP3    H231205   1.888   5.361   0.029
 3216TIP3   OH231206   2.124   3.430   2.208
 3216TIP3    H131207   2.081   3.434   2.123
 3216TIP3    H231208   2.052   3.428   2.271
 3217TIP3   OH231209   5.110   4.481   7.552
 3217TIP3    H131210   5.130   4.405   7.498
 3217TIP3    H231211   5.016   4.494   7.542
 3218TIP3   OH231212   3.177   1.136   7.390
 3218TIP3    H131213   3.139   1.201   7.448
 3218TIP3    H231214   3.204   1.185   7.313
 3219TIP3   OH231215   3.304   1.829   1.375
 3219TIP3    H131216   3.372   1.768   1.345
 3219TIP3    H231217   3.301   1.817   1.470
 3220TIP3   OH231218   0.030   3.842   7.444
 3220TIP3    H131219   0.073   3.916   7.401
 3220TIP3    H231220   6.758   3.883   7.498
 3221TIP3   OH231221   2.120   4.399   7.485
 3221TIP3    H131222   2.149   4.470   7.428
 3221TIP3    H231223   2.117   4.322   7.427
 3222TIP3   OH231224   0.121   2.427   7.036
 3222TIP3    H131225   0.127   2.434   6.941
 3222TIP3    H231226   0.209   2.402   7.064
 3223TIP3   OH231227   3.208   4.874   0.961
 3223TIP3    H131228   3.147   4.828   0.902
 3223TIP3    H231229   3.154   4.941   1.004
 3224TIP3   OH231230   0.396   2.174   7.359
 3224TIP3    H131231   0.336   2.233   7.404
 3224TIP3    H231232   0.385   2.090   7.404
 3225TIP3   OH231233   3.317   1.906   0.344
 3225TIP3    H131234   3.378   1.978   0.325
 3225TIP3    H231235   3.365   1.827   0.321
 3226TIP3   OH231236   2.015   5.485   1.991
 3226TIP3    H131237   1.928   5.514   1.964
 3226TIP3    H231238   2.026   5.523   2.079
 3227TIP3   OH231239   2.042   4.964   7.188
 3227TIP3    H131240   1.974   4.967   7.255
 3227TIP3    H231241   2.111   5.021   7.220
 3228TIP3   OH231242   0.380   1.399   8.117
 3228TIP3    H131243   0.315   1.357   8.172
 3228TIP3    H231244   0.360   1.368   8.029
 3229TIP3   OH231245   0.091   5.371   8.422
 3229TIP3    H131246   0.056   5.432   8.488
 3229TIP3    H231247   0.096   5.423   8.342
 3230TIP3   OH231248   5.573   2.199   6.900
 3230TIP3    H131249   5.576   2.287   6.939
 3230TIP3    H231250   5.536   2.143   6.969
 3231TIP3   OH231251   4.939   4.609   0.063
 3231TIP3    H131252   4.913   4.661   8.861
 3231TIP3    H231253   4.986   4.534   0.026
 3232TIP3   OH231254   2.398   0.536   6.138
 3232TIP3    H131255   2.469   0.594   6.166
 3232TIP3    H231256   2.432   0.448   6.150
 3233TIP3   OH231257   2.927   4.806   8.836
 3233TIP3    H131258   3.004   4.820   8.782
 3233TIP3    H231259   2.871   4.882   8.819
 3234TIP3   OH231260   0.669   3.827   1.918
 3234TIP3    H131261   0.602   3.792   1.976
 3234TIP3    H231262   0.748   3.832   1.972
 3235TIP3   OH231263   1.109   1.545   7.354
 3235TIP3    H131264   1.033   1.598   7.378
 3235TIP3    H231265   1.100   1.531   7.260
 3236TIP3   OH231266   3.381   3.095   8.409
 3236TIP3    H131267   3.293   3.112   8.376
 3236TIP3    H231268   3.406   3.012   8.370
 3237TIP3   OH231269   2.694   6.615   7.545
 3237TIP3    H131270   2.773   6.596   7.494
 3237TIP3    H231271   2.622   6.606   7.483
 3238TIP3   OH231272   1.483   0.207   7.960
 3238TIP3    H131273   1.482   0.276   8.027
 3238TIP3    H231274   1.576   0.191   7.944
 3239TIP3   OH231275   4.567   5.663   7.236
 3239TIP3    H131276   4.604   5.604   7.170
 3239TIP3    H231277   4.644   5.699   7.281
 3240TIP3   OH231278   0.612   5.247   0.517
 3240TIP3    H131279   0.593   5.285   0.602
 3240TIP3    H231280   0.640   5.320   0.463
 3241TIP3   OH231281   0.201   6.138   6.961
 3241TIP3    H131282   0.159   6.218   6.992
 3241TIP3    H231283   0.132   6.072   6.963
 3242TIP3   OH231284   4.059   1.032   7.116
 3242TIP3    H131285   3.994   1.102   7.119
 3242TIP3    H231286   4.021   0.961   7.169
 3243TIP3   OH231287   2.199   4.844   0.756
 3243TIP3    H131288   2.285   4.812   0.781
 3243TIP3    H231289   2.210   4.939   0.752
 3244TIP3   OH231290   1.147   6.507   0.026
 3244TIP3    H131291   1.228   6.458   0.013
 3244TIP3    H231292   1.105   6.464   0.100
 3245TIP3   OH231293   2.254   3.577   7.972
 3245TIP3    H131294   2.343   3.605   7.994
 3245TIP3    H231295   2.221   3.536   8.051
 3246TIP3   OH231296   1.728   2.434   7.298
 3246TIP3    H131297   1.690   2.465   7.216
 3246TIP3    H231298   1.759   2.346   7.277
 3247TIP3   OH231299   1.507   6.145   0.612
 3247TIP3    H131300   1.527   6.071   0.555
 3247TIP3    H231301   1.420   6.174   0.584
 3248TIP3   OH231302   4.655   3.804   7.285
 3248TIP3    H131303   4.585   3.757   7.240
 3248TIP3    H231304   4.655   3.891   7.243
 3249TIP3   OH231305   0.479   6.479   0.085
 3249TIP3    H131306   0.434   6.485   0.170
 3249TIP3    H231307   0.536   6.556   0.083
 3250TIP3   OH231308   5.891   6.012   0.282
 3250TIP3    H131309   5.889   6.099   0.242
 3250TIP3    H231310   5.976   5.976   0.258
 3251TIP3   OH231311   5.939   2.084   7.012
 3251TIP3    H131312   5.849   2.064   7.036
 3251TIP3    H231313   5.976   2.125   7.091
 3252TIP3   OH231314   5.107   0.285   2.127
 3252TIP3    H131315   5.076   0.236   2.203
 3252TIP3    H231316   5.159   0.222   2.077
 3253TIP3   OH231317   2.761   5.834   7.189
 3253TIP3    H131318   2.727   5.745   7.195
 3253TIP3    H231319   2.766   5.852   7.095
 3254TIP3   OH231320   0.016   3.633   7.618
 3254TIP3    H131321   6.795   3.723   7.591
 3254TIP3    H231322   0.062   3.641   7.702
 3255TIP3   OH231323   1.501   3.493   0.469
 3255TIP3    H131324   1.449   3.449   0.537
 3255TIP3    H231325   1.567   3.429   0.444
 3256TIP3   OH231326   2.416   4.654   0.691
 3256TIP3    H131327   2.486   4.649   0.756
 3256TIP3    H231328   2.364   4.575   0.705
 3257TIP3   OH231329   6.090   3.261   1.184
 3257TIP3    H131330   6.093   3.166   1.182
 3257TIP3    H231331   6.089   3.284   1.277
 3258TIP3   OH231332   0.257   3.000   0.694
 3258TIP3    H131333   0.210   3.062   0.640
 3258TIP3    H231334   0.209   2.918   0.684
 3259TIP3   OH231335   2.237   5.588   1.754
 3259TIP3    H131336   2.245   5.516   1.818
 3259TIP3    H231337   2.202   5.661   1.805
 3260TIP3   OH231338   3.423   1.739   7.674
 3260TIP3    H131339   3.417   1.833   7.685
 3260TIP3    H231340   3.515   1.719   7.689
 3261TIP3   OH231341   4.195   6.103   8.143
 3261TIP3    H131342   4.237   6.075   8.225
 3261TIP3    H231343   4.105   6.122   8.167
 3262TIP3   OH231344   3.888   1.489   7.343
 3262TIP3    H131345   3.917   1.539   7.266
 3262TIP3    H231346   3.885   1.398   7.313
 3263TIP3   OH231347   3.814   3.577   8.564
 3263TIP3    H131348   3.839   3.666   8.591
 3263TIP3    H231349   3.876   3.520   8.610
 3264TIP3   OH231350   0.775   0.001   7.196
 3264TIP3    H131351   0.742   0.062   7.261
 3264TIP3    H231352   0.804   0.055   7.123
 3265TIP3   OH231353   6.325   0.301   7.163
 3265TIP3    H131354   6.407   0.269   7.124
 3265TIP3    H231355   6.310   0.386   7.120
 3266TIP3   OH231356   2.163   5.728   8.439
 3266TIP3    H131357   2.201   5.640   8.437
 3266TIP3    H231358   2.174   5.756   8.529
 3267TIP3   OH231359   3.035   5.187   7.892
 3267TIP3    H131360   2.947   5.186   7.930
 3267TIP3    H231361   3.020   5.193   7.797
 3268TIP3   OH231362   3.218   4.864   0.518
 3268TIP3    H131363   3.237   4.883   0.610
 3268TIP3    H231364   3.140   4.915   0.498
 3269TIP3   OH231365   4.196   2.330   8.785
 3269TIP3    H131366   4.143   2.337   8.864
 3269TIP3    H231367   4.285   2.313   8.817
 3270TIP3   OH231368   2.969   5.107   1.593
 3270TIP3    H131369   2.892   5.122   1.648
 3270TIP3    H231370   3.010   5.029   1.630
 3271TIP3   OH231371   5.749   6.663   0.185
 3271TIP3    H131372   5.826   6.624   0.144
 3271TIP3    H231373   5.767   6.757   0.187
 3272TIP3   OH231374   4.550   1.448   7.645
 3272TIP3    H131375   4.482   1.509   7.617
 3272TIP3    H231376   4.632   1.492   7.623
 3273TIP3   OH231377   2.280   4.409   0.766
 3273TIP3    H131378   2.258   4.333   0.713
 3273TIP3    H231379   2.287   4.375   0.856
 3274TIP3   OH231380   5.987   3.389   8.714
 3274TIP3    H131381   6.004   3.469   8.665
 3274TIP3    H231382   5.969   3.323   8.647
 3275TIP3   OH231383   3.218   4.389   8.335
 3275TIP3    H131384   3.162   4.343   8.397
 3275TIP3    H231385   3.206   4.482   8.357
 3276TIP3   OH231386   1.187   3.518   0.483
 3276TIP3    H131387   1.214   3.607   0.503
 3276TIP3    H231388   1.242   3.462   0.537
 3277TIP3   OH231389   1.227   5.415   6.765
 3277TIP3    H131390   1.322   5.408   6.752
 3277TIP3    H231391   1.205   5.340   6.821
 3278TIP3   OH231392   1.098   2.254   2.147
 3278TIP3    H131393   1.147   2.321   2.195
 3278TIP3    H231394   1.110   2.174   2.198
 3279TIP3   OH231395   0.033   6.514   0.159
 3279TIP3    H131396   0.033   6.421   0.137
 3279TIP3    H231397   6.746   6.546   0.124
 3280TIP3   OH231398   3.567   0.236   2.088
 3280TIP3    H131399   3.658   0.229   2.116
 3280TIP3    H231400   3.534   0.146   2.091
 3281TIP3   OH231401   2.485   0.977   6.782
 3281TIP3    H131402   2.549   0.990   6.712
 3281TIP3    H231403   2.404   0.956   6.737
 3282TIP3   OH231404   0.430   0.304   7.119
 3282TIP3    H131405   0.358   0.244   7.139
 3282TIP3    H231406   0.400   0.389   7.152
 3283TIP3   OH231407   6.663   2.794   0.301
 3283TIP3    H131408   6.576   2.834   0.310
 3283TIP3    H231409   6.723   2.869   0.295
 3284TIP3   OH231410   1.240   5.558   1.927
 3284TIP3    H131411   1.173   5.547   1.994
 3284TIP3    H231412   1.309   5.608   1.970
 3285TIP3   OH231413   2.289   5.362   1.858
 3285TIP3    H131414   2.378   5.346   1.888
 3285TIP3    H231415   2.276   5.299   1.786
 3286TIP3   OH231416   4.448   4.546   6.532
 3286TIP3    H131417   4.501   4.532   6.454
 3286TIP3    H231418   4.389   4.471   6.536
 3287TIP3   OH231419   3.008   2.703   7.578
 3287TIP3    H131420   3.099   2.723   7.556
 3287TIP3    H231421   3.001   2.725   7.671
 3288TIP3   OH231422   2.376   1.226   6.885
 3288TIP3    H131423   2.412   1.142   6.856
 3288TIP3    H231424   2.453   1.283   6.891
 3289TIP3   OH231425   1.998   1.759   7.110
 3289TIP3    H131426   2.025   1.786   7.198
 3289TIP3    H231427   1.915   1.712   7.124
 3290TIP3   OH231428   0.326   3.129   1.835
 3290TIP3    H131429   0.252   3.154   1.779
 3290TIP3    H231430   0.340   3.204   1.892
 3291TIP3   OH231431   1.321   1.268   2.199
 3291TIP3    H131432   1.237   1.242   2.237
 3291TIP3    H231433   1.317   1.363   2.194
 3292TIP3   OH231434   5.927   5.838   8.621
 3292TIP3    H131435   5.869   5.762   8.610
 3292TIP3    H231436   5.952   5.835   8.713
 3293TIP3   OH231437   6.569   4.092   1.054
 3293TIP3    H131438   6.574   4.180   1.089
 3293TIP3    H231439   6.501   4.049   1.106
 3294TIP3   OH231440   5.653   6.515   0.718
 3294TIP3    H131441   5.645   6.453   0.645
 3294TIP3    H231442   5.623   6.598   0.682
 3295TIP3   OH231443   1.341   2.959   8.042
 3295TIP3    H131444   1.389   2.999   8.114
 3295TIP3    H231445   1.312   3.033   7.988
 3296TIP3   OH231446   2.409   0.893   1.766
 3296TIP3    H131447   2.448   0.867   1.682
 3296TIP3    H231448   2.484   0.925   1.817
 3297TIP3   OH231449   6.573   6.632   0.676
 3297TIP3    H131450   6.507   6.625   0.745
 3297TIP3    H231451   6.591   6.541   0.651
 3298TIP3   OH231452   0.025   5.014   0.287
 3298TIP3    H131453   6.784   4.927   0.301
 3298TIP3    H231454   0.037   5.020   0.193
 3299TIP3   OH231455   0.061   2.686   1.002
 3299TIP3    H131456   0.019   2.651   1.080
 3299TIP3    H231457   0.080   2.608   0.949
 3300TIP3   OH231458   3.816   2.697   7.776
 3300TIP3    H131459   3.739   2.642   7.761
 3300TIP3    H231460   3.848   2.718   7.688
 3301TIP3   OH231461   5.814   0.062   8.550
 3301TIP3    H131462   5.893   0.012   8.530
 3301TIP3    H231463   5.846   0.146   8.582
 3302TIP3   OH231464   2.388   1.297   8.261
 3302TIP3    H131465   2.328   1.366   8.291
 3302TIP3    H231466   2.372   1.224   8.321
 3303TIP3   OH231467   6.556   4.834   8.710
 3303TIP3    H131468   6.530   4.745   8.687
 3303TIP3    H231469   6.567   4.879   8.626
 3304TIP3   OH231470   0.213   4.209   0.455
 3304TIP3    H131471   0.120   4.196   0.439
 3304TIP3    H231472   0.246   4.252   0.376
 3305TIP3   OH231473   0.944   0.226   7.417
 3305TIP3    H131474   0.948   0.213   7.512
 3305TIP3    H231475   1.035   0.233   7.390
 3306TIP3   OH231476   5.233   6.373   0.853
 3306TIP3    H131477   5.270   6.407   0.771
 3306TIP3    H231478   5.308   6.362   0.911
 3307TIP3   OH231479   0.516   5.617   7.687
 3307TIP3    H131480   0.598   5.664   7.696
 3307TIP3    H231481   0.501   5.576   7.772
 3308TIP3   OH231482   4.283   5.555   6.791
 3308TIP3    H131483   4.258   5.637   6.749
 3308TIP3    H231484   4.237   5.488   6.740
 3309TIP3   OH231485   6.646   2.578   0.078
 3309TIP3    H131486   6.666   2.618   8.868
 3309TIP3    H231487   6.693   2.631   0.142
 3310TIP3   OH231488   5.725   1.250   1.641
 3310TIP3    H131489   5.806   1.198   1.645
 3310TIP3    H231490   5.744   1.326   1.695
 3311TIP3   OH231491   0.680   2.290   8.697
 3311TIP3    H131492   0.699   2.282   8.603
 3311TIP3    H231493   0.599   2.241   8.709
 3312TIP3   OH231494   5.108   4.540   1.052
 3312TIP3    H131495   5.174   4.599   1.016
 3312TIP3    H231496   5.156   4.483   1.110
 3313TIP3   OH231497   0.691   1.447   7.577
 3313TIP3    H131498   0.613   1.448   7.522
 3313TIP3    H231499   0.751   1.508   7.535
 3314TIP3   OH231500   2.099   6.700   7.155
 3314TIP3    H131501   2.184   6.695   7.112
 3314TIP3    H231502   2.066   6.787   7.133
 3315TIP3   OH231503   6.708   4.108   8.206
 3315TIP3    H131504   6.637   4.166   8.178
 3315TIP3    H231505   6.720   4.048   8.132
 3316TIP3   OH231506   0.165   4.621   7.546
 3316TIP3    H131507   0.148   4.595   7.456
 3316TIP3    H231508   0.245   4.672   7.542
 3317TIP3   OH231509   3.221   1.728   0.539
 3317TIP3    H131510   3.269   1.796   0.491
 3317TIP3    H231511   3.160   1.777   0.594
 3318TIP3   OH231512   4.344   4.071   0.741
 3318TIP3    H131513   4.252   4.099   0.739
 3318TIP3    H231514   4.387   4.127   0.676
 3319TIP3   OH231515   5.350   0.724   1.022
 3319TIP3    H131516   5.282   0.714   1.089
 3319TIP3    H231517   5.319   0.670   0.949
 3320TIP3   OH231518   5.660   3.455   7.746
 3320TIP3    H131519   5.735   3.510   7.771
 3320TIP3    H231520   5.657   3.461   7.651
 3321TIP3   OH231521   0.007   2.439   7.404
 3321TIP3    H131522   0.004   2.441   7.499
 3321TIP3    H231523   0.067   2.510   7.380
 3322TIP3   OH231524   5.950   0.040   7.068
 3322TIP3    H131525   5.900   0.098   7.126
 3322TIP3    H231526   5.965   6.757   7.121
 3323TIP3   OH231527   3.381   2.296   7.633
 3323TIP3    H131528   3.307   2.236   7.635
 3323TIP3    H231529   3.347   2.375   7.590
 3324TIP3   OH231530   3.612   3.845   7.037
 3324TIP3    H131531   3.536   3.813   7.085
 3324TIP3    H231532   3.686   3.802   7.079
 3325TIP3   OH231533   4.820   1.498   7.592
 3325TIP3    H131534   4.811   1.557   7.667
 3325TIP3    H231535   4.873   1.426   7.625
 3326TIP3   OH231536   0.857   3.577   0.497
 3326TIP3    H131537   0.877   3.566   0.590
 3326TIP3    H231538   0.889   3.664   0.476
 3327TIP3   OH231539   5.764   1.712   2.286
 3327TIP3    H131540   5.830   1.750   2.228
 3327TIP3    H231541   5.808   1.703   2.370
 3328TIP3   OH231542   2.705   5.038   7.215
 3328TIP3    H131543   2.793   5.000   7.224
 3328TIP3    H231544   2.718   5.131   7.235
 3329TIP3   OH231545   4.463   5.476   8.463
 3329TIP3    H131546   4.432   5.422   8.536
 3329TIP3    H231547   4.558   5.483   8.477
 3330TIP3   OH231548   3.450   2.307   1.614
 3330TIP3    H131549   3.530   2.263   1.586
 3330TIP3    H231550   3.417   2.255   1.688
 3331TIP3   OH231551   4.246   1.066   7.761
 3331TIP3    H131552   4.216   0.976   7.754
 3331TIP3    H231553   4.171   1.119   7.735
 3332TIP3   OH231554   0.088   0.773   0.466
 3332TIP3    H131555   6.795   0.786   0.497
 3332TIP3    H231556   0.128   0.713   0.529
 3333TIP3   OH231557   4.828   4.802   0.712
 3333TIP3    H131558   4.808   4.856   0.788
 3333TIP3    H231559   4.895   4.852   0.665
 3334TIP3   OH231560   3.227   0.052   0.277
 3334TIP3    H131561   3.244   6.757   0.298
 3334TIP3    H231562   3.310   0.096   0.292
 3335TIP3   OH231563   3.985   2.820   7.236
 3335TIP3    H131564   4.046   2.752   7.208
 3335TIP3    H231565   4.037   2.900   7.239
 3336TIP3   OH231566   2.126   0.207   7.465
 3336TIP3    H131567   2.197   0.235   7.523
 3336TIP3    H231568   2.055   0.268   7.483
 3337TIP3   OH231569   4.684   4.244   7.850
 3337TIP3    H131570   4.657   4.154   7.832
 3337TIP3    H231571   4.773   4.250   7.814
 3338TIP3   OH231572   3.687   3.627   6.589
 3338TIP3    H131573   3.781   3.642   6.583
 3338TIP3    H231574   3.653   3.650   6.502
 3339TIP3   OH231575   0.929   1.282   0.524
 3339TIP3    H131576   0.956   1.192   0.504
 3339TIP3    H231577   0.855   1.272   0.584
 3340TIP3   OH231578   6.207   2.905   0.634
 3340TIP3    H131579   6.223   2.882   0.726
 3340TIP3    H231580   6.250   2.835   0.585
 3341TIP3   OH231581   2.894   2.570   1.495
 3341TIP3    H131582   2.984   2.547   1.519
 3341TIP3    H231583   2.876   2.518   1.416
 3342TIP3   OH231584   4.152   4.781   8.536
 3342TIP3    H131585   4.226   4.783   8.475
 3342TIP3    H231586   4.154   4.866   8.580
 3343TIP3   OH231587   2.702   0.616   0.684
 3343TIP3    H131588   2.622   0.644   0.639
 3343TIP3    H231589   2.677   0.607   0.776
 3344TIP3   OH231590   1.889   2.293   6.954
 3344TIP3    H131591   1.901   2.371   6.900
 3344TIP3    H231592   1.803   2.260   6.929
 3345TIP3   OH231593   1.334   2.057   8.462
 3345TIP3    H131594   1.269   2.004   8.507
 3345TIP3    H231595   1.316   2.043   8.369
 3346TIP3   OH231596   6.303   1.730   0.290
 3346TIP3    H131597   6.379   1.706   0.341
 3346TIP3    H231598   6.277   1.650   0.245
 3347TIP3   OH231599   0.322   5.820   8.196
 3347TIP3    H131600   0.358   5.813   8.107
 3347TIP3    H231601   0.359   5.745   8.243
 3348TIP3   OH231602   4.508   3.112   6.513
 3348TIP3    H131603   4.493   3.186   6.572
 3348TIP3    H231604   4.551   3.150   6.437
 3349TIP3   OH231605   2.213   6.023   1.450
 3349TIP3    H131606   2.304   5.995   1.458
 3349TIP3    H231607   2.206   6.056   1.361
 3350TIP3   OH231608   1.106   3.827   0.197
 3350TIP3    H131609   1.066   3.752   0.241
 3350TIP3    H231610   1.064   3.829   0.111
 3351TIP3   OH231611   1.227   0.277   6.843
 3351TIP3    H131612   1.237   0.207   6.908
 3351TIP3    H231613   1.317   0.298   6.817
 3352TIP3   OH231614   5.531   2.189   1.590
 3352TIP3    H131615   5.462   2.137   1.633
 3352TIP3    H231616   5.596   2.124   1.563
 3353TIP3   OH231617   1.971   4.476   1.402
 3353TIP3    H131618   2.063   4.491   1.423
 3353TIP3    H231619   1.937   4.426   1.476
 3354TIP3   OH231620   4.143   3.816   8.110
 3354TIP3    H131621   4.122   3.799   8.019
 3354TIP3    H231622   4.205   3.889   8.107
 3355TIP3   OH231623   2.368   0.278   7.545
 3355TIP3    H131624   2.436   0.268   7.612
 3355TIP3    H231625   2.375   0.370   7.517
 3356TIP3   OH231626   4.873   5.416   7.448
 3356TIP3    H131627   4.928   5.342   7.473
 3356TIP3    H231628   4.825   5.386   7.371
 3357TIP3   OH231629   3.255   0.567   2.388
 3357TIP3    H131630   3.171   0.565   2.343
 3357TIP3    H231631   3.320   0.546   2.321
 3358TIP3   OH231632   2.173   5.077   8.462
 3358TIP3    H131633   2.250   5.039   8.419
 3358TIP3    H231634   2.102   5.067   8.398
 3359TIP3   OH231635   3.097   3.374   1.372
 3359TIP3    H131636   3.158   3.329   1.313
 3359TIP3    H231637   3.152   3.436   1.420
 3360TIP3   OH231638   4.430   2.973   2.285
 3360TIP3    H131639   4.464   2.957   2.197
 3360TIP3    H231640   4.387   2.891   2.309
 3361TIP3   OH231641   0.484   4.860   7.783
 3361TIP3    H131642   0.574   4.830   7.787
 3361TIP3    H231643   0.438   4.809   7.851
 3362TIP3   OH231644   3.407   6.077   2.156
 3362TIP3    H131645   3.497   6.099   2.134
 3362TIP3    H231646   3.409   6.056   2.250
 3363TIP3   OH231647   1.279   2.960   0.960
 3363TIP3    H131648   1.371   2.948   0.935
 3363TIP3    H231649   1.282   2.991   1.050
 3364TIP3   OH231650   3.195   5.942   6.769
 3364TIP3    H131651   3.121   5.883   6.776
 3364TIP3    H231652   3.155   6.029   6.759
 3365TIP3   OH231653   4.844   4.043   7.540
 3365TIP3    H131654   4.788   3.966   7.544
 3365TIP3    H231655   4.888   4.036   7.455
 3366TIP3   OH231656   0.919   3.148   0.285
 3366TIP3    H131657   0.947   3.140   0.376
 3366TIP3    H231658   0.877   3.234   0.281
 3367TIP3   OH231659   6.172   5.038   8.637
 3367TIP3    H131660   6.194   5.080   8.721
 3367TIP3    H231661   6.257   5.008   8.604
 3368TIP3   OH231662   6.427   3.315   8.216
 3368TIP3    H131663   6.424   3.264   8.135
 3368TIP3    H231664   6.344   3.296   8.260
 3369TIP3   OH231665   2.793   5.424   7.421
 3369TIP3    H131666   2.866   5.397   7.365
 3369TIP3    H231667   2.724   5.361   7.402
 3370TIP3   OH231668   0.596   2.243   8.160
 3370TIP3    H131669   0.519   2.187   8.151
 3370TIP3    H231670   0.649   2.222   8.083
 3371TIP3   OH231671   0.223   5.176   1.135
 3371TIP3    H131672   0.137   5.136   1.123
 3371TIP3    H231673   0.238   5.170   1.230
 3372TIP3   OH231674   4.701   2.822   7.409
 3372TIP3    H131675   4.626   2.767   7.384
 3372TIP3    H231676   4.757   2.822   7.332
 3373TIP3   OH231677   3.618   6.602   7.676
 3373TIP3    H131678   3.674   6.526   7.694
 3373TIP3    H231679   3.672   6.659   7.621
 3374TIP3   OH231680   1.677   0.721   7.415
 3374TIP3    H131681   1.594   0.730   7.462
 3374TIP3    H231682   1.662   0.766   7.331
 3375TIP3   OH231683   4.414   0.408   1.463
 3375TIP3    H131684   4.486   0.471   1.450
 3375TIP3    H231685   4.430   0.371   1.550
 3376TIP3   OH231686   0.845   5.861   1.435
 3376TIP3    H131687   0.850   5.789   1.373
 3376TIP3    H231688   0.842   5.819   1.521
 3377TIP3   OH231689   2.849   5.850   8.553
 3377TIP3    H131690   2.831   5.937   8.517
 3377TIP3    H231691   2.900   5.806   8.484
 3378TIP3   OH231692   5.941   1.726   8.420
 3378TIP3    H131693   5.913   1.760   8.505
 3378TIP3    H231694   5.932   1.800   8.360
 3379TIP3   OH231695   1.463   5.971   8.725
 3379TIP3    H131696   1.470   5.902   8.659
 3379TIP3    H231697   1.519   6.042   8.692
 3380TIP3   OH231698   1.206   1.694   8.662
 3380TIP3    H131699   1.251   1.649   8.590
 3380TIP3    H231700   1.276   1.740   8.709
 3381TIP3   OH231701   2.767   4.440   7.380
 3381TIP3    H131702   2.714   4.507   7.337
 3381TIP3    H231703   2.819   4.401   7.308
 3382TIP3   OH231704   2.777   0.581   6.703
 3382TIP3    H131705   2.685   0.604   6.687
 3382TIP3    H231706   2.824   0.664   6.693
 3383TIP3   OH231707   2.507   3.522   7.445
 3383TIP3    H131708   2.595   3.515   7.483
 3383TIP3    H231709   2.515   3.592   7.380
 3384TIP3   OH231710   5.600   2.667   7.554
 3384TIP3    H131711   5.570   2.605   7.620
 3384TIP3    H231712   5.623   2.746   7.603
 3385TIP3   OH231713   0.210   3.608   7.307
 3385TIP3    H131714   0.137   3.594   7.368
 3385TIP3    H231715   0.198   3.541   7.240
 3386TIP3   OH231716   6.329   5.104   7.977
 3386TIP3    H131717   6.401   5.117   7.915
 3386TIP3    H231718   6.372   5.088   8.061
 3387TIP3   OH231719   0.424   5.739   8.829
 3387TIP3    H131720   0.422   5.718   8.736
 3387TIP3    H231721   0.450   5.831   8.832
 3388TIP3   OH231722   5.574   3.958   7.272
 3388TIP3    H131723   5.552   3.868   7.250
 3388TIP3    H231724   5.624   3.952   7.354
 3389TIP3   OH231725   2.164   1.436   0.329
 3389TIP3    H131726   2.085   1.385   0.310
 3389TIP3    H231727   2.236   1.375   0.312
 3390TIP3   OH231728   0.879   2.830   7.883
 3390TIP3    H131729   0.929   2.749   7.874
 3390TIP3    H231730   0.918   2.889   7.819
 3391TIP3   OH231731   2.221   4.502   1.500
 3391TIP3    H131732   2.218   4.592   1.533
 3391TIP3    H231733   2.205   4.448   1.578
 3392TIP3   OH231734   4.867   6.281   8.621
 3392TIP3    H131735   4.775   6.263   8.638
 3392TIP3    H231736   4.912   6.252   8.700
 3393TIP3   OH231737   0.908   3.320   6.289
 3393TIP3    H131738   0.857   3.240   6.276
 3393TIP3    H231739   0.868   3.363   6.364
 3394TIP3   OH231740   4.803   3.132   7.419
 3394TIP3    H131741   4.752   3.075   7.477
 3394TIP3    H231742   4.738   3.175   7.363
 3395TIP3   OH231743   0.504   3.185   7.985
 3395TIP3    H131744   0.592   3.199   7.950
 3395TIP3    H231745   0.454   3.259   7.952
 3396TIP3   OH231746   2.629   6.032   0.483
 3396TIP3    H131747   2.625   5.981   0.564
 3396TIP3    H231748   2.544   6.019   0.442
 3397TIP3   OH231749   6.613   1.996   6.245
 3397TIP3    H131750   6.664   2.018   6.167
 3397TIP3    H231751   6.617   2.074   6.300
 3398TIP3   OH231752   0.825   2.523   8.130
 3398TIP3    H131753   0.803   2.430   8.130
 3398TIP3    H231754   0.915   2.527   8.097
 3399TIP3   OH231755   5.283   3.592   2.051
 3399TIP3    H131756   5.219   3.648   2.095
 3399TIP3    H231757   5.306   3.526   2.117
 3400TIP3   OH231758   6.664   0.854   2.591
 3400TIP3    H131759   6.594   0.910   2.559
 3400TIP3    H231760   6.631   0.819   2.674
 3401TIP3   OH231761   5.053   2.018   1.529
 3401TIP3    H131762   5.064   2.113   1.519
 3401TIP3    H231763   5.025   1.988   1.442
 3402TIP3   OH231764   5.689   3.710   2.598
 3402TIP3    H131765   5.710   3.745   2.512
 3402TIP3    H231766   5.709   3.782   2.659
 3403TIP3   OH231767   5.206   6.226   8.479
 3403TIP3    H131768   5.120   6.213   8.441
 3403TIP3    H231769   5.228   6.317   8.460
 3404TIP3   OH231770   4.915   2.469   1.541
 3404TIP3    H131771   4.983   2.450   1.476
 3404TIP3    H231772   4.957   2.526   1.605
 3405TIP3   OH231773   5.376   4.835   8.179
 3405TIP3    H131774   5.331   4.771   8.234
 3405TIP3    H231775   5.410   4.900   8.241
 3406TIP3   OH231776   1.428   5.514   2.295
 3406TIP3    H131777   1.478   5.434   2.279
 3406TIP3    H231778   1.425   5.522   2.390
 3407TIP3   OH231779   5.551   6.584   8.862
 3407TIP3    H131780   5.616   6.550   8.801
 3407TIP3    H231781   5.544   6.516   0.055
 3408TIP3   OH231782   4.171   2.098   7.589
 3408TIP3    H131783   4.128   2.183   7.595
 3408TIP3    H231784   4.250   2.107   7.643
 3409TIP3   OH231785   0.381   3.538   1.723
 3409TIP3    H131786   0.362   3.541   1.817
 3409TIP3    H231787   0.312   3.482   1.687
 3410TIP3   OH231788   6.604   4.137   6.356
 3410TIP3    H131789   6.638   4.049   6.339
 3410TIP3    H231790   6.658   4.169   6.428
 3411TIP3   OH231791   6.062   2.852   0.866
 3411TIP3    H131792   6.066   2.943   0.896
 3411TIP3    H231793   5.971   2.839   0.840
 3412TIP3   OH231794   1.876   4.856   8.697
 3412TIP3    H131795   1.826   4.937   8.684
 3412TIP3    H231796   1.816   4.799   8.745
 3413TIP3   OH231797   2.539   0.394   1.593
 3413TIP3    H131798   2.591   0.332   1.644
 3413TIP3    H231799   2.585   0.399   1.509
 3414TIP3   OH231800   3.137   2.924   0.135
 3414TIP3    H131801   3.178   2.990   0.190
 3414TIP3    H231802   3.209   2.866   0.110
 3415TIP3   OH231803   1.108   2.025   8.761
 3415TIP3    H131804   1.052   1.981   8.697
 3415TIP3    H231805   1.115   1.963   8.834
 3416TIP3   OH231806   6.544   1.337   8.001
 3416TIP3    H131807   6.603   1.290   8.060
 3416TIP3    H231808   6.529   1.276   7.929
 3417TIP3   OH231809   1.268   3.869   2.592
 3417TIP3    H131810   1.201   3.899   2.531
 3417TIP3    H231811   1.348   3.913   2.565
 3418TIP3   OH231812   2.342   0.053   8.652
 3418TIP3    H131813   2.252   0.044   8.619
 3418TIP3    H231814   2.392   6.785   8.602
 3419TIP3   OH231815   1.903   5.852   8.397
 3419TIP3    H131816   1.849   5.787   8.442
 3419TIP3    H231817   1.991   5.816   8.401
 3420TIP3   OH231818   6.466   4.620   8.589
 3420TIP3    H131819   6.443   4.540   8.542
 3420TIP3    H231820   6.404   4.686   8.557
 3421TIP3   OH231821   6.381   0.711   6.839
 3421TIP3    H131822   6.429   0.694   6.758
 3421TIP3    H231823   6.327   0.788   6.820
 3422TIP3   OH231824   1.847   4.802   1.572
 3422TIP3    H131825   1.764   4.844   1.594
 3422TIP3    H231826   1.823   4.727   1.519
 3423TIP3   OH231827   1.653   6.365   1.556
 3423TIP3    H131828   1.578   6.362   1.497
 3423TIP3    H231829   1.650   6.280   1.601
 3424TIP3   OH231830   0.471   0.667   2.111
 3424TIP3    H131831   0.492   0.597   2.172
 3424TIP3    H231832   0.380   0.651   2.085
 3425TIP3   OH231833   1.251   3.169   8.821
 3425TIP3    H131834   1.272   3.214   0.029
 3425TIP3    H231835   1.306   3.213   8.755
 3426TIP3   OH231836   0.051   0.909   6.985
 3426TIP3    H131837   0.015   0.837   6.934
 3426TIP3    H231838   0.079   0.869   7.067
 3427TIP3   OH231839   0.204   5.721   0.145
 3427TIP3    H131840   0.279   5.704   0.089
 3427TIP3    H231841   0.137   5.659   0.115
 3428TIP3   OH231842   2.447   4.347   7.218
 3428TIP3    H131843   2.384   4.280   7.242
 3428TIP3    H231844   2.509   4.303   7.160
 3429TIP3   OH231845   3.134   3.203   2.147
 3429TIP3    H131846   3.198   3.237   2.209
 3429TIP3    H231847   3.062   3.170   2.201
 3430TIP3   OH231848   3.899   5.844   0.114
 3430TIP3    H131849   3.905   5.829   0.208
 3430TIP3    H231850   3.892   5.940   0.106
 3431TIP3   OH231851   6.516   5.542   1.761
 3431TIP3    H131852   6.610   5.538   1.778
 3431TIP3    H231853   6.482   5.604   1.825
 3432TIP3   OH231854   3.328   5.917   1.343
 3432TIP3    H131855   3.301   5.996   1.390
 3432TIP3    H231856   3.392   5.947   1.279
 3433TIP3   OH231857   1.332   5.372   7.893
 3433TIP3    H131858   1.240   5.394   7.909
 3433TIP3    H231859   1.359   5.432   7.823
 3434TIP3   OH231860   0.836   1.014   1.881
 3434TIP3    H131861   0.821   0.930   1.925
 3434TIP3    H231862   0.815   1.080   1.946
 3435TIP3   OH231863   6.658   3.227   0.739
 3435TIP3    H131864   6.587   3.284   0.709
 3435TIP3    H231865   6.650   3.227   0.834
 3436TIP3   OH231866   3.623   4.092   6.495
 3436TIP3    H131867   3.614   4.182   6.527
 3436TIP3    H231868   3.668   4.100   6.411
 3437TIP3   OH231869   3.265   2.504   7.514
 3437TIP3    H131870   3.173   2.527   7.504
 3437TIP3    H231871   3.312   2.575   7.469
 3438TIP3   OH231872   3.905   4.394   0.560
 3438TIP3    H131873   3.928   4.316   0.509
 3438TIP3    H231874   3.911   4.366   0.651
 3439TIP3   OH231875   1.952   6.157   7.367
 3439TIP3    H131876   1.938   6.179   7.459
 3439TIP3    H231877   1.867   6.173   7.325
 3440TIP3   OH231878   4.744   6.508   1.625
 3440TIP3    H131879   4.662   6.536   1.585
 3440TIP3    H231880   4.807   6.575   1.599
 3441TIP3   OH231881   5.278   0.148   7.629
 3441TIP3    H131882   5.193   0.135   7.586
 3441TIP3    H231883   5.329   0.071   7.604
 3442TIP3   OH231884   1.157   5.891   6.419
 3442TIP3    H131885   1.063   5.910   6.422
 3442TIP3    H231886   1.171   5.827   6.489
 3443TIP3   OH231887   2.775   4.505   0.625
 3443TIP3    H131888   2.809   4.418   0.605
 3443TIP3    H231889   2.830   4.565   0.574
 3444TIP3   OH231890   5.123   6.117   0.388
 3444TIP3    H131891   5.205   6.164   0.402
 3444TIP3    H231892   5.066   6.145   0.459
 3445TIP3   OH231893   3.772   5.469   0.376
 3445TIP3    H131894   3.770   5.405   0.305
 3445TIP3    H231895   3.814   5.422   0.449
 3446TIP3   OH231896   6.045   2.621   8.861
 3446TIP3    H131897   6.110   2.550   8.863
 3446TIP3    H231898   6.026   2.639   0.078
 3447TIP3   OH231899   5.684   5.118   1.071
 3447TIP3    H131900   5.690   5.058   0.997
 3447TIP3    H231901   5.621   5.185   1.043
 3448TIP3   OH231902   6.307   0.552   1.447
 3448TIP3    H131903   6.314   0.471   1.396
 3448TIP3    H231904   6.390   0.557   1.494
 3449TIP3   OH231905   5.648   5.466   0.887
 3449TIP3    H131906   5.672   5.526   0.817
 3449TIP3    H231907   5.675   5.380   0.855
 3450TIP3   OH231908   4.330   1.784   7.159
 3450TIP3    H131909   4.319   1.769   7.065
 3450TIP3    H231910   4.419   1.752   7.178
 3451TIP3   OH231911   6.128   4.351   8.306
 3451TIP3    H131912   6.158   4.263   8.332
 3451TIP3    H231913   6.033   4.348   8.318
 3452TIP3   OH231914   4.443   0.228   7.384
 3452TIP3    H131915   4.464   0.182   7.302
 3452TIP3    H231916   4.512   0.201   7.445
 3453TIP3   OH231917   5.019   3.524   0.206
 3453TIP3    H131918   5.022   3.579   0.127
 3453TIP3    H231919   4.942   3.555   0.254
 3454TIP3   OH231920   4.823   1.030   6.551
 3454TIP3    H131921   4.860   0.944   6.533
 3454TIP3    H231922   4.896   1.091   6.538
 3455TIP3   OH231923   4.771   4.875   8.091
 3455TIP3    H131924   4.866   4.862   8.084
 3455TIP3    H231925   4.735   4.826   8.017
 3456TIP3   OH231926   0.118   3.237   2.047
 3456TIP3    H131927   0.041   3.227   1.991
 3456TIP3    H231928   0.088   3.291   2.120
 3457TIP3   OH231929   1.938   2.519   0.167
 3457TIP3    H131930   1.914   2.437   0.125
 3457TIP3    H231931   2.027   2.538   0.135
 3458TIP3   OH231932   5.746   1.343   7.401
 3458TIP3    H131933   5.698   1.394   7.466
 3458TIP3    H231934   5.828   1.392   7.389
 3459TIP3   OH231935   1.613   3.684   8.040
 3459TIP3    H131936   1.543   3.635   8.083
 3459TIP3    H231937   1.658   3.619   7.986
 3460TIP3   OH231938   0.133   0.311   8.429
 3460TIP3    H131939   0.166   0.223   8.442
 3460TIP3    H231940   0.085   0.331   8.509
 3461TIP3   OH231941   2.169   5.516   6.348
 3461TIP3    H131942   2.243   5.558   6.390
 3461TIP3    H231943   2.160   5.562   6.264
 3462TIP3   OH231944   4.674   3.471   8.248
 3462TIP3    H131945   4.584   3.502   8.235
 3462TIP3    H231946   4.705   3.519   8.324
 3463TIP3   OH231947   2.387   5.667   8.812
 3463TIP3    H131948   2.334   5.732   8.767
 3463TIP3    H231949   2.467   5.661   8.760
 3464TIP3   OH231950   5.232   1.794   8.250
 3464TIP3    H131951   5.239   1.760   8.161
 3464TIP3    H231952   5.143   1.829   8.255
 3465TIP3   OH231953   6.767   2.137   2.112
 3465TIP3    H131954   6.744   2.052   2.149
 3465TIP3    H231955   0.063   2.150   2.134
 3466TIP3   OH231956   4.493   2.489   0.745
 3466TIP3    H131957   4.488   2.496   0.841
 3466TIP3    H231958   4.571   2.539   0.722
 3467TIP3   OH231959   0.399   6.465   0.742
 3467TIP3    H131960   0.421   6.555   0.717
 3467TIP3    H231961   0.460   6.444   0.813
 3468TIP3   OH231962   6.117   3.505   1.639
 3468TIP3    H131963   6.178   3.456   1.694
 3468TIP3    H231964   6.067   3.560   1.700
 3469TIP3   OH231965   3.243   5.149   7.154
 3469TIP3    H131966   3.303   5.208   7.109
 3469TIP3    H231967   3.297   5.103   7.218
 3470TIP3   OH231968   2.807   1.350   1.325
 3470TIP3    H131969   2.791   1.303   1.407
 3470TIP3    H231970   2.846   1.285   1.267
 3471TIP3   OH231971   3.881   0.317   7.283
 3471TIP3    H131972   3.952   0.258   7.256
 3471TIP3    H231973   3.878   0.310   7.378
 3472TIP3   OH231974   5.364   0.279   1.787
 3472TIP3    H131975   5.273   0.306   1.791
 3472TIP3    H231976   5.360   0.187   1.761
 3473TIP3   OH231977   5.519   1.725   1.109
 3473TIP3    H131978   5.569   1.650   1.076
 3473TIP3    H231979   5.437   1.687   1.141
 3474TIP3   OH231980   1.853   2.006   0.339
 3474TIP3    H131981   1.947   2.014   0.322
 3474TIP3    H231982   1.841   1.916   0.368
 3475TIP3   OH231983   3.867   4.459   6.881
 3475TIP3    H131984   3.896   4.474   6.791
 3475TIP3    H231985   3.836   4.368   6.881
 3476TIP3   OH231986   5.911   2.728   7.834
 3476TIP3    H131987   5.944   2.770   7.914
 3476TIP3    H231988   5.820   2.706   7.854
 3477TIP3   OH231989   1.656   0.362   7.646
 3477TIP3    H131990   1.661   0.325   7.735
 3477TIP3    H231991   1.593   0.433   7.653
 3478TIP3   OH231992   1.327   4.094   7.822
 3478TIP3    H131993   1.262   4.052   7.766
 3478TIP3    H231994   1.278   4.163   7.868
 3479TIP3   OH231995   3.917   0.854   0.359
 3479TIP3    H131996   3.838   0.842   0.413
 3479TIP3    H231997   3.912   0.784   0.294
 3480TIP3   OH231998   6.766   1.798   1.460
 3480TIP3    H131999   0.063   1.814   1.445
 3480TIP3    H232000   6.745   1.854   1.535
 3481TIP3   OH232001   2.856   5.533   8.026
 3481TIP3    H132002   2.850   5.512   8.119
 3481TIP3    H232003   2.868   5.448   7.983
 3482TIP3   OH232004   4.518   3.081   0.324
 3482TIP3    H132005   4.433   3.093   0.282
 3482TIP3    H232006   4.531   2.986   0.327
 3483TIP3   OH232007   6.630   3.270   7.306
 3483TIP3    H132008   6.681   3.190   7.296
 3483TIP3    H232009   6.650   3.301   7.395
 3484TIP3   OH232010   5.564   4.631   1.826
 3484TIP3    H132011   5.491   4.594   1.876
 3484TIP3    H232012   5.604   4.694   1.886
 3485TIP3   OH232013   6.769   2.290   1.885
 3485TIP3    H132014   6.711   2.365   1.897
 3485TIP3    H232015   6.775   2.250   1.973
 3486TIP3   OH232016   0.192   6.541   1.387
 3486TIP3    H132017   0.126   6.610   1.388
 3486TIP3    H232018   0.248   6.561   1.312
 3487TIP3   OH232019   5.962   6.272   0.393
 3487TIP3    H132020   5.985   6.363   0.375
 3487TIP3    H232021   6.046   6.229   0.412
 3488TIP3   OH232022   3.903   4.490   7.205
 3488TIP3    H132023   3.970   4.488   7.273
 3488TIP3    H232024   3.880   4.398   7.191
 3489TIP3   OH232025   4.187   4.534   6.737
 3489TIP3    H132026   4.114   4.555   6.678
 3489TIP3    H232027   4.233   4.462   6.693
 3490TIP3   OH232028   3.415   6.105   7.306
 3490TIP3    H132029   3.397   6.188   7.261
 3490TIP3    H232030   3.328   6.069   7.324
 3491TIP3   OH232031   6.567   1.773   1.118
 3491TIP3    H132032   6.497   1.777   1.053
 3491TIP3    H232033   6.619   1.697   1.093
 3492TIP3   OH232034   1.378   0.753   0.716
 3492TIP3    H132035   1.459   0.747   0.767
 3492TIP3    H232036   1.374   0.846   0.690
 3493TIP3   OH232037   3.156   4.927   1.719
 3493TIP3    H132038   3.177   5.019   1.705
 3493TIP3    H232039   3.144   4.919   1.813
 3494TIP3   OH232040   0.044   4.955   1.155
 3494TIP3    H132041   0.107   4.942   1.227
 3494TIP3    H232042   6.789   4.875   1.153
 3495TIP3   OH232043   6.731   3.037   8.008
 3495TIP3    H132044   0.025   3.016   8.033
 3495TIP3    H232045   6.695   2.953   7.979
 3496TIP3   OH232046   5.204   2.489   8.615
 3496TIP3    H132047   5.134   2.539   8.656
 3496TIP3    H232048   5.200   2.403   8.657
 3497TIP3   OH232049   1.836   5.099   7.799
 3497TIP3    H132050   1.870   5.162   7.863
 3497TIP3    H232051   1.791   5.152   7.734
 3498TIP3   OH232052   6.088   0.474   7.230
 3498TIP3    H132053   6.081   0.476   7.134
 3498TIP3    H232054   6.098   0.381   7.251
 3499TIP3   OH232055   5.243   6.793   7.243
 3499TIP3    H132056   5.198   0.069   7.288
 3499TIP3    H232057   5.294   0.038   7.174
 3500TIP3   OH232058   1.837   2.398   7.590
 3500TIP3    H132059   1.772   2.377   7.523
 3500TIP3    H232060   1.917   2.356   7.559
 3501TIP3   OH232061   0.848   3.911   6.928
 3501TIP3    H132062   0.831   3.982   6.867
 3501TIP3    H232063   0.936   3.880   6.905
 3502TIP3   OH232064   2.335   1.304   0.003
 3502TIP3    H132065   2.366   1.284   8.789
 3502TIP3    H232066   2.411   1.343   0.046
 3503TIP3   OH232067   2.646   0.398   7.384
 3503TIP3    H132068   2.623   0.307   7.363
 3503TIP3    H232069   2.653   0.441   7.299
 3504TIP3   OH232070   5.986   1.507   1.098
 3504TIP3    H132071   6.019   1.439   1.040
 3504TIP3    H232072   6.058   1.524   1.159
 3505TIP3   OH232073   3.976   2.376   1.264
 3505TIP3    H132074   3.927   2.445   1.311
 3505TIP3    H232075   4.060   2.372   1.309
 3506TIP3   OH232076   4.811   6.067   1.110
 3506TIP3    H132077   4.888   6.059   1.167
 3506TIP3    H232078   4.775   6.153   1.130
 3507TIP3   OH232079   2.883   2.084   1.208
 3507TIP3    H132080   2.951   2.017   1.203
 3507TIP3    H232081   2.866   2.108   1.117
 3508TIP3   OH232082   2.543   6.742   1.865
 3508TIP3    H132083   2.456   6.749   1.825
 3508TIP3    H232084   2.583   6.667   1.822
 3509TIP3   OH232085   2.534   2.549   7.694
 3509TIP3    H132086   2.574   2.612   7.754
 3509TIP3    H232087   2.513   2.600   7.616
 3510TIP3   OH232088   1.801   0.628   1.287
 3510TIP3    H132089   1.889   0.658   1.309
 3510TIP3    H232090   1.812   0.535   1.266
 3511TIP3   OH232091   4.555   2.622   8.842
 3511TIP3    H132092   4.629   2.683   8.849
 3511TIP3    H232093   4.478   2.675   8.862
 3512TIP3   OH232094   6.699   5.335   1.920
 3512TIP3    H132095   6.674   5.324   2.012
 3512TIP3    H232096   6.767   5.401   1.921
 3513TIP3   OH232097   0.921   4.542   8.830
 3513TIP3    H132098   0.897   4.618   0.009
 3513TIP3    H232099   0.947   4.475   0.019
 3514TIP3   OH232100   3.548   4.378   8.121
 3514TIP3    H132101   3.604   4.430   8.179
 3514TIP3    H232102   3.529   4.298   8.171
 3515TIP3   OH232103   6.417   5.295   0.893
 3515TIP3    H132104   6.493   5.327   0.845
 3515TIP3    H232105   6.423   5.337   0.979
 3516TIP3   OH232106   0.379   4.928   8.593
 3516TIP3    H132107   0.388   4.898   8.503
 3516TIP3    H232108   0.458   4.980   8.609
 3517TIP3   OH232109   2.521   3.244   8.094
 3517TIP3    H132110   2.543   3.153   8.111
 3517TIP3    H232111   2.600   3.293   8.118
 3518TIP3   OH232112   5.205   3.165   0.021
 3518TIP3    H132113   5.184   3.247   8.850
 3518TIP3    H232114   5.300   3.164   0.026
 3519TIP3   OH232115   3.306   1.664   6.831
 3519TIP3    H132116   3.252   1.740   6.851
 3519TIP3    H232117   3.391   1.685   6.871
 3520TIP3   OH232118   1.641   6.621   1.334
 3520TIP3    H132119   1.634   6.593   1.425
 3520TIP3    H232120   1.729   6.596   1.306
 3521TIP3   OH232121   6.183   1.082   7.756
 3521TIP3    H132122   6.272   1.090   7.791
 3521TIP3    H232123   6.193   1.089   7.661
 3522TIP3   OH232124   4.500   6.528   0.390
 3522TIP3    H132125   4.431   6.508   0.453
 3522TIP3    H232126   4.478   6.477   0.312
 3523TIP3   OH232127   2.956   2.346   0.338
 3523TIP3    H132128   3.012   2.270   0.323
 3523TIP3    H232129   2.870   2.310   0.361
 3524TIP3   OH232130   6.524   1.455   7.331
 3524TIP3    H132131   6.438   1.430   7.367
 3524TIP3    H232132   6.502   1.513   7.258
 3525TIP3   OH232133   1.114   3.167   6.438
 3525TIP3    H132134   1.024   3.152   6.410
 3525TIP3    H232135   1.140   3.086   6.481
 3526TIP3   OH232136   4.343   2.333   7.721
 3526TIP3    H132137   4.432   2.361   7.742
 3526TIP3    H232138   4.287   2.388   7.775
 3527TIP3   OH232139   4.391   1.038   1.546
 3527TIP3    H132140   4.430   0.951   1.537
 3527TIP3    H232141   4.441   1.080   1.616
 3528TIP3   OH232142   0.165   5.978   1.628
 3528TIP3    H132143   0.116   5.896   1.627
 3528TIP3    H232144   0.111   6.039   1.577
 3529TIP3   OH232145   0.472   2.989   8.232
 3529TIP3    H132146   0.535   3.001   8.160
 3529TIP3    H232147   0.515   3.030   8.307
 3530TIP3   OH232148   4.643   0.029   7.848
 3530TIP3    H132149   4.701   6.750   7.838
 3530TIP3    H232150   4.571   6.793   7.902
 3531TIP3   OH232151   3.202   2.193   1.307
 3531TIP3    H132152   3.175   2.117   1.256
 3531TIP3    H232153   3.184   2.170   1.398
 3532TIP3   OH232154   4.737   5.247   1.145
 3532TIP3    H132155   4.786   5.199   1.212
 3532TIP3    H232156   4.681   5.307   1.194
 3533TIP3   OH232157   4.988   5.455   0.861
 3533TIP3    H132158   4.988   5.532   0.918
 3533TIP3    H232159   5.058   5.472   0.798
 3534TIP3   OH232160   6.410   5.807   0.804
 3534TIP3    H132161   6.370   5.748   0.740
 3534TIP3    H232162   6.357   5.794   0.883
 3535TIP3   OH232163   2.427   3.864   0.558
 3535TIP3    H132164   2.436   3.956   0.534
 3535TIP3    H232165   2.410   3.819   0.475
 3536TIP3   OH232166   2.520   0.169   7.381
 3536TIP3    H132167   2.505   0.075   7.367
 3536TIP3    H232168   2.444   0.199   7.430
 3537TIP3   OH232169   1.272   0.056   1.432
 3537TIP3    H132170   1.210   0.127   1.449
 3537TIP3    H232171   1.281   0.011   1.516
 3538TIP3   OH232172   3.886   5.362   8.592
 3538TIP3    H132173   3.919   5.451   8.588
 3538TIP3    H232174   3.844   5.348   8.507
 3539TIP3   OH232175   2.990   5.515   1.855
 3539TIP3    H132176   3.013   5.504   1.763
 3539TIP3    H232177   3.053   5.579   1.888
 3540TIP3   OH232178   4.746   6.588   7.799
 3540TIP3    H132179   4.694   6.548   7.729
 3540TIP3    H232180   4.827   6.538   7.802
 3541TIP3   OH232181   0.348   3.594   8.028
 3541TIP3    H132182   0.310   3.513   8.063
 3541TIP3    H232183   0.439   3.572   8.011
 3542TIP3   OH232184   4.273   5.080   8.188
 3542TIP3    H132185   4.328   5.069   8.111
 3542TIP3    H232186   4.297   5.007   8.245
 3543TIP3   OH232187   5.982   1.785   1.125
 3543TIP3    H132188   5.939   1.703   1.148
 3543TIP3    H232189   6.045   1.761   1.057
 3544TIP3   OH232190   0.226   0.608   6.809
 3544TIP3    H132191   0.141   0.643   6.781
 3544TIP3    H232192   0.206   0.520   6.842
 3545TIP3   OH232193   6.332   3.697   1.119
 3545TIP3    H132194   6.418   3.712   1.081
 3545TIP3    H232195   6.347   3.632   1.188
 3546TIP3   OH232196   2.015   6.215   1.806
 3546TIP3    H132197   1.996   6.214   1.712
 3546TIP3    H232198   2.004   6.124   1.834
 3547TIP3   OH232199   6.262   4.702   7.195
 3547TIP3    H132200   6.201   4.710   7.269
 3547TIP3    H232201   6.245   4.780   7.142
 3548TIP3   OH232202   4.654   6.629   7.368
 3548TIP3    H132203   4.617   6.576   7.438
 3548TIP3    H232204   4.704   6.697   7.413
 3549TIP3   OH232205   4.972   5.842   8.373
 3549TIP3    H132206   5.036   5.910   8.351
 3549TIP3    H232207   4.895   5.865   8.321
 3550TIP3   OH232208   2.980   4.777   0.823
 3550TIP3    H132209   2.937   4.704   0.779
 3550TIP3    H232210   2.911   4.842   0.835
 3551TIP3   OH232211   0.368   4.528   8.492
 3551TIP3    H132212   0.326   4.566   8.569
 3551TIP3    H232213   0.360   4.433   8.506
 3552TIP3   OH232214   0.709   6.751   2.165
 3552TIP3    H132215   0.656   6.753   2.245
 3552TIP3    H232216   0.702   0.043   2.129
 3553TIP3   OH232217   0.250   6.520   8.735
 3553TIP3    H132218   0.287   6.584   8.674
 3553TIP3    H232219   0.286   6.545   8.820
 3554TIP3   OH232220   3.529   0.571   2.277
 3554TIP3    H132221   3.578   0.521   2.343
 3554TIP3    H232222   3.549   0.528   2.194
 3555TIP3   OH232223   2.345   0.599   7.187
 3555TIP3    H132224   2.424   0.642   7.220
 3555TIP3    H232225   2.296   0.575   7.266
 3556TIP3   OH232226   4.611   0.699   8.637
 3556TIP3    H132227   4.671   0.636   8.678
 3556TIP3    H232228   4.619   0.682   8.543
 3557TIP3   OH232229   2.989   5.256   7.294
 3557TIP3    H132230   3.084   5.270   7.294
 3557TIP3    H232231   2.979   5.165   7.265
 3558TIP3   OH232232   6.541   2.033   1.224
 3558TIP3    H132233   6.580   1.952   1.191
 3558TIP3    H232234   6.517   2.012   1.314
 3559TIP3   OH232235   3.945   4.440   0.070
 3559TIP3    H132236   3.904   4.442   0.156
 3559TIP3    H232237   4.039   4.440   0.088
 3560TIP3   OH232238   5.924   0.755   7.358
 3560TIP3    H132239   6.011   0.767   7.321
 3560TIP3    H232240   5.915   0.661   7.369
 3561TIP3   OH232241   0.200   4.068   8.843
 3561TIP3    H132242   0.124   4.011   8.831
 3561TIP3    H232243   0.206   4.116   8.760
 3562TIP3   OH232244   4.658   1.111   7.830
 3562TIP3    H132245   4.627   1.188   7.783
 3562TIP3    H232246   4.640   1.130   7.922
 3563TIP3   OH232247   3.980   3.173   8.651
 3563TIP3    H132248   4.020   3.121   8.581
 3563TIP3    H232249   3.909   3.118   8.684
 3564TIP3   OH232250   0.001   3.581   8.256
 3564TIP3    H132251   6.707   3.600   8.228
 3564TIP3    H232252   6.794   3.490   8.286
 3565TIP3   OH232253   2.273   0.852   6.934
 3565TIP3    H132254   2.284   0.849   7.028
 3565TIP3    H232255   2.353   0.892   6.901
 3566TIP3   OH232256   5.368   6.255   1.368
 3566TIP3    H132257   5.372   6.161   1.351
 3566TIP3    H232258   5.318   6.262   1.450
 3567TIP3   OH232259   3.486   0.649   1.256
 3567TIP3    H132260   3.512   0.698   1.179
 3567TIP3    H232261   3.390   0.653   1.257
 3568TIP3   OH232262   1.846   1.240   7.207
 3568TIP3    H132263   1.788   1.201   7.141
 3568TIP3    H232264   1.908   1.170   7.229
 3569TIP3   OH232265   0.460   2.633   0.403
 3569TIP3    H132266   0.531   2.697   0.400
 3569TIP3    H232267   0.446   2.608   0.312
 3570TIP3   OH232268   4.760   1.355   7.361
 3570TIP3    H132269   4.832   1.363   7.298
 3570TIP3    H232270   4.794   1.394   7.442
 3571TIP3   OH232271   2.495   5.388   6.578
 3571TIP3    H132272   2.404   5.375   6.552
 3571TIP3    H232273   2.529   5.299   6.590
 3572TIP3   OH232274   1.813   2.375   8.435
 3572TIP3    H132275   1.884   2.312   8.429
 3572TIP3    H232276   1.812   2.419   8.350
 3573TIP3   OH232277   5.901   0.574   8.857
 3573TIP3    H132278   5.923   0.625   8.779
 3573TIP3    H232279   5.834   0.512   8.826
 3574TIP3   OH232280   4.283   2.606   8.182
 3574TIP3    H132281   4.321   2.621   8.269
 3574TIP3    H232282   4.199   2.652   8.185
 3575TIP3   OH232283   6.088   2.161   1.556
 3575TIP3    H132284   6.041   2.122   1.482
 3575TIP3    H232285   6.062   2.253   1.556
 3576TIP3   OH232286   4.276   4.478   1.839
 3576TIP3    H132287   4.307   4.518   1.758
 3576TIP3    H232288   4.279   4.384   1.824
 3577TIP3   OH232289   0.097   4.652   0.571
 3577TIP3    H132290   0.066   4.681   0.485
 3577TIP3    H232291   0.175   4.600   0.552
 3578TIP3   OH232292   0.363   3.757   0.025
 3578TIP3    H132293   0.378   3.773   8.806
 3578TIP3    H232294   0.331   3.841   0.059
 3579TIP3   OH232295   6.240   5.566   1.528
 3579TIP3    H132296   6.215   5.473   1.525
 3579TIP3    H232297   6.225   5.592   1.618
 3580TIP3   OH232298   5.072   1.104   8.197
 3580TIP3    H132299   5.112   1.037   8.141
 3580TIP3    H232300   4.978   1.094   8.183
 3581TIP3   OH232301   5.467   2.051   7.124
 3581TIP3    H132302   5.457   1.961   7.093
 3581TIP3    H232303   5.392   2.065   7.182
 3582TIP3   OH232304   3.244   1.535   6.533
 3582TIP3    H132305   3.269   1.575   6.616
 3582TIP3    H232306   3.159   1.574   6.512
 3583TIP3   OH232307   2.440   2.295   7.727
 3583TIP3    H132308   2.427   2.262   7.816
 3583TIP3    H232309   2.453   2.389   7.737
 3584TIP3   OH232310   0.087   3.167   0.545
 3584TIP3    H132311   0.137   3.234   0.498
 3584TIP3    H232312   0.003   3.208   0.563
 3585TIP3   OH232313   2.601   1.662   8.270
 3585TIP3    H132314   2.527   1.639   8.327
 3585TIP3    H232315   2.677   1.623   8.312
 3586TIP3   OH232316   3.016   5.065   2.277
 3586TIP3    H132317   2.938   5.012   2.259
 3586TIP3    H232318   3.089   5.002   2.271
 3587TIP3   OH232319   2.247   6.234   7.838
 3587TIP3    H132320   2.210   6.149   7.861
 3587TIP3    H232321   2.197   6.297   7.891
 3588TIP3   OH232322   5.494   4.935   0.014
 3588TIP3    H132323   5.559   4.926   0.083
 3588TIP3    H232324   5.424   4.874   0.039
 3589TIP3   OH232325   1.446   3.626   6.086
 3589TIP3    H132326   1.476   3.660   6.170
 3589TIP3    H232327   1.381   3.690   6.056
 3590TIP3   OH232328   1.157   1.347   6.956
 3590TIP3    H132329   1.188   1.370   6.868
 3590TIP3    H232330   1.183   1.422   7.010
 3591TIP3   OH232331   5.968   4.979   1.023
 3591TIP3    H132332   5.891   4.932   1.055
 3591TIP3    H232333   6.022   4.912   0.980
 3592TIP3   OH232334   0.916   6.165   0.786
 3592TIP3    H132335   0.892   6.086   0.835
 3592TIP3    H232336   0.959   6.220   0.851
 3593TIP3   OH232337   0.495   6.706   0.838
 3593TIP3    H132338   0.527   6.737   0.922
 3593TIP3    H232339   0.420   6.763   0.818
 3594TIP3   OH232340   5.918   1.419   1.726
 3594TIP3    H132341   5.955   1.455   1.646
 3594TIP3    H232342   5.899   1.496   1.780
 3595TIP3   OH232343   5.525   3.207   1.970
 3595TIP3    H132344   5.448   3.263   1.978
 3595TIP3    H232345   5.592   3.251   2.023
 3596TIP3   OH232346   6.724   4.219   2.529
 3596TIP3    H132347   6.758   4.295   2.576
 3596TIP3    H232348   0.006   4.179   2.490
 3597TIP3   OH232349   3.846   2.873   0.390
 3597TIP3    H132350   3.913   2.818   0.430
 3597TIP3    H232351   3.818   2.931   0.460
 3598TIP3   OH232352   3.006   2.976   8.777
 3598TIP3    H132353   2.913   2.954   8.783
 3598TIP3    H232354   3.040   2.963   8.865
 3599TIP3   OH232355   6.624   3.440   7.890
 3599TIP3    H132356   6.677   3.518   7.875
 3599TIP3    H232357   6.676   3.388   7.952
 3600TIP3   OH232358   5.312   4.249   0.264
 3600TIP3    H132359   5.229   4.200   0.264
 3600TIP3    H232360   5.358   4.218   0.342
 3601TIP3   OH232361   4.396   4.035   1.006
 3601TIP3    H132362   4.412   4.042   0.912
 3601TIP3    H232363   4.316   4.085   1.021
 3602TIP3   OH232364   3.447   5.590   1.678
 3602TIP3    H132365   3.441   5.554   1.767
 3602TIP3    H232366   3.444   5.513   1.621
 3603TIP3   OH232367   0.936   0.793   0.936
 3603TIP3    H132368   0.968   0.787   0.846
 3603TIP3    H232369   1.003   0.751   0.989
 3604TIP3   OH232370   3.884   1.977   0.378
 3604TIP3    H132371   3.955   2.008   0.434
 3604TIP3    H232372   3.808   2.026   0.407
 3605TIP3   OH232373   3.312   6.640   8.045
 3605TIP3    H132374   3.342   6.697   7.974
 3605TIP3    H232375   3.383   6.578   8.058
 3606TIP3   OH232376   6.014   4.094   8.667
 3606TIP3    H132377   6.104   4.124   8.654
 3606TIP3    H232378   5.970   4.168   8.709
 3607TIP3   OH232379   5.196   5.036   7.721
 3607TIP3    H132380   5.211   4.963   7.782
 3607TIP3    H232381   5.118   5.079   7.754
 3608TIP3   OH232382   0.159   4.284   7.275
 3608TIP3    H132383   0.214   4.272   7.198
 3608TIP3    H232384   0.120   4.371   7.264
 3609TIP3   OH232385   1.547   5.491   6.896
 3609TIP3    H132386   1.479   5.548   6.859
 3609TIP3    H232387   1.532   5.406   6.854
 3610TIP3   OH232388   3.649   0.013   1.744
 3610TIP3    H132389   3.585   6.784   1.810
 3610TIP3    H232390   3.602   0.071   1.685
 3611TIP3   OH232391   1.588   4.329   7.655
 3611TIP3    H132392   1.597   4.235   7.674
 3611TIP3    H232393   1.531   4.361   7.724
 3612TIP3   OH232394   0.313   5.510   1.099
 3612TIP3    H132395   0.233   5.483   1.145
 3612TIP3    H232396   0.305   5.606   1.093
 3613TIP3   OH232397   2.890   0.860   0.350
 3613TIP3    H132398   2.858   0.801   0.283
 3613TIP3    H232399   2.812   0.903   0.385
 3614TIP3   OH232400   0.551   1.932   6.326
 3614TIP3    H132401   0.475   1.989   6.320
 3614TIP3    H232402   0.577   1.917   6.235
 3615TIP3   OH232403   3.300   5.457   7.403
 3615TIP3    H132404   3.267   5.384   7.456
 3615TIP3    H232405   3.393   5.438   7.391
 3616TIP3   OH232406   1.423   0.700   7.526
 3616TIP3    H132407   1.344   0.659   7.491
 3616TIP3    H232408   1.439   0.654   7.608
 3617TIP3   OH232409   6.224   3.776   1.961
 3617TIP3    H132410   6.208   3.682   1.952
 3617TIP3    H232411   6.290   3.796   1.894
 3618TIP3   OH232412   3.529   6.039   1.206
 3618TIP3    H132413   3.527   6.099   1.132
 3618TIP3    H232414   3.582   5.965   1.175
 3619TIP3   OH232415   5.679   2.230   7.783
 3619TIP3    H132416   5.621   2.301   7.811
 3619TIP3    H232417   5.689   2.241   7.689
 3620TIP3   OH232418   5.930   1.285   7.622
 3620TIP3    H132419   5.880   1.259   7.700
 3620TIP3    H232420   5.866   1.285   7.551
 3621TIP3   OH232421   0.975   1.590   7.683
 3621TIP3    H132422   0.938   1.541   7.757
 3621TIP3    H232423   0.904   1.594   7.619
 3622TIP3   OH232424   3.335   0.920   7.373
 3622TIP3    H132425   3.292   0.843   7.410
 3622TIP3    H232426   3.271   0.990   7.385
 3623TIP3   OH232427   0.699   4.729   8.743
 3623TIP3    H132428   0.612   4.757   8.772
 3623TIP3    H232429   0.759   4.769   8.807
 3624TIP3   OH232430   0.567   0.171   1.385
 3624TIP3    H132431   0.499   0.210   1.440
 3624TIP3    H232432   0.575   0.081   1.416
 3625TIP3   OH232433   2.167   6.618   2.579
 3625TIP3    H132434   2.109   6.571   2.518
 3625TIP3    H232435   2.114   6.632   2.657
 3626TIP3   OH232436   3.415   6.454   0.811
 3626TIP3    H132437   3.334   6.504   0.817
 3626TIP3    H232438   3.391   6.376   0.760
 3627TIP3   OH232439   1.727   1.062   7.042
 3627TIP3    H132440   1.765   0.990   6.992
 3627TIP3    H232441   1.642   1.077   7.001
 3628TIP3   OH232442   4.702   4.316   7.165
 3628TIP3    H132443   4.667   4.395   7.123
 3628TIP3    H232444   4.797   4.322   7.150
 3629TIP3   OH232445   0.056   5.207   0.493
 3629TIP3    H132446   0.043   5.137   0.429
 3629TIP3    H232447   0.140   5.246   0.470
 3630TIP3   OH232448   4.556   6.190   7.816
 3630TIP3    H132449   4.528   6.121   7.756
 3630TIP3    H232450   4.545   6.271   7.766
 3631TIP3   OH232451   0.211   2.587   1.813
 3631TIP3    H132452   0.231   2.499   1.846
 3631TIP3    H232453   0.149   2.622   1.877
 3632TIP3   OH232454   3.054   0.365   8.227
 3632TIP3    H132455   3.048   0.418   8.307
 3632TIP3    H232456   3.075   0.278   8.259
 3633TIP3   OH232457   1.786   6.754   2.786
 3633TIP3    H132458   1.841   6.685   2.824
 3633TIP3    H232459   1.769   6.723   2.697
 3634TIP3   OH232460   0.522   3.962   8.682
 3634TIP3    H132461   0.439   3.993   8.648
 3634TIP3    H232462   0.537   3.879   8.637
 3635TIP3   OH232463   4.302   1.635   0.563
 3635TIP3    H132464   4.213   1.665   0.577
 3635TIP3    H232465   4.297   1.578   0.486
 3636TIP3   OH232466   3.543   5.490   6.231
 3636TIP3    H132467   3.473   5.453   6.286
 3636TIP3    H232468   3.606   5.418   6.222
 3637TIP3   OH232469   0.458   1.734   1.519
 3637TIP3    H132470   0.401   1.772   1.585
 3637TIP3    H232471   0.404   1.729   1.440
 3638TIP3   OH232472   2.079   2.609   7.315
 3638TIP3    H132473   2.124   2.654   7.387
 3638TIP3    H232474   2.030   2.678   7.271
 3639TIP3   OH232475   2.940   1.269   7.210
 3639TIP3    H132476   3.024   1.229   7.188
 3639TIP3    H232477   2.963   1.353   7.250
 3640TIP3   OH232478   3.910   3.791   2.547
 3640TIP3    H132479   3.888   3.876   2.508
 3640TIP3    H232480   3.990   3.763   2.502
 3641TIP3   OH232481   6.422   5.445   2.286
 3641TIP3    H132482   6.512   5.463   2.259
 3641TIP3    H232483   6.370   5.461   2.207
 3642TIP3   OH232484   3.636   6.219   8.314
 3642TIP3    H132485   3.577   6.153   8.277
 3642TIP3    H232486   3.667   6.268   8.239
 3643TIP3   OH232487   5.878   3.484   6.822
 3643TIP3    H132488   5.794   3.527   6.804
 3643TIP3    H232489   5.941   3.556   6.826
 3644TIP3   OH232490   2.230   0.964   0.849
 3644TIP3    H132491   2.203   0.899   0.784
 3644TIP3    H232492   2.207   1.048   0.810
 3645TIP3   OH232493   3.069   0.820   7.677
 3645TIP3    H132494   3.072   0.915   7.690
 3645TIP3    H232495   2.978   0.803   7.652
 3646TIP3   OH232496   0.045   0.275   7.871
 3646TIP3    H132497   6.768   0.333   7.849
 3646TIP3    H232498   0.019   0.236   7.955
 3647TIP3   OH232499   0.514   2.083   8.787
 3647TIP3    H132500   0.570   2.010   8.761
 3647TIP3    H232501   0.425   2.051   8.772
 3648TIP3   OH232502   3.434   3.092   8.683
 3648TIP3    H132503   3.404   3.093   8.592
 3648TIP3    H232504   3.434   3.184   8.709
 3649TIP3   OH232505   0.630   0.541   1.428
 3649TIP3    H132506   0.656   0.503   1.344
 3649TIP3    H232507   0.682   0.493   1.493
 3650TIP3   OH232508   4.922   6.124   1.537
 3650TIP3    H132509   4.937   6.039   1.495
 3650TIP3    H232510   4.893   6.181   1.466
 3651TIP3   OH232511   4.207   5.464   1.522
 3651TIP3    H132512   4.215   5.559   1.513
 3651TIP3    H232513   4.135   5.452   1.584
 3652TIP3   OH232514   3.202   0.062   8.842
 3652TIP3    H132515   3.110   0.036   8.831
 3652TIP3    H232516   3.216   0.064   0.062
 3653TIP3   OH232517   1.176   2.486   8.498
 3653TIP3    H132518   1.089   2.483   8.538
 3653TIP3    H232519   1.165   2.441   8.414
 3654TIP3   OH232520   6.504   5.305   7.886
 3654TIP3    H132521   6.594   5.287   7.859
 3654TIP3    H232522   6.478   5.380   7.833
 3655TIP3   OH232523   2.475   0.576   6.599
 3655TIP3    H132524   2.435   0.502   6.553
 3655TIP3    H232525   2.486   0.643   6.531
 3656TIP3   OH232526   1.150   1.563   1.608
 3656TIP3    H132527   1.228   1.580   1.556
 3656TIP3    H232528   1.146   1.635   1.671
 3657TIP3   OH232529   3.605   2.638   7.458
 3657TIP3    H132530   3.528   2.632   7.401
 3657TIP3    H232531   3.667   2.691   7.408
 3658TIP3   OH232532   5.088   5.683   7.986
 3658TIP3    H132533   5.130   5.638   8.059
 3658TIP3    H232534   5.115   5.775   7.996
 3659TIP3   OH232535   4.991   4.463   0.812
 3659TIP3    H132536   4.984   4.476   0.907
 3659TIP3    H232537   5.061   4.523   0.786
 3660TIP3   OH232538   0.942   4.362   0.179
 3660TIP3    H132539   0.948   4.269   0.204
 3660TIP3    H232540   0.979   4.409   0.254
 3661TIP3   OH232541   6.120   6.016   1.770
 3661TIP3    H132542   6.043   5.960   1.758
 3661TIP3    H232543   6.094   6.101   1.734
 3662TIP3   OH232544   1.200   3.122   7.329
 3662TIP3    H132545   1.232   3.147   7.415
 3662TIP3    H232546   1.180   3.029   7.336
 3663TIP3   OH232547   6.607   0.059   1.731
 3663TIP3    H132548   6.662   0.017   1.797
 3663TIP3    H232549   6.668   0.102   1.672
 3664TIP3   OH232550   5.492   0.488   1.025
 3664TIP3    H132551   5.421   0.445   0.978
 3664TIP3    H232552   5.454   0.569   1.058
 3665TIP3   OH232553   2.187   1.694   6.906
 3665TIP3    H132554   2.135   1.637   6.849
 3665TIP3    H232555   2.132   1.710   6.982
 3666TIP3   OH232556   4.222   5.459   5.767
 3666TIP3    H132557   4.242   5.547   5.797
 3666TIP3    H232558   4.278   5.402   5.818
 3667TIP3   OH232559   5.937   5.850   2.257
 3667TIP3    H132560   5.868   5.797   2.298
 3667TIP3    H232561   6.016   5.797   2.268
 3668TIP3   OH232562   3.044   6.575   7.922
 3668TIP3    H132563   3.067   6.605   7.834
 3668TIP3    H232564   3.037   6.655   7.974
 3669TIP3   OH232565   2.351   5.027   7.470
 3669TIP3    H132566   2.372   4.961   7.536
 3669TIP3    H232567   2.367   5.111   7.514
 3670TIP3   OH232568   4.708   2.875   0.235
 3670TIP3    H132569   4.777   2.823   0.276
 3670TIP3    H232570   4.712   2.851   0.142
 3671TIP3   OH232571   4.372   5.499   6.168
 3671TIP3    H132572   4.355   5.505   6.262
 3671TIP3    H232573   4.393   5.589   6.141
 3672TIP3   OH232574   0.601   4.138   0.498
 3672TIP3    H132575   0.636   4.172   0.416
 3672TIP3    H232576   0.583   4.046   0.480
 3673TIP3   OH232577   2.267   2.187   1.503
 3673TIP3    H132578   2.344   2.189   1.560
 3673TIP3    H232579   2.300   2.213   1.417
 3674TIP3   OH232580   6.188   6.045   7.415
 3674TIP3    H132581   6.110   5.990   7.413
 3674TIP3    H232582   6.223   6.041   7.326
 3675TIP3   OH232583   1.900   1.728   2.074
 3675TIP3    H132584   1.963   1.743   2.145
 3675TIP3    H232585   1.815   1.726   2.117
 3676TIP3   OH232586   0.796   5.681   7.730
 3676TIP3    H132587   0.797   5.652   7.821
 3676TIP3    H232588   0.841   5.611   7.682
 3677TIP3   OH232589   6.261   5.651   0.631
 3677TIP3    H132590   6.245   5.709   0.557
 3677TIP3    H232591   6.323   5.586   0.597
 3678TIP3   OH232592   0.028   0.530   1.074
 3678TIP3    H132593   0.012   0.608   1.128
 3678TIP3    H232594   6.738   0.507   1.040
 3679TIP3   OH232595   0.812   4.316   8.451
 3679TIP3    H132596   0.720   4.311   8.424
 3679TIP3    H232597   0.857   4.351   8.373
 3680TIP3   OH232598   5.571   5.384   8.412
 3680TIP3    H132599   5.636   5.336   8.463
 3680TIP3    H232600   5.612   5.397   8.327
 3681TIP3   OH232601   4.825   4.868   7.489
 3681TIP3    H132602   4.736   4.903   7.486
 3681TIP3    H232603   4.861   4.901   7.572
 3682TIP3   OH232604   0.188   3.758   8.343
 3682TIP3    H132605   0.122   3.698   8.307
 3682TIP3    H232606   0.137   3.823   8.391
 3683TIP3   OH232607   0.111   2.445   8.136
 3683TIP3    H132608   0.048   2.490   8.193
 3683TIP3    H232609   0.184   2.423   8.194
 3684TIP3   OH232610   1.060   2.980   2.430
 3684TIP3    H132611   1.138   3.013   2.476
 3684TIP3    H232612   1.076   2.886   2.422
 3685TIP3   OH232613   2.219   5.946   8.265
 3685TIP3    H132614   2.190   5.926   8.176
 3685TIP3    H232615   2.182   5.876   8.318
 3686TIP3   OH232616   4.425   2.204   8.370
 3686TIP3    H132617   4.504   2.150   8.373
 3686TIP3    H232618   4.452   2.287   8.408
 3687TIP3   OH232619   4.729   1.125   1.535
 3687TIP3    H132620   4.791   1.094   1.469
 3687TIP3    H232621   4.784   1.160   1.604
 3688TIP3   OH232622   2.612   1.395   0.928
 3688TIP3    H132623   2.533   1.345   0.910
 3688TIP3    H232624   2.656   1.401   0.843
 3689TIP3   OH232625   3.631   1.849   1.342
 3689TIP3    H132626   3.603   1.842   1.433
 3689TIP3    H232627   3.650   1.942   1.330
 3690TIP3   OH232628   1.355   3.364   0.668
 3690TIP3    H132629   1.396   3.375   0.753
 3690TIP3    H232630   1.339   3.269   0.661
 3691TIP3   OH232631   0.934   0.297   1.869
 3691TIP3    H132632   0.985   0.226   1.830
 3691TIP3    H232633   0.938   0.281   1.963
 3692TIP3   OH232634   3.086   0.109   1.786
 3692TIP3    H132635   3.015   0.070   1.734
 3692TIP3    H232636   3.078   0.203   1.771
 3693TIP3   OH232637   5.924   6.301   2.364
 3693TIP3    H132638   5.892   6.368   2.424
 3693TIP3    H232639   5.942   6.225   2.420
 3694TIP3   OH232640   2.169   0.271   7.180
 3694TIP3    H132641   2.122   0.257   7.262
 3694TIP3    H232642   2.256   0.235   7.195
 3695TIP3   OH232643   2.916   5.127   0.778
 3695TIP3    H132644   2.920   5.171   0.862
 3695TIP3    H232645   2.846   5.062   0.788
 3696TIP3   OH232646   3.780   5.726   0.664
 3696TIP3    H132647   3.827   5.761   0.589
 3696TIP3    H232648   3.845   5.674   0.712
 3697TIP3   OH232649   3.373   3.351   8.765
 3697TIP3    H132650   3.369   3.397   8.849
 3697TIP3    H232651   3.423   3.411   8.708
 3698TIP3   OH232652   6.770   5.286   7.782
 3698TIP3    H132653   6.795   5.331   7.702
 3698TIP3    H232654   0.033   5.320   7.849
 3699TIP3   OH232655   5.133   1.420   8.759
 3699TIP3    H132656   5.228   1.428   8.750
 3699TIP3    H232657   5.113   1.467   8.840
 3700TIP3   OH232658   3.523   0.327   0.627
 3700TIP3    H132659   3.596   0.266   0.634
 3700TIP3    H232660   3.468   0.307   0.703
 3701TIP3   OH232661   3.157   2.134   1.575
 3701TIP3    H132662   3.218   2.207   1.579
 3701TIP3    H232663   3.202   2.062   1.618
 3702TIP3   OH232664   1.815   4.279   8.564
 3702TIP3    H132665   1.723   4.278   8.593
 3702TIP3    H232666   1.865   4.254   8.642
 3703TIP3   OH232667   6.467   2.082   7.930
 3703TIP3    H132668   6.403   2.129   7.984
 3703TIP3    H232669   6.522   2.037   7.994
 3704TIP3   OH232670   1.849   2.527   6.372
 3704TIP3    H132671   1.919   2.464   6.356
 3704TIP3    H232672   1.894   2.611   6.382
 3705TIP3   OH232673   1.980   4.005   0.021
 3705TIP3    H132674   1.932   4.085   8.872
 3705TIP3    H232675   1.994   4.012   0.115
 3706TIP3   OH232676   5.960   6.293   7.573
 3706TIP3    H132677   5.950   6.200   7.554
 3706TIP3    H232678   6.044   6.317   7.533
 3707TIP3   OH232679   5.122   2.497   1.311
 3707TIP3    H132680   5.203   2.462   1.348
 3707TIP3    H232681   5.115   2.585   1.347
 3708TIP3   OH232682   4.392   4.893   8.379
 3708TIP3    H132683   4.394   4.805   8.340
 3708TIP3    H232684   4.483   4.923   8.373
 3709TIP3   OH232685   5.093   2.923   1.126
 3709TIP3    H132686   5.097   2.957   1.215
 3709TIP3    H232687   5.135   2.990   1.072
 3710TIP3   OH232688   1.323   3.521   7.592
 3710TIP3    H132689   1.300   3.563   7.675
 3710TIP3    H232690   1.399   3.466   7.613
 3711TIP3   OH232691   4.826   1.098   6.954
 3711TIP3    H132692   4.903   1.145   6.923
 3711TIP3    H232693   4.769   1.167   6.988
 3712TIP3   OH232694   5.191   1.699   1.638
 3712TIP3    H132695   5.217   1.607   1.644
 3712TIP3    H232696   5.102   1.696   1.603
 3713TIP3   OH232697   1.314   3.532   7.191
 3713TIP3    H132698   1.383   3.490   7.242
 3713TIP3    H232699   1.271   3.591   7.254
 3714TIP3   OH232700   1.741   3.012   6.451
 3714TIP3    H132701   1.649   3.002   6.476
 3714TIP3    H232702   1.747   2.965   6.367
 3715TIP3   OH232703   4.477   2.632   6.856
 3715TIP3    H132704   4.423   2.596   6.785
 3715TIP3    H232705   4.567   2.610   6.832
 3716TIP3   OH232706   3.712   1.316   1.603
 3716TIP3    H132707   3.774   1.347   1.538
 3716TIP3    H232708   3.660   1.250   1.557
 3717TIP3   OH232709   1.584   2.301   1.573
 3717TIP3    H132710   1.548   2.376   1.526
 3717TIP3    H232711   1.642   2.339   1.638
 3718TIP3   OH232712   1.918   5.924   7.180
 3718TIP3    H132713   1.989   5.953   7.122
 3718TIP3    H232714   1.926   5.981   7.256
 3719TIP3   OH232715   0.020   5.570   6.616
 3719TIP3    H132716   0.089   5.513   6.651
 3719TIP3    H232717   0.018   5.550   6.523
 3720TIP3   OH232718   3.144   4.018   0.557
 3720TIP3    H132719   3.158   3.923   0.561
 3720TIP3    H232720   3.054   4.030   0.586
 3721TIP3   OH232721   4.627   2.423   7.771
 3721TIP3    H132722   4.613   2.488   7.702
 3721TIP3    H232723   4.683   2.467   7.835
 3722TIP3   OH232724   6.485   2.920   8.575
 3722TIP3    H132725   6.482   2.937   8.669
 3722TIP3    H232726   6.496   2.825   8.568
 3723TIP3   OH232727   2.642   4.061   1.855
 3723TIP3    H132728   2.564   4.042   1.906
 3723TIP3    H232729   2.708   4.000   1.889
 3724TIP3   OH232730   3.161   2.523   1.522
 3724TIP3    H132731   3.209   2.606   1.513
 3724TIP3    H232732   3.194   2.469   1.450
 3725TIP3   OH232733   0.787   4.024   1.321
 3725TIP3    H132734   0.860   4.021   1.383
 3725TIP3    H232735   0.723   4.083   1.361
 3726TIP3   OH232736   2.360   6.132   8.561
 3726TIP3    H132737   2.410   6.212   8.578
 3726TIP3    H232738   2.354   6.089   8.646
 3727TIP3   OH232739   4.234   3.382   2.025
 3727TIP3    H132740   4.249   3.387   2.120
 3727TIP3    H232741   4.287   3.307   1.997
 3728TIP3   OH232742   1.714   4.378   6.487
 3728TIP3    H132743   1.796   4.357   6.442
 3728TIP3    H232744   1.692   4.466   6.457
 3729TIP3   OH232745   1.264   0.254   0.239
 3729TIP3    H132746   1.275   0.241   0.333
 3729TIP3    H232747   1.253   0.165   0.204
 3730TIP3   OH232748   2.144   1.967   8.702
 3730TIP3    H132749   2.075   1.981   8.637
 3730TIP3    H232750   2.172   1.877   8.688
 3731TIP3   OH232751   2.304   6.003   8.798
 3731TIP3    H132752   2.255   5.927   8.766
 3731TIP3    H232753   2.268   6.020   0.011
 3732TIP3   OH232754   3.542   0.964   0.901
 3732TIP3    H132755   3.496   0.895   0.949
 3732TIP3    H232756   3.473   1.017   0.861
 3733TIP3   OH232757   5.746   2.595   8.547
 3733TIP3    H132758   5.773   2.535   8.616
 3733TIP3    H232759   5.711   2.538   8.478
 3734TIP3   OH232760   3.258   5.966   0.420
 3734TIP3    H132761   3.326   5.901   0.398
 3734TIP3    H232762   3.304   6.050   0.418
 3735TIP3   OH232763   4.329   4.594   0.590
 3735TIP3    H132764   4.327   4.690   0.599
 3735TIP3    H232765   4.339   4.580   0.496
 3736TIP3   OH232766   1.556   5.607   1.343
 3736TIP3    H132767   1.540   5.580   1.253
 3736TIP3    H232768   1.470   5.630   1.377
 3737TIP3   OH232769   4.852   6.484   8.062
 3737TIP3    H132770   4.788   6.522   8.002
 3737TIP3    H232771   4.807   6.410   8.102
 3738TIP3   OH232772   4.108   0.280   7.043
 3738TIP3    H132773   4.136   0.201   6.997
 3738TIP3    H232774   4.071   0.248   7.126
 3739TIP3   OH232775   3.623   5.900   1.457
 3739TIP3    H132776   3.543   5.889   1.508
 3739TIP3    H232777   3.660   5.983   1.487
 3740TIP3   OH232778   4.456   6.633   1.543
 3740TIP3    H132779   4.474   6.638   1.449
 3740TIP3    H232780   4.417   6.546   1.555
 3741TIP3   OH232781   6.148   3.930   1.375
 3741TIP3    H132782   6.185   3.849   1.409
 3741TIP3    H232783   6.059   3.906   1.348
 3742TIP3   OH232784   6.733   4.502   1.593
 3742TIP3    H132785   6.660   4.509   1.532
 3742TIP3    H232786   0.004   4.560   1.558
 3743TIP3   OH232787   1.395   0.765   0.347
 3743TIP3    H132788   1.354   0.683   0.374
 3743TIP3    H232789   1.355   0.832   0.402
 3744TIP3   OH232790   1.150   3.248   6.179
 3744TIP3    H132791   1.184   3.230   6.267
 3744TIP3    H232792   1.060   3.278   6.194
 3745TIP3   OH232793   0.482   1.658   2.059
 3745TIP3    H132794   0.485   1.750   2.033
 3745TIP3    H232795   0.463   1.611   1.979
 3746TIP3   OH232796   5.934   0.805   2.044
 3746TIP3    H132797   5.897   0.809   2.132
 3746TIP3    H232798   6.005   0.870   2.045
 3747TIP3   OH232799   6.036   0.776   6.990
 3747TIP3    H132800   6.098   0.831   6.940
 3747TIP3    H232801   6.064   0.785   7.081
 3748TIP3   OH232802   3.732   0.485   2.094
 3748TIP3    H132803   3.802   0.550   2.092
 3748TIP3    H232804   3.770   0.410   2.141
 3749TIP3   OH232805   0.633   6.272   0.153
 3749TIP3    H132806   0.583   6.349   0.125
 3749TIP3    H232807   0.713   6.276   0.100
 3750TIP3   OH232808   5.590   1.262   8.373
 3750TIP3    H132809   5.543   1.315   8.308
 3750TIP3    H232810   5.553   1.174   8.363
 3751TIP3   OH232811   3.410   2.663   8.116
 3751TIP3    H132812   3.349   2.594   8.143
 3751TIP3    H232813   3.405   2.663   8.020
 3752TIP3   OH232814   6.186   5.306   1.238
 3752TIP3    H132815   6.145   5.225   1.268
 3752TIP3    H232816   6.131   5.336   1.166
 3753TIP3   OH232817   3.981   2.846   6.796
 3753TIP3    H132818   3.949   2.783   6.860
 3753TIP3    H232819   3.946   2.817   6.712
 3754TIP3   OH232820   4.624   1.054   2.007
 3754TIP3    H132821   4.542   1.016   1.976
 3754TIP3    H232822   4.673   1.073   1.927
 3755TIP3   OH232823   0.690   0.803   1.126
 3755TIP3    H132824   0.707   0.710   1.111
 3755TIP3    H232825   0.773   0.837   1.162
 3756TIP3   OH232826   4.524   1.798   1.852
 3756TIP3    H132827   4.527   1.703   1.869
 3756TIP3    H232828   4.582   1.836   1.918
 3757TIP3   OH232829   6.025   3.755   1.765
 3757TIP3    H132830   6.097   3.764   1.827
 3757TIP3    H232831   5.975   3.836   1.774
 3758TIP3   OH232832   3.453   4.391   7.638
 3758TIP3    H132833   3.424   4.481   7.619
 3758TIP3    H232834   3.521   4.401   7.704
 3759TIP3   OH232835   4.164   2.819   8.788
 3759TIP3    H132836   4.073   2.798   8.808
 3759TIP3    H232837   4.189   2.755   8.721
 3760TIP3   OH232838   3.639   5.649   1.263
 3760TIP3    H132839   3.663   5.736   1.296
 3760TIP3    H232840   3.550   5.635   1.296
 3761TIP3   OH232841   6.143   4.049   7.557
 3761TIP3    H132842   6.151   4.093   7.642
 3761TIP3    H232843   6.050   4.028   7.549
 3762TIP3   OH232844   2.865   3.543   1.417
 3762TIP3    H132845   2.934   3.477   1.420
 3762TIP3    H232846   2.892   3.603   1.347
 3763TIP3   OH232847   2.664   6.549   7.871
 3763TIP3    H132848   2.746   6.532   7.916
 3763TIP3    H232849   2.676   6.635   7.830
 3764TIP3   OH232850   3.445   0.822   2.218
 3764TIP3    H132851   3.397   0.792   2.141
 3764TIP3    H232852   3.472   0.741   2.262
 3765TIP3   OH232853   0.802   6.393   1.253
 3765TIP3    H132854   0.791   6.303   1.284
 3765TIP3    H232855   0.841   6.438   1.328
 3766TIP3   OH232856   0.741   3.996   8.412
 3766TIP3    H132857   0.691   3.972   8.334
 3766TIP3    H232858   0.706   4.080   8.439
 3767TIP3   OH232859   2.614   6.710   2.592
 3767TIP3    H132860   2.528   6.748   2.608
 3767TIP3    H232861   2.677   6.775   2.622
 3768TIP3   OH232862   5.315   2.481   6.768
 3768TIP3    H132863   5.240   2.422   6.762
 3768TIP3    H232864   5.383   2.438   6.716
 3769TIP3   OH232865   6.438   6.182   8.373
 3769TIP3    H132866   6.467   6.270   8.395
 3769TIP3    H232867   6.518   6.131   8.364
 3770TIP3   OH232868   1.393   4.501   0.386
 3770TIP3    H132869   1.488   4.485   0.390
 3770TIP3    H232870   1.373   4.547   0.467
 3771TIP3   OH232871   3.727   1.133   8.736
 3771TIP3    H132872   3.807   1.097   8.776
 3771TIP3    H232873   3.756   1.163   8.650
 3772TIP3   OH232874   1.350   2.157   1.287
 3772TIP3    H132875   1.389   2.094   1.347
 3772TIP3    H232876   1.277   2.110   1.246
 3773TIP3   OH232877   2.907   3.464   7.229
 3773TIP3    H132878   2.972   3.534   7.238
 3773TIP3    H232879   2.823   3.510   7.232
 3774TIP3   OH232880   4.129   0.042   8.796
 3774TIP3    H132881   4.201   0.066   8.738
 3774TIP3    H232882   4.131   6.743   8.799
 3775TIP3   OH232883   1.807   6.557   1.685
 3775TIP3    H132884   1.770   6.486   1.633
 3775TIP3    H232885   1.899   6.560   1.661
 3776TIP3   OH232886   0.423   6.770   8.246
 3776TIP3    H132887   0.414   6.675   8.250
 3776TIP3    H232888   0.516   6.786   8.264
 3777TIP3   OH232889   5.355   6.275   2.296
 3777TIP3    H132890   5.374   6.224   2.217
 3777TIP3    H232891   5.305   6.350   2.264
 3778TIP3   OH232892   5.207   3.281   0.696
 3778TIP3    H132893   5.240   3.212   0.638
 3778TIP3    H232894   5.194   3.356   0.638
 3779TIP3   OH232895   4.214   3.750   7.573
 3779TIP3    H132896   4.258   3.835   7.571
 3779TIP3    H232897   4.284   3.688   7.592
 3780TIP3   OH232898   5.997   5.548   0.930
 3780TIP3    H132899   6.015   5.455   0.943
 3780TIP3    H232900   5.935   5.571   0.999
 3781TIP3   OH232901   3.670   5.976   2.191
 3781TIP3    H132902   3.748   6.020   2.155
 3781TIP3    H232903   3.706   5.913   2.253
 3782TIP3   OH232904   2.876   5.174   6.978
 3782TIP3    H132905   2.876   5.097   7.035
 3782TIP3    H232906   2.785   5.186   6.954
 3783TIP3   OH232907   5.363   5.508   7.249
 3783TIP3    H132908   5.279   5.462   7.245
 3783TIP3    H232909   5.390   5.517   7.157
 3784TIP3   OH232910   2.822   5.907   7.801
 3784TIP3    H132911   2.868   5.855   7.735
 3784TIP3    H232912   2.805   5.991   7.759
 3785TIP3   OH232913   0.976   0.071   6.235
 3785TIP3    H132914   0.981   6.793   6.175
 3785TIP3    H232915   1.036   0.047   6.306
 3786TIP3   OH232916   0.020   1.313   0.570
 3786TIP3    H132917   6.760   1.244   0.604
 3786TIP3    H232918   0.009   1.385   0.632
 3787TIP3   OH232919   6.647   2.203   0.394
 3787TIP3    H132920   6.729   2.188   0.440
 3787TIP3    H232921   6.599   2.121   0.405
 3788TIP3   OH232922   6.770   3.780   7.040
 3788TIP3    H132923   0.000   3.690   7.061
 3788TIP3    H232924   6.674   3.778   7.044
 3789TIP3   OH232925   2.390   2.624   1.680
 3789TIP3    H132926   2.339   2.547   1.702
 3789TIP3    H232927   2.444   2.641   1.757
 3790TIP3   OH232928   1.086   2.558   6.398
 3790TIP3    H132929   1.122   2.470   6.407
 3790TIP3    H232930   1.100   2.580   6.306
 3791TIP3   OH232931   4.437   1.824   0.242
 3791TIP3    H132932   4.366   1.867   0.289
 3791TIP3    H232933   4.406   1.734   0.229
 3792TIP3   OH232934   0.570   5.295   8.438
 3792TIP3    H132935   0.484   5.279   8.400
 3792TIP3    H232936   0.631   5.279   8.366
 3793TIP3   OH232937   4.916   3.848   0.986
 3793TIP3    H132938   4.867   3.771   0.956
 3793TIP3    H232939   4.998   3.846   0.936
 3794TIP3   OH232940   2.996   6.579   8.298
 3794TIP3    H132941   2.973   6.486   8.297
 3794TIP3    H232942   3.088   6.580   8.325
 3795TIP3   OH232943   2.759   5.152   1.760
 3795TIP3    H132944   2.777   5.063   1.790
 3795TIP3    H232945   2.787   5.208   1.832
 3796TIP3   OH232946   1.604   2.571   8.863
 3796TIP3    H132947   1.680   2.620   0.021
 3796TIP3    H232948   1.630   2.543   8.776
 3797TIP3   OH232949   0.011   4.606   8.062
 3797TIP3    H132950   0.097   4.565   8.078
 3797TIP3    H232951   0.001   4.603   7.967
 3798TIP3   OH232952   1.915   5.938   1.982
 3798TIP3    H132953   1.886   5.980   2.063
 3798TIP3    H232954   1.833   5.911   1.939
 3799TIP3   OH232955   1.420   6.220   0.255
 3799TIP3    H132956   1.454   6.133   0.238
 3799TIP3    H232957   1.394   6.253   0.169
 3800TIP3   OH232958   4.077   6.333   1.395
 3800TIP3    H132959   3.984   6.336   1.373
 3800TIP3    H232960   4.086   6.254   1.449
 3801TIP3   OH232961   5.393   6.226   0.373
 3801TIP3    H132962   5.464   6.281   0.405
 3801TIP3    H232963   5.408   6.140   0.414
 3802TIP3   OH232964   2.421   4.630   0.128
 3802TIP3    H132965   2.489   4.596   0.186
 3802TIP3    H232966   2.358   4.672   0.186
 3803TIP3   OH232967   2.261   1.174   7.167
 3803TIP3    H132968   2.289   1.095   7.213
 3803TIP3    H232969   2.339   1.207   7.124
 3804TIP3   OH232970   5.792   3.482   1.233
 3804TIP3    H132971   5.801   3.574   1.255
 3804TIP3    H232972   5.857   3.467   1.164
 3805TIP3   OH232973   3.322   2.083   0.887
 3805TIP3    H132974   3.257   2.029   0.842
 3805TIP3    H232975   3.276   2.163   0.911
 3806TIP3   OH232976   1.355   1.993   8.173
 3806TIP3    H132977   1.294   2.039   8.116
 3806TIP3    H232978   1.427   1.968   8.115
 3807TIP3   OH232979   3.983   3.864   1.054
 3807TIP3    H132980   3.907   3.906   1.094
 3807TIP3    H232981   3.945   3.799   0.994
 3808TIP3   OH232982   4.561   4.451   1.470
 3808TIP3    H132983   4.572   4.473   1.378
 3808TIP3    H232984   4.473   4.482   1.492
 3809TIP3   OH232985   1.470   0.690   6.297
 3809TIP3    H132986   1.401   0.751   6.270
 3809TIP3    H232987   1.447   0.608   6.253
 3810TIP3   OH232988   4.294   5.104   7.070
 3810TIP3    H132989   4.298   5.175   7.135
 3810TIP3    H232990   4.201   5.082   7.066
 3811TIP3   OH232991   4.693   2.363   0.193
 3811TIP3    H132992   4.611   2.407   0.168
 3811TIP3    H232993   4.671   2.316   0.274
 3812TIP3   OH232994   3.430   3.916   2.088
 3812TIP3    H132995   3.498   3.875   2.141
 3812TIP3    H232996   3.368   3.846   2.070
 3813TIP3   OH232997   5.047   0.309   7.517
 3813TIP3    H132998   4.981   0.360   7.471
 3813TIP3    H232999   5.106   0.278   7.448
 3814TIP3   OH233000   3.125   6.146   8.762
 3814TIP3    H133001   3.113   6.228   8.715
 3814TIP3    H233002   3.177   6.169   8.839
 3815TIP3   OH233003   6.175   3.475   0.756
 3815TIP3    H133004   6.140   3.564   0.755
 3815TIP3    H233005   6.185   3.455   0.850
 3816TIP3   OH233006   3.194   2.635   2.838
 3816TIP3    H133007   3.273   2.685   2.821
 3816TIP3    H233008   3.225   2.546   2.856
 3817TIP3   OH233009   5.422   0.584   0.743
 3817TIP3    H133010   5.446   0.538   0.663
 3817TIP3    H233011   5.357   0.648   0.715
 3818TIP3   OH233012   2.055   6.648   2.161
 3818TIP3    H133013   2.050   6.742   2.142
 3818TIP3    H233014   2.091   6.610   2.081
 3819TIP3   OH233015   1.613   3.190   8.846
 3819TIP3    H133016   1.705   3.213   8.855
 3819TIP3    H233017   1.566   3.272   8.864
 3820TIP3   OH233018   1.406   4.997   7.347
 3820TIP3    H133019   1.366   4.935   7.286
 3820TIP3    H233020   1.490   4.958   7.370
 3821TIP3   OH233021   1.863   2.057   7.465
 3821TIP3    H133022   1.887   2.112   7.390
 3821TIP3    H233023   1.784   2.098   7.500
 3822TIP3   OH233024   0.381   2.048   8.205
 3822TIP3    H133025   0.411   1.982   8.267
 3822TIP3    H233026   0.286   2.036   8.201
 3823TIP3   OH233027   2.538   4.312   0.649
 3823TIP3    H133028   2.492   4.321   0.733
 3823TIP3    H233029   2.590   4.392   0.641
 3824TIP3   OH233030   2.038   5.680   1.566
 3824TIP3    H133031   2.099   5.642   1.629
 3824TIP3    H233032   2.093   5.712   1.495
 3825TIP3   OH233033   2.733   1.497   6.529
 3825TIP3    H133034   2.733   1.403   6.545
 3825TIP3    H233035   2.822   1.525   6.549
 3826TIP3   OH233036   6.314   4.601   0.010
 3826TIP3    H133037   6.365   4.607   8.804
 3826TIP3    H233038   6.256   4.527   8.870
 3827TIP3   OH233039   1.022   2.182   7.472
 3827TIP3    H133040   0.955   2.239   7.433
 3827TIP3    H233041   1.105   2.220   7.444
 3828TIP3   OH233042   0.685   1.297   0.079
 3828TIP3    H133043   0.675   1.391   0.064
 3828TIP3    H233044   0.758   1.271   0.022
 3829TIP3   OH233045   2.092   6.144   8.491
 3829TIP3    H133046   2.184   6.126   8.510
 3829TIP3    H233047   2.077   6.103   8.406
 3830TIP3   OH233048   2.258   1.645   0.845
 3830TIP3    H133049   2.162   1.638   0.839
 3830TIP3    H233050   2.278   1.614   0.934
 3831TIP3   OH233051   0.274   0.010   1.729
 3831TIP3    H133052   0.284   0.079   1.663
 3831TIP3    H233053   0.288   0.054   1.813
 3832TIP3   OH233054   0.605   3.165   8.695
 3832TIP3    H133055   0.672   3.132   8.753
 3832TIP3    H233056   0.525   3.120   8.722
 3833TIP3   OH233057   4.859   5.341   2.323
 3833TIP3    H133058   4.799   5.366   2.252
 3833TIP3    H233059   4.835   5.399   2.396
 3834TIP3   OH233060   3.035   3.223   7.161
 3834TIP3    H133061   3.088   3.250   7.086
 3834TIP3    H233062   3.001   3.304   7.197
 3835TIP3   OH233063   1.621   0.266   8.231
 3835TIP3    H133064   1.639   0.179   8.264
 3835TIP3    H233065   1.527   0.279   8.246
 3836TIP3   OH233066   2.929   3.832   7.047
 3836TIP3    H133067   2.870   3.756   7.044
 3836TIP3    H233068   2.872   3.907   7.031
 3837TIP3   OH233069   5.998   5.598   0.662
 3837TIP3    H133070   5.963   5.556   0.740
 3837TIP3    H233071   6.092   5.604   0.678
 3838TIP3   OH233072   6.504   2.010   6.883
 3838TIP3    H133073   6.588   2.022   6.928
 3838TIP3    H233074   6.493   1.915   6.878
 3839TIP3   OH233075   5.897   6.737   1.063
 3839TIP3    H133076   5.872   6.648   1.036
 3839TIP3    H233077   5.825   6.792   1.034
 3840TIP3   OH233078   2.499   4.923   8.075
 3840TIP3    H133079   2.535   4.974   8.003
 3840TIP3    H233080   2.421   4.971   8.103
 3841TIP3   OH233081   3.093   5.132   1.904
 3841TIP3    H133082   3.178   5.175   1.911
 3841TIP3    H233083   3.105   5.047   1.947
 3842TIP3   OH233084   5.223   5.471   0.695
 3842TIP3    H133085   5.286   5.503   0.759
 3842TIP3    H233086   5.244   5.379   0.685
 3843TIP3   OH233087   0.482   1.099   5.803
 3843TIP3    H133088   0.455   1.088   5.894
 3843TIP3    H233089   0.513   1.013   5.777
 3844TIP3   OH233090   4.306   3.532   8.152
 3844TIP3    H133091   4.244   3.582   8.204
 3844TIP3    H233092   4.332   3.591   8.081
 3845TIP3   OH233093   1.666   2.122   7.989
 3845TIP3    H133094   1.634   2.034   8.008
 3845TIP3    H233095   1.753   2.125   8.027
 3846TIP3   OH233096   3.128   3.364   0.128
 3846TIP3    H133097   3.131   3.314   0.046
 3846TIP3    H233098   3.208   3.416   0.126
 3847TIP3   OH233099   3.719   3.670   8.326
 3847TIP3    H133100   3.735   3.616   8.403
 3847TIP3    H233101   3.743   3.758   8.353
 3848TIP3   OH233102   1.120   1.010   1.318
 3848TIP3    H133103   1.067   1.087   1.299
 3848TIP3    H233104   1.207   1.032   1.284
 3849TIP3   OH233105   4.428   6.757   8.021
 3849TIP3    H133106   4.392   6.724   7.939
 3849TIP3    H233107   4.355   0.005   8.064
 3850TIP3   OH233108   0.299   3.788   7.493
 3850TIP3    H133109   0.296   3.707   7.440
 3850TIP3    H233110   0.210   3.821   7.491
 3851TIP3   OH233111   3.563   4.577   2.232
 3851TIP3    H133112   3.478   4.537   2.215
 3851TIP3    H233113   3.624   4.528   2.177
 3852TIP3   OH233114   4.834   0.669   7.175
 3852TIP3    H133115   4.783   0.734   7.223
 3852TIP3    H233116   4.770   0.625   7.120
 3853TIP3   OH233117   5.278   2.158   7.646
 3853TIP3    H133118   5.277   2.169   7.551
 3853TIP3    H233119   5.346   2.218   7.676
 3854TIP3   OH233120   0.961   5.974   0.610
 3854TIP3    H133121   0.948   5.996   0.518
 3854TIP3    H233122   0.948   6.056   0.657
 3855TIP3   OH233123   5.316   0.898   7.368
 3855TIP3    H133124   5.353   0.880   7.455
 3855TIP3    H233125   5.323   0.815   7.321
 3856TIP3   OH233126   2.213   5.320   6.533
 3856TIP3    H133127   2.138   5.264   6.555
 3856TIP3    H233128   2.186   5.366   6.454
 3857TIP3   OH233129   2.918   6.324   7.991
 3857TIP3    H133130   2.917   6.271   7.911
 3857TIP3    H233131   2.966   6.403   7.968
 3858TIP3   OH233132   5.865   5.392   1.467
 3858TIP3    H133133   5.825   5.305   1.474
 3858TIP3    H233134   5.853   5.417   1.375
 3859TIP3   OH233135   1.200   3.412   5.932
 3859TIP3    H133136   1.295   3.417   5.926
 3859TIP3    H233137   1.183   3.377   6.019
 3860TIP3   OH233138   0.070   3.988   6.802
 3860TIP3    H133139   0.022   3.966   6.882
 3860TIP3    H233140   0.117   4.069   6.823
 3861TIP3   OH233141   3.471   2.207   7.064
 3861TIP3    H133142   3.558   2.172   7.047
 3861TIP3    H233143   3.476   2.299   7.035
 3862TIP3   OH233144   0.784   4.672   2.480
 3862TIP3    H133145   0.699   4.711   2.464
 3862TIP3    H233146   0.847   4.730   2.437
 3863TIP3   OH233147   1.328   5.120   1.472
 3863TIP3    H133148   1.411   5.075   1.487
 3863TIP3    H233149   1.275   5.057   1.424
 3864TIP3   OH233150   3.285   6.131   1.808
 3864TIP3    H133151   3.326   6.046   1.795
 3864TIP3    H233152   3.197   6.111   1.838
 3865TIP3   OH233153   5.509   5.596   1.693
 3865TIP3    H133154   5.437   5.536   1.674
 3865TIP3    H233155   5.484   5.637   1.776
 3866TIP3   OH233156   3.873   4.631   8.007
 3866TIP3    H133157   3.839   4.647   7.918
 3866TIP3    H233158   3.811   4.675   8.065
 3867TIP3   OH233159   4.186   3.367   7.507
 3867TIP3    H133160   4.216   3.276   7.507
 3867TIP3    H233161   4.119   3.371   7.575
 3868TIP3   OH233162   0.570   0.562   6.570
 3868TIP3    H133163   0.478   0.562   6.546
 3868TIP3    H233164   0.611   0.621   6.508
 3869TIP3   OH233165   3.152   6.466   8.743
 3869TIP3    H133166   3.109   6.547   8.714
 3869TIP3    H233167   3.110   6.397   8.692
 3870TIP3   OH233168   2.106   1.055   0.515
 3870TIP3    H133169   2.135   1.003   0.440
 3870TIP3    H233170   2.186   1.071   0.566
 3871TIP3   OH233171   1.648   0.035   2.194
 3871TIP3    H133172   1.685   6.747   2.167
 3871TIP3    H233173   1.719   0.098   2.178
 3872TIP3   OH233174   2.106   3.351   1.066
 3872TIP3    H133175   2.024   3.304   1.052
 3872TIP3    H233176   2.173   3.282   1.065
 3873TIP3   OH233177   1.780   0.861   7.950
 3873TIP3    H133178   1.711   0.880   7.887
 3873TIP3    H233179   1.819   0.779   7.920
 3874TIP3   OH233180   5.880   4.444   0.208
 3874TIP3    H133181   5.868   4.531   0.247
 3874TIP3    H233182   5.941   4.400   0.267
 3875TIP3   OH233183   3.532   5.817   8.251
 3875TIP3    H133184   3.621   5.796   8.279
 3875TIP3    H233185   3.477   5.751   8.293
 3876TIP3   OH233186   2.493   1.039   0.201
 3876TIP3    H133187   2.565   1.057   0.140
 3876TIP3    H233188   2.431   0.986   0.151
 3877TIP3   OH233189   6.166   0.508   8.122
 3877TIP3    H133190   6.106   0.435   8.106
 3877TIP3    H233191   6.109   0.580   8.149
 3878TIP3   OH233192   5.282   5.448   1.692
 3878TIP3    H133193   5.280   5.409   1.780
 3878TIP3    H233194   5.193   5.437   1.659
 3879TIP3   OH233195   4.031   1.685   2.146
 3879TIP3    H133196   3.973   1.745   2.193
 3879TIP3    H233197   4.109   1.678   2.200
 3880TIP3   OH233198   2.570   0.889   2.312
 3880TIP3    H133199   2.516   0.830   2.260
 3880TIP3    H233200   2.630   0.831   2.360
 3881TIP3   OH233201   2.100   0.957   8.307
 3881TIP3    H133202   2.135   0.872   8.334
 3881TIP3    H233203   2.131   0.967   8.217
 3882TIP3   OH233204   4.860   2.197   0.633
 3882TIP3    H133205   4.910   2.189   0.551
 3882TIP3    H233206   4.870   2.112   0.675
 3883TIP3   OH233207   3.068   5.377   1.636
 3883TIP3    H133208   3.038   5.289   1.615
 3883TIP3    H233209   3.133   5.397   1.568
 3884TIP3   OH233210   3.292   3.646   8.458
 3884TIP3    H133211   3.303   3.681   8.546
 3884TIP3    H233212   3.289   3.551   8.470
 3885TIP3   OH233213   2.726   2.487   1.080
 3885TIP3    H133214   2.783   2.524   1.012
 3885TIP3    H233215   2.782   2.427   1.129
 3886TIP3   OH233216   0.213   0.958   7.725
 3886TIP3    H133217   0.209   0.863   7.737
 3886TIP3    H233218   0.168   0.974   7.642
 3887TIP3   OH233219   4.283   2.541   2.906
 3887TIP3    H133220   4.379   2.543   2.905
 3887TIP3    H233221   4.259   2.512   2.818
 3888TIP3   OH233222   4.151   0.834   8.117
 3888TIP3    H133223   4.211   0.891   8.166
 3888TIP3    H233224   4.138   0.759   8.174
 3889TIP3   OH233225   0.084   3.616   7.907
 3889TIP3    H133226   0.023   3.612   7.981
 3889TIP3    H233227   0.169   3.593   7.945
 3890TIP3   OH233228   3.727   4.831   1.300
 3890TIP3    H133229   3.704   4.874   1.218
 3890TIP3    H233230   3.784   4.894   1.345
 3891TIP3   OH233231   5.112   1.078   7.404
 3891TIP3    H133232   5.180   1.014   7.381
 3891TIP3    H233233   5.157   1.163   7.401
 3892TIP3   OH233234   0.676   5.294   1.585
 3892TIP3    H133235   0.668   5.269   1.493
 3892TIP3    H233236   0.661   5.213   1.634
 3893TIP3   OH233237   3.073   5.487   0.468
 3893TIP3    H133238   3.024   5.524   0.395
 3893TIP3    H233239   3.091   5.561   0.525
 3894TIP3   OH233240   6.610   5.704   7.551
 3894TIP3    H133241   6.536   5.643   7.555
 3894TIP3    H233242   6.581   5.781   7.598
 3895TIP3   OH233243   1.133   1.819   6.523
 3895TIP3    H133244   1.226   1.811   6.547
 3895TIP3    H233245   1.123   1.910   6.497
 3896TIP3   OH233246   4.161   1.478   1.128
 3896TIP3    H133247   4.198   1.534   1.195
 3896TIP3    H233248   4.167   1.390   1.164
 3897TIP3   OH233249   1.282   6.409   1.736
 3897TIP3    H133250   1.223   6.456   1.678
 3897TIP3    H233251   1.346   6.474   1.764
 3898TIP3   OH233252   0.062   2.943   1.195
 3898TIP3    H133253   0.037   2.959   1.104
 3898TIP3    H233254   0.140   2.888   1.189
 3899TIP3   OH233255   6.571   2.852   1.428
 3899TIP3    H133256   6.563   2.762   1.396
 3899TIP3    H233257   6.624   2.846   1.507
 3900TIP3   OH233258   6.584   2.337   1.215
 3900TIP3    H133259   6.649   2.333   1.144
 3900TIP3    H233260   6.574   2.247   1.244
 3901TIP3   OH233261   4.725   5.341   7.907
 3901TIP3    H133262   4.806   5.383   7.935
 3901TIP3    H233263   4.718   5.263   7.962
 3902TIP3   OH233264   1.286   1.009   8.137
 3902TIP3    H133265   1.223   0.946   8.102
 3902TIP3    H233266   1.237   1.057   8.204
 3903TIP3   OH233267   3.121   3.227   8.730
 3903TIP3    H133268   3.216   3.242   8.735
 3903TIP3    H233269   3.111   3.133   8.743
 3904TIP3   OH233270   2.907   5.543   8.623
 3904TIP3    H133271   2.968   5.470   8.611
 3904TIP3    H233272   2.960   5.612   8.661
 3905TIP3   OH233273   5.806   4.238   0.582
 3905TIP3    H133274   5.848   4.169   0.531
 3905TIP3    H233275   5.745   4.192   0.639
 3906TIP3   OH233276   6.249   3.000   1.062
 3906TIP3    H133277   6.171   3.045   1.029
 3906TIP3    H233278   6.309   2.999   0.987
 3907TIP3   OH233279   0.708   1.273   0.710
 3907TIP3    H133280   0.698   1.339   0.779
 3907TIP3    H233281   0.645   1.205   0.732
 3908TIP3   OH233282   3.964   1.636   7.123
 3908TIP3    H133283   4.022   1.703   7.086
 3908TIP3    H233284   3.878   1.656   7.088
 3909TIP3   OH233285   4.127   3.960   1.271
 3909TIP3    H133286   4.053   3.916   1.230
 3909TIP3    H233287   4.184   3.889   1.299
 3910TIP3   OH233288   6.484   0.205   7.760
 3910TIP3    H133289   6.419   0.189   7.829
 3910TIP3    H233290   6.515   0.294   7.776
 3911TIP3   OH233291   6.101   2.544   2.499
 3911TIP3    H133292   6.080   2.563   2.590
 3911TIP3    H233293   6.057   2.461   2.481
 3912TIP3   OH233294   0.633   4.727   2.157
 3912TIP3    H133295   0.571   4.705   2.088
 3912TIP3    H233296   0.579   4.767   2.226
 3913TIP3   OH233297   3.737   1.043   7.679
 3913TIP3    H133298   3.703   1.053   7.591
 3913TIP3    H233299   3.762   1.132   7.705
 3914TIP3   OH233300   3.494   1.680   0.364
 3914TIP3    H133301   3.444   1.606   0.399
 3914TIP3    H233302   3.513   1.654   0.273
 3915TIP3   OH233303   0.292   5.730   1.344
 3915TIP3    H133304   0.308   5.640   1.373
 3915TIP3    H233305   0.379   5.764   1.321
 3916TIP3   OH233306   3.961   5.680   7.418
 3916TIP3    H133307   4.002   5.594   7.406
 3916TIP3    H233308   3.922   5.676   7.505
 3917TIP3   OH233309   5.090   0.093   6.622
 3917TIP3    H133310   5.145   0.035   6.675
 3917TIP3    H233311   5.113   0.072   6.532
 3918TIP3   OH233312   4.099   6.354   7.226
 3918TIP3    H133313   4.188   6.368   7.194
 3918TIP3    H233314   4.100   6.266   7.263
 3919TIP3   OH233315   1.957   4.703   1.795
 3919TIP3    H133316   1.929   4.713   1.704
 3919TIP3    H233317   2.051   4.690   1.791
 3920TIP3   OH233318   1.652   4.845   7.156
 3920TIP3    H133319   1.723   4.791   7.122
 3920TIP3    H233320   1.577   4.824   7.100
 3921TIP3   OH233321   4.191   5.344   8.285
 3921TIP3    H133322   4.264   5.399   8.313
 3921TIP3    H233323   4.225   5.255   8.286
 3922TIP3   OH233324   1.750   2.181   0.820
 3922TIP3    H133325   1.771   2.176   0.727
 3922TIP3    H233326   1.747   2.275   0.839
 3923TIP3   OH233327   2.974   0.018   0.873
 3923TIP3    H133328   2.954   6.743   0.934
 3923TIP3    H233329   2.891   0.036   0.829
 3924TIP3   OH233330   5.314   4.848   1.289
 3924TIP3    H133331   5.355   4.849   1.203
 3924TIP3    H233332   5.344   4.928   1.331
 3925TIP3   OH233333   0.107   6.675   0.372
 3925TIP3    H133334   0.073   6.607   0.313
 3925TIP3    H233335   0.197   6.648   0.390
 3926TIP3   OH233336   6.422   1.623   1.664
 3926TIP3    H133337   6.338   1.668   1.664
 3926TIP3    H233338   6.434   1.595   1.573
 3927TIP3   OH233339   6.274   3.780   0.558
 3927TIP3    H133340   6.245   3.871   0.569
 3927TIP3    H233341   6.200   3.727   0.590
 3928TIP3   OH233342   6.122   0.422   8.834
 3928TIP3    H133343   6.034   0.447   8.862
 3928TIP3    H233344   6.180   0.450   0.030
 3929TIP3   OH233345   4.134   2.119   0.232
 3929TIP3    H133346   4.133   2.035   0.276
 3929TIP3    H233347   4.140   2.098   0.139
 3930TIP3   OH233348   4.064   2.434   1.684
 3930TIP3    H133349   4.141   2.382   1.706
 3930TIP3    H233350   4.085   2.522   1.716
 3931TIP3   OH233351   0.225   0.101   8.073
 3931TIP3    H133352   0.204   0.036   8.006
 3931TIP3    H233353   0.288   0.058   8.130
 3932TIP3   OH233354   1.075   6.400   7.469
 3932TIP3    H133355   0.982   6.375   7.465
 3932TIP3    H233356   1.083   6.469   7.403
 3933TIP3   OH233357   0.364   4.972   2.092
 3933TIP3    H133358   0.408   4.903   2.141
 3933TIP3    H233359   0.298   5.007   2.152
 3934TIP3   OH233360   3.721   6.039   7.918
 3934TIP3    H133361   3.733   6.134   7.911
 3934TIP3    H233362   3.810   6.004   7.927
 3935TIP3   OH233363   2.926   6.004   2.443
 3935TIP3    H133364   2.845   5.957   2.461
 3935TIP3    H233365   2.922   6.081   2.501
 3936TIP3   OH233366   4.203   1.516   8.646
 3936TIP3    H133367   4.255   1.561   8.579
 3936TIP3    H233368   4.233   1.555   8.729
 3937TIP3   OH233369   6.310   2.795   7.439
 3937TIP3    H133370   6.372   2.777   7.509
 3937TIP3    H233371   6.336   2.881   7.405
 3938TIP3   OH233372   1.002   0.669   8.728
 3938TIP3    H133373   1.045   0.717   8.800
 3938TIP3    H233374   1.074   0.628   8.681
 3939TIP3   OH233375   4.334   5.220   8.791
 3939TIP3    H133376   4.240   5.209   8.779
 3939TIP3    H233377   4.346   5.224   0.011
 3940TIP3   OH233378   3.316   4.051   0.286
 3940TIP3    H133379   3.309   4.074   0.379
 3940TIP3    H233380   3.247   3.987   0.271
 3941TIP3   OH233381   2.496   4.530   1.737
 3941TIP3    H133382   2.541   4.612   1.758
 3941TIP3    H233383   2.525   4.509   1.649
 3942TIP3   OH233384   5.142   6.218   7.105
 3942TIP3    H133385   5.113   6.164   7.031
 3942TIP3    H233386   5.158   6.155   7.175
 3943TIP3   OH233387   0.052   2.506   1.258
 3943TIP3    H133388   0.046   2.424   1.307
 3943TIP3    H233389   0.041   2.574   1.324
 3944TIP3   OH233390   4.320   4.592   8.361
 3944TIP3    H133391   4.359   4.506   8.379
 3944TIP3    H233392   4.231   4.585   8.396
 3945TIP3   OH233393   1.346   4.034   8.607
 3945TIP3    H133394   1.402   3.958   8.593
 3945TIP3    H233395   1.277   4.001   8.665
 3946TIP3   OH233396   2.481   4.212   2.357
 3946TIP3    H133397   2.443   4.295   2.386
 3946TIP3    H233398   2.470   4.153   2.431
 3947TIP3   OH233399   3.688   6.639   1.147
 3947TIP3    H133400   3.685   6.713   1.086
 3947TIP3    H233401   3.736   6.571   1.100
 3948TIP3   OH233402   2.078   5.040   0.335
 3948TIP3    H133403   2.023   5.089   0.273
 3948TIP3    H233404   2.041   5.060   0.421
 3949TIP3   OH233405   2.694   2.809   1.600
 3949TIP3    H133406   2.743   2.740   1.555
 3949TIP3    H233407   2.726   2.807   1.690
 3950TIP3   OH233408   2.416   5.324   0.443
 3950TIP3    H133409   2.430   5.393   0.379
 3950TIP3    H233410   2.493   5.268   0.435
 3951TIP3   OH233411   5.010   4.958   0.532
 3951TIP3    H133412   5.009   5.049   0.503
 3951TIP3    H233413   5.102   4.934   0.535
 3952TIP3   OH233414   4.943   3.077   8.674
 3952TIP3    H133415   5.019   3.105   8.622
 3952TIP3    H233416   4.931   3.147   8.738
 3953TIP3   OH233417   1.633   2.637   7.466
 3953TIP3    H133418   1.677   2.552   7.461
 3953TIP3    H233419   1.680   2.692   7.404
 3954TIP3   OH233420   5.345   4.467   0.107
 3954TIP3    H133421   5.401   4.458   0.029
 3954TIP3    H233422   5.377   4.401   0.167
 3955TIP3   OH233423   1.842   3.390   6.796
 3955TIP3    H133424   1.932   3.403   6.766
 3955TIP3    H233425   1.849   3.323   6.864
 3956TIP3   OH233426   2.255   1.275   1.099
 3956TIP3    H133427   2.307   1.354   1.085
 3956TIP3    H233428   2.214   1.287   1.184
 3957TIP3   OH233429   5.073   2.595   8.084
 3957TIP3    H133430   5.012   2.649   8.135
 3957TIP3    H233431   5.140   2.657   8.054
 3958TIP3   OH233432   4.381   2.167   0.991
 3958TIP3    H133433   4.467   2.188   0.955
 3958TIP3    H233434   4.344   2.251   1.017
 3959TIP3   OH233435   2.346   1.411   7.532
 3959TIP3    H133436   2.429   1.367   7.512
 3959TIP3    H233437   2.280   1.360   7.485
 3960TIP3   OH233438   5.194   0.456   0.908
 3960TIP3    H133439   5.224   0.378   0.861
 3960TIP3    H233440   5.206   0.528   0.846
 3961TIP3   OH233441   3.885   4.032   6.978
 3961TIP3    H133442   3.951   3.963   6.973
 3961TIP3    H233443   3.906   4.090   6.906
 3962TIP3   OH233444   4.108   2.610   0.872
 3962TIP3    H133445   4.139   2.577   0.788
 3962TIP3    H233446   4.188   2.634   0.919
 3963TIP3   OH233447   1.268   1.267   8.297
 3963TIP3    H133448   1.220   1.235   8.221
 3963TIP3    H233449   1.230   1.353   8.316
 3964TIP3   OH233450   4.404   0.527   7.399
 3964TIP3    H133451   4.327   0.474   7.421
 3964TIP3    H233452   4.431   0.494   7.313
 3965TIP3   OH233453   4.049   5.432   8.067
 3965TIP3    H133454   4.088   5.503   8.015
 3965TIP3    H233455   4.110   5.420   8.140
 3966TIP3   OH233456   6.149   5.174   0.755
 3966TIP3    H133457   6.167   5.110   0.687
 3966TIP3    H233458   6.235   5.204   0.785
 3967TIP3   OH233459   1.493   2.052   1.523
 3967TIP3    H133460   1.569   2.005   1.488
 3967TIP3    H233461   1.521   2.143   1.527
 3968TIP3   OH233462   5.956   2.876   8.857
 3968TIP3    H133463   6.024   2.821   8.818
 3968TIP3    H233464   5.877   2.822   8.854
 3969TIP3   OH233465   4.011   2.074   1.753
 3969TIP3    H133466   3.945   2.025   1.801
 3969TIP3    H233467   4.012   2.035   1.666
 3970TIP3   OH233468   6.467   3.572   0.308
 3970TIP3    H133469   6.493   3.664   0.313
 3970TIP3    H233470   6.385   3.567   0.358
 3971TIP3   OH233471   4.881   1.619   0.485
 3971TIP3    H133472   4.821   1.568   0.540
 3971TIP3    H233473   4.950   1.648   0.544
 3972TIP3   OH233474   4.633   6.308   0.644
 3972TIP3    H133475   4.643   6.390   0.694
 3972TIP3    H233476   4.547   6.314   0.605
 3973TIP3   OH233477   4.020   2.930   7.985
 3973TIP3    H133478   4.025   2.837   8.005
 3973TIP3    H233479   3.931   2.955   8.010
 3974TIP3   OH233480   0.835   0.907   7.143
 3974TIP3    H133481   0.920   0.894   7.186
 3974TIP3    H233482   0.810   0.819   7.114
 3975TIP3   OH233483   2.338   4.745   7.899
 3975TIP3    H133484   2.328   4.831   7.939
 3975TIP3    H233485   2.410   4.704   7.947
 3976TIP3   OH233486   3.518   3.336   1.880
 3976TIP3    H133487   3.566   3.362   1.802
 3976TIP3    H233488   3.582   3.343   1.951
 3977TIP3   OH233489   5.202   4.397   7.805
 3977TIP3    H133490   5.260   4.329   7.769
 3977TIP3    H233491   5.149   4.425   7.730
 3978TIP3   OH233492   2.909   3.996   1.047
 3978TIP3    H133493   3.004   3.985   1.052
 3978TIP3    H233494   2.874   3.910   1.068
 3979TIP3   OH233495   3.953   5.059   8.407
 3979TIP3    H133496   3.893   5.134   8.406
 3979TIP3    H233497   4.038   5.097   8.431
 3980TIP3   OH233498   1.048   2.982   8.217
 3980TIP3    H133499   0.966   2.991   8.169
 3980TIP3    H233500   1.072   2.890   8.205
 3981TIP3   OH233501   4.373   2.886   1.820
 3981TIP3    H133502   4.430   2.924   1.887
 3981TIP3    H233503   4.297   2.854   1.869
 3982TIP3   OH233504   3.290   6.656   2.007
 3982TIP3    H133505   3.286   6.570   2.049
 3982TIP3    H233506   3.207   6.698   2.030
 3983TIP3   OH233507   0.005   5.592   1.022
 3983TIP3    H133508   0.003   5.616   1.114
 3983TIP3    H233509   6.764   5.504   1.019
 3984TIP3   OH233510   1.809   1.523   1.963
 3984TIP3    H133511   1.729   1.542   1.915
 3984TIP3    H233512   1.841   1.608   1.992
 3985TIP3   OH233513   1.164   4.630   8.418
 3985TIP3    H133514   1.095   4.572   8.385
 3985TIP3    H233515   1.158   4.622   8.513
 3986TIP3   OH233516   5.086   5.894   6.452
 3986TIP3    H133517   5.097   5.855   6.365
 3986TIP3    H233518   5.000   5.865   6.480
 3987TIP3   OH233519   3.085   3.670   7.222
 3987TIP3    H133520   3.067   3.746   7.166
 3987TIP3    H233521   3.176   3.681   7.248
 3988TIP3   OH233522   4.343   5.541   6.455
 3988TIP3    H133523   4.386   5.595   6.521
 3988TIP3    H233524   4.285   5.484   6.505
 3989TIP3   OH233525   6.792   6.108   2.232
 3989TIP3    H133526   0.088   6.087   2.239
 3989TIP3    H233527   6.789   6.204   2.237
 3990TIP3   OH233528   4.929   0.509   8.092
 3990TIP3    H133529   4.999   0.499   8.028
 3990TIP3    H233530   4.940   0.436   8.152
 3991TIP3   OH233531   4.982   3.167   7.753
 3991TIP3    H133532   5.018   3.200   7.671
 3991TIP3    H233533   5.019   3.079   7.762
 3992TIP3   OH233534   1.869   5.892   1.624
 3992TIP3    H133535   1.940   5.832   1.600
 3992TIP3    H233536   1.836   5.857   1.707
 3993TIP3   OH233537   5.371   3.703   8.272
 3993TIP3    H133538   5.363   3.752   8.191
 3993TIP3    H233539   5.323   3.621   8.256
 3994TIP3   OH233540   5.187   1.719   0.945
 3994TIP3    H133541   5.272   1.679   0.926
 3994TIP3    H233542   5.124   1.665   0.898
 3995TIP3   OH233543   0.755   2.833   1.621
 3995TIP3    H133544   0.710   2.913   1.646
 3995TIP3    H233545   0.747   2.830   1.526
 3996TIP3   OH233546   0.923   6.184   6.906
 3996TIP3    H133547   0.898   6.223   6.989
 3996TIP3    H233548   1.015   6.210   6.893
 3997TIP3   OH233549   5.534   1.193   7.297
 3997TIP3    H133550   5.615   1.243   7.311
 3997TIP3    H233551   5.561   1.102   7.308
 3998TIP3   OH233552   4.795   0.166   1.193
 3998TIP3    H133553   4.847   0.231   1.241
 3998TIP3    H233554   4.857   0.095   1.174
 3999TIP3   OH233555   6.762   2.948   0.869
 3999TIP3    H133556   0.030   2.878   0.881
 3999TIP3    H233557   6.729   2.935   0.780
 4000TIP3   OH233558   1.350   0.152   8.560
 4000TIP3    H133559   1.316   0.240   8.540
 4000TIP3    H233560   1.396   0.163   8.644
 4001TIP3   OH233561   0.888   4.035   0.272
 4001TIP3    H133562   0.809   4.019   0.221
 4001TIP3    H233563   0.931   3.949   0.279
 4002TIP3   OH233564   5.735   6.065   7.554
 4002TIP3    H133565   5.754   6.128   7.485
 4002TIP3    H233566   5.640   6.051   7.548
 4003TIP3   OH233567   0.015   0.798   0.873
 4003TIP3    H133568   0.050   0.776   0.787
 4003TIP3    H233569   6.719   0.774   0.868
 4004TIP3   OH233570   6.494   5.357   0.069
 4004TIP3    H133571   6.447   5.341   8.861
 4004TIP3    H233572   6.486   5.274   0.117
 4005TIP3   OH233573   4.303   4.224   0.075
 4005TIP3    H133574   4.288   4.192   0.164
 4005TIP3    H233575   4.336   4.313   0.087
 4006TIP3   OH233576   3.840   5.934   7.389
 4006TIP3    H133577   3.755   5.891   7.403
 4006TIP3    H233578   3.904   5.863   7.394
 4007TIP3   OH233579   2.459   0.757   0.614
 4007TIP3    H133580   2.368   0.738   0.636
 4007TIP3    H233581   2.480   0.835   0.666
 4008TIP3   OH233582   2.246   3.425   6.992
 4008TIP3    H133583   2.230   3.446   7.083
 4008TIP3    H233584   2.164   3.387   6.960
 4009TIP3   OH233585   2.115   5.758   1.914
 4009TIP3    H133586   2.094   5.718   1.998
 4009TIP3    H233587   2.057   5.834   1.908
 4010TIP3   OH233588   0.679   1.555   0.591
 4010TIP3    H133589   0.620   1.490   0.552
 4010TIP3    H233590   0.763   1.539   0.549
 4011TIP3   OH233591   2.134   2.581   7.030
 4011TIP3    H133592   2.123   2.591   7.125
 4011TIP3    H233593   2.112   2.667   6.994
 4012TIP3   OH233594   5.243   2.446   2.376
 4012TIP3    H133595   5.232   2.484   2.463
 4012TIP3    H233596   5.337   2.445   2.362
 4013TIP3   OH233597   5.909   4.460   1.154
 4013TIP3    H133598   5.827   4.435   1.198
 4013TIP3    H233599   5.972   4.470   1.225
 4014TIP3   OH233600   5.725   2.916   1.546
 4014TIP3    H133601   5.704   2.824   1.530
 4014TIP3    H233602   5.821   2.919   1.544
 4015TIP3   OH233603   6.210   5.035   7.249
 4015TIP3    H133604   6.225   5.124   7.217
 4015TIP3    H233605   6.232   5.038   7.342
 4016TIP3   OH233606   1.345   1.807   0.301
 4016TIP3    H133607   1.386   1.765   0.376
 4016TIP3    H233608   1.416   1.814   0.236
 4017TIP3   OH233609   4.577   1.353   2.650
 4017TIP3    H133610   4.560   1.260   2.638
 4017TIP3    H233611   4.535   1.374   2.733
 4018TIP3   OH233612   3.509   0.550   1.659
 4018TIP3    H133613   3.417   0.564   1.637
 4018TIP3    H233614   3.509   0.472   1.715
 4019TIP3   OH233615   5.590   1.266   6.706
 4019TIP3    H133616   5.524   1.198   6.695
 4019TIP3    H233617   5.662   1.239   6.649
 4020TIP3   OH233618   1.615   4.758   2.934
 4020TIP3    H133619   1.528   4.774   2.898
 4020TIP3    H233620   1.650   4.686   2.882
 4021TIP3   OH233621   5.484   3.492   1.613
 4021TIP3    H133622   5.416   3.434   1.647
 4021TIP3    H233623   5.521   3.445   1.539
 4022TIP3   OH233624   5.045   6.491   8.585
 4022TIP3    H133625   4.994   6.410   8.584
 4022TIP3    H233626   5.020   6.536   8.504
 4023TIP3   OH233627   6.743   2.951   1.616
 4023TIP3    H133628   0.024   2.935   1.670
 4023TIP3    H233629   6.776   3.001   1.541
 4024TIP3   OH233630   6.502   2.821   7.850
 4024TIP3    H133631   6.495   2.857   7.762
 4024TIP3    H233632   6.423   2.850   7.895
 4025TIP3   OH233633   6.052   4.992   7.729
 4025TIP3    H133634   6.109   4.924   7.766
 4025TIP3    H233635   5.972   4.987   7.782
 4026TIP3   OH233636   5.679   6.206   0.738
 4026TIP3    H133637   5.648   6.124   0.700
 4026TIP3    H233638   5.638   6.210   0.824
 4027TIP3   OH233639   5.454   2.757   1.581
 4027TIP3    H133640   5.487   2.706   1.507
 4027TIP3    H233641   5.424   2.839   1.542
 4028TIP3   OH233642   2.723   5.635   1.228
 4028TIP3    H133643   2.727   5.540   1.244
 4028TIP3    H233644   2.637   5.661   1.261
 4029TIP3   OH233645   2.757   2.814   8.240
 4029TIP3    H133646   2.683   2.861   8.201
 4029TIP3    H233647   2.814   2.883   8.273
 4030TIP3   OH233648   5.703   5.809   0.323
 4030TIP3    H133649   5.777   5.866   0.301
 4030TIP3    H233650   5.647   5.863   0.379
 4031TIP3   OH233651   1.136   4.419   7.846
 4031TIP3    H133652   1.156   4.375   7.929
 4031TIP3    H233653   1.051   4.383   7.820
 4032TIP3   OH233654   0.839   4.937   6.505
 4032TIP3    H133655   0.867   4.852   6.538
 4032TIP3    H233656   0.743   4.935   6.510
 4033TIP3   OH233657   6.327   0.434   1.137
 4033TIP3    H133658   6.405   0.487   1.155
 4033TIP3    H233659   6.357   0.368   1.075
 4034TIP3   OH233660   1.854   3.216   2.189
 4034TIP3    H133661   1.870   3.307   2.214
 4034TIP3    H233662   1.809   3.223   2.105
 4035TIP3   OH233663   4.506   1.491   8.032
 4035TIP3    H133664   4.586   1.461   7.989
 4035TIP3    H233665   4.449   1.520   7.960
 4036TIP3   OH233666   5.390   2.910   1.007
 4036TIP3    H133667   5.335   2.899   0.929
 4036TIP3    H233668   5.415   3.003   1.005
 4037TIP3   OH233669   3.154   3.412   7.737
 4037TIP3    H133670   3.092   3.437   7.806
 4037TIP3    H233671   3.148   3.482   7.672
 4038TIP3   OH233672   0.963   6.539   1.496
 4038TIP3    H133673   0.993   6.573   1.580
 4038TIP3    H233674   1.040   6.541   1.439
 4039TIP3   OH233675   2.377   1.561   1.085
 4039TIP3    H133676   2.333   1.598   1.162
 4039TIP3    H233677   2.467   1.592   1.091
 4040TIP3   OH233678   5.815   3.514   0.634
 4040TIP3    H133679   5.857   3.428   0.636
 4040TIP3    H233680   5.769   3.517   0.550
 4041TIP3   OH233681   6.084   1.432   8.697
 4041TIP3    H133682   6.113   1.517   8.729
 4041TIP3    H233683   6.039   1.392   8.770
 4042TIP3   OH233684   0.598   3.323   1.142
 4042TIP3    H133685   0.607   3.314   1.047
 4042TIP3    H233686   0.505   3.341   1.156
 4043TIP3   OH233687   4.183   5.466   0.691
 4043TIP3    H133688   4.228   5.462   0.775
 4043TIP3    H233689   4.199   5.556   0.660
 4044TIP3   OH233690   1.158   0.709   1.074
 4044TIP3    H133691   1.227   0.718   1.141
 4044TIP3    H233692   1.090   0.657   1.117
 4045TIP3   OH233693   3.973   4.118   0.763
 4045TIP3    H133694   3.921   4.079   0.833
 4045TIP3    H233695   3.928   4.089   0.683
 4046TIP3   OH233696   6.526   2.438   0.845
 4046TIP3    H133697   6.442   2.391   0.842
 4046TIP3    H233698   6.570   2.414   0.764
 4047TIP3   OH233699   4.965   6.238   0.832
 4047TIP3    H133700   4.920   6.240   0.917
 4047TIP3    H233701   5.047   6.286   0.847
 4048TIP3   OH233702   5.658   3.361   1.422
 4048TIP3    H133703   5.739   3.321   1.451
 4048TIP3    H233704   5.684   3.415   1.347
 4049TIP3   OH233705   1.662   3.327   1.055
 4049TIP3    H133706   1.729   3.394   1.045
 4049TIP3    H233707   1.703   3.247   1.023
 4050TIP3   OH233708   5.689   6.056   1.227
 4050TIP3    H133709   5.626   5.983   1.230
 4050TIP3    H233710   5.723   6.061   1.316
 4051TIP3   OH233711   2.342   5.208   7.906
 4051TIP3    H133712   2.266   5.246   7.861
 4051TIP3    H233713   2.317   5.208   7.998
 4052TIP3   OH233714   5.532   1.383   2.018
 4052TIP3    H133715   5.541   1.322   1.945
 4052TIP3    H233716   5.452   1.432   1.999
 4053TIP3   OH233717   1.238   6.434   0.615
 4053TIP3    H133718   1.299   6.489   0.664
 4053TIP3    H233719   1.161   6.490   0.601
 4054TIP3   OH233720   2.432   1.753   0.209
 4054TIP3    H133721   2.377   1.716   0.140
 4054TIP3    H233722   2.421   1.847   0.201
 4055TIP3   OH233723   5.482   6.292   8.214
 4055TIP3    H133724   5.400   6.290   8.166
 4055TIP3    H233725   5.550   6.286   8.147
 4056TIP3   OH233726   5.177   3.085   1.761
 4056TIP3    H133727   5.204   2.993   1.768
 4056TIP3    H233728   5.082   3.081   1.753
 4057TIP3   OH233729   2.889   2.080   0.935
 4057TIP3    H133730   2.794   2.091   0.942
 4057TIP3    H233731   2.901   2.018   0.863
 4058TIP3   OH233732   5.365   6.591   8.662
 4058TIP3    H133733   5.419   6.625   8.733
 4058TIP3    H233734   5.396   6.501   8.649
 4059TIP3   OH233735   3.762   6.400   8.097
 4059TIP3    H133736   3.701   6.438   8.034
 4059TIP3    H233737   3.846   6.399   8.052
 4060TIP3   OH233738   1.171   1.765   7.976
 4060TIP3    H133739   1.106   1.697   7.994
 4060TIP3    H233740   1.247   1.717   7.944
 4061TIP3   OH233741   5.572   3.511   2.457
 4061TIP3    H133742   5.591   3.425   2.494
 4061TIP3    H233743   5.599   3.573   2.525
 4062TIP3   OH233744   4.008   1.958   7.144
 4062TIP3    H133745   4.090   1.935   7.187
 4062TIP3    H233746   4.008   1.907   7.064
 4063TIP3   OH233747   3.075   3.772   8.834
 4063TIP3    H133748   3.098   3.840   0.023
 4063TIP3    H233749   3.000   3.727   8.873
 4064TIP3   OH233750   0.899   4.594   0.761
 4064TIP3    H133751   0.864   4.505   0.758
 4064TIP3    H233752   0.983   4.588   0.717
 4065TIP3   OH233753   1.779   6.066   0.024
 4065TIP3    H133754   1.752   6.150   0.061
 4065TIP3    H233755   1.765   6.002   0.093
 4066TIP3   OH233756   2.239   0.293   6.292
 4066TIP3    H133757   2.182   0.348   6.237
 4066TIP3    H233758   2.317   0.278   6.239
 4067TIP3   OH233759   5.423   3.622   7.035
 4067TIP3    H133760   5.483   3.642   6.963
 4067TIP3    H233761   5.443   3.532   7.059
 4068TIP3   OH233762   5.045   3.920   1.417
 4068TIP3    H133763   4.992   3.995   1.389
 4068TIP3    H233764   5.044   3.923   1.512
 4069TIP3   OH233765   6.107   0.558   0.243
 4069TIP3    H133766   6.095   0.639   0.195
 4069TIP3    H233767   6.026   0.509   0.228
 4070TIP3   OH233768   1.767   4.647   2.730
 4070TIP3    H133769   1.779   4.741   2.745
 4070TIP3    H233770   1.851   4.608   2.755
 4071TIP3   OH233771   6.596   1.921   8.116
 4071TIP3    H133772   6.652   1.995   8.140
 4071TIP3    H233773   6.563   1.887   8.199
 4072TIP3   OH233774   5.801   5.098   8.308
 4072TIP3    H133775   5.873   5.099   8.371
 4072TIP3    H233776   5.828   5.160   8.240
 4073TIP3   OH233777   5.910   3.024   0.223
 4073TIP3    H133778   5.948   3.110   0.208
 4073TIP3    H233779   5.920   2.978   0.139
 4074TIP3   OH233780   6.147   0.045   7.365
 4074TIP3    H133781   6.107   0.129   7.341
 4074TIP3    H233782   6.104   6.777   7.309
 4075TIP3   OH233783   5.471   2.029   8.461
 4075TIP3    H133784   5.494   2.122   8.472
 4075TIP3    H233785   5.416   2.009   8.537
 4076TIP3   OH233786   1.562   3.421   7.725
 4076TIP3    H133787   1.543   3.331   7.750
 4076TIP3    H233788   1.618   3.414   7.648
 4077TIP3   OH233789   5.775   4.290   7.625
 4077TIP3    H133790   5.692   4.334   7.640
 4077TIP3    H233791   5.804   4.262   7.712
 4078TIP3   OH233792   4.438   0.787   7.118
 4078TIP3    H133793   4.498   0.860   7.108
 4078TIP3    H233794   4.484   0.713   7.078
 4079TIP3   OH233795   3.596   5.251   7.033
 4079TIP3    H133796   3.642   5.324   7.074
 4079TIP3    H233797   3.510   5.286   7.011
 4080TIP3   OH233798   5.392   2.334   8.453
 4080TIP3    H133799   5.308   2.365   8.489
 4080TIP3    H233800   5.455   2.347   8.524
 4081TIP3   OH233801   3.734   0.000   8.156
 4081TIP3    H133802   3.740   6.769   8.248
 4081TIP3    H233803   3.824   0.019   8.130
 4082TIP3   OH233804   2.777   0.849   1.508
 4082TIP3    H133805   2.691   0.854   1.467
 4082TIP3    H233806   2.766   0.896   1.591
 4083TIP3   OH233807   0.280   2.744   7.690
 4083TIP3    H133808   0.363   2.789   7.707
 4083TIP3    H233809   0.214   2.800   7.730
 4084TIP3   OH233810   3.872   2.221   1.035
 4084TIP3    H133811   3.918   2.277   1.098
 4084TIP3    H233812   3.793   2.270   1.014
 4085TIP3   OH233813   4.013   5.782   8.399
 4085TIP3    H133814   4.105   5.760   8.414
 4085TIP3    H233815   3.974   5.783   8.486
 4086TIP3   OH233816   5.789   1.322   0.565
 4086TIP3    H133817   5.699   1.338   0.592
 4086TIP3    H233818   5.825   1.409   0.549
 4087TIP3   OH233819   4.332   4.865   0.739
 4087TIP3    H133820   4.390   4.838   0.810
 4087TIP3    H233821   4.253   4.813   0.752
 4088TIP3   OH233822   0.240   1.083   1.092
 4088TIP3    H133823   0.246   1.178   1.080
 4088TIP3    H233824   0.254   1.070   1.186
 4089TIP3   OH233825   2.227   5.303   8.602
 4089TIP3    H133826   2.221   5.219   8.556
 4089TIP3    H233827   2.247   5.279   8.693
 4090TIP3   OH233828   0.767   0.215   0.241
 4090TIP3    H133829   0.712   0.191   0.166
 4090TIP3    H233830   0.705   0.226   0.313
 4091TIP3   OH233831   3.226   4.831   1.435
 4091TIP3    H133832   3.198   4.875   1.515
 4091TIP3    H233833   3.280   4.895   1.389
 4092TIP3   OH233834   4.590   1.434   2.360
 4092TIP3    H133835   4.681   1.443   2.388
 4092TIP3    H233836   4.546   1.396   2.436
 4093TIP3   OH233837   4.187   5.589   7.893
 4093TIP3    H133838   4.172   5.657   7.828
 4093TIP3    H233839   4.268   5.616   7.937
 4094TIP3   OH233840   0.161   5.894   0.704
 4094TIP3    H133841   0.121   5.883   0.791
 4094TIP3    H233842   0.088   5.913   0.646
 4095TIP3   OH233843   1.659   1.619   1.326
 4095TIP3    H133844   1.688   1.697   1.372
 4095TIP3    H233845   1.735   1.560   1.328
 4096TIP3   OH233846   5.211   3.475   0.493
 4096TIP3    H133847   5.119   3.469   0.466
 4096TIP3    H233848   5.258   3.505   0.416
 4097TIP3   OH233849   5.084   2.268   7.236
 4097TIP3    H133850   5.119   2.264   7.147
 4097TIP3    H233851   5.153   2.311   7.287
 4098TIP3   OH233852   3.685   1.676   7.736
 4098TIP3    H133853   3.711   1.685   7.828
 4098TIP3    H233854   3.763   1.643   7.692
 4099TIP3   OH233855   4.490   5.320   7.447
 4099TIP3    H133856   4.499   5.297   7.540
 4099TIP3    H233857   4.562   5.275   7.404
 4100TIP3   OH233858   0.660   3.366   0.588
 4100TIP3    H133859   0.613   3.342   0.509
 4100TIP3    H233860   0.735   3.417   0.557
 4101TIP3   OH233861   4.733   0.072   8.686
 4101TIP3    H133862   4.717   6.789   8.635
 4101TIP3    H233863   4.783   0.128   8.626
 4102TIP3   OH233864   4.650   3.465   6.545
 4102TIP3    H133865   4.568   3.439   6.587
 4102TIP3    H233866   4.676   3.387   6.495
 4103TIP3   OH233867   1.434   0.493   7.733
 4103TIP3    H133868   1.348   0.451   7.738
 4103TIP3    H233869   1.474   0.476   7.818
 4104TIP3   OH233870   5.534   6.336   7.232
 4104TIP3    H133871   5.498   6.392   7.301
 4104TIP3    H233872   5.612   6.297   7.271
 4105TIP3   OH233873   0.919   5.143   1.277
 4105TIP3    H133874   0.876   5.186   1.203
 4105TIP3    H233875   0.969   5.071   1.238
 4106TIP3   OH233876   6.749   3.902   8.869
 4106TIP3    H133877   6.789   3.873   0.077
 4106TIP3    H233878   6.764   3.829   8.808
 4107TIP3   OH233879   1.422   2.527   7.256
 4107TIP3    H133880   1.403   2.592   7.189
 4107TIP3    H233881   1.487   2.569   7.313
 4108TIP3   OH233882   4.046   5.818   1.407
 4108TIP3    H133883   4.006   5.740   1.367
 4108TIP3    H233884   4.140   5.798   1.408
 4109TIP3   OH233885   3.943   1.823   7.778
 4109TIP3    H133886   3.911   1.801   7.866
 4109TIP3    H233887   3.936   1.742   7.728
 4110TIP3   OH233888   0.007   0.535   0.319
 4110TIP3    H133889   6.738   0.530   0.389
 4110TIP3    H233890   0.026   0.628   0.311
 4111TIP3   OH233891   4.114   1.059   1.600
 4111TIP3    H133892   4.114   1.111   1.680
 4111TIP3    H233893   4.207   1.043   1.582
 4112TIP3   OH233894   6.774   5.220   1.317
 4112TIP3    H133895   6.727   5.247   1.396
 4112TIP3    H233896   6.794   5.127   1.331
 4113TIP3   OH233897   1.680   2.545   7.007
 4113TIP3    H133898   1.606   2.483   7.006
 4113TIP3    H233899   1.732   2.520   6.930
 4114TIP3   OH233900   2.111   0.560   1.897
 4114TIP3    H133901   2.159   0.609   1.964
 4114TIP3    H233902   2.083   0.480   1.941
 4115TIP3   OH233903   5.268   3.814   8.812
 4115TIP3    H133904   5.278   3.729   8.855
 4115TIP3    H233905   5.278   3.795   8.719
 4116TIP3   OH233906   0.238   2.993   1.518
 4116TIP3    H133907   0.245   3.078   1.476
 4116TIP3    H233908   0.295   2.935   1.466
 4117TIP3   OH233909   5.891   1.005   7.720
 4117TIP3    H133910   5.819   0.945   7.738
 4117TIP3    H233911   5.967   0.948   7.707
 4118TIP3   OH233912   4.966   1.077   7.848
 4118TIP3    H133913   4.976   0.984   7.830
 4118TIP3    H233914   4.872   1.090   7.861
 4119TIP3   OH233915   2.320   0.818   8.501
 4119TIP3    H133916   2.239   0.796   8.547
 4119TIP3    H233917   2.313   0.912   8.485
 4120TIP3   OH233918   0.396   1.491   0.091
 4120TIP3    H133919   0.488   1.519   0.084
 4120TIP3    H233920   0.378   1.492   0.185
 4121TIP3   OH233921   2.190   4.114   8.381
 4121TIP3    H133922   2.186   4.208   8.400
 4121TIP3    H233923   2.099   4.084   8.385
 4122TIP3   OH233924   4.637   4.053   0.021
 4122TIP3    H133925   4.581   4.100   8.834
 4122TIP3    H233926   4.715   4.108   0.030
 4123TIP3   OH233927   4.399   1.949   8.177
 4123TIP3    H133928   4.324   1.959   8.236
 4123TIP3    H233929   4.452   2.027   8.190
 4124TIP3   OH233930   2.570   6.684   8.520
 4124TIP3    H133931   2.552   6.612   8.580
 4124TIP3    H233932   2.632   6.649   8.457
 4125TIP3   OH233933   6.729   3.553   2.467
 4125TIP3    H133934   6.749   3.625   2.527
 4125TIP3    H233935   6.710   3.479   2.525
 4126TIP3   OH233936   5.443   6.262   7.521
 4126TIP3    H133937   5.361   6.253   7.474
 4126TIP3    H233938   5.444   6.188   7.582
 4127TIP3   OH233939   4.795   0.145   2.184
 4127TIP3    H133940   4.734   0.146   2.257
 4127TIP3    H233941   4.882   0.141   2.225
 4128TIP3   OH233942   0.384   4.052   0.180
 4128TIP3    H133943   0.325   4.076   0.109
 4128TIP3    H233944   0.327   4.034   0.255
 4129TIP3   OH233945   0.070   0.822   0.035
 4129TIP3    H133946   0.133   0.816   0.106
 4129TIP3    H233947   0.122   0.812   8.830
 4130TIP3   OH233948   2.511   1.159   7.824
 4130TIP3    H133949   2.481   1.074   7.854
 4130TIP3    H233950   2.589   1.140   7.771
 4131TIP3   OH233951   2.132   0.365   6.930
 4131TIP3    H133952   2.133   0.317   7.012
 4131TIP3    H233953   2.039   0.382   6.914
 4132TIP3   OH233954   0.801   1.177   8.673
 4132TIP3    H133955   0.858   1.119   8.723
 4132TIP3    H233956   0.858   1.248   8.643
 4133TIP3   OH233957   6.158   3.012   1.984
 4133TIP3    H133958   6.089   2.949   2.004
 4133TIP3    H233959   6.178   3.053   2.068
 4134TIP3   OH233960   1.510   0.025   1.688
 4134TIP3    H133961   1.536   6.772   1.766
 4134TIP3    H233962   1.419   6.795   1.672
 4135TIP3   OH233963   2.673   6.547   8.248
 4135TIP3    H133964   2.762   6.563   8.215
 4135TIP3    H233965   2.644   6.468   8.203
 4136TIP3   OH233966   3.813   3.022   6.945
 4136TIP3    H133967   3.884   2.966   6.913
 4136TIP3    H233968   3.818   3.101   6.891
 4137TIP3   OH233969   5.577   4.474   8.790
 4137TIP3    H133970   5.596   4.398   8.846
 4137TIP3    H233971   5.652   4.480   8.731
 4138TIP3   OH233972   1.614   6.682   7.705
 4138TIP3    H133973   1.528   6.721   7.718
 4138TIP3    H233974   1.651   6.677   7.793
 4139TIP3   OH233975   2.917   4.713   1.676
 4139TIP3    H133976   2.884   4.747   1.593
 4139TIP3    H233977   2.875   4.768   1.743
 4140TIP3   OH233978   5.558   1.905   0.083
 4140TIP3    H133979   5.599   1.980   0.041
 4140TIP3    H233980   5.543   1.933   0.173
 4141TIP3   OH233981   0.550   5.742   2.172
 4141TIP3    H133982   0.498   5.677   2.219
 4141TIP3    H233983   0.494   5.819   2.168
 4142TIP3   OH233984   6.291   0.131   8.394
 4142TIP3    H133985   6.329   0.175   8.469
 4142TIP3    H233986   6.226   0.071   8.431
 4143TIP3   OH233987   5.167   4.456   8.489
 4143TIP3    H133988   5.127   4.524   8.434
 4143TIP3    H233989   5.097   4.393   8.504
 4144TIP3   OH233990   3.329   3.922   8.348
 4144TIP3    H133991   3.348   3.893   8.259
 4144TIP3    H233992   3.349   3.846   8.403
 4145TIP3   OH233993   3.632   1.359   0.021
 4145TIP3    H133994   3.714   1.365   0.069
 4145TIP3    H233995   3.643   1.283   8.838
 4146TIP3   OH233996   1.236   4.881   2.631
 4146TIP3    H133997   1.263   4.972   2.618
 4146TIP3    H233998   1.157   4.871   2.578
 4147TIP3   OH233999   6.256   5.013   7.531
 4147TIP3    H134000   6.217   4.926   7.522
 4147TIP3    H234001   6.216   5.049   7.610
 4148TIP3   OH234002   1.575   4.276   2.197
 4148TIP3    H134003   1.549   4.184   2.206
 4148TIP3    H234004   1.517   4.310   2.128
 4149TIP3   OH234005   1.900   4.471   0.287
 4149TIP3    H134006   1.974   4.471   0.226
 4149TIP3    H234007   1.887   4.563   0.309
 4150TIP3   OH234008   4.234   0.755   1.147
 4150TIP3    H134009   4.294   0.826   1.124
 4150TIP3    H234010   4.154   0.799   1.175
 4151TIP3   OH234011   2.011   6.232   1.531
 4151TIP3    H134012   1.941   6.178   1.495
 4151TIP3    H234013   2.091   6.194   1.496
 4152TIP3   OH234014   6.698   0.993   8.780
 4152TIP3    H134015   6.640   1.046   8.835
 4152TIP3    H234016   6.739   0.931   8.840
 4153TIP3   OH234017   4.021   6.457   8.787
 4153TIP3    H134018   3.969   6.380   8.765
 4153TIP3    H234019   4.025   6.457   0.008
 4154TIP3   OH234020   1.927   0.932   0.851
 4154TIP3    H134021   1.887   0.859   0.899
 4154TIP3    H234022   1.971   0.891   0.777
 4155TIP3   OH234023   0.184   2.614   6.236
 4155TIP3    H134024   0.188   2.633   6.142
 4155TIP3    H234025   0.250   2.671   6.275
 4156TIP3   OH234026   0.136   5.846   7.223
 4156TIP3    H134027   0.214   5.900   7.217
 4156TIP3    H234028   0.126   5.828   7.316
 4157TIP3   OH234029   1.188   6.091   8.736
 4157TIP3    H134030   1.269   6.070   8.689
 4157TIP3    H234031   1.121   6.039   8.692
 4158TIP3   OH234032   5.827   4.343   6.677
 4158TIP3    H134033   5.907   4.291   6.665
 4158TIP3    H234034   5.843   4.392   6.757
 4159TIP3   OH234035   6.226   6.500   7.758
 4159TIP3    H134036   6.224   6.429   7.695
 4159TIP3    H234037   6.312   6.492   7.801
 4160TIP3   OH234038   1.260   3.689   0.830
 4160TIP3    H134039   1.309   3.685   0.748
 4160TIP3    H234040   1.293   3.766   0.875
 4161TIP3   OH234041   1.791   1.751   0.027
 4161TIP3    H134042   1.826   1.716   0.110
 4161TIP3    H234043   1.810   1.683   8.837
 4162TIP3   OH234044   5.655   6.422   7.614
 4162TIP3    H134045   5.656   6.448   7.522
 4162TIP3    H234046   5.574   6.371   7.624
 4163TIP3   OH234047   5.426   3.778   1.583
 4163TIP3    H134048   5.387   3.785   1.496
 4163TIP3    H234049   5.452   3.686   1.591
 4164TIP3   OH234050   0.159   6.554   8.377
 4164TIP3    H134051   0.252   6.579   8.372
 4164TIP3    H234052   0.152   6.480   8.317
 4165TIP3   OH234053   4.755   2.702   8.250
 4165TIP3    H134054   4.726   2.757   8.177
 4165TIP3    H234055   4.702   2.622   8.243
 4166TIP3   OH234056   1.195   6.577   1.356
 4166TIP3    H134057   1.215   6.667   1.380
 4166TIP3    H234058   1.219   6.571   1.264
 4167TIP3   OH234059   4.909   4.758   6.731
 4167TIP3    H134060   4.978   4.821   6.711
 4167TIP3    H234061   4.950   4.695   6.790
 4168TIP3   OH234062   6.794   1.551   1.637
 4168TIP3    H134063   0.073   1.582   1.587
 4168TIP3    H234064   6.743   1.498   1.576
 4169TIP3   OH234065   4.600   5.028   7.418
 4169TIP3    H134066   4.642   5.039   7.333
 4169TIP3    H234067   4.506   5.026   7.399
 4170TIP3   OH234068   4.980   5.932   7.569
 4170TIP3    H134069   4.965   5.862   7.632
 4170TIP3    H234070   5.075   5.930   7.553
 4171TIP3   OH234071   3.921   3.472   7.170
 4171TIP3    H134072   3.920   3.436   7.081
 4171TIP3    H234073   4.007   3.446   7.204
 4172TIP3   OH234074   3.647   6.593   1.425
 4172TIP3    H134075   3.590   6.666   1.448
 4172TIP3    H234076   3.652   6.595   1.329
 4173TIP3   OH234077   2.631   0.212   0.932
 4173TIP3    H134078   2.718   0.247   0.947
 4173TIP3    H234079   2.577   0.251   1.001
 4174TIP3   OH234080   5.541   4.873   0.619
 4174TIP3    H134081   5.535   4.800   0.558
 4174TIP3    H234082   5.487   4.942   0.580
 4175TIP3   OH234083   5.228   3.219   2.031
 4175TIP3    H134084   5.168   3.280   1.989
 4175TIP3    H234085   5.227   3.141   1.975
 4176TIP3   OH234086   2.679   2.846   8.534
 4176TIP3    H134087   2.723   2.930   8.516
 4176TIP3    H234088   2.587   2.869   8.547
 4177TIP3   OH234089   2.024   1.325   8.131
 4177TIP3    H134090   2.062   1.389   8.071
 4177TIP3    H234091   2.008   1.248   8.077
 4178TIP3   OH234092   1.277   4.405   6.850
 4178TIP3    H134093   1.349   4.468   6.855
 4178TIP3    H234094   1.245   4.398   6.940
 4179TIP3   OH234095   3.409   6.062   8.712
 4179TIP3    H134096   3.406   5.986   8.771
 4179TIP3    H234097   3.318   6.090   8.705
 4180TIP3   OH234098   1.829   3.558   1.057
 4180TIP3    H134099   1.852   3.650   1.045
 4180TIP3    H234100   1.871   3.532   1.139
 4181TIP3   OH234101   5.241   3.956   7.399
 4181TIP3    H134102   5.226   3.863   7.417
 4181TIP3    H234103   5.284   3.957   7.313
 4182TIP3   OH234104   6.521   6.310   7.533
 4182TIP3    H134105   6.583   6.255   7.580
 4182TIP3    H234106   6.446   6.316   7.591
 4183TIP3   OH234107   4.695   0.212   0.063
 4183TIP3    H134108   4.733   0.190   8.852
 4183TIP3    H234109   4.648   0.133   0.089
 4184TIP3   OH234110   5.104   2.550   2.167
 4184TIP3    H134111   5.062   2.626   2.207
 4184TIP3    H234112   5.149   2.506   2.240
 4185TIP3   OH234113   4.403   3.451   1.756
 4185TIP3    H134114   4.313   3.422   1.767
 4185TIP3    H234115   4.411   3.527   1.814
 4186TIP3   OH234116   5.245   4.308   1.210
 4186TIP3    H134117   5.272   4.325   1.301
 4186TIP3    H234118   5.325   4.276   1.167
 4187TIP3   OH234119   1.807   0.208   0.065
 4187TIP3    H134120   1.830   0.116   0.049
 4187TIP3    H234121   1.792   0.213   0.159
 4188TIP3   OH234122   6.217   1.647   8.791
 4188TIP3    H134123   6.224   1.717   8.856
 4188TIP3    H234124   6.239   1.567   8.840
 4189TIP3   OH234125   2.686   2.172   8.264
 4189TIP3    H134126   2.686   2.219   8.181
 4189TIP3    H234127   2.702   2.081   8.241
 4190TIP3   OH234128   5.916   3.266   0.617
 4190TIP3    H134129   5.866   3.186   0.605
 4190TIP3    H234130   6.008   3.239   0.613
 4191TIP3   OH234131   0.065   2.468   6.738
 4191TIP3    H134132   0.147   2.428   6.710
 4191TIP3    H234133   0.052   2.541   6.678
 4192TIP3   OH234134   2.234   4.950   8.168
 4192TIP3    H134135   2.262   4.875   8.220
 4192TIP3    H234136   2.146   4.927   8.137
 4193TIP3   OH234137   3.998   1.666   2.710
 4193TIP3    H134138   3.921   1.625   2.749
 4193TIP3    H234139   4.002   1.752   2.750
 4194TIP3   OH234140   1.803   4.222   7.341
 4194TIP3    H134141   1.848   4.170   7.407
 4194TIP3    H234142   1.750   4.284   7.391
 4195TIP3   OH234143   2.628   1.730   6.494
 4195TIP3    H134144   2.690   1.775   6.551
 4195TIP3    H234145   2.645   1.637   6.509
 4196TIP3   OH234146   1.859   0.738   7.219
 4196TIP3    H134147   1.831   0.715   7.308
 4196TIP3    H234148   1.944   0.694   7.209
 4197TIP3   OH234149   1.480   2.147   0.017
 4197TIP3    H134150   1.541   2.109   0.079
 4197TIP3    H234151   1.515   2.123   8.806
 4198TIP3   OH234152   2.124   3.291   1.373
 4198TIP3    H134153   2.206   3.246   1.394
 4198TIP3    H234154   2.076   3.228   1.318
 4199TIP3   OH234155   0.723   4.444   2.161
 4199TIP3    H134156   0.801   4.424   2.212
 4199TIP3    H234157   0.690   4.525   2.199
 4200TIP3   OH234158   5.950   5.265   7.672
 4200TIP3    H134159   5.993   5.324   7.734
 4200TIP3    H234160   5.995   5.181   7.685
 4201TIP3   OH234161   5.286   6.556   0.273
 4201TIP3    H134162   5.286   6.642   0.232
 4201TIP3    H234163   5.378   6.538   0.293
 4202TIP3   OH234164   3.097   2.251   0.959
 4202TIP3    H134165   3.027   2.185   0.961
 4202TIP3    H234166   3.098   2.281   0.868
 4203TIP3   OH234167   1.832   5.849   8.739
 4203TIP3    H134168   1.788   5.773   8.779
 4203TIP3    H234169   1.801   5.924   8.791
 4204TIP3   OH234170   6.341   2.554   7.028
 4204TIP3    H134171   6.272   2.503   6.985
 4204TIP3    H234172   6.415   2.493   7.034
 4205TIP3   OH234173   0.354   0.246   7.758
 4205TIP3    H134174   0.295   0.305   7.807
 4205TIP3    H234175   0.309   0.231   7.675
 4206TIP3   OH234176   1.843   1.172   1.586
 4206TIP3    H134177   1.757   1.203   1.613
 4206TIP3    H234178   1.896   1.174   1.665
 4207TIP3   OH234179   5.684   4.080   0.768
 4207TIP3    H134180   5.637   3.996   0.770
 4207TIP3    H234181   5.715   4.092   0.858
 4208TIP3   OH234182   2.165   0.732   1.686
 4208TIP3    H134183   2.245   0.763   1.729
 4208TIP3    H234184   2.109   0.701   1.757
 4209TIP3   OH234185   2.227   2.428   1.841
 4209TIP3    H134186   2.186   2.350   1.804
 4209TIP3    H234187   2.274   2.396   1.918
 4210TIP3   OH234188   6.756   6.779   8.279
 4210TIP3    H134189   6.747   0.038   8.357
 4210TIP3    H234190   0.024   6.713   8.304
 4211TIP3   OH234191   5.357   6.320   6.632
 4211TIP3    H134192   5.417   6.389   6.663
 4211TIP3    H234193   5.317   6.357   6.554
 4212TIP3   OH234194   1.992   5.917   1.138
 4212TIP3    H134195   1.944   5.841   1.106
 4212TIP3    H234196   1.953   5.991   1.092
 4213TIP3   OH234197   0.580   3.002   0.316
 4213TIP3    H134198   0.613   3.004   0.406
 4213TIP3    H234199   0.572   3.094   0.291
 4214TIP3   OH234200   0.731   0.395   1.646
 4214TIP3    H134201   0.775   0.378   1.729
 4214TIP3    H234202   0.667   0.324   1.638
 4215TIP3   OH234203   3.541   6.764   2.076
 4215TIP3    H134204   3.458   6.718   2.062
 4215TIP3    H234205   3.608   6.698   2.064
 4216TIP3   OH234206   2.453   4.322   0.150
 4216TIP3    H134207   2.451   4.227   0.146
 4216TIP3    H234208   2.535   4.347   0.107
 4217TIP3   OH234209   4.717   5.885   6.459
 4217TIP3    H134210   4.730   5.974   6.425
 4217TIP3    H234211   4.627   5.885   6.492
 4218TIP3   OH234212   3.234   4.097   8.543
 4218TIP3    H134213   3.146   4.080   8.577
 4218TIP3    H234214   3.244   4.035   8.471
 4219TIP3   OH234215   3.355   0.600   0.094
 4219TIP3    H134216   3.304   0.596   0.175
 4219TIP3    H234217   3.289   0.611   0.025
 4220TIP3   OH234218   0.522   1.082   0.806
 4220TIP3    H134219   0.456   1.025   0.766
 4220TIP3    H234220   0.557   1.030   0.878
 4221TIP3   OH234221   3.314   1.259   8.427
 4221TIP3    H134222   3.391   1.286   8.377
 4221TIP3    H234223   3.290   1.174   8.390
 4222TIP3   OH234224   3.802   2.683   8.162
 4222TIP3    H134225   3.770   2.768   8.131
 4222TIP3    H234226   3.890   2.701   8.196
 4223TIP3   OH234227   3.492   2.326   8.435
 4223TIP3    H134228   3.530   2.393   8.378
 4223TIP3    H234229   3.517   2.243   8.394
 4224TIP3   OH234230   5.197   4.630   1.423
 4224TIP3    H134231   5.253   4.689   1.372
 4224TIP3    H234232   5.214   4.654   1.514
 4225TIP3   OH234233   3.224   0.331   7.135
 4225TIP3    H134234   3.185   0.288   7.211
 4225TIP3    H234235   3.287   0.267   7.101
 4226TIP3   OH234236   3.164   5.171   1.389
 4226TIP3    H134237   3.100   5.148   1.457
 4226TIP3    H234238   3.129   5.132   1.309
 4227TIP3   OH234239   4.421   4.769   1.598
 4227TIP3    H134240   4.440   4.716   1.676
 4227TIP3    H234241   4.488   4.745   1.535
 4228TIP3   OH234242   6.616   5.533   0.735
 4228TIP3    H134243   6.590   5.621   0.708
 4228TIP3    H234244   6.683   5.547   0.802
 4229TIP3   OH234245   3.206   1.026   7.050
 4229TIP3    H134246   3.246   0.944   7.081
 4229TIP3    H234247   3.280   1.086   7.040
 4230TIP3   OH234248   2.660   0.749   0.915
 4230TIP3    H134249   2.613   0.831   0.896
 4230TIP3    H234250   2.603   0.704   0.978
 4231TIP3   OH234251   0.249   3.982   1.408
 4231TIP3    H134252   0.310   3.930   1.355
 4231TIP3    H234253   0.231   4.060   1.356
 4232TIP3   OH234254   5.682   4.099   8.749
 4232TIP3    H134255   5.647   4.071   8.834
 4232TIP3    H234256   5.747   4.032   8.726
 4233TIP3   OH234257   5.921   1.881   0.474
 4233TIP3    H134258   5.881   1.912   0.393
 4233TIP3    H234259   6.013   1.906   0.466
 4234TIP3   OH234260   6.551   4.879   7.867
 4234TIP3    H134261   6.608   4.941   7.823
 4234TIP3    H234262   6.582   4.877   7.957
 4235TIP3   OH234263   4.751   0.257   1.742
 4235TIP3    H134264   4.765   0.209   1.823
 4235TIP3    H234265   4.677   0.212   1.700
 4236TIP3   OH234266   1.858   4.040   6.355
 4236TIP3    H134267   1.953   4.054   6.358
 4236TIP3    H234268   1.836   4.010   6.443
 4237TIP3   OH234269   3.933   5.396   1.583
 4237TIP3    H134270   3.946   5.331   1.652
 4237TIP3    H234271   3.958   5.350   1.502
 4238TIP3   OH234272   5.806   0.025   7.953
 4238TIP3    H134273   5.832   0.076   7.876
 4238TIP3    H234274   5.888   0.012   8.001
 4239TIP3   OH234275   4.945   2.190   8.391
 4239TIP3    H134276   4.991   2.132   8.452
 4239TIP3    H234277   5.008   2.259   8.372
 4240TIP3   OH234278   4.410   5.217   1.838
 4240TIP3    H134279   4.323   5.257   1.836
 4240TIP3    H234280   4.428   5.201   1.930
 4241TIP3   OH234281   0.511   4.548   0.774
 4241TIP3    H134282   0.456   4.532   0.850
 4241TIP3    H234283   0.481   4.485   0.708
 4242TIP3   OH234284   5.634   6.707   7.146
 4242TIP3    H134285   5.561   6.658   7.108
 4242TIP3    H234286   5.707   6.690   7.086
 4243TIP3   OH234287   2.186   3.590   1.345
 4243TIP3    H134288   2.189   3.584   1.440
 4243TIP3    H234289   2.156   3.503   1.317
 4244TIP3   OH234290   6.706   4.406   2.301
 4244TIP3    H134291   6.740   4.488   2.337
 4244TIP3    H234292   6.730   4.339   2.366
 4245TIP3   OH234293   4.614   5.466   8.825
 4245TIP3    H134294   4.642   5.511   8.746
 4245TIP3    H234295   4.560   5.529   8.872
 4246TIP3   OH234296   3.253   2.690   1.299
 4246TIP3    H134297   3.185   2.647   1.247
 4246TIP3    H234298   3.335   2.666   1.255
 4247TIP3   OH234299   4.251   2.968   0.756
 4247TIP3    H134300   4.330   2.943   0.806
 4247TIP3    H234301   4.178   2.940   0.812
 4248TIP3   OH234302   1.386   3.344   8.658
 4248TIP3    H134303   1.323   3.406   8.622
 4248TIP3    H234304   1.466   3.359   8.609
 4249TIP3   OH234305   5.888   2.584   1.920
 4249TIP3    H134306   5.973   2.542   1.906
 4249TIP3    H234307   5.909   2.674   1.942
 4250TIP3   OH234308   1.286   0.021   1.030
 4250TIP3    H134309   1.310   0.076   0.956
 4250TIP3    H234310   1.361   0.026   1.089
 4251TIP3   OH234311   1.653   4.412   2.626
 4251TIP3    H134312   1.680   4.501   2.650
 4251TIP3    H234313   1.565   4.402   2.662
 4252TIP3   OH234314   0.249   0.022   0.838
 4252TIP3    H134315   0.261   0.093   0.902
 4252TIP3    H234316   0.163   6.782   0.858
 4253TIP3   OH234317   2.444   6.704   0.397
 4253TIP3    H134318   2.481   6.616   0.399
 4253TIP3    H234319   2.350   6.689   0.383
 4254TIP3   OH234320   3.696   4.657   7.392
 4254TIP3    H134321   3.601   4.663   7.397
 4254TIP3    H234322   3.714   4.563   7.395
 4255TIP3   OH234323   1.214   0.377   1.837
 4255TIP3    H134324   1.126   0.342   1.854
 4255TIP3    H234325   1.247   0.402   1.923
 4256TIP3   OH234326   2.961   1.926   8.028
 4256TIP3    H134327   2.970   1.923   7.933
 4256TIP3    H234328   3.033   1.872   8.060
 4257TIP3   OH234329   1.877   1.676   1.132
 4257TIP3    H134330   1.925   1.646   1.056
 4257TIP3    H234331   1.791   1.635   1.125
 4258TIP3   OH234332   2.180   4.176   0.614
 4258TIP3    H134333   2.137   4.128   0.685
 4258TIP3    H234334   2.108   4.202   0.557
 4259TIP3   OH234335   2.415   6.353   1.953
 4259TIP3    H134336   2.354   6.350   2.027
 4259TIP3    H234337   2.496   6.388   1.991
 4260TIP3   OH234338   4.895   2.128   0.369
 4260TIP3    H134339   4.805   2.096   0.366
 4260TIP3    H234340   4.934   2.097   0.287
 4261TIP3   OH234341   4.886   3.206   1.135
 4261TIP3    H134342   4.952   3.214   1.066
 4261TIP3    H234343   4.841   3.124   1.117
 4262TIP3   OH234344   5.870   1.183   1.953
 4262TIP3    H134345   5.838   1.244   2.020
 4262TIP3    H234346   5.809   1.109   1.957
 4263TIP3   OH234347   6.159   0.415   8.379
 4263TIP3    H134348   6.192   0.447   8.295
 4263TIP3    H234349   6.196   0.327   8.388
 4264TIP3   OH234350   3.351   5.089   1.631
 4264TIP3    H134351   3.370   5.180   1.608
 4264TIP3    H234352   3.391   5.077   1.717
 4265TIP3   OH234353   0.988   2.328   6.798
 4265TIP3    H134354   1.032   2.322   6.713
 4265TIP3    H234355   1.005   2.244   6.840
 4266TIP3   OH234356   3.131   2.135   2.452
 4266TIP3    H134357   3.139   2.201   2.383
 4266TIP3    H234358   3.119   2.052   2.406
 4267TIP3   OH234359   4.366   1.662   8.826
 4267TIP3    H134360   4.377   1.739   8.771
 4267TIP3    H234361   4.454   1.636   8.850
 4268TIP3   OH234362   1.498   3.100   7.497
 4268TIP3    H134363   1.554   3.029   7.528
 4268TIP3    H234364   1.543   3.135   7.420
 4269TIP3   OH234365   1.677   6.010   6.242
 4269TIP3    H134366   1.602   5.952   6.243
 4269TIP3    H234367   1.642   6.096   6.218
 4270TIP3   OH234368   4.014   4.142   8.285
 4270TIP3    H134369   4.064   4.164   8.363
 4270TIP3    H234370   4.001   4.047   8.290
 4271TIP3   OH234371   6.250   1.415   7.421
 4271TIP3    H134372   6.165   1.442   7.386
 4271TIP3    H234373   6.237   1.413   7.516
 4272TIP3   OH234374   3.147   5.330   6.540
 4272TIP3    H134375   3.131   5.402   6.601
 4272TIP3    H234376   3.067   5.279   6.541
 4273TIP3   OH234377   3.849   0.760   8.745
 4273TIP3    H134378   3.846   0.712   8.827
 4273TIP3    H234379   3.760   0.794   8.734
 4274TIP3   OH234380   1.348   4.365   8.080
 4274TIP3    H134381   1.306   4.295   8.130
 4274TIP3    H234382   1.402   4.410   8.144
 4275TIP3   OH234383   5.172   3.922   0.250
 4275TIP3    H134384   5.093   3.961   0.213
 4275TIP3    H234385   5.241   3.944   0.187
 4276TIP3   OH234386   3.059   6.501   1.149
 4276TIP3    H134387   3.077   6.408   1.162
 4276TIP3    H234388   3.133   6.546   1.190
 4277TIP3   OH234389   0.560   4.763   7.473
 4277TIP3    H134390   0.545   4.857   7.461
 4277TIP3    H234391   0.646   4.759   7.517
 4278TIP3   OH234392   0.984   1.210   0.030
 4278TIP3    H134393   1.024   1.229   8.820
 4278TIP3    H234394   1.002   1.287   0.084
 4279TIP3   OH234395   3.288   3.015   7.836
 4279TIP3    H134396   3.262   3.055   7.753
 4279TIP3    H234397   3.295   2.922   7.816
 4280TIP3   OH234398   3.137   3.540   6.905
 4280TIP3    H134399   3.047   3.512   6.921
 4280TIP3    H234400   3.130   3.633   6.883
 4281TIP3   OH234401   3.630   5.463   8.777
 4281TIP3    H134402   3.588   5.411   8.846
 4281TIP3    H234403   3.632   5.552   8.812
 4282TIP3   OH234404   2.489   2.098   7.107
 4282TIP3    H134405   2.422   2.166   7.096
 4282TIP3    H234406   2.503   2.063   7.019
 4283TIP3   OH234407   5.260   0.937   1.480
 4283TIP3    H134408   5.268   0.939   1.385
 4283TIP3    H234409   5.254   0.844   1.501
 4284TIP3   OH234410   2.888   6.210   7.746
 4284TIP3    H134411   2.936   6.220   7.664
 4284TIP3    H234412   2.797   6.225   7.723
 4285TIP3   OH234413   4.128   6.742   0.440
 4285TIP3    H134414   4.055   0.001   0.469
 4285TIP3    H234415   4.158   6.784   0.359
 4286TIP3   OH234416   5.649   0.724   1.717
 4286TIP3    H134417   5.690   0.639   1.702
 4286TIP3    H234418   5.596   0.712   1.796
 4287TIP3   OH234419   1.028   1.641   6.730
 4287TIP3    H134420   1.071   1.696   6.665
 4287TIP3    H234421   1.092   1.572   6.749
 4288TIP3   OH234422   4.447   4.775   7.215
 4288TIP3    H134423   4.402   4.857   7.236
 4288TIP3    H234424   4.512   4.799   7.149
 4289TIP3   OH234425   1.396   6.338   1.415
 4289TIP3    H134426   1.343   6.414   1.390
 4289TIP3    H234427   1.346   6.263   1.382
 4290TIP3   OH234428   1.997   3.749   8.584
 4290TIP3    H134429   2.049   3.708   8.653
 4290TIP3    H234430   2.059   3.767   8.514
 4291TIP3   OH234431   1.579   2.297   0.330
 4291TIP3    H134432   1.644   2.366   0.340
 4291TIP3    H234433   1.495   2.342   0.334
 4292TIP3   OH234434   1.068   3.980   2.432
 4292TIP3    H134435   1.033   3.923   2.364
 4292TIP3    H234436   1.083   4.063   2.388
 4293TIP3   OH234437   2.231   6.460   1.766
 4293TIP3    H134438   2.289   6.417   1.828
 4293TIP3    H234439   2.144   6.454   1.806
 4294TIP3   OH234440   0.334   5.988   6.664
 4294TIP3    H134441   0.244   5.958   6.671
 4294TIP3    H234442   0.381   5.916   6.623
 4295TIP3   OH234443   0.262   1.350   6.979
 4295TIP3    H134444   0.331   1.400   7.022
 4295TIP3    H234445   0.283   1.356   6.886
 4296TIP3   OH234446   4.564   2.096   7.262
 4296TIP3    H134447   4.482   2.132   7.295
 4296TIP3    H234448   4.632   2.149   7.304
 4297TIP3   OH234449   5.815   4.693   0.338
 4297TIP3    H134450   5.832   4.774   0.387
 4297TIP3    H234451   5.766   4.722   0.261
 4298TIP3   OH234452   4.173   4.346   0.905
 4298TIP3    H134453   4.147   4.305   0.988
 4298TIP3    H234454   4.136   4.289   0.838
 4299TIP3   OH234455   6.251   4.262   0.963
 4299TIP3    H134456   6.286   4.203   0.896
 4299TIP3    H234457   6.173   4.217   0.996
 4300TIP3   OH234458   1.114   2.390   8.216
 4300TIP3    H134459   1.100   2.460   8.152
 4300TIP3    H234460   1.070   2.313   8.178
 4301TIP3   OH234461   6.013   0.317   0.541
 4301TIP3    H134462   5.919   0.321   0.524
 4301TIP3    H234463   6.020   0.268   0.623
 4302TIP3   OH234464   6.725   4.055   1.542
 4302TIP3    H134465   6.649   4.034   1.489
 4302TIP3    H234466   6.793   4.080   1.479
 4303TIP3   OH234467   4.074   1.592   7.964
 4303TIP3    H134468   4.089   1.639   8.046
 4303TIP3    H234469   3.979   1.584   7.959
 4304TIP3   OH234470   0.589   5.810   7.162
 4304TIP3    H134471   0.512   5.852   7.200
 4304TIP3    H234472   0.570   5.805   7.068
 4305TIP3   OH234473   1.269   0.166   0.498
 4305TIP3    H134474   1.234   0.195   0.582
 4305TIP3    H234475   1.317   0.086   0.518
 4306TIP3   OH234476   1.451   4.858   0.976
 4306TIP3    H134477   1.397   4.779   0.976
 4306TIP3    H234478   1.516   4.841   0.907
 4307TIP3   OH234479   6.651   3.991   7.939
 4307TIP3    H134480   6.599   3.914   7.913
 4307TIP3    H234481   6.741   3.965   7.920
 4308TIP3   OH234482   2.394   4.713   1.172
 4308TIP3    H134483   2.393   4.730   1.267
 4308TIP3    H234484   2.306   4.680   1.153
 4309TIP3   OH234485   0.133   1.883   6.164
 4309TIP3    H134486   0.079   1.806   6.180
 4309TIP3    H234487   0.211   1.849   6.121
 4310TIP3   OH234488   1.746   5.845   0.229
 4310TIP3    H134489   1.793   5.766   0.254
 4310TIP3    H234490   1.659   5.814   0.204
 4311TIP3   OH234491   4.544   4.814   8.835
 4311TIP3    H134492   4.472   4.766   8.793
 4311TIP3    H234493   4.610   4.823   8.767
 4312TIP3   OH234494   2.654   0.373   6.846
 4312TIP3    H134495   2.674   0.296   6.794
 4312TIP3    H234496   2.715   0.440   6.814
 4313TIP3   OH234497   6.749   2.793   6.762
 4313TIP3    H134498   0.043   2.821   6.744
 4313TIP3    H234499   6.731   2.822   6.851
 4314TIP3   OH234500   6.685   3.261   1.604
 4314TIP3    H134501   6.739   3.228   1.532
 4314TIP3    H234502   6.596   3.233   1.581
 4315TIP3   OH234503   3.711   2.143   1.864
 4315TIP3    H134504   3.725   2.231   1.900
 4315TIP3    H234505   3.625   2.118   1.898
 4316TIP3   OH234506   6.457   1.031   0.364
 4316TIP3    H134507   6.482   1.109   0.414
 4316TIP3    H234508   6.407   0.978   0.426
 4317TIP3   OH234509   3.835   6.269   8.716
 4317TIP3    H134510   3.775   6.231   8.780
 4317TIP3    H234511   3.798   6.245   8.631
 4318TIP3   OH234512   0.503   1.328   0.515
 4318TIP3    H134513   0.578   1.320   0.574
 4318TIP3    H234514   0.427   1.309   0.570
 4319TIP3   OH234515   3.271   0.241   6.552
 4319TIP3    H134516   3.215   0.223   6.627
 4319TIP3    H234517   3.246   0.177   6.486
 4320TIP3   OH234518   4.672   2.346   1.165
 4320TIP3    H134519   4.763   2.361   1.142
 4320TIP3    H234520   4.675   2.276   1.230
 4321TIP3   OH234521   4.410   1.099   8.632
 4321TIP3    H134522   4.330   1.117   8.681
 4321TIP3    H234523   4.426   1.180   8.583
 4322TIP3   OH234524   4.347   0.226   1.276
 4322TIP3    H134525   4.406   0.154   1.298
 4322TIP3    H234526   4.380   0.301   1.325
 4323TIP3   OH234527   5.665   3.915   1.503
 4323TIP3    H134528   5.718   3.948   1.576
 4323TIP3    H234529   5.580   3.894   1.542
 4324TIP3   OH234530   1.900   3.571   7.961
 4324TIP3    H134531   1.919   3.506   7.893
 4324TIP3    H234532   1.958   3.644   7.941
 4325TIP3   OH234533   4.530   1.762   0.511
 4325TIP3    H134534   4.529   1.768   0.416
 4325TIP3    H234535   4.446   1.723   0.534
 4326TIP3   OH234536   6.598   4.532   8.241
 4326TIP3    H134537   6.664   4.557   8.177
 4326TIP3    H234538   6.536   4.604   8.241
 4327TIP3   OH234539   1.600   0.662   1.472
 4327TIP3    H134540   1.620   0.737   1.528
 4327TIP3    H234541   1.679   0.651   1.419
 4328TIP3   OH234542   4.410   4.980   0.530
 4328TIP3    H134543   4.392   5.071   0.555
 4328TIP3    H234544   4.378   4.929   0.605
 4329TIP3   OH234545   4.241   1.526   2.249
 4329TIP3    H134546   4.264   1.549   2.339
 4329TIP3    H234547   4.316   1.553   2.197
 4330TIP3   OH234548   3.459   0.155   0.363
 4330TIP3    H134549   3.435   0.179   0.452
 4330TIP3    H234550   3.550   0.128   0.368
 4331TIP3   OH234551   0.031   4.900   2.512
 4331TIP3    H134552   6.758   4.875   2.451
 4331TIP3    H234553   0.040   4.995   2.500
 4332TIP3   OH234554   0.693   1.901   8.616
 4332TIP3    H134555   0.696   1.925   8.523
 4332TIP3    H234556   0.779   1.863   8.633
 4333TIP3   OH234557   4.168   6.143   0.016
 4333TIP3    H134558   4.073   6.133   0.005
 4333TIP3    H234559   4.190   6.081   0.085
 4334TIP3   OH234560   1.230   6.057   2.260
 4334TIP3    H134561   1.156   5.997   2.261
 4334TIP3    H234562   1.191   6.143   2.242
 4335TIP3   OH234563   4.819   5.245   8.556
 4335TIP3    H134564   4.744   5.203   8.599
 4335TIP3    H234565   4.823   5.204   8.470
 4336TIP3   OH234566   0.020   1.657   6.232
 4336TIP3    H134567   6.770   1.632   6.151
 4336TIP3    H234568   6.755   1.633   6.302
 4337TIP3   OH234569   3.704   1.229   2.021
 4337TIP3    H134570   3.713   1.275   1.938
 4337TIP3    H234571   3.793   1.208   2.048
 4338TIP3   OH234572   4.368   3.661   0.340
 4338TIP3    H134573   4.348   3.577   0.382
 4338TIP3    H234574   4.395   3.638   0.251
 4339TIP3   OH234575   0.216   2.923   7.028
 4339TIP3    H134576   0.195   2.967   7.111
 4339TIP3    H234577   0.141   2.943   6.971
 4340TIP3   OH234578   0.622   5.363   7.713
 4340TIP3    H134579   0.708   5.330   7.737
 4340TIP3    H234580   0.580   5.385   7.796
 4341TIP3   OH234581   3.313   0.668   0.406
 4341TIP3    H134582   3.396   0.710   0.384
 4341TIP3    H234583   3.286   0.708   0.488
 4342TIP3   OH234584   1.136   4.556   0.615
 4342TIP3    H134585   1.189   4.510   0.680
 4342TIP3    H234586   1.193   4.625   0.581
 4343TIP3   OH234587   3.433   5.020   7.285
 4343TIP3    H134588   3.489   5.056   7.354
 4343TIP3    H234589   3.495   4.990   7.219
 4344TIP3   OH234590   4.329   5.520   8.728
 4344TIP3    H134591   4.337   5.425   8.729
 4344TIP3    H234592   4.297   5.543   8.815
 4345TIP3   OH234593   1.762   2.752   1.563
 4345TIP3    H134594   1.775   2.814   1.634
 4345TIP3    H234595   1.783   2.802   1.483
 4346TIP3   OH234596   3.665   6.443   0.305
 4346TIP3    H134597   3.636   6.480   0.221
 4346TIP3    H234598   3.598   6.379   0.327
 4347TIP3   OH234599   2.893   5.664   0.200
 4347TIP3    H134600   2.946   5.718   0.258
 4347TIP3    H234601   2.803   5.690   0.220
 4348TIP3   OH234602   0.596   1.308   7.102
 4348TIP3    H134603   0.558   1.242   7.160
 4348TIP3    H234604   0.689   1.286   7.100
 4349TIP3   OH234605   0.201   0.434   0.873
 4349TIP3    H134606   0.233   0.346   0.896
 4349TIP3    H234607   0.153   0.462   0.951
 4350TIP3   OH234608   5.640   0.950   6.514
 4350TIP3    H134609   5.615   0.883   6.450
 4350TIP3    H234610   5.558   0.977   6.554
 4351TIP3   OH234611   6.044   6.787   2.172
 4351TIP3    H134612   6.055   0.068   2.226
 4351TIP3    H234613   6.046   6.714   2.234
 4352TIP3   OH234614   5.542   0.677   0.414
 4352TIP3    H134615   5.581   0.680   0.327
 4352TIP3    H234616   5.592   0.742   0.464
 4353TIP3   OH234617   2.155   0.457   0.535
 4353TIP3    H134618   2.181   0.380   0.484
 4353TIP3    H234619   2.068   0.479   0.501
 4354TIP3   OH234620   0.093   1.301   0.027
 4354TIP3    H134621   0.000   1.281   0.042
 4354TIP3    H234622   0.126   1.325   0.114
 4355TIP3   OH234623   6.244   5.082   1.740
 4355TIP3    H134624   6.242   5.120   1.653
 4355TIP3    H234625   6.311   5.014   1.735
 4356TIP3   OH234626   2.858   5.309   1.970
 4356TIP3    H134627   2.925   5.242   1.954
 4356TIP3    H234628   2.900   5.391   1.944
 4357TIP3   OH234629   5.013   0.149   0.879
 4357TIP3    H134630   4.940   0.150   0.818
 4357TIP3    H234631   5.004   0.231   0.928
 4358TIP3   OH234632   2.019   5.597   8.111
 4358TIP3    H134633   1.933   5.622   8.145
 4358TIP3    H234634   2.016   5.501   8.106
 4359TIP3   OH234635   4.176   6.548   1.590
 4359TIP3    H134636   4.108   6.540   1.523
 4359TIP3    H234637   4.130   6.535   1.673
 4360TIP3   OH234638   4.156   2.033   1.056
 4360TIP3    H134639   4.115   2.083   1.127
 4360TIP3    H234640   4.242   2.074   1.044
 4361TIP3   OH234641   3.300   2.107   7.258
 4361TIP3    H134642   3.362   2.117   7.185
 4361TIP3    H234643   3.245   2.185   7.253
 4362TIP3   OH234644   6.651   1.298   1.659
 4362TIP3    H134645   6.573   1.250   1.628
 4362TIP3    H234646   6.722   1.265   1.605
 4363TIP3   OH234647   3.197   1.613   8.302
 4363TIP3    H134648   3.203   1.655   8.388
 4363TIP3    H234649   3.199   1.520   8.321
 4364TIP3   OH234650   4.782   0.851   8.112
 4364TIP3    H134651   4.691   0.822   8.104
 4364TIP3    H234652   4.781   0.944   8.088
 4365TIP3   OH234653   3.523   3.736   0.092
 4365TIP3    H134654   3.567   3.742   0.007
 4365TIP3    H234655   3.517   3.827   0.122
 4366TIP3   OH234656   5.927   0.932   0.096
 4366TIP3    H134657   6.007   0.884   0.075
 4366TIP3    H234658   5.900   0.972   0.014
 4367TIP3   OH234659   2.519   0.784   7.596
 4367TIP3    H134660   2.427   0.804   7.615
 4367TIP3    H234661   2.541   0.715   7.659
 4368TIP3   OH234662   3.639   5.343   1.430
 4368TIP3    H134663   3.709   5.402   1.401
 4368TIP3    H234664   3.684   5.269   1.470
 4369TIP3   OH234665   4.552   4.773   1.378
 4369TIP3    H134666   4.584   4.838   1.316
 4369TIP3    H234667   4.577   4.689   1.340
 4370TIP3   OH234668   2.153   4.618   0.559
 4370TIP3    H134669   2.199   4.546   0.603
 4370TIP3    H234670   2.153   4.689   0.623
 4371TIP3   OH234671   4.203   6.496   8.180
 4371TIP3    H134672   4.204   6.588   8.208
 4371TIP3    H234673   4.258   6.451   8.245
 4372TIP3   OH234674   1.607   5.880   1.376
 4372TIP3    H134675   1.619   5.788   1.354
 4372TIP3    H234676   1.610   5.925   1.292
 4373TIP3   OH234677   3.556   4.595   6.797
 4373TIP3    H134678   3.499   4.643   6.857
 4373TIP3    H234679   3.639   4.642   6.801
 4374TIP3   OH234680   2.706   4.442   6.873
 4374TIP3    H134681   2.663   4.368   6.918
 4374TIP3    H234682   2.637   4.507   6.864
 4375TIP3   OH234683   4.094   5.548   8.579
 4375TIP3    H134684   4.119   5.481   8.515
 4375TIP3    H234685   4.166   5.550   8.641
 4376TIP3   OH234686   5.877   4.702   0.757
 4376TIP3    H134687   5.954   4.729   0.806
 4376TIP3    H234688   5.912   4.662   0.677
 4377TIP3   OH234689   4.386   1.045   7.340
 4377TIP3    H134690   4.406   0.951   7.337
 4377TIP3    H234691   4.438   1.078   7.414
 4378TIP3   OH234692   5.630   3.498   7.468
 4378TIP3    H134693   5.658   3.550   7.393
 4378TIP3    H234694   5.665   3.410   7.451
 4379TIP3   OH234695   0.665   2.718   2.066
 4379TIP3    H134696   0.602   2.654   2.033
 4379TIP3    H234697   0.621   2.802   2.058
 4380TIP3   OH234698   0.756   6.077   8.744
 4380TIP3    H134699   0.754   5.999   8.800
 4380TIP3    H234700   0.664   6.103   8.737
 4381TIP3   OH234701   2.819   2.540   0.027
 4381TIP3    H134702   2.862   2.588   0.098
 4381TIP3    H234703   2.746   2.596   0.000
 4382TIP3   OH234704   3.322   1.041   7.669
 4382TIP3    H134705   3.337   1.019   7.578
 4382TIP3    H234706   3.325   0.957   7.715
 4383TIP3   OH234707   4.111   0.487   7.350
 4383TIP3    H134708   4.138   0.573   7.316
 4383TIP3    H234709   4.021   0.476   7.319
 4384TIP3   OH234710   2.452   5.638   0.659
 4384TIP3    H134711   2.463   5.566   0.722
 4384TIP3    H234712   2.540   5.657   0.629
 4385TIP3   OH234713   1.143   6.012   1.744
 4385TIP3    H134714   1.077   5.949   1.772
 4385TIP3    H234715   1.092   6.089   1.717
 4386TIP3   OH234716   2.831   4.093   1.463
 4386TIP3    H134717   2.795   4.164   1.409
 4386TIP3    H234718   2.903   4.058   1.410
 4387TIP3   OH234719   0.519   5.098   0.988
 4387TIP3    H134720   0.447   5.059   0.938
 4387TIP3    H234721   0.491   5.188   1.004
 4388TIP3   OH234722   6.581   4.302   0.142
 4388TIP3    H134723   6.565   4.220   0.095
 4388TIP3    H234724   6.494   4.340   0.155
 4389TIP3   OH234725   2.502   2.509   7.241
 4389TIP3    H134726   2.463   2.444   7.183
 4389TIP3    H234727   2.475   2.593   7.204
 4390TIP3   OH234728   4.553   5.183   8.333
 4390TIP3    H134729   4.502   5.238   8.273
 4390TIP3    H234730   4.536   5.220   8.420
 4391TIP3   OH234731   5.012   1.357   1.094
 4391TIP3    H134732   4.980   1.269   1.075
 4391TIP3    H234733   4.975   1.377   1.180
 4392TIP3   OH234734   3.861   5.188   1.809
 4392TIP3    H134735   3.921   5.114   1.802
 4392TIP3    H234736   3.840   5.193   1.902
 4393TIP3   OH234737   3.680   1.418   0.524
 4393TIP3    H134738   3.590   1.436   0.496
 4393TIP3    H234739   3.683   1.324   0.536
 4394TIP3   OH234740   3.620   2.004   0.865
 4394TIP3    H134741   3.529   2.032   0.870
 4394TIP3    H234742   3.618   1.930   0.804
 4395TIP3   OH234743   5.412   3.249   7.552
 4395TIP3    H134744   5.369   3.176   7.596
 4395TIP3    H234745   5.506   3.234   7.567
 4396TIP3   OH234746   0.051   0.590   8.039
 4396TIP3    H134747   0.023   0.662   8.095
 4396TIP3    H234748   0.089   0.526   8.099
 4397TIP3   OH234749   2.599   1.701   0.509
 4397TIP3    H134750   2.570   1.736   0.425
 4397TIP3    H234751   2.520   1.665   0.549
 4398TIP3   OH234752   1.373   5.171   0.376
 4398TIP3    H134753   1.302   5.233   0.357
 4398TIP3    H234754   1.328   5.094   0.410
 4399TIP3   OH234755   4.038   4.825   7.131
 4399TIP3    H134756   4.054   4.831   7.225
 4399TIP3    H234757   4.025   4.915   7.103
 4400TIP3   OH234758   5.315   5.871   0.118
 4400TIP3    H134759   5.323   5.837   0.207
 4400TIP3    H234760   5.308   5.966   0.129
 4401TIP3   OH234761   3.740   2.139   1.586
 4401TIP3    H134762   3.729   2.047   1.560
 4401TIP3    H234763   3.719   2.139   1.680
 4402TIP3   OH234764   1.871   1.533   8.790
 4402TIP3    H134765   1.946   1.492   8.747
 4402TIP3    H234766   1.837   1.466   8.849
 4403TIP3   OH234767   6.725   4.353   1.234
 4403TIP3    H134768   6.710   4.447   1.247
 4403TIP3    H234769   6.639   4.319   1.208
 4404TIP3   OH234770   6.772   1.303   8.152
 4404TIP3    H134771   0.062   1.275   8.180
 4404TIP3    H234772   6.716   1.290   8.228
 4405TIP3   OH234773   1.898   6.461   7.390
 4405TIP3    H134774   1.818   6.498   7.428
 4405TIP3    H234775   1.947   6.426   7.464
 4406TIP3   OH234776   4.575   0.621   1.409
 4406TIP3    H134777   4.634   0.586   1.477
 4406TIP3    H234778   4.587   0.716   1.415
 4407TIP3   OH234779   4.883   2.954   7.225
 4407TIP3    H134780   4.867   3.012   7.151
 4407TIP3    H234781   4.871   3.009   7.302
 4408TIP3   OH234782   2.643   1.257   8.160
 4408TIP3    H134783   2.665   1.183   8.218
 4408TIP3    H234784   2.563   1.293   8.196
 4409TIP3   OH234785   1.274   1.635   0.041
 4409TIP3    H134786   1.220   1.599   8.845
 4409TIP3    H234787   1.241   1.724   0.053
 4410TIP3   OH234788   5.841   2.009   2.208
 4410TIP3    H134789   5.898   2.087   2.205
 4410TIP3    H234790   5.755   2.043   2.230
 4411TIP3   OH234791   3.363   4.708   6.618
 4411TIP3    H134792   3.284   4.654   6.615
 4411TIP3    H234793   3.430   4.650   6.655
 4412TIP3   OH234794   1.996   1.941   0.625
 4412TIP3    H134795   2.023   1.890   0.549
 4412TIP3    H234796   2.077   1.961   0.671
 4413TIP3   OH234797   2.173   6.286   0.094
 4413TIP3    H134798   2.217   6.368   0.070
 4413TIP3    H234799   2.143   6.250   0.011
 4414TIP3   OH234800   6.308   3.767   7.189
 4414TIP3    H134801   6.229   3.818   7.205
 4414TIP3    H234802   6.340   3.799   7.105
 4415TIP3   OH234803   0.448   4.349   7.481
 4415TIP3    H134804   0.364   4.358   7.525
 4415TIP3    H234805   0.461   4.433   7.436
 4416TIP3   OH234806   4.729   5.256   7.252
 4416TIP3    H134807   4.727   5.163   7.227
 4416TIP3    H234808   4.708   5.303   7.172
 4417TIP3   OH234809   3.281   4.056   2.323
 4417TIP3    H134810   3.298   3.990   2.390
 4417TIP3    H234811   3.367   4.091   2.302
 4418TIP3   OH234812   0.818   1.331   2.380
 4418TIP3    H134813   0.770   1.287   2.450
 4418TIP3    H234814   0.797   1.424   2.391
 4419TIP3   OH234815   5.307   2.371   7.052
 4419TIP3    H134816   5.398   2.387   7.028
 4419TIP3    H234817   5.259   2.377   6.970
 4420TIP3   OH234818   2.787   4.986   2.623
 4420TIP3    H134819   2.853   4.923   2.654
 4420TIP3    H234820   2.738   4.937   2.557
 4421TIP3   OH234821   5.154   2.113   8.036
 4421TIP3    H134822   5.114   2.188   7.991
 4421TIP3    H234823   5.222   2.152   8.091
 4422TIP3   OH234824   3.375   2.428   0.896
 4422TIP3    H134825   3.359   2.407   0.804
 4422TIP3    H234826   3.313   2.375   0.945
 4423TIP3   OH234827   2.450   4.368   7.677
 4423TIP3    H134828   2.471   4.280   7.648
 4423TIP3    H234829   2.452   4.421   7.597
 4424TIP3   OH234830   4.203   5.633   1.055
 4424TIP3    H134831   4.226   5.714   1.009
 4424TIP3    H234832   4.127   5.656   1.107
 4425TIP3   OH234833   2.307   1.324   2.450
 4425TIP3    H134834   2.278   1.287   2.533
 4425TIP3    H234835   2.331   1.249   2.397
 4426TIP3   OH234836   1.647   6.123   6.799
 4426TIP3    H134837   1.554   6.105   6.783
 4426TIP3    H234838   1.649   6.212   6.832
 4427TIP3   OH234839   5.178   6.517   8.151
 4427TIP3    H134840   5.240   6.571   8.101
 4427TIP3    H234841   5.208   6.427   8.136
 4428TIP3   OH234842   5.193   2.256   1.469
 4428TIP3    H134843   5.257   2.317   1.505
 4428TIP3    H234844   5.235   2.222   1.389
 4429TIP3   OH234845   4.708   3.138   7.097
 4429TIP3    H134846   4.767   3.179   7.033
 4429TIP3    H234847   4.620   3.158   7.064
 4430TIP3   OH234848   0.294   4.029   8.519
 4430TIP3    H134849   0.325   4.035   8.429
 4430TIP3    H234850   0.217   4.087   8.522
 4431TIP3   OH234851   3.354   3.644   7.453
 4431TIP3    H134852   3.404   3.632   7.372
 4431TIP3    H234853   3.421   3.650   7.521
 4432TIP3   OH234854   4.053   2.275   7.755
 4432TIP3    H134855   3.966   2.252   7.787
 4432TIP3    H234856   4.093   2.325   7.827
 4433TIP3   OH234857   3.329   6.217   0.665
 4433TIP3    H134858   3.382   6.141   0.687
 4433TIP3    H234859   3.356   6.242   0.577
 4434TIP3   OH234860   4.344   0.266   8.194
 4434TIP3    H134861   4.295   0.346   8.175
 4434TIP3    H234862   4.430   0.280   8.153
 4435TIP3   OH234863   2.917   4.995   8.531
 4435TIP3    H134864   2.923   4.934   8.458
 4435TIP3    H234865   2.997   5.047   8.526
 4436TIP3   OH234866   4.387   1.912   1.396
 4436TIP3    H134867   4.440   1.917   1.475
 4436TIP3    H234868   4.445   1.941   1.326
 4437TIP3   OH234869   1.093   5.367   1.236
 4437TIP3    H134870   1.063   5.378   1.146
 4437TIP3    H234871   1.027   5.310   1.277
 4438TIP3   OH234872   5.330   3.968   0.650
 4438TIP3    H134873   5.271   3.904   0.689
 4438TIP3    H234874   5.353   4.027   0.721
 4439TIP3   OH234875   3.864   2.658   1.098
 4439TIP3    H134876   3.818   2.737   1.073
 4439TIP3    H234877   3.878   2.667   1.193
 4440TIP3   OH234878   3.666   1.285   1.138
 4440TIP3    H134879   3.588   1.324   1.097
 4440TIP3    H234880   3.733   1.289   1.070
 4441TIP3   OH234881   1.905   4.888   2.728
 4441TIP3    H134882   1.968   4.920   2.664
 4441TIP3    H234883   1.935   4.925   2.811
 4442TIP3   OH234884   5.764   1.225   7.840
 4442TIP3    H134885   5.720   1.261   7.917
 4442TIP3    H234886   5.811   1.148   7.873
 4443TIP3   OH234887   2.975   2.680   8.095
 4443TIP3    H134888   2.907   2.713   8.153
 4443TIP3    H234889   3.037   2.752   8.086
 4444TIP3   OH234890   2.380   2.664   8.630
 4444TIP3    H134891   2.378   2.756   8.603
 4444TIP3    H234892   2.330   2.617   8.563
 4445TIP3   OH234893   0.210   2.796   0.033
 4445TIP3    H134894   0.287   2.775   8.854
 4445TIP3    H234895   0.141   2.739   8.873
 4446TIP3   OH234896   3.949   0.204   1.452
 4446TIP3    H134897   4.014   0.134   1.463
 4446TIP3    H234898   4.001   0.284   1.443
 4447TIP3   OH234899   3.036   4.022   7.347
 4447TIP3    H134900   2.950   4.030   7.306
 4447TIP3    H234901   3.052   4.108   7.386
 4448TIP3   OH234902   2.228   6.593   0.822
 4448TIP3    H134903   2.273   6.583   0.906
 4448TIP3    H234904   2.299   6.605   0.759
 4449TIP3   OH234905   3.955   4.962   0.037
 4449TIP3    H134906   3.968   4.929   8.823
 4449TIP3    H234907   3.862   4.981   0.043
 4450TIP3   OH234908   1.596   4.948   1.567
 4450TIP3    H134909   1.572   4.865   1.524
 4450TIP3    H234910   1.619   5.006   1.495
 4451TIP3   OH234911   5.243   5.591   8.221
 4451TIP3    H134912   5.163   5.588   8.274
 4451TIP3    H234913   5.281   5.676   8.241
 4452TIP3   OH234914   3.188   4.515   7.778
 4452TIP3    H134915   3.220   4.455   7.846
 4452TIP3    H234916   3.095   4.495   7.770
 4453TIP3   OH234917   0.760   5.951   7.684
 4453TIP3    H134918   0.667   5.965   7.663
 4453TIP3    H234919   0.772   5.857   7.676
 4454TIP3   OH234920   6.224   2.810   8.515
 4454TIP3    H134921   6.156   2.743   8.506
 4454TIP3    H234922   6.260   2.796   8.602
 4455TIP3   OH234923   1.684   5.275   0.254
 4455TIP3    H134924   1.679   5.222   0.333
 4455TIP3    H234925   1.765   5.247   0.211
 4456TIP3   OH234926   2.726   6.682   0.720
 4456TIP3    H134927   2.708   6.713   0.632
 4456TIP3    H234928   2.781   6.605   0.708
 4457TIP3   OH234929   3.059   0.856   1.660
 4457TIP3    H134930   2.982   0.911   1.660
 4457TIP3    H234931   3.132   0.915   1.679
 4458TIP3   OH234932   0.778   5.797   0.495
 4458TIP3    H134933   0.837   5.814   0.568
 4458TIP3    H234934   0.706   5.748   0.533
 4459TIP3   OH234935   4.169   5.591   0.390
 4459TIP3    H134936   4.201   5.504   0.369
 4459TIP3    H234937   4.202   5.609   0.478
 4460TIP3   OH234938   6.455   5.158   2.368
 4460TIP3    H134939   6.403   5.078   2.360
 4460TIP3    H234940   6.542   5.133   2.336
 4461TIP3   OH234941   6.604   0.313   8.570
 4461TIP3    H134942   6.669   0.360   8.623
 4461TIP3    H234943   6.519   0.342   8.605
 4462TIP3   OH234944   6.439   5.182   8.217
 4462TIP3    H134945   6.400   5.269   8.213
 4462TIP3    H234946   6.533   5.198   8.227
 4463TIP3   OH234947   4.836   0.816   1.889
 4463TIP3    H134948   4.854   0.881   1.956
 4463TIP3    H234949   4.904   0.750   1.900
 4464TIP3   OH234950   2.697   2.199   0.363
 4464TIP3    H134951   2.618   2.210   0.311
 4464TIP3    H234952   2.732   2.114   0.337
 4465TIP3   OH234953   6.649   1.471   7.785
 4465TIP3    H134954   6.591   1.446   7.857
 4465TIP3    H234955   6.736   1.476   7.825
 4466TIP3   OH234956   1.271   2.726   8.545
 4466TIP3    H134957   1.239   2.639   8.523
 4466TIP3    H234958   1.274   2.727   8.641
 4467TIP3   OH234959   1.049   6.304   0.187
 4467TIP3    H134960   0.978   6.292   0.125
 4467TIP3    H234961   1.035   6.236   0.253
 4468TIP3   OH234962   5.591   2.389   1.199
 4468TIP3    H134963   5.535   2.463   1.174
 4468TIP3    H234964   5.652   2.426   1.263
 4469TIP3   OH234965   4.413   5.361   7.143
 4469TIP3    H134966   4.464   5.374   7.223
 4469TIP3    H234967   4.473   5.379   7.072
 4470TIP3   OH234968   5.394   4.652   8.669
 4470TIP3    H134969   5.352   4.695   8.744
 4470TIP3    H234970   5.448   4.583   8.707
 4471TIP3   OH234971   5.008   5.877   0.288
 4471TIP3    H134972   5.053   5.962   0.294
 4471TIP3    H234973   5.009   5.856   0.195
 4472TIP3   OH234974   1.372   3.012   6.957
 4472TIP3    H134975   1.378   3.106   6.938
 4472TIP3    H234976   1.278   2.993   6.951
 4473TIP3   OH234977   3.626   2.350   1.017
 4473TIP3    H134978   3.581   2.377   1.097
 4473TIP3    H234979   3.568   2.377   0.946
 4474TIP3   OH234980   3.010   4.275   7.475
 4474TIP3    H134981   3.072   4.348   7.477
 4474TIP3    H234982   2.924   4.317   7.484
 4475TIP3   OH234983   3.639   2.923   0.128
 4475TIP3    H134984   3.711   2.966   0.174
 4475TIP3    H234985   3.632   2.837   0.170
 4476TIP3   OH234986   4.710   4.936   6.658
 4476TIP3    H134987   4.678   4.912   6.571
 4476TIP3    H234988   4.782   4.876   6.675
 4477TIP3   OH234989   3.605   0.534   7.361
 4477TIP3    H134990   3.638   0.454   7.402
 4477TIP3    H234991   3.556   0.503   7.284
 4478TIP3   OH234992   5.002   5.008   8.840
 4478TIP3    H134993   5.051   4.958   0.031
 4478TIP3    H234994   5.036   4.976   8.756
 4479TIP3   OH234995   2.726   5.644   1.916
 4479TIP3    H134996   2.692   5.606   1.836
 4479TIP3    H234997   2.819   5.620   1.917
 4480TIP3   OH234998   2.186   6.732   7.407
 4480TIP3    H134999   2.157   6.702   7.320
 4480TIP3    H235000   2.164   0.029   7.408
 4481TIP3   OH235001   0.662   2.665   7.916
 4481TIP3    H135002   0.686   2.601   7.982
 4481TIP3    H235003   0.738   2.723   7.910
 4482TIP3   OH235004   4.239   5.233   7.316
 4482TIP3    H135005   4.209   5.208   7.404
 4482TIP3    H235006   4.317   5.287   7.332
 4483TIP3   OH235007   3.913   3.710   0.360
 4483TIP3    H135008   3.946   3.789   0.318
 4483TIP3    H235009   3.935   3.721   0.453
 4484TIP3   OH235010   1.274   3.138   8.326
 4484TIP3    H135011   1.328   3.064   8.355
 4484TIP3    H235012   1.195   3.097   8.289
 4485TIP3   OH235013   3.280   3.641   0.324
 4485TIP3    H135014   3.371   3.632   0.353
 4485TIP3    H235015   3.271   3.735   0.306
 4486TIP3   OH235016   5.560   6.180   1.002
 4486TIP3    H135017   5.476   6.198   1.045
 4486TIP3    H235018   5.613   6.138   1.069
 4487TIP3   OH235019   2.537   0.921   1.986
 4487TIP3    H135020   2.511   0.834   2.018
 4487TIP3    H235021   2.591   0.956   2.056
 4488TIP3   OH235022   0.661   2.412   7.037
 4488TIP3    H135023   0.643   2.446   6.949
 4488TIP3    H235024   0.652   2.317   7.028
 4489TIP3   OH235025   6.144   5.788   7.098
 4489TIP3    H135026   6.231   5.814   7.067
 4489TIP3    H235027   6.154   5.696   7.121
 4490TIP3   OH235028   3.427   6.392   8.553
 4490TIP3    H135029   3.521   6.407   8.552
 4490TIP3    H235030   3.402   6.402   8.644
 4491TIP3   OH235031   0.115   3.245   0.931
 4491TIP3    H135032   0.050   3.207   0.872
 4491TIP3    H235033   0.175   3.292   0.874
 4492TIP3   OH235034   4.489   5.386   0.459
 4492TIP3    H135035   4.396   5.400   0.441
 4492TIP3    H235036   4.501   5.420   0.548
 4493TIP3   OH235037   0.260   4.359   0.023
 4493TIP3    H135038   0.185   4.390   8.847
 4493TIP3    H235039   0.263   4.265   0.008
 4494TIP3   OH235040   2.453   4.510   7.446
 4494TIP3    H135041   2.392   4.582   7.437
 4494TIP3    H235042   2.441   4.458   7.366
 4495TIP3   OH235043   3.996   4.166   7.188
 4495TIP3    H135044   3.920   4.157   7.131
 4495TIP3    H235045   4.057   4.098   7.159
 4496TIP3   OH235046   2.745   6.197   7.288
 4496TIP3    H135047   2.740   6.126   7.352
 4496TIP3    H235048   2.669   6.252   7.308
 4497TIP3   OH235049   6.119   0.177   0.783
 4497TIP3    H135050   6.037   0.195   0.829
 4497TIP3    H235051   6.136   0.084   0.799
 4498TIP3   OH235052   5.852   4.360   0.856
 4498TIP3    H135053   5.924   4.421   0.840
 4498TIP3    H235054   5.834   4.321   0.770
 4499TIP3   OH235055   3.989   3.299   1.112
 4499TIP3    H135056   4.056   3.300   1.043
 4499TIP3    H235057   3.981   3.391   1.139
 4500TIP3   OH235058   2.731   2.805   7.636
 4500TIP3    H135059   2.697   2.738   7.578
 4500TIP3    H235060   2.824   2.809   7.617
 4501TIP3   OH235061   3.431   0.553   6.858
 4501TIP3    H135062   3.496   0.490   6.827
 4501TIP3    H235063   3.366   0.557   6.789
 4502TIP3   OH235064   3.694   3.342   7.630
 4502TIP3    H135065   3.692   3.433   7.601
 4502TIP3    H235066   3.620   3.301   7.584
 4503TIP3   OH235067   5.184   2.187   2.324
 4503TIP3    H135068   5.157   2.138   2.401
 4503TIP3    H235069   5.181   2.279   2.351
 4504TIP3   OH235070   5.142   6.552   7.163
 4504TIP3    H135071   5.193   6.633   7.168
 4504TIP3    H235072   5.184   6.501   7.094
 4505TIP3   OH235073   4.202   2.347   0.402
 4505TIP3    H135074   4.134   2.382   0.460
 4505TIP3    H235075   4.155   2.292   0.340
 4506TIP3   OH235076   4.141   5.801   8.784
 4506TIP3    H135077   4.055   5.827   8.750
 4506TIP3    H235078   4.126   5.782   0.002
 4507TIP3   OH235079   0.272   5.015   7.663
 4507TIP3    H135080   0.284   4.990   7.571
 4507TIP3    H235081   0.349   4.980   7.708
 4508TIP3   OH235082   0.109   6.523   1.974
 4508TIP3    H135083   0.166   6.454   2.009
 4508TIP3    H235084   0.149   6.604   2.003
 4509TIP3   OH235085   3.260   0.911   8.112
 4509TIP3    H135086   3.207   0.854   8.057
 4509TIP3    H235087   3.347   0.909   8.071
 4510TIP3   OH235088   2.971   0.373   6.587
 4510TIP3    H135089   2.905   0.427   6.629
 4510TIP3    H235090   2.931   0.286   6.581
 4511TIP3   OH235091   4.922   2.225   1.328
 4511TIP3    H135092   4.964   2.301   1.368
 4511TIP3    H235093   4.935   2.236   1.234
 4512TIP3   OH235094   2.851   5.999   8.250
 4512TIP3    H135095   2.863   5.926   8.190
 4512TIP3    H235096   2.756   6.012   8.252
 4513TIP3   OH235097   0.829   2.053   7.188
 4513TIP3    H135098   0.773   2.107   7.133
 4513TIP3    H235099   0.853   2.109   7.261
 4514TIP3   OH235100   5.511   6.726   7.568
 4514TIP3    H135101   5.542   6.719   7.658
 4514TIP3    H235102   5.576   6.678   7.516
 4515TIP3   OH235103   1.579   6.452   1.090
 4515TIP3    H135104   1.576   6.471   1.184
 4515TIP3    H235105   1.495   6.410   1.072
 4516TIP3   OH235106   1.614   3.304   6.139
 4516TIP3    H135107   1.606   3.284   6.233
 4516TIP3    H235108   1.560   3.238   6.096
 4517TIP3   OH235109   1.392   5.701   2.108
 4517TIP3    H135110   1.472   5.754   2.116
 4517TIP3    H235111   1.399   5.637   2.178
 4518TIP3   OH235112   5.514   5.921   0.859
 4518TIP3    H135113   5.591   5.902   0.913
 4518TIP3    H235114   5.483   6.006   0.890
 4519TIP3   OH235115   0.381   3.988   1.113
 4519TIP3    H135116   0.386   3.897   1.143
 4519TIP3    H235117   0.440   3.991   1.037
 4520TIP3   OH235118   2.130   4.128   1.164
 4520TIP3    H135119   2.175   4.046   1.184
 4520TIP3    H235120   2.188   4.196   1.198
 4521TIP3   OH235121   1.277   5.519   7.182
 4521TIP3    H135122   1.202   5.547   7.233
 4521TIP3    H235123   1.256   5.429   7.156
 4522TIP3   OH235124   6.670   4.773   1.446
 4522TIP3    H135125   6.598   4.719   1.478
 4522TIP3    H235126   6.643   4.863   1.465
 4523TIP3   OH235127   6.457   5.932   8.223
 4523TIP3    H135128   6.465   5.851   8.172
 4523TIP3    H235129   6.544   5.971   8.219
 4524TIP3   OH235130   0.472   2.046   1.297
 4524TIP3    H135131   0.533   1.988   1.344
 4524TIP3    H235132   0.500   2.134   1.321
 4525TIP3   OH235133   4.373   5.218   0.684
 4525TIP3    H135134   4.383   5.314   0.685
 4525TIP3    H235135   4.342   5.197   0.772
 4526TIP3   OH235136   5.469   0.976   8.374
 4526TIP3    H135137   5.377   0.959   8.356
 4526TIP3    H235138   5.512   0.967   8.289
 4527TIP3   OH235139   6.567   0.422   8.288
 4527TIP3    H135140   6.600   0.381   8.368
 4527TIP3    H235141   6.576   0.516   8.304
 4528TIP3   OH235142   6.291   6.498   2.340
 4528TIP3    H135143   6.342   6.551   2.401
 4528TIP3    H235144   6.203   6.535   2.345
 4529TIP3   OH235145   0.667   2.569   8.718
 4529TIP3    H135146   0.674   2.480   8.685
 4529TIP3    H235147   0.743   2.580   8.775
 4530TIP3   OH235148   1.400   3.838   6.975
 4530TIP3    H135149   1.329   3.880   7.023
 4530TIP3    H235150   1.461   3.807   7.043
 4531TIP3   OH235151   3.998   5.108   7.102
 4531TIP3    H135152   3.932   5.114   7.172
 4531TIP3    H235153   4.037   5.196   7.099
 4532TIP3   OH235154   3.882   0.647   0.165
 4532TIP3    H135155   3.791   0.628   0.191
 4532TIP3    H235156   3.930   0.568   0.190
 4533TIP3   OH235157   1.705   0.818   0.306
 4533TIP3    H135158   1.649   0.810   0.383
 4533TIP3    H235159   1.673   0.752   0.245
 4534TIP3   OH235160   4.841   6.472   1.235
 4534TIP3    H135161   4.866   6.558   1.270
 4534TIP3    H235162   4.906   6.455   1.166
 4535TIP3   OH235163   5.152   5.794   6.215
 4535TIP3    H135164   5.161   5.700   6.224
 4535TIP3    H235165   5.229   5.822   6.166
 4536TIP3   OH235166   0.753   3.181   5.899
 4536TIP3    H135167   0.725   3.197   5.809
 4536TIP3    H235168   0.846   3.202   5.900
 4537TIP3   OH235169   4.197   2.474   7.905
 4537TIP3    H135170   4.202   2.448   7.997
 4537TIP3    H235171   4.133   2.545   7.904
 4538TIP3   OH235172   5.487   0.270   8.514
 4538TIP3    H135173   5.445   0.263   8.428
 4538TIP3    H235174   5.581   0.270   8.494
 4539TIP3   OH235175   1.058   6.782   8.401
 4539TIP3    H135176   0.987   0.045   8.428
 4539TIP3    H235177   1.102   6.758   8.482
 4540TIP3   OH235178   6.260   1.444   7.994
 4540TIP3    H135179   6.201   1.372   7.972
 4540TIP3    H235180   6.213   1.523   7.968
 4541TIP3   OH235181   3.111   4.093   8.019
 4541TIP3    H135182   3.063   4.071   8.098
 4541TIP3    H235183   3.139   4.008   7.983
 4542TIP3   OH235184   5.595   2.738   0.880
 4542TIP3    H135185   5.540   2.817   0.883
 4542TIP3    H235186   5.611   2.723   0.787
 4543TIP3   OH235187   4.943   3.253   0.880
 4543TIP3    H135188   4.849   3.269   0.867
 4543TIP3    H235189   4.982   3.262   0.793
 4544TIP3   OH235190   0.455   4.646   7.981
 4544TIP3    H135191   0.534   4.600   7.953
 4544TIP3    H235192   0.400   4.579   8.021
 4545TIP3   OH235193   0.630   1.244   7.770
 4545TIP3    H135194   0.542   1.217   7.743
 4545TIP3    H235195   0.651   1.317   7.712
 4546TIP3   OH235196   6.748   3.586   0.795
 4546TIP3    H135197   6.761   3.563   0.703
 4546TIP3    H235198   0.038   3.571   0.835
 4547TIP3   OH235199   2.486   0.804   1.494
 4547TIP3    H135200   2.422   0.736   1.470
 4547TIP3    H235201   2.458   0.881   1.444
 4548TIP3   OH235202   2.720   4.804   8.196
 4548TIP3    H135203   2.644   4.820   8.139
 4548TIP3    H235204   2.705   4.717   8.232
 4549TIP3   OH235205   0.185   5.430   7.980
 4549TIP3    H135206   0.222   5.459   7.897
 4549TIP3    H235207   0.259   5.395   8.028
 4550TIP3   OH235208   6.781   4.276   1.724
 4550TIP3    H135209   6.775   4.215   1.650
 4550TIP3    H235210   6.740   4.357   1.692
 4551TIP3   OH235211   5.321   2.017   1.020
 4551TIP3    H135212   5.251   2.059   0.970
 4551TIP3    H235213   5.275   1.964   1.085
 4552TIP3   OH235214   2.838   0.474   0.491
 4552TIP3    H135215   2.928   0.477   0.524
 4552TIP3    H235216   2.786   0.517   0.559
 4553TIP3   OH235217   5.653   6.634   1.692
 4553TIP3    H135218   5.730   6.578   1.688
 4553TIP3    H235219   5.679   6.714   1.645
 4554TIP3   OH235220   4.629   3.084   1.795
 4554TIP3    H135221   4.568   3.044   1.733
 4554TIP3    H235222   4.642   3.018   1.863
 4555TIP3   OH235223   0.139   4.253   1.023
 4555TIP3    H135224   0.090   4.327   1.058
 4555TIP3    H235225   0.185   4.217   1.099
 4556TIP3   OH235226   6.775   6.253   8.088
 4556TIP3    H135227   0.001   6.259   7.996
 4556TIP3    H235228   0.061   6.272   8.134
 4557TIP3   OH235229   1.601   0.933   7.241
 4557TIP3    H135230   1.514   0.941   7.202
 4557TIP3    H235231   1.659   0.980   7.180
 4558TIP3   OH235232   2.299   1.722   1.288
 4558TIP3    H135233   2.221   1.770   1.261
 4558TIP3    H235234   2.361   1.790   1.314
 4559TIP3   OH235235   3.356   5.785   0.044
 4559TIP3    H135236   3.420   5.726   0.005
 4559TIP3    H235237   3.382   5.793   0.136
 4560TIP3   OH235238   2.029   1.359   2.135
 4560TIP3    H135239   1.949   1.391   2.094
 4560TIP3    H235240   2.002   1.279   2.180
 4561TIP3   OH235241   5.604   3.023   7.290
 4561TIP3    H135242   5.524   2.995   7.335
 4561TIP3    H235243   5.583   3.110   7.257
 4562TIP3   OH235244   5.692   0.979   7.353
 4562TIP3    H135245   5.786   0.990   7.334
 4562TIP3    H235246   5.666   0.902   7.302
 4563TIP3   OH235247   3.054   4.233   7.160
 4563TIP3    H135248   3.076   4.182   7.081
 4563TIP3    H235249   3.135   4.231   7.212
 4564TIP3   OH235250   6.586   0.240   7.161
 4564TIP3    H135251   6.615   0.169   7.218
 4564TIP3    H235252   6.635   0.227   7.080
 4565TIP3   OH235253   0.198   0.036   7.418
 4565TIP3    H135254   0.189   6.766   7.487
 4565TIP3    H235255   0.208   0.118   7.465
 4566TIP3   OH235256   4.923   3.032   0.644
 4566TIP3    H135257   4.942   3.050   0.552
 4566TIP3    H235258   4.830   3.053   0.654
 4567TIP3   OH235259   1.227   6.079   0.782
 4567TIP3    H135260   1.215   6.118   0.695
 4567TIP3    H235261   1.300   6.017   0.770
 4568TIP3   OH235262   1.577   4.250   8.690
 4568TIP3    H135263   1.598   4.261   8.783
 4568TIP3    H235264   1.514   4.178   8.688
 4569TIP3   OH235265   2.684   5.402   7.049
 4569TIP3    H135266   2.629   5.331   7.015
 4569TIP3    H235267   2.740   5.426   6.975
 4570TIP3   OH235268   2.557   5.478   0.842
 4570TIP3    H135269   2.525   5.399   0.886
 4570TIP3    H235270   2.624   5.446   0.781
 4571TIP3   OH235271   3.879   3.278   0.675
 4571TIP3    H135272   3.832   3.360   0.660
 4571TIP3    H235273   3.928   3.294   0.756
 4572TIP3   OH235274   5.390   4.000   0.099
 4572TIP3    H135275   5.364   3.943   0.026
 4572TIP3    H235276   5.477   3.969   0.124
 4573TIP3   OH235277   0.228   0.492   7.833
 4573TIP3    H135278   0.179   0.522   7.909
 4573TIP3    H235279   0.168   0.433   7.787
 4574TIP3   OH235280   0.390   3.137   7.651
 4574TIP3    H135281   0.452   3.135   7.724
 4574TIP3    H235282   0.319   3.078   7.678
 4575TIP3   OH235283   1.705   0.589   7.083
 4575TIP3    H135284   1.630   0.627   7.038
 4575TIP3    H235285   1.760   0.665   7.106
 4576TIP3   OH235286   2.466   2.780   7.130
 4576TIP3    H135287   2.541   2.829   7.164
 4576TIP3    H235288   2.395   2.844   7.127
 4577TIP3   OH235289   2.604   0.797   6.938
 4577TIP3    H135290   2.697   0.803   6.959
 4577TIP3    H235291   2.584   0.881   6.896
 4578TIP3   OH235292   1.567   0.402   7.251
 4578TIP3    H135293   1.509   0.477   7.263
 4578TIP3    H235294   1.632   0.431   7.187
 4579TIP3   OH235295   4.603   5.764   8.393
 4579TIP3    H135296   4.527   5.714   8.362
 4579TIP3    H235297   4.612   5.738   8.485
 4580TIP3   OH235298   0.701   5.507   8.569
 4580TIP3    H135299   0.785   5.519   8.525
 4580TIP3    H235300   0.657   5.438   8.520
 4581TIP3   OH235301   2.748   6.289   1.587
 4581TIP3    H135302   2.782   6.343   1.515
 4581TIP3    H235303   2.669   6.249   1.552
 4582TIP3   OH235304   5.708   1.700   8.869
 4582TIP3    H135305   5.711   1.668   0.084
 4582TIP3    H235306   5.649   1.776   8.872
 4583TIP3   OH235307   6.206   6.603   1.675
 4583TIP3    H135308   6.123   6.641   1.647
 4583TIP3    H235309   6.193   6.578   1.766
 4584TIP3   OH235310   5.877   2.612   1.625
 4584TIP3    H135311   5.876   2.667   1.703
 4584TIP3    H235312   5.923   2.532   1.653
 4585TIP3   OH235313   4.579   0.044   1.333
 4585TIP3    H135314   4.548   6.755   1.300
 4585TIP3    H235315   4.645   0.071   1.270
 4586TIP3   OH235316   5.831   4.771   1.103
 4586TIP3    H135317   5.790   4.686   1.084
 4586TIP3    H235318   5.779   4.808   1.173
 4587TIP3   OH235319   0.366   3.343   2.002
 4587TIP3    H135320   0.272   3.324   2.007
 4587TIP3    H235321   0.371   3.438   1.990
 4588TIP3   OH235322   6.085   0.301   1.164
 4588TIP3    H135323   6.153   0.368   1.153
 4588TIP3    H235324   6.113   0.252   1.241
 4589TIP3   OH235325   5.770   1.509   1.405
 4589TIP3    H135326   5.744   1.418   1.387
 4589TIP3    H235327   5.864   1.510   1.392
 4590TIP3   OH235328   1.108   3.827   6.850
 4590TIP3    H135329   1.135   3.815   6.759
 4590TIP3    H235330   1.186   3.806   6.902
 4591TIP3   OH235331   0.506   2.803   8.503
 4591TIP3    H135332   0.493   2.895   8.484
 4591TIP3    H235333   0.594   2.783   8.471
 4592TIP3   OH235334   3.722   4.185   6.262
 4592TIP3    H135335   3.810   4.196   6.227
 4592TIP3    H235336   3.717   4.247   6.335
 4593TIP3   OH235337   4.910   2.011   7.401
 4593TIP3    H135338   4.947   1.925   7.421
 4593TIP3    H235339   4.910   2.057   7.485
 4594TIP3   OH235340   4.300   3.716   1.866
 4594TIP3    H135341   4.320   3.712   1.959
 4594TIP3    H235342   4.383   3.736   1.823
 4595TIP3   OH235343   2.919   5.957   0.019
 4595TIP3    H135344   2.848   6.008   0.058
 4595TIP3    H235345   2.954   5.906   0.091
 4596TIP3   OH235346   2.978   2.831   1.383
 4596TIP3    H135347   2.982   2.762   1.450
 4596TIP3    H235348   2.894   2.817   1.340
 4597TIP3   OH235349   6.714   1.519   0.744
 4597TIP3    H135350   6.712   1.614   0.756
 4597TIP3    H235351   6.672   1.484   0.824
 4598TIP3   OH235352   0.538   0.757   0.485
 4598TIP3    H135353   0.543   0.727   0.576
 4598TIP3    H235354   0.466   0.820   0.484
 4599TIP3   OH235355   0.953   1.800   8.614
 4599TIP3    H135356   1.014   1.740   8.656
 4599TIP3    H235357   0.980   1.801   8.522
 4600TIP3   OH235358   2.280   2.993   7.123
 4600TIP3    H135359   2.258   3.027   7.036
 4600TIP3    H235360   2.318   3.068   7.168
 4601TIP3   OH235361   6.770   1.557   1.316
 4601TIP3    H135362   6.775   1.626   1.382
 4601TIP3    H235363   0.003   1.600   1.235
 4602TIP3   OH235364   1.343   4.791   2.876
 4602TIP3    H135365   1.263   4.763   2.921
 4602TIP3    H235366   1.311   4.845   2.803
 4603TIP3   OH235367   4.572   2.082   6.189
 4603TIP3    H135368   4.608   2.102   6.275
 4603TIP3    H235369   4.580   2.164   6.140
 4604TIP3   OH235370   5.717   2.345   1.706
 4604TIP3    H135371   5.741   2.419   1.650
 4604TIP3    H235372   5.635   2.313   1.669
 4605TIP3   OH235373   0.114   4.274   8.237
 4605TIP3    H135374   0.065   4.196   8.208
 4605TIP3    H235375   0.066   4.304   8.314
 4606TIP3   OH235376   6.536   1.384   8.709
 4606TIP3    H135377   6.447   1.359   8.684
 4606TIP3    H235378   6.533   1.391   8.804
 4607TIP3   OH235379   1.023   3.236   5.806
 4607TIP3    H135380   1.063   3.264   5.889
 4607TIP3    H235381   1.043   3.307   5.745
 4608TIP3   OH235382   4.342   1.402   1.556
 4608TIP3    H135383   4.282   1.416   1.482
 4608TIP3    H235384   4.326   1.477   1.614
 4609TIP3   OH235385   4.491   4.425   8.551
 4609TIP3    H135386   4.501   4.365   8.477
 4609TIP3    H235387   4.580   4.458   8.567
 4610TIP3   OH235388   2.193   4.931   0.113
 4610TIP3    H135389   2.245   5.011   0.115
 4610TIP3    H235390   2.149   4.929   0.199
 4611TIP3   OH235391   2.321   6.182   0.729
 4611TIP3    H135392   2.373   6.222   0.799
 4611TIP3    H235393   2.363   6.098   0.714
 4612TIP3   OH235394   0.027   5.855   0.987
 4612TIP3    H135395   0.006   5.761   0.990
 4612TIP3    H235396   0.116   5.860   1.023
 4613TIP3   OH235397   0.029   0.921   6.305
 4613TIP3    H135398   6.742   0.932   6.260
 4613TIP3    H235399   0.006   0.906   6.396
 4614TIP3   OH235400   4.027   0.085   7.231
 4614TIP3    H135401   4.050   6.795   7.195
 4614TIP3    H235402   4.048   0.078   7.324
 4615TIP3   OH235403   5.568   4.407   7.791
 4615TIP3    H135404   5.549   4.454   7.872
 4615TIP3    H235405   5.531   4.320   7.804
 4616TIP3   OH235406   4.782   3.664   7.059
 4616TIP3    H135407   4.686   3.672   7.058
 4616TIP3    H235408   4.813   3.751   7.035
 4617TIP3   OH235409   2.508   3.703   1.509
 4617TIP3    H135410   2.569   3.648   1.558
 4617TIP3    H235411   2.534   3.792   1.530
 4618TIP3   OH235412   6.476   0.985   1.937
 4618TIP3    H135413   6.490   1.062   1.992
 4618TIP3    H235414   6.462   0.913   1.999
 4619TIP3   OH235415   0.873   2.996   7.298
 4619TIP3    H135416   0.945   2.933   7.296
 4619TIP3    H235417   0.825   2.975   7.377
 4620TIP3   OH235418   4.215   5.769   1.646
 4620TIP3    H135419   4.131   5.728   1.667
 4620TIP3    H235420   4.277   5.725   1.704
 4621TIP3   OH235421   6.420   1.691   0.724
 4621TIP3    H135422   6.331   1.725   0.712
 4621TIP3    H235423   6.462   1.704   0.639
 4622TIP3   OH235424   1.870   2.718   8.582
 4622TIP3    H135425   1.791   2.664   8.589
 4622TIP3    H235426   1.870   2.749   8.492
 4623TIP3   OH235427   6.487   2.724   0.772
 4623TIP3    H135428   6.486   2.755   0.863
 4623TIP3    H235429   6.499   2.629   0.779
 4624TIP3   OH235430   6.418   0.696   8.859
 4624TIP3    H135431   6.467   0.616   0.003
 4624TIP3    H235432   6.423   0.705   8.763
 4625TIP3   OH235433   6.461   0.353   6.891
 4625TIP3    H135434   6.540   0.363   6.838
 4625TIP3    H235435   6.391   0.392   6.838
 4626TIP3   OH235436   1.198   0.896   0.486
 4626TIP3    H135437   1.180   0.978   0.532
 4626TIP3    H235438   1.150   0.905   0.403
 4627TIP3   OH235439   2.511   5.479   8.010
 4627TIP3    H135440   2.471   5.399   7.977
 4627TIP3    H235441   2.451   5.510   8.077
 4628TIP3   OH235442   3.612   5.850   0.969
 4628TIP3    H135443   3.566   5.768   0.987
 4628TIP3    H235444   3.705   5.829   0.980
 4629TIP3   OH235445   1.775   1.571   7.088
 4629TIP3    H135446   1.759   1.535   7.001
 4629TIP3    H235447   1.690   1.563   7.132
 4630TIP3   OH235448   3.811   4.361   1.405
 4630TIP3    H135449   3.859   4.376   1.324
 4630TIP3    H235450   3.770   4.446   1.424
 4631TIP3   OH235451   1.704   5.105   8.263
 4631TIP3    H135452   1.640   5.042   8.231
 4631TIP3    H235453   1.679   5.188   8.223
 4632TIP3   OH235454   4.431   0.324   1.730
 4632TIP3    H135455   4.416   0.233   1.758
 4632TIP3    H235456   4.386   0.377   1.797
 4633TIP3   OH235457   6.706   3.568   1.985
 4633TIP3    H135458   6.616   3.580   2.014
 4633TIP3    H235459   6.750   3.528   2.061
 4634TIP3   OH235460   6.201   5.966   0.127
 4634TIP3    H135461   6.203   5.908   0.051
 4634TIP3    H235462   6.272   6.029   0.110
 4635TIP3   OH235463   2.033   2.849   0.890
 4635TIP3    H135464   2.102   2.809   0.943
 4635TIP3    H235465   1.957   2.793   0.904
 4636TIP3   OH235466   2.236   0.800   7.620
 4636TIP3    H135467   2.253   0.737   7.690
 4636TIP3    H235468   2.171   0.860   7.656
 4637TIP3   OH235469   4.512   2.457   8.444
 4637TIP3    H135470   4.470   2.543   8.453
 4637TIP3    H235471   4.573   2.453   8.518
 4638TIP3   OH235472   2.442   3.381   0.052
 4638TIP3    H135473   2.522   3.380   0.104
 4638TIP3    H235474   2.472   3.382   8.836
 4639TIP3   OH235475   2.581   6.751   7.118
 4639TIP3    H135476   2.492   6.738   7.085
 4639TIP3    H235477   2.606   6.665   7.152
 4640TIP3   OH235478   5.202   3.424   8.786
 4640TIP3    H135479   5.172   3.475   8.712
 4640TIP3    H235480   5.228   3.489   8.851
 4641TIP3   OH235481   0.307   2.898   0.288
 4641TIP3    H135482   0.294   2.874   0.196
 4641TIP3    H235483   0.400   2.919   0.294
 4642TIP3   OH235484   0.856   6.302   8.871
 4642TIP3    H135485   0.832   6.227   8.816
 4642TIP3    H235486   0.890   6.367   8.810
 4643TIP3   OH235487   2.784   2.158   1.988
 4643TIP3    H135488   2.742   2.088   1.938
 4643TIP3    H235489   2.711   2.207   2.026
 4644TIP3   OH235490   1.517   3.439   0.021
 4644TIP3    H135491   1.489   3.426   8.804
 4644TIP3    H235492   1.437   3.429   0.072
 4645TIP3   OH235493   3.767   1.868   6.718
 4645TIP3    H135494   3.751   1.804   6.787
 4645TIP3    H235495   3.851   1.843   6.680
 4646TIP3   OH235496   5.242   6.082   0.799
 4646TIP3    H135497   5.179   6.038   0.742
 4646TIP3    H235498   5.216   6.174   0.796
 4647TIP3   OH235499   6.415   5.952   2.677
 4647TIP3    H135500   6.332   5.986   2.642
 4647TIP3    H235501   6.391   5.869   2.718
 4648TIP3   OH235502   0.198   1.159   8.652
 4648TIP3    H135503   0.291   1.145   8.666
 4648TIP3    H235504   0.163   1.181   8.739
 4649TIP3   OH235505   2.569   1.287   7.234
 4649TIP3    H135506   2.548   1.267   7.325
 4649TIP3    H235507   2.604   1.376   7.236
 4650TIP3   OH235508   2.135   1.794   7.367
 4650TIP3    H135509   2.154   1.887   7.352
 4650TIP3    H235510   2.221   1.754   7.379
 4651TIP3   OH235511   0.932   1.692   0.272
 4651TIP3    H135512   0.975   1.717   0.354
 4651TIP3    H235513   0.889   1.609   0.292
 4652TIP3   OH235514   1.368   1.543   8.477
 4652TIP3    H135515   1.392   1.611   8.414
 4652TIP3    H235516   1.293   1.499   8.437
 4653TIP3   OH235517   5.217   2.804   0.388
 4653TIP3    H135518   5.238   2.741   0.457
 4653TIP3    H235519   5.177   2.752   0.319
 4654TIP3   OH235520   6.240   3.183   7.456
 4654TIP3    H135521   6.306   3.140   7.402
 4654TIP3    H235522   6.243   3.136   7.540
 4655TIP3   OH235523   3.715   0.388   2.414
 4655TIP3    H135524   3.727   0.326   2.341
 4655TIP3    H235525   3.773   0.355   2.483
 4656TIP3   OH235526   5.620   3.357   6.374
 4656TIP3    H135527   5.709   3.390   6.360
 4656TIP3    H235528   5.617   3.276   6.322
 4657TIP3   OH235529   6.552   5.041   1.487
 4657TIP3    H135530   6.553   5.114   1.549
 4657TIP3    H235531   6.469   5.050   1.441
 4658TIP3   OH235532   3.577   4.042   1.889
 4658TIP3    H135533   3.645   3.979   1.864
 4658TIP3    H235534   3.527   3.998   1.957
 4659TIP3   OH235535   1.158   6.762   7.986
 4659TIP3    H135536   1.064   6.781   7.978
 4659TIP3    H235537   1.194   0.042   8.031
 4660TIP3   OH235538   2.865   5.788   0.706
 4660TIP3    H135539   2.894   5.854   0.643
 4660TIP3    H235540   2.883   5.826   0.791
 4661TIP3   OH235541   6.144   0.983   2.112
 4661TIP3    H135542   6.075   1.021   2.168
 4661TIP3    H235543   6.215   0.962   2.173
 4662TIP3   OH235544   5.782   0.759   0.588
 4662TIP3    H135545   5.751   0.681   0.633
 4662TIP3    H235546   5.874   0.741   0.569
 4663TIP3   OH235547   6.185   5.446   2.586
 4663TIP3    H135548   6.099   5.429   2.624
 4663TIP3    H235549   6.229   5.503   2.649
 4664TIP3   OH235550   3.010   6.332   0.691
 4664TIP3    H135551   3.062   6.283   0.628
 4664TIP3    H235552   3.072   6.358   0.759
 4665TIP3   OH235553   1.969   1.120   1.843
 4665TIP3    H135554   1.990   1.097   1.933
 4665TIP3    H235555   2.053   1.114   1.797
 4666TIP3   OH235556   4.706   5.452   7.083
 4666TIP3    H135557   4.797   5.471   7.058
 4666TIP3    H235558   4.655   5.475   7.006
 4667TIP3   OH235559   3.626   0.208   1.102
 4667TIP3    H135560   3.709   0.208   1.150
 4667TIP3    H235561   3.631   0.133   1.043
 4668TIP3   OH235562   5.814   1.457   2.064
 4668TIP3    H135563   5.729   1.453   2.107
 4668TIP3    H235564   5.800   1.512   1.987
 4669TIP3   OH235565   6.583   3.443   8.482
 4669TIP3    H135566   6.543   3.360   8.509
 4669TIP3    H235567   6.510   3.495   8.450
 4670TIP3   OH235568   3.853   6.704   7.570
 4670TIP3    H135569   3.888   6.651   7.642
 4670TIP3    H235570   3.888   6.663   7.491
 4671TIP3   OH235571   2.611   6.628   0.052
 4671TIP3    H135572   2.637   6.614   0.143
 4671TIP3    H235573   2.601   6.540   0.016
 4672TIP3   OH235574   3.423   0.314   0.865
 4672TIP3    H135575   3.494   0.287   0.923
 4672TIP3    H235576   3.351   0.255   0.886
 4673TIP3   OH235577   0.077   3.810   2.533
 4673TIP3    H135578   0.022   3.876   2.576
 4673TIP3    H235579   0.145   3.861   2.489
 4674TIP3   OH235580   5.700   1.672   7.362
 4674TIP3    H135581   5.668   1.762   7.367
 4674TIP3    H235582   5.672   1.632   7.444
 4675TIP3   OH235583   6.165   3.170   0.643
 4675TIP3    H135584   6.190   3.083   0.672
 4675TIP3    H235585   6.244   3.206   0.603
 4676TIP3   OH235586   4.920   4.606   0.475
 4676TIP3    H135587   4.922   4.644   0.563
 4676TIP3    H235588   4.865   4.528   0.483
 4677TIP3   OH235589   3.634   3.776   8.026
 4677TIP3    H135590   3.705   3.760   7.963
 4677TIP3    H235591   3.670   3.747   8.110
 4678TIP3   OH235592   0.364   4.532   1.025
 4678TIP3    H135593   0.377   4.439   1.045
 4678TIP3    H235594   0.324   4.568   1.103
 4679TIP3   OH235595   4.664   1.500   0.284
 4679TIP3    H135596   4.737   1.497   0.345
 4679TIP3    H235597   4.688   1.567   0.220
 4680TIP3   OH235598   4.930   3.922   7.008
 4680TIP3    H135599   4.961   3.845   6.960
 4680TIP3    H235600   5.005   3.981   7.008
 4681TIP3   OH235601   4.380   4.324   8.075
 4681TIP3    H135602   4.403   4.403   8.026
 4681TIP3    H235603   4.287   4.335   8.096
 4682TIP3   OH235604   1.271   0.583   0.523
 4682TIP3    H135605   1.178   0.568   0.538
 4682TIP3    H235606   1.300   0.630   0.601
 4683TIP3   OH235607   0.346   0.817   8.053
 4683TIP3    H135608   0.373   0.733   8.089
 4683TIP3    H235609   0.262   0.835   8.095
 4684TIP3   OH235610   3.376   2.041   8.039
 4684TIP3    H135611   3.350   2.036   7.947
 4684TIP3    H235612   3.303   2.001   8.087
 4685TIP3   OH235613   2.796   3.044   2.002
 4685TIP3    H135614   2.850   3.012   2.073
 4685TIP3    H235615   2.709   3.054   2.041
 4686TIP3   OH235616   4.214   4.891   2.351
 4686TIP3    H135617   4.257   4.817   2.308
 4686TIP3    H235618   4.285   4.935   2.398
 4687TIP3   OH235619   0.196   3.349   8.089
 4687TIP3    H135620   0.105   3.340   8.116
 4687TIP3    H235621   0.236   3.265   8.112
 4688TIP3   OH235622   0.672   1.973   0.825
 4688TIP3    H135623   0.748   1.917   0.838
 4688TIP3    H235624   0.604   1.915   0.793
 4689TIP3   OH235625   3.733   2.392   1.980
 4689TIP3    H135626   3.694   2.401   2.067
 4689TIP3    H235627   3.782   2.474   1.968
 4690TIP3   OH235628   2.019   3.730   6.608
 4690TIP3    H135629   1.927   3.735   6.583
 4690TIP3    H235630   2.038   3.636   6.612
 4691TIP3   OH235631   6.631   4.906   0.754
 4691TIP3    H135632   6.695   4.840   0.783
 4691TIP3    H235633   6.608   4.954   0.834
 4692TIP3   OH235634   1.234   5.585   7.719
 4692TIP3    H135635   1.138   5.580   7.719
 4692TIP3    H235636   1.253   5.668   7.675
 4693TIP3   OH235637   4.625   0.576   7.998
 4693TIP3    H135638   4.607   0.497   8.049
 4693TIP3    H235639   4.567   0.642   8.034
 4694TIP3   OH235640   3.487   3.314   7.248
 4694TIP3    H135641   3.572   3.330   7.206
 4694TIP3    H235642   3.434   3.390   7.224
 4695TIP3   OH235643   1.336   2.936   2.269
 4695TIP3    H135644   1.338   2.870   2.339
 4695TIP3    H235645   1.250   2.925   2.229
 4696TIP3   OH235646   4.489   0.145   0.242
 4696TIP3    H135647   4.454   0.225   0.203
 4696TIP3    H235648   4.437   0.132   0.321
 4697TIP3   OH235649   0.218   6.298   8.514
 4697TIP3    H135650   0.302   6.252   8.516
 4697TIP3    H235651   0.234   6.374   8.459
 4698TIP3   OH235652   0.315   2.516   1.254
 4698TIP3    H135653   0.227   2.504   1.217
 4698TIP3    H235654   0.346   2.597   1.215
 4699TIP3   OH235655   0.129   4.195   1.313
 4699TIP3    H135656   0.150   4.238   1.396
 4699TIP3    H235657   0.061   4.251   1.274
 4700TIP3   OH235658   3.375   0.181   8.035
 4700TIP3    H135659   3.453   0.235   8.050
 4700TIP3    H235660   3.398   0.125   7.961
 4701TIP3   OH235661   6.031   4.797   0.005
 4701TIP3    H135662   5.967   4.779   8.810
 4701TIP3    H235663   6.087   4.865   8.842
 4702TIP3   OH235664   4.668   2.584   1.452
 4702TIP3    H135665   4.698   2.674   1.438
 4702TIP3    H235666   4.744   2.540   1.492
 4703TIP3   OH235667   0.940   0.410   1.496
 4703TIP3    H135668   0.931   0.323   1.457
 4703TIP3    H235669   0.864   0.418   1.554
 4704TIP3   OH235670   2.955   5.539   2.243
 4704TIP3    H135671   3.005   5.508   2.318
 4704TIP3    H235672   2.872   5.569   2.280
 4705TIP3   OH235673   2.564   4.298   2.118
 4705TIP3    H135674   2.491   4.357   2.103
 4705TIP3    H235675   2.543   4.253   2.200
 4706TIP3   OH235676   0.386   6.746   8.653
 4706TIP3    H135677   0.457   0.007   8.624
 4706TIP3    H235678   0.355   6.785   8.734
 4707TIP3   OH235679   1.523   1.525   7.299
 4707TIP3    H135680   1.474   1.603   7.271
 4707TIP3    H235681   1.512   1.463   7.227
 4708TIP3   OH235682   0.569   0.265   8.304
 4708TIP3    H135683   0.498   0.329   8.303
 4708TIP3    H235684   0.568   0.230   8.394
 4709TIP3   OH235685   4.125   4.767   8.011
 4709TIP3    H135686   4.074   4.693   8.045
 4709TIP3    H235687   4.070   4.843   8.028
 4710TIP3   OH235688   0.627   4.586   6.769
 4710TIP3    H135689   0.671   4.671   6.776
 4710TIP3    H235690   0.547   4.597   6.822
 4711TIP3   OH235691   4.456   0.643   7.709
 4711TIP3    H135692   4.413   0.638   7.623
 4711TIP3    H235693   4.388   0.675   7.768
 4712TIP3   OH235694   4.104   2.166   2.623
 4712TIP3    H135695   4.118   2.261   2.614
 4712TIP3    H235696   4.010   2.157   2.637
 4713TIP3   OH235697   4.337   4.938   7.394
 4713TIP3    H135698   4.255   4.981   7.370
 4713TIP3    H235699   4.310   4.851   7.424
 4714TIP3   OH235700   5.874   5.616   8.405
 4714TIP3    H135701   5.796   5.625   8.349
 4714TIP3    H235702   5.947   5.643   8.349
 4715TIP3   OH235703   1.535   3.417   6.914
 4715TIP3    H135704   1.518   3.414   7.008
 4715TIP3    H235705   1.484   3.344   6.879
 4716TIP3   OH235706   0.245   5.921   7.578
 4716TIP3    H135707   0.189   5.916   7.655
 4716TIP3    H235708   0.209   5.994   7.527
 4717TIP3   OH235709   6.491   5.504   8.385
 4717TIP3    H135710   6.535   5.454   8.454
 4717TIP3    H235711   6.542   5.584   8.376
 4718TIP3   OH235712   4.897   1.445   1.317
 4718TIP3    H135713   4.810   1.417   1.346
 4718TIP3    H235714   4.957   1.415   1.386
 4719TIP3   OH235715   1.349   5.957   1.572
 4719TIP3    H135716   1.275   6.006   1.608
 4719TIP3    H235717   1.341   5.968   1.477
 4720TIP3   OH235718   5.864   1.726   8.164
 4720TIP3    H135719   5.785   1.675   8.181
 4720TIP3    H235720   5.910   1.676   8.096
 4721TIP3   OH235721   6.668   6.271   1.571
 4721TIP3    H135722   6.753   6.298   1.608
 4721TIP3    H235723   6.612   6.258   1.648
 4722TIP3   OH235724   0.869   3.569   1.515
 4722TIP3    H135725   0.831   3.494   1.470
 4722TIP3    H235726   0.918   3.616   1.448
 4723TIP3   OH235727   5.982   0.207   1.552
 4723TIP3    H135728   5.936   0.207   1.468
 4723TIP3    H235729   6.075   0.202   1.529
 4724TIP3   OH235730   6.138   2.098   1.111
 4724TIP3    H135731   6.155   2.192   1.121
 4724TIP3    H235732   6.204   2.068   1.049
 4725TIP3   OH235733   3.441   1.989   0.090
 4725TIP3    H135734   3.431   2.062   0.151
 4725TIP3    H235735   3.534   1.965   0.097
 4726TIP3   OH235736   5.616   1.541   7.581
 4726TIP3    H135737   5.526   1.562   7.605
 4726TIP3    H235738   5.653   1.501   7.660
 4727TIP3   OH235739   4.065   5.962   0.465
 4727TIP3    H135740   4.003   6.032   0.446
 4727TIP3    H235741   4.012   5.882   0.461
 4728TIP3   OH235742   2.643   5.512   8.651
 4728TIP3    H135743   2.738   5.508   8.648
 4728TIP3    H235744   2.617   5.533   8.561
 4729TIP3   OH235745   5.446   2.849   8.490
 4729TIP3    H135746   5.384   2.788   8.451
 4729TIP3    H235747   5.528   2.833   8.443
 4730TIP3   OH235748   0.287   2.366   7.533
 4730TIP3    H135749   0.287   2.450   7.486
 4730TIP3    H235750   0.257   2.388   7.621
 4731TIP3   OH235751   1.938   1.079   7.955
 4731TIP3    H135752   1.935   1.098   7.862
 4731TIP3    H235753   1.899   0.992   7.964
 4732TIP3   OH235754   5.688   6.456   0.974
 4732TIP3    H135755   5.695   6.476   0.881
 4732TIP3    H235756   5.660   6.364   0.977
 4733TIP3   OH235757   2.127   3.635   1.989
 4733TIP3    H135758   2.088   3.618   1.903
 4733TIP3    H235759   2.193   3.703   1.972
 4734TIP3   OH235760   0.875   5.495   0.426
 4734TIP3    H135761   0.811   5.470   0.360
 4734TIP3    H235762   0.943   5.427   0.421
 4735TIP3   OH235763   4.274   0.297   1.029
 4735TIP3    H135764   4.328   0.374   1.010
 4735TIP3    H235765   4.303   0.268   1.115
 4736TIP3   OH235766   4.347   6.578   0.120
 4736TIP3    H135767   4.352   6.657   0.174
 4736TIP3    H235768   4.410   6.593   0.050
 4737TIP3   OH235769   3.547   6.294   1.092
 4737TIP3    H135770   3.466   6.319   1.048
 4737TIP3    H235771   3.529   6.302   1.185
 4738TIP3   OH235772   4.738   4.629   0.949
 4738TIP3    H135773   4.676   4.564   0.916
 4738TIP3    H235774   4.819   4.611   0.902
 4739TIP3   OH235775   5.524   1.124   1.889
 4739TIP3    H135776   5.473   1.108   1.809
 4739TIP3    H235777   5.595   1.060   1.886
 4740TIP3   OH235778   2.209   0.224   0.395
 4740TIP3    H135779   2.299   0.251   0.376
 4740TIP3    H235780   2.215   0.178   0.479
 4741TIP3   OH235781   6.183   2.862   8.230
 4741TIP3    H135782   6.180   2.854   8.325
 4741TIP3    H235783   6.256   2.806   8.203
 4742TIP3   OH235784   6.612   3.818   1.044
 4742TIP3    H135785   6.561   3.794   0.967
 4742TIP3    H235786   6.613   3.914   1.044
 4743TIP3   OH235787   3.000   1.729   7.438
 4743TIP3    H135788   3.060   1.804   7.435
 4743TIP3    H235789   2.979   1.720   7.531
 4744TIP3   OH235790   4.399   1.747   7.959
 4744TIP3    H135791   4.365   1.794   8.035
 4744TIP3    H235792   4.352   1.785   7.885
 4745TIP3   OH235793   5.546   1.932   7.384
 4745TIP3    H135794   5.468   1.983   7.363
 4745TIP3    H235795   5.590   1.983   7.452
 4746TIP3   OH235796   6.723   0.818   1.218
 4746TIP3    H135797   6.676   0.895   1.185
 4746TIP3    H235798   0.016   0.850   1.235
 4747TIP3   OH235799   4.398   0.088   7.123
 4747TIP3    H135800   4.400   0.155   7.055
 4747TIP3    H235801   4.465   0.025   7.096
 4748TIP3   OH235802   5.716   0.317   7.926
 4748TIP3    H135803   5.775   0.270   7.985
 4748TIP3    H235804   5.693   0.397   7.975
 4749TIP3   OH235805   2.860   6.070   0.667
 4749TIP3    H135806   2.851   6.034   0.755
 4749TIP3    H235807   2.769   6.084   0.638
 4750TIP3   OH235808   6.393   5.654   8.628
 4750TIP3    H135809   6.406   5.595   8.553
 4750TIP3    H235810   6.475   5.702   8.634
 4751TIP3   OH235811   6.653   0.697   7.680
 4751TIP3    H135812   6.569   0.743   7.678
 4751TIP3    H235813   6.644   0.634   7.752
 4752TIP3   OH235814   3.672   6.063   8.562
 4752TIP3    H135815   3.662   6.088   8.470
 4752TIP3    H235816   3.582   6.055   8.594
 4753TIP3   OH235817   5.730   0.059   1.535
 4753TIP3    H135818   5.786   0.115   1.481
 4753TIP3    H235819   5.645   0.102   1.535
 4754TIP3   OH235820   2.451   6.691   0.676
 4754TIP3    H135821   2.540   6.709   0.709
 4754TIP3    H235822   2.456   6.708   0.582
 4755TIP3   OH235823   5.661   4.818   6.514
 4755TIP3    H135824   5.640   4.911   6.519
 4755TIP3    H235825   5.756   4.815   6.507
 4756TIP3   OH235826   5.069   5.686   0.607
 4756TIP3    H135827   5.136   5.642   0.659
 4756TIP3    H235828   5.083   5.653   0.518
 4757TIP3   OH235829   2.610   4.749   1.866
 4757TIP3    H135830   2.677   4.706   1.919
 4757TIP3    H235831   2.570   4.812   1.926
 4758TIP3   OH235832   4.478   5.017   6.332
 4758TIP3    H135833   4.435   4.995   6.249
 4758TIP3    H235834   4.494   5.111   6.325
 4759TIP3   OH235835   1.564   6.116   0.895
 4759TIP3    H135836   1.566   6.134   0.801
 4759TIP3    H235837   1.567   6.202   0.936
 4760TIP3   OH235838   4.988   5.532   6.977
 4760TIP3    H135839   4.981   5.558   6.885
 4760TIP3    H235840   5.052   5.460   6.977
 4761TIP3   OH235841   1.910   5.275   1.460
 4761TIP3    H135842   1.934   5.277   1.553
 4761TIP3    H235843   1.902   5.367   1.435
 4762TIP3   OH235844   1.666   5.145   1.408
 4762TIP3    H135845   1.739   5.200   1.434
 4762TIP3    H235846   1.654   5.163   1.314
 4763TIP3   OH235847   4.222   6.598   8.680
 4763TIP3    H135848   4.139   6.556   8.699
 4763TIP3    H235849   4.288   6.533   8.703
 4764TIP3   OH235850   0.519   5.703   8.564
 4764TIP3    H135851   0.582   5.631   8.565
 4764TIP3    H235852   0.567   5.778   8.531
 4765TIP3   OH235853   0.031   1.865   7.246
 4765TIP3    H135854   0.020   1.944   7.194
 4765TIP3    H235855   6.740   1.846   7.280
 4766TIP3   OH235856   5.961   1.070   1.646
 4766TIP3    H135857   5.982   0.989   1.694
 4766TIP3    H235858   5.967   1.044   1.554
 4767TIP3   OH235859   5.216   5.738   7.191
 4767TIP3    H135860   5.243   5.669   7.252
 4767TIP3    H235861   5.243   5.705   7.105
 4768TIP3   OH235862   0.099   4.907   0.014
 4768TIP3    H135863   0.106   4.896   8.793
 4768TIP3    H235864   0.007   4.923   0.030
 4769TIP3   OH235865   2.536   0.744   7.312
 4769TIP3    H135866   2.601   0.800   7.270
 4769TIP3    H235867   2.563   0.742   7.404
 4770TIP3   OH235868   1.048   4.070   0.512
 4770TIP3    H135869   0.968   4.027   0.480
 4770TIP3    H235870   1.062   4.143   0.452
 4771TIP3   OH235871   5.783   4.949   0.494
 4771TIP3    H135872   5.739   4.917   0.572
 4771TIP3    H235873   5.820   5.033   0.520
 4772TIP3   OH235874   4.810   4.804   1.234
 4772TIP3    H135875   4.897   4.829   1.205
 4772TIP3    H235876   4.773   4.754   1.161
 4773TIP3   OH235877   0.813   3.515   0.826
 4773TIP3    H135878   0.891   3.519   0.880
 4773TIP3    H235879   0.784   3.424   0.832
 4774TIP3   OH235880   3.085   1.536   7.088
 4774TIP3    H135881   3.017   1.575   7.143
 4774TIP3    H235882   3.072   1.574   7.001
 4775TIP3   OH235883   4.713   2.868   0.810
 4775TIP3    H135884   4.671   2.836   0.730
 4775TIP3    H235885   4.806   2.862   0.792
 4776TIP3   OH235886   3.632   0.258   7.181
 4776TIP3    H135887   3.707   0.270   7.240
 4776TIP3    H235888   3.672   0.232   7.098
 4777TIP3   OH235889   4.890   3.809   1.946
 4777TIP3    H135890   4.864   3.895   1.981
 4777TIP3    H235891   4.943   3.770   2.015
 4778TIP3   OH235892   4.278   1.425   7.855
 4778TIP3    H135893   4.251   1.418   7.763
 4778TIP3    H235894   4.214   1.484   7.895
 4779TIP3   OH235895   1.284   4.384   0.759
 4779TIP3    H135896   1.370   4.353   0.788
 4779TIP3    H235897   1.226   4.310   0.774
 4780TIP3   OH235898   5.272   4.205   8.827
 4780TIP3    H135899   5.315   4.131   8.871
 4780TIP3    H235900   5.258   4.269   0.022
 4781TIP3   OH235901   5.655   0.322   0.208
 4781TIP3    H135902   5.648   0.304   0.301
 4781TIP3    H235903   5.700   0.245   0.172
 4782TIP3   OH235904   0.912   3.065   1.348
 4782TIP3    H135905   1.002   3.035   1.336
 4782TIP3    H235906   0.861   2.984   1.356
 4783TIP3   OH235907   5.014   5.899   0.747
 4783TIP3    H135908   4.959   5.951   0.688
 4783TIP3    H235909   5.041   5.824   0.694
 4784TIP3   OH235910   4.047   4.537   8.318
 4784TIP3    H135911   4.009   4.625   8.324
 4784TIP3    H235912   4.099   4.538   8.237
 4785TIP3   OH235913   6.496   4.276   8.169
 4785TIP3    H135914   6.443   4.295   8.091
 4785TIP3    H235915   6.538   4.358   8.190
 4786TIP3   OH235916   6.229   1.611   0.516
 4786TIP3    H135917   6.246   1.679   0.451
 4786TIP3    H235918   6.169   1.652   0.578
 4787TIP3   OH235919   4.507   5.994   1.016
 4787TIP3    H135920   4.489   6.050   1.092
 4787TIP3    H235921   4.595   5.959   1.033
 4788TIP3   OH235922   2.946   0.153   7.633
 4788TIP3    H135923   2.963   0.237   7.677
 4788TIP3    H235924   3.033   0.120   7.610
 4789TIP3   OH235925   1.955   2.119   6.519
 4789TIP3    H135926   2.031   2.072   6.554
 4789TIP3    H235927   1.991   2.201   6.485
 4790TIP3   OH235928   0.583   0.830   7.232
 4790TIP3    H135929   0.607   0.739   7.246
 4790TIP3    H235930   0.663   0.873   7.203
 4791TIP3   OH235931   2.376   4.383   1.026
 4791TIP3    H135932   2.331   4.418   1.103
 4791TIP3    H235933   2.424   4.458   0.991
 4792TIP3   OH235934   5.446   4.657   6.535
 4792TIP3    H135935   5.518   4.720   6.537
 4792TIP3    H235936   5.482   4.582   6.487
 4793TIP3   OH235937   6.163   2.718   1.730
 4793TIP3    H135938   6.218   2.696   1.655
 4793TIP3    H235939   6.220   2.768   1.788
 4794TIP3   OH235940   3.770   1.422   8.216
 4794TIP3    H135941   3.775   1.333   8.251
 4794TIP3    H235942   3.689   1.457   8.254
 4795TIP3   OH235943   2.584   0.104   0.259
 4795TIP3    H135944   2.543   0.031   0.305
 4795TIP3    H235945   2.523   0.124   0.188
 4796TIP3   OH235946   6.415   3.042   0.825
 4796TIP3    H135947   6.470   2.989   0.767
 4796TIP3    H235948   6.476   3.100   0.871
 4797TIP3   OH235949   2.900   2.979   6.587
 4797TIP3    H135950   2.978   2.964   6.641
 4797TIP3    H235951   2.854   2.895   6.589
 4798TIP3   OH235952   0.877   2.543   0.968
 4798TIP3    H135953   0.924   2.624   0.948
 4798TIP3    H235954   0.788   2.558   0.936
 4799TIP3   OH235955   3.717   4.996   1.070
 4799TIP3    H135956   3.623   5.009   1.082
 4799TIP3    H235957   3.728   4.987   0.975
 4800TIP3   OH235958   3.004   1.180   1.229
 4800TIP3    H135959   2.961   1.183   1.143
 4800TIP3    H235960   3.088   1.137   1.211
 4801TIP3   OH235961   1.116   5.783   2.174
 4801TIP3    H135962   1.203   5.769   2.138
 4801TIP3    H235963   1.115   5.731   2.254
 4802TIP3   OH235964   2.413   2.890   8.834
 4802TIP3    H135965   2.318   2.895   8.836
 4802TIP3    H235966   2.438   2.944   8.758
 4803TIP3   OH235967   0.895   3.590   7.338
 4803TIP3    H135968   0.894   3.621   7.247
 4803TIP3    H235969   0.987   3.597   7.364
 4804TIP3   OH235970   2.182   0.085   6.473
 4804TIP3    H135971   2.219   0.140   6.404
 4804TIP3    H235972   2.204   6.792   6.447
 4805TIP3   OH235973   1.794   3.273   6.511
 4805TIP3    H135974   1.793   3.301   6.602
 4805TIP3    H235975   1.745   3.191   6.511
 4806TIP3   OH235976   0.446   1.319   8.563
 4806TIP3    H135977   0.513   1.353   8.622
 4806TIP3    H235978   0.378   1.386   8.562
 4807TIP3   OH235979   3.839   6.460   8.350
 4807TIP3    H135980   3.778   6.524   8.386
 4807TIP3    H235981   3.812   6.450   8.259
 4808TIP3   OH235982   5.903   6.507   2.147
 4808TIP3    H135983   5.941   6.456   2.218
 4808TIP3    H235984   5.884   6.443   2.078
 4809TIP3   OH235985   2.711   5.843   0.274
 4809TIP3    H135986   2.738   5.929   0.306
 4809TIP3    H235987   2.651   5.862   0.202
 4810TIP3   OH235988   6.350   1.206   0.058
 4810TIP3    H135989   6.274   1.194   0.115
 4810TIP3    H235990   6.409   1.135   0.081
 4811TIP3   OH235991   5.192   2.368   0.084
 4811TIP3    H135992   5.155   2.421   0.155
 4811TIP3    H235993   5.119   2.316   0.052
 4812TIP3   OH235994   5.101   5.781   1.343
 4812TIP3    H135995   5.013   5.795   1.379
 4812TIP3    H235996   5.158   5.777   1.420
 4813TIP3   OH235997   2.134   2.406   6.668
 4813TIP3    H135998   2.071   2.394   6.738
 4813TIP3    H235999   2.190   2.328   6.673
 4814TIP3   OH236000   1.513   5.478   0.371
 4814TIP3    H136001   1.431   5.461   0.325
 4814TIP3    H236002   1.579   5.428   0.323
 4815TIP3   OH236003   3.712   2.809   7.224
 4815TIP3    H136004   3.804   2.787   7.211
 4815TIP3    H236005   3.711   2.905   7.224
 4816TIP3   OH236006   1.553   4.173   6.604
 4816TIP3    H136007   1.627   4.113   6.591
 4816TIP3    H236008   1.581   4.254   6.562
 4817TIP3   OH236009   4.037   3.781   8.731
 4817TIP3    H136010   4.065   3.820   8.814
 4817TIP3    H236011   4.001   3.854   8.681
 4818TIP3   OH236012   5.166   2.045   8.465
 4818TIP3    H136013   5.257   2.040   8.437
 4818TIP3    H236014   5.133   1.955   8.453
 4819TIP3   OH236015   3.528   4.311   0.859
 4819TIP3    H136016   3.515   4.402   0.883
 4819TIP3    H236017   3.601   4.312   0.797
 4820TIP3   OH236018   6.119   2.273   8.616
 4820TIP3    H136019   6.026   2.287   8.603
 4820TIP3    H236020   6.128   2.178   8.626
 4821TIP3   OH236021   2.153   5.862   0.131
 4821TIP3    H136022   2.062   5.849   0.107
 4821TIP3    H236023   2.161   5.824   0.219
 4822TIP3   OH236024   1.798   2.741   0.092
 4822TIP3    H136025   1.863   2.711   0.156
 4822TIP3    H236026   1.849   2.792   0.029
 4823TIP3   OH236027   2.424   3.015   0.510
 4823TIP3    H136028   2.458   2.957   0.442
 4823TIP3    H236029   2.453   2.976   0.592
 4824TIP3   OH236030   2.284   6.343   7.515
 4824TIP3    H136031   2.195   6.336   7.549
 4824TIP3    H236032   2.336   6.376   7.589
 4825TIP3   OH236033   6.152   4.025   0.527
 4825TIP3    H136034   6.071   4.026   0.476
 4825TIP3    H236035   6.124   4.041   0.617
 4826TIP3   OH236036   3.166   0.734   7.934
 4826TIP3    H136037   3.186   0.641   7.936
 4826TIP3    H236038   3.128   0.749   7.848
 4827TIP3   OH236039   1.915   4.278   2.780
 4827TIP3    H136040   1.824   4.283   2.748
 4827TIP3    H236041   1.944   4.369   2.786
 4828TIP3   OH236042   3.821   1.367   1.351
 4828TIP3    H136043   3.827   1.461   1.335
 4828TIP3    H236044   3.771   1.333   1.277
 4829TIP3   OH236045   4.201   2.389   1.037
 4829TIP3    H136046   4.164   2.443   1.106
 4829TIP3    H236047   4.131   2.381   0.972
 4830TIP3   OH236048   0.757   0.227   7.002
 4830TIP3    H136049   0.678   0.176   6.988
 4830TIP3    H236050   0.754   0.296   6.936
 4831TIP3   OH236051   2.427   1.032   1.364
 4831TIP3    H136052   2.464   1.090   1.431
 4831TIP3    H236053   2.447   1.076   1.281
 4832TIP3   OH236054   5.386   5.346   8.645
 4832TIP3    H136055   5.338   5.427   8.629
 4832TIP3    H236056   5.474   5.363   8.611
 4833TIP3   OH236057   3.486   1.026   8.460
 4833TIP3    H136058   3.425   0.962   8.496
 4833TIP3    H236059   3.562   0.974   8.432
 4834TIP3   OH236060   0.727   3.070   0.609
 4834TIP3    H136061   0.784   3.144   0.589
 4834TIP3    H236062   0.776   2.994   0.577
 4835TIP3   OH236063   6.525   3.249   6.793
 4835TIP3    H136064   6.516   3.223   6.701
 4835TIP3    H236065   6.452   3.205   6.837
 4836TIP3   OH236066   4.729   2.144   8.769
 4836TIP3    H136067   4.664   2.124   8.836
 4836TIP3    H236068   4.721   2.073   8.706
 4837TIP3   OH236069   6.388   6.713   0.884
 4837TIP3    H136070   6.310   6.674   0.843
 4837TIP3    H236071   6.392   6.673   0.971
 4838TIP3   OH236072   1.042   1.098   6.898
 4838TIP3    H136073   1.104   1.169   6.917
 4838TIP3    H236074   1.091   1.018   6.914
 4839TIP3   OH236075   0.544   6.744   0.285
 4839TIP3    H136076   0.596   6.678   0.331
 4839TIP3    H236077   0.455   6.709   0.285
 4840TIP3   OH236078   6.006   2.978   1.248
 4840TIP3    H136079   5.920   2.945   1.221
 4840TIP3    H236080   6.014   2.949   1.339
 4841TIP3   OH236081   5.212   0.085   8.137
 4841TIP3    H136082   5.260   0.050   8.062
 4841TIP3    H236083   5.144   0.020   8.154
 4842TIP3   OH236084   3.102   1.568   1.186
 4842TIP3    H136085   3.117   1.648   1.136
 4842TIP3    H236086   3.012   1.543   1.167
 4843TIP3   OH236087   3.962   0.597   2.014
 4843TIP3    H136088   3.982   0.685   2.046
 4843TIP3    H236089   4.020   0.540   2.065
 4844TIP3   OH236090   5.774   1.997   1.048
 4844TIP3    H136091   5.774   2.092   1.036
 4844TIP3    H236092   5.863   1.976   1.077
 4845TIP3   OH236093   1.002   4.135   8.333
 4845TIP3    H136094   1.053   4.138   8.414
 4845TIP3    H236095   0.917   4.101   8.360
 4846TIP3   OH236096   4.224   3.567   0.707
 4846TIP3    H136097   4.320   3.572   0.701
 4846TIP3    H236098   4.199   3.648   0.752
 4847TIP3   OH236099   3.391   2.246   0.633
 4847TIP3    H136100   3.384   2.152   0.651
 4847TIP3    H236101   3.471   2.273   0.678
 4848TIP3   OH236102   1.159   0.014   6.411
 4848TIP3    H136103   1.172   6.717   6.427
 4848TIP3    H236104   1.241   0.042   6.369
 4849TIP3   OH236105   1.857   5.381   8.395
 4849TIP3    H136106   1.901   5.300   8.421
 4849TIP3    H236107   1.928   5.444   8.383
 4850TIP3   OH236108   0.326   6.279   8.820
 4850TIP3    H136109   0.375   6.349   8.863
 4850TIP3    H236110   0.283   6.323   8.745
 4851TIP3   OH236111   4.269   3.712   2.142
 4851TIP3    H136112   4.286   3.790   2.193
 4851TIP3    H236113   4.273   3.640   2.205
 4852TIP3   OH236114   6.189   6.317   8.075
 4852TIP3    H136115   6.260   6.365   8.117
 4852TIP3    H236116   6.116   6.323   8.137
 4853TIP3   OH236117   5.806   2.768   1.216
 4853TIP3    H136118   5.895   2.742   1.240
 4853TIP3    H236119   5.794   2.732   1.128
 4854TIP3   OH236120   3.920   5.050   6.844
 4854TIP3    H136121   3.918   5.087   6.932
 4854TIP3    H236122   3.926   5.126   6.786
 4855TIP3   OH236123   4.946   1.848   6.781
 4855TIP3    H136124   4.907   1.760   6.786
 4855TIP3    H236125   4.984   1.862   6.868
 4856TIP3   OH236126   1.800   0.037   1.621
 4856TIP3    H136127   1.889   0.027   1.654
 4856TIP3    H236128   1.750   6.766   1.667
 4857TIP3   OH236129   4.889   5.803   6.656
 4857TIP3    H136130   4.886   5.710   6.680
 4857TIP3    H236131   4.812   5.815   6.600
 4858TIP3   OH236132   1.926   1.760   6.827
 4858TIP3    H136133   1.929   1.774   6.921
 4858TIP3    H236134   1.970   1.675   6.814
 4859TIP3   OH236135   5.024   0.790   7.852
 4859TIP3    H136136   5.095   0.746   7.898
 4859TIP3    H236137   5.039   0.770   7.760
 4860TIP3   OH236138   6.467   3.589   2.113
 4860TIP3    H136139   6.408   3.661   2.136
 4860TIP3    H236140   6.431   3.513   2.159
 4861TIP3   OH236141   1.226   6.533   1.091
 4861TIP3    H136142   1.290   6.488   1.036
 4861TIP3    H236143   1.197   6.607   1.037
 4862TIP3   OH236144   1.000   2.781   8.477
 4862TIP3    H136145   1.093   2.777   8.499
 4862TIP3    H236146   0.960   2.828   8.550
 4863TIP3   OH236147   6.380   0.759   7.699
 4863TIP3    H136148   6.312   0.692   7.689
 4863TIP3    H236149   6.413   0.773   7.610
 4864TIP3   OH236150   0.165   4.668   0.142
 4864TIP3    H136151   0.163   4.744   0.084
 4864TIP3    H236152   0.255   4.667   0.175
 4865TIP3   OH236153   4.213   0.485   8.168
 4865TIP3    H136154   4.256   0.533   8.238
 4865TIP3    H236155   4.124   0.471   8.199
 4866TIP3   OH236156   6.657   5.973   1.181
 4866TIP3    H136157   6.693   5.936   1.100
 4866TIP3    H236158   6.713   5.937   1.250
 4867TIP3   OH236159   6.704   2.843   7.095
 4867TIP3    H136160   6.730   2.918   7.148
 4867TIP3    H236161   6.720   2.767   7.151
 4868TIP3   OH236162   5.436   3.669   0.339
 4868TIP3    H136163   5.499   3.726   0.294
 4868TIP3    H236164   5.372   3.729   0.377
 4869TIP3   OH236165   1.719   4.704   0.494
 4869TIP3    H136166   1.660   4.773   0.466
 4869TIP3    H236167   1.796   4.714   0.438
 4870TIP3   OH236168   2.090   0.320   8.124
 4870TIP3    H136169   2.155   0.279   8.180
 4870TIP3    H236170   2.007   0.282   8.152
 4871TIP3   OH236171   1.783   5.628   6.913
 4871TIP3    H136172   1.770   5.722   6.913
 4871TIP3    H236173   1.696   5.591   6.902
 4872TIP3   OH236174   0.847   2.511   1.873
 4872TIP3    H136175   0.835   2.582   1.936
 4872TIP3    H236176   0.760   2.473   1.862
 4873TIP3   OH236177   6.415   0.833   2.727
 4873TIP3    H136178   6.342   0.806   2.783
 4873TIP3    H236179   6.376   0.896   2.667
 4874TIP3   OH236180   4.400   5.611   8.228
 4874TIP3    H136181   4.409   5.552   8.303
 4874TIP3    H236182   4.346   5.683   8.261
 4875TIP3   OH236183   3.401   5.009   1.338
 4875TIP3    H136184   3.331   5.058   1.381
 4875TIP3    H236185   3.481   5.039   1.381
 4876TIP3   OH236186   0.964   2.467   0.144
 4876TIP3    H136187   1.035   2.435   0.088
 4876TIP3    H236188   1.005   2.536   0.196
 4877TIP3   OH236189   5.991   1.307   0.051
 4877TIP3    H136190   6.014   1.238   0.114
 4877TIP3    H236191   5.905   1.281   0.018
 4878TIP3   OH236192   2.327   2.898   8.242
 4878TIP3    H136193   2.317   2.886   8.336
 4878TIP3    H236194   2.244   2.938   8.214
 4879TIP3   OH236195   3.767   5.596   7.696
 4879TIP3    H136196   3.733   5.507   7.706
 4879TIP3    H236197   3.785   5.625   7.786
 4880TIP3   OH236198   6.169   3.878   8.267
 4880TIP3    H136199   6.104   3.846   8.330
 4880TIP3    H236200   6.132   3.857   8.182
 4881TIP3   OH236201   0.007   4.139   0.249
 4881TIP3    H136202   0.019   4.232   0.226
 4881TIP3    H236203   6.748   4.141   0.327
 4882TIP3   OH236204   1.819   6.621   7.082
 4882TIP3    H136205   1.731   6.603   7.115
 4882TIP3    H236206   1.830   6.715   7.095
 4883TIP3   OH236207   3.500   2.866   8.293
 4883TIP3    H136208   3.499   2.788   8.238
 4883TIP3    H236209   3.564   2.924   8.251
 4884TIP3   OH236210   5.342   1.184   1.363
 4884TIP3    H136211   5.429   1.223   1.353
 4884TIP3    H236212   5.351   1.123   1.435
 4885TIP3   OH236213   1.699   6.732   0.234
 4885TIP3    H136214   1.765   6.729   0.165
 4885TIP3    H236215   1.746   6.706   0.314
 4886TIP3   OH236216   2.267   1.067   7.752
 4886TIP3    H136217   2.220   1.107   7.679
 4886TIP3    H236218   2.352   1.111   7.754
 4887TIP3   OH236219   5.770   0.274   1.862
 4887TIP3    H136220   5.717   0.347   1.830
 4887TIP3    H236221   5.708   0.203   1.873
 4888TIP3   OH236222   3.918   0.498   1.187
 4888TIP3    H136223   3.845   0.520   1.245
 4888TIP3    H236224   3.909   0.405   1.171
 4889TIP3   OH236225   0.563   0.335   1.156
 4889TIP3    H136226   0.505   0.411   1.156
 4889TIP3    H236227   0.531   0.281   1.229
 4890TIP3   OH236228   1.833   2.494   6.744
 4890TIP3    H136229   1.812   2.447   6.663
 4890TIP3    H236230   1.878   2.573   6.715
 4891TIP3   OH236231   1.107   3.432   7.811
 4891TIP3    H136232   1.104   3.519   7.852
 4891TIP3    H236233   1.024   3.425   7.764
 4892TIP3   OH236234   3.265   3.176   0.986
 4892TIP3    H136235   3.184   3.225   0.969
 4892TIP3    H236236   3.282   3.130   0.905
 4893TIP3   OH236237   5.589   3.442   0.420
 4893TIP3    H136238   5.540   3.420   0.499
 4893TIP3    H236239   5.545   3.519   0.385
 4894TIP3   OH236240   2.787   0.774   8.388
 4894TIP3    H136241   2.759   0.693   8.345
 4894TIP3    H236242   2.877   0.787   8.359
 4895TIP3   OH236243   3.017   0.241   0.256
 4895TIP3    H136244   3.086   0.185   0.221
 4895TIP3    H236245   3.063   0.302   0.314
 4896TIP3   OH236246   4.857   3.440   2.020
 4896TIP3    H136247   4.900   3.461   2.103
 4896TIP3    H236248   4.927   3.447   1.954
 4897TIP3   OH236249   5.571   6.121   6.638
 4897TIP3    H136250   5.507   6.189   6.621
 4897TIP3    H236251   5.655   6.167   6.641
 4898TIP3   OH236252   4.540   6.551   6.378
 4898TIP3    H136253   4.515   6.549   6.286
 4898TIP3    H236254   4.612   6.615   6.382
 4899TIP3   OH236255   0.302   0.798   0.154
 4899TIP3    H136256   0.302   0.791   0.250
 4899TIP3    H236257   0.314   0.891   0.137
 4900TIP3   OH236258   4.031   1.643   1.559
 4900TIP3    H136259   3.936   1.640   1.561
 4900TIP3    H236260   4.058   1.607   1.644
 4901TIP3   OH236261   4.215   0.857   0.312
 4901TIP3    H136262   4.177   0.837   0.227
 4901TIP3    H236263   4.164   0.806   0.375
 4902TIP3   OH236264   5.839   2.424   8.769
 4902TIP3    H136265   5.860   2.410   8.862
 4902TIP3    H236266   5.778   2.354   8.747
 4903TIP3   OH236267   6.145   3.522   8.093
 4903TIP3    H136268   6.054   3.521   8.124
 4903TIP3    H236269   6.192   3.468   8.156
 4904TIP3   OH236270   3.160   6.119   0.860
 4904TIP3    H136271   3.222   6.149   0.794
 4904TIP3    H236272   3.097   6.066   0.811
 4905TIP3   OH236273   3.360   2.883   0.368
 4905TIP3    H136274   3.280   2.837   0.393
 4905TIP3    H236275   3.420   2.814   0.339
 4906TIP3   OH236276   5.426   0.477   0.097
 4906TIP3    H136277   5.491   0.455   0.165
 4906TIP3    H236278   5.424   0.400   0.041
 4907TIP3   OH236279   1.736   4.642   0.951
 4907TIP3    H136280   1.805   4.684   0.899
 4907TIP3    H236281   1.766   4.650   1.041
 4908TIP3   OH236282   5.823   4.170   1.329
 4908TIP3    H136283   5.755   4.228   1.294
 4908TIP3    H236284   5.874   4.226   1.387
 4909TIP3   OH236285   6.713   3.288   8.105
 4909TIP3    H136286   6.735   3.197   8.086
 4909TIP3    H236287   6.646   3.283   8.173
 4910TIP3   OH236288   4.241   3.154   1.567
 4910TIP3    H136289   4.215   3.193   1.651
 4910TIP3    H236290   4.193   3.071   1.564
 4911TIP3   OH236291   6.571   1.791   8.413
 4911TIP3    H136292   6.587   1.697   8.407
 4911TIP3    H236293   6.643   1.825   8.466
 4912TIP3   OH236294   2.748   0.044   8.018
 4912TIP3    H136295   2.756   0.035   7.923
 4912TIP3    H236296   2.825   6.794   8.052
 4913TIP3   OH236297   5.816   1.148   6.537
 4913TIP3    H136298   5.759   1.072   6.523
 4913TIP3    H236299   5.884   1.116   6.596
 4914TIP3   OH236300   3.609   5.594   8.523
 4914TIP3    H136301   3.684   5.589   8.464
 4914TIP3    H236302   3.633   5.538   8.597
 4915TIP3   OH236303   4.875   4.297   0.057
 4915TIP3    H136304   4.912   4.235   0.119
 4915TIP3    H236305   4.952   4.342   0.020
 4916TIP3   OH236306   6.339   3.965   1.191
 4916TIP3    H136307   6.264   4.002   1.238
 4916TIP3    H236308   6.307   3.882   1.156
 4917TIP3   OH236309   2.423   5.503   0.264
 4917TIP3    H136310   2.471   5.585   0.255
 4917TIP3    H236311   2.349   5.511   0.204
 4918TIP3   OH236312   5.099   5.559   0.350
 4918TIP3    H136313   5.091   5.627   0.282
 4918TIP3    H236314   5.025   5.500   0.333
 4919TIP3   OH236315   5.403   5.088   0.526
 4919TIP3    H136316   5.464   5.157   0.499
 4919TIP3    H236317   5.353   5.069   0.447
 4920TIP3   OH236318   4.502   5.726   8.643
 4920TIP3    H136319   4.440   5.654   8.659
 4920TIP3    H236320   4.508   5.771   8.727
 4921TIP3   OH236321   1.425   2.621   1.339
 4921TIP3    H136322   1.467   2.553   1.286
 4921TIP3    H236323   1.439   2.593   1.429
 4922TIP3   OH236324   1.083   1.603   7.099
 4922TIP3    H136325   1.150   1.644   7.044
 4922TIP3    H236326   1.005   1.601   7.044
 4923TIP3   OH236327   4.051   4.178   1.070
 4923TIP3    H136328   4.088   4.110   1.127
 4923TIP3    H236329   3.957   4.162   1.071
 4924TIP3   OH236330   1.874   6.183   7.725
 4924TIP3    H136331   1.831   6.106   7.687
 4924TIP3    H236332   1.822   6.203   7.803
 4925TIP3   OH236333   1.196   1.134   0.917
 4925TIP3    H136334   1.230   1.049   0.891
 4925TIP3    H236335   1.105   1.117   0.944
 4926TIP3   OH236336   2.945   2.230   7.703
 4926TIP3    H136337   3.033   2.208   7.733
 4926TIP3    H236338   2.901   2.145   7.695
 4927TIP3   OH236339   6.480   5.142   0.509
 4927TIP3    H136340   6.520   5.170   0.591
 4927TIP3    H236341   6.445   5.055   0.528
 4928TIP3   OH236342   4.670   1.297   8.292
 4928TIP3    H136343   4.710   1.304   8.378
 4928TIP3    H236344   4.642   1.387   8.272
 4929TIP3   OH236345   6.717   3.806   0.438
 4929TIP3    H136346   6.628   3.804   0.401
 4929TIP3    H236347   6.705   3.850   0.523
 4930TIP3   OH236348   0.981   5.476   7.672
 4930TIP3    H136349   1.004   5.439   7.586
 4930TIP3    H236350   0.992   5.403   7.733
 4931TIP3   OH236351   3.034   4.263   0.253
 4931TIP3    H136352   3.045   4.334   0.190
 4931TIP3    H236353   3.117   4.216   0.250
 4932TIP3   OH236354   1.222   2.060   0.365
 4932TIP3    H136355   1.182   2.005   0.433
 4932TIP3    H236356   1.297   2.008   0.335
 4933TIP3   OH236357   3.117   5.975   2.221
 4933TIP3    H136358   3.043   5.945   2.275
 4933TIP3    H236359   3.176   6.017   2.284
 4934TIP3   OH236360   0.152   5.443   1.305
 4934TIP3    H136361   0.182   5.422   1.393
 4934TIP3    H236362   0.091   5.373   1.283
 4935TIP3   OH236363   2.449   3.208   7.205
 4935TIP3    H136364   2.489   3.209   7.292
 4935TIP3    H236365   2.521   3.231   7.146
 4936TIP3   OH236366   1.100   3.158   6.719
 4936TIP3    H136367   1.013   3.159   6.680
 4936TIP3    H236368   1.154   3.109   6.657
 4937TIP3   OH236369   1.516   3.420   6.609
 4937TIP3    H136370   1.425   3.407   6.584
 4937TIP3    H236371   1.536   3.346   6.667
 4938TIP3   OH236372   0.472   0.918   7.837
 4938TIP3    H136373   0.429   0.889   7.917
 4938TIP3    H236374   0.401   0.954   7.783
 4939TIP3   OH236375   6.212   6.388   1.132
 4939TIP3    H136376   6.246   6.315   1.184
 4939TIP3    H236377   6.272   6.460   1.150
 4940TIP3   OH236378   5.012   1.772   7.531
 4940TIP3    H136379   5.067   1.693   7.526
 4940TIP3    H236380   5.007   1.792   7.624
 4941TIP3   OH236381   6.140   0.609   0.757
 4941TIP3    H136382   6.224   0.566   0.743
 4941TIP3    H236383   6.157   0.675   0.824
 4942TIP3   OH236384   3.943   1.733   0.030
 4942TIP3    H136385   3.910   1.667   8.843
 4942TIP3    H236386   4.007   1.686   0.084
 4943TIP3   OH236387   3.983   2.832   1.300
 4943TIP3    H136388   4.047   2.901   1.313
 4943TIP3    H236389   3.911   2.874   1.254
 4944TIP3   OH236390   1.680   0.467   0.773
 4944TIP3    H136391   1.625   0.474   0.852
 4944TIP3    H236392   1.649   0.387   0.730
 4945TIP3   OH236393   1.221   3.804   1.926
 4945TIP3    H136394   1.294   3.778   1.870
 4945TIP3    H236395   1.257   3.806   2.014
 4946TIP3   OH236396   4.577   6.246   1.165
 4946TIP3    H136397   4.554   6.316   1.104
 4946TIP3    H236398   4.495   6.227   1.211
 4947TIP3   OH236399   2.533   3.594   0.690
 4947TIP3    H136400   2.536   3.567   0.598
 4947TIP3    H236401   2.443   3.624   0.703
 4948TIP3   OH236402   5.281   6.633   7.480
 4948TIP3    H136403   5.360   6.675   7.513
 4948TIP3    H236404   5.283   6.648   7.386
 4949TIP3   OH236405   6.140   4.973   8.336
 4949TIP3    H136406   6.128   4.967   8.241
 4949TIP3    H236407   6.136   5.067   8.354
 4950TIP3   OH236408   1.426   5.397   7.504
 4950TIP3    H136409   1.415   5.325   7.567
 4950TIP3    H236410   1.447   5.354   7.421
 4951TIP3   OH236411   3.751   4.615   1.461
 4951TIP3    H136412   3.818   4.662   1.510
 4951TIP3    H236413   3.732   4.671   1.386
 4952TIP3   OH236414   6.459   3.226   8.574
 4952TIP3    H136415   6.529   3.212   8.638
 4952TIP3    H236416   6.430   3.138   8.551
 4953TIP3   OH236417   3.935   6.512   0.302
 4953TIP3    H136418   3.864   6.449   0.316
 4953TIP3    H236419   4.005   6.460   0.261
 4954TIP3   OH236420   5.053   6.048   1.759
 4954TIP3    H136421   4.990   6.076   1.692
 4954TIP3    H236422   5.003   5.990   1.816
 4955TIP3   OH236423   0.323   6.348   1.520
 4955TIP3    H136424   0.360   6.410   1.583
 4955TIP3    H236425   0.272   6.402   1.460
 4956TIP3   OH236426   0.541   2.516   7.728
 4956TIP3    H136427   0.446   2.524   7.739
 4956TIP3    H236428   0.578   2.554   7.807
 4957TIP3   OH236429   2.189   4.401   8.421
 4957TIP3    H136430   2.255   4.403   8.491
 4957TIP3    H236431   2.111   4.438   8.460
 4958TIP3   OH236432   3.988   3.242   7.951
 4958TIP3    H136433   4.034   3.316   7.912
 4958TIP3    H236434   3.898   3.250   7.920
 4959TIP3   OH236435   6.627   4.417   7.210
 4959TIP3    H136436   6.651   4.328   7.235
 4959TIP3    H236437   6.710   4.462   7.197
 4960TIP3   OH236438   3.061   5.878   0.281
 4960TIP3    H136439   2.994   5.940   0.311
 4960TIP3    H236440   3.142   5.911   0.319
 4961TIP3   OH236441   1.698   5.448   0.588
 4961TIP3    H136442   1.654   5.525   0.622
 4961TIP3    H236443   1.649   5.425   0.509
 4962TIP3   OH236444   0.172   3.666   6.726
 4962TIP3    H136445   0.124   3.747   6.737
 4962TIP3    H236446   0.256   3.692   6.687
 4963TIP3   OH236447   4.710   6.252   8.175
 4963TIP3    H136448   4.641   6.230   8.113
 4963TIP3    H236449   4.723   6.171   8.226
 4964TIP3   OH236450   6.088   4.486   0.949
 4964TIP3    H136451   6.152   4.416   0.948
 4964TIP3    H236452   6.041   4.474   1.032
 4965TIP3   OH236453   4.283   0.310   0.465
 4965TIP3    H136454   4.228   0.341   0.536
 4965TIP3    H236455   4.313   0.223   0.492
 4966TIP3   OH236456   6.258   4.444   1.588
 4966TIP3    H136457   6.170   4.475   1.608
 4966TIP3    H236458   6.302   4.439   1.674
 4967TIP3   OH236459   1.250   1.355   8.006
 4967TIP3    H136460   1.259   1.422   7.938
 4967TIP3    H236461   1.339   1.321   8.017
 4968TIP3   OH236462   3.124   1.695   8.058
 4968TIP3    H136463   3.170   1.665   8.136
 4968TIP3    H236464   3.094   1.614   8.017
 4969TIP3   OH236465   3.730   4.035   8.278
 4969TIP3    H136466   3.808   4.088   8.294
 4969TIP3    H236467   3.724   4.028   8.183
 4970TIP3   OH236468   1.550   4.384   8.248
 4970TIP3    H136469   1.622   4.447   8.242
 4970TIP3    H236470   1.496   4.416   8.321
 4971TIP3   OH236471   1.401   0.400   1.614
 4971TIP3    H136472   1.451   0.320   1.597
 4971TIP3    H236473   1.314   0.370   1.639
 4972TIP3   OH236474   5.748   3.508   1.713
 4972TIP3    H136475   5.682   3.473   1.653
 4972TIP3    H236476   5.699   3.563   1.774
 4973TIP3   OH236477   0.963   6.359   8.200
 4973TIP3    H136478   1.031   6.294   8.182
 4973TIP3    H236479   1.012   6.439   8.221
 4974TIP3   OH236480   0.730   1.284   1.995
 4974TIP3    H136481   0.799   1.349   2.004
 4974TIP3    H236482   0.671   1.301   2.069
 4975TIP3   OH236483   0.662   0.533   8.109
 4975TIP3    H136484   0.571   0.538   8.080
 4975TIP3    H236485   0.657   0.501   8.199
 4976TIP3   OH236486   4.496   3.850   1.734
 4976TIP3    H136487   4.561   3.916   1.757
 4976TIP3    H236488   4.534   3.804   1.659
 4977TIP3   OH236489   3.168   2.648   0.420
 4977TIP3    H136490   3.192   2.607   0.337
 4977TIP3    H236491   3.204   2.589   0.487
 4978TIP3   OH236492   4.690   3.840   8.187
 4978TIP3    H136493   4.701   3.828   8.092
 4978TIP3    H236494   4.761   3.790   8.226
 4979TIP3   OH236495   5.367   6.005   1.171
 4979TIP3    H136496   5.303   5.989   1.102
 4979TIP3    H236497   5.394   5.918   1.200
 4980TIP3   OH236498   0.117   3.974   7.222
 4980TIP3    H136499   0.162   4.048   7.180
 4980TIP3    H236500   0.086   3.920   7.149
 4981TIP3   OH236501   2.759   5.255   2.584
 4981TIP3    H136502   2.673   5.266   2.543
 4981TIP3    H236503   2.760   5.163   2.612
 4982TIP3   OH236504   0.625   5.187   1.335
 4982TIP3    H136505   0.678   5.108   1.329
 4982TIP3    H236506   0.625   5.223   1.246
 4983TIP3   OH236507   2.351   2.212   7.986
 4983TIP3    H136508   2.258   2.232   7.989
 4983TIP3    H236509   2.394   2.295   8.008
 4984TIP3   OH236510   4.688   3.570   7.581
 4984TIP3    H136511   4.651   3.560   7.669
 4984TIP3    H236512   4.782   3.568   7.594
 4985TIP3   OH236513   2.419   3.019   7.629
 4985TIP3    H136514   2.501   3.068   7.641
 4985TIP3    H236515   2.353   3.087   7.612
 4986TIP3   OH236516   0.480   6.134   7.472
 4986TIP3    H136517   0.472   6.210   7.414
 4986TIP3    H236518   0.572   6.108   7.464
 4987TIP3   OH236519   5.921   0.548   8.432
 4987TIP3    H136520   5.926   0.640   8.459
 4987TIP3    H236521   6.012   0.518   8.433
 4988TIP3   OH236522   1.006   2.265   8.590
 4988TIP3    H136523   1.070   2.309   8.647
 4988TIP3    H236524   0.943   2.334   8.568
 4989TIP3   OH236525   1.661   2.646   7.904
 4989TIP3    H136526   1.633   2.554   7.904
 4989TIP3    H236527   1.738   2.648   7.847
 4990TIP3   OH236528   1.478   5.971   0.142
 4990TIP3    H136529   1.455   5.992   0.052
 4990TIP3    H236530   1.440   5.885   0.158
 4991TIP3   OH236531   5.919   2.251   8.049
 4991TIP3    H136532   5.868   2.313   8.102
 4991TIP3    H236533   5.870   2.244   7.967
 4992TIP3   OH236534   2.670   0.308   8.447
 4992TIP3    H136535   2.705   0.247   8.512
 4992TIP3    H236536   2.625   0.252   8.384
 4993TIP3   OH236537   3.860   2.140   0.765
 4993TIP3    H136538   3.905   2.149   0.850
 4993TIP3    H236539   3.809   2.060   0.774
 4994TIP3   OH236540   3.421   6.764   1.390
 4994TIP3    H136541   3.389   0.015   1.314
 4994TIP3    H236542   3.432   0.035   1.457
 4995TIP3   OH236543   5.716   0.413   0.503
 4995TIP3    H136544   5.653   0.484   0.515
 4995TIP3    H236545   5.774   0.443   0.433
 4996TIP3   OH236546   3.545   3.621   0.350
 4996TIP3    H136547   3.546   3.528   0.329
 4996TIP3    H236548   3.566   3.665   0.268
 4997TIP3   OH236549   0.363   0.084   1.210
 4997TIP3    H136550   0.316   0.096   1.293
 4997TIP3    H236551   0.357   6.786   1.193
 4998TIP3   OH236552   3.367   2.652   7.296
 4998TIP3    H136553   3.293   2.613   7.250
 4998TIP3    H236554   3.363   2.745   7.274
 4999TIP3   OH236555   3.143   3.739   0.556
 4999TIP3    H136556   3.144   3.713   0.648
 4999TIP3    H236557   3.127   3.658   0.508
 5000TIP3   OH236558   6.536   3.911   8.627
 5000TIP3    H136559   6.491   3.909   8.543
 5000TIP3    H236560   6.589   3.831   8.628
 5001TIP3   OH236561   4.769   0.161   2.864
 5001TIP3    H136562   4.714   0.230   2.826
 5001TIP3    H236563   4.726   0.079   2.838
 5002TIP3   OH236564   3.838   4.458   0.311
 5002TIP3    H136565   3.850   4.430   0.401
 5002TIP3    H236566   3.882   4.543   0.306
 5003TIP3   OH236567   1.535   2.223   7.209
 5003TIP3    H136568   1.598   2.205   7.140
 5003TIP3    H236569   1.501   2.310   7.189
 5004TIP3   OH236570   5.148   5.406   7.869
 5004TIP3    H136571   5.111   5.334   7.818
 5004TIP3    H236572   5.078   5.431   7.929
 5005TIP3   OH236573   4.490   1.101   2.573
 5005TIP3    H136574   4.478   1.009   2.599
 5005TIP3    H236575   4.531   1.096   2.486
 5006TIP3   OH236576   6.631   3.135   0.991
 5006TIP3    H136577   6.607   3.099   1.076
 5006TIP3    H236578   6.692   3.072   0.954
 5007TIP3   OH236579   6.645   3.468   6.887
 5007TIP3    H136580   6.601   3.391   6.852
 5007TIP3    H236581   6.629   3.536   6.822
 5008TIP3   OH236582   4.848   1.361   0.728
 5008TIP3    H136583   4.773   1.415   0.701
 5008TIP3    H236584   4.822   1.325   0.813
 5009TIP3   OH236585   2.668   5.682   0.518
 5009TIP3    H136586   2.746   5.698   0.571
 5009TIP3    H236587   2.690   5.716   0.432
 5010TIP3   OH236588   3.057   2.316   2.650
 5010TIP3    H136589   3.001   2.277   2.718
 5010TIP3    H236590   3.084   2.241   2.596
 5011TIP3   OH236591   5.779   0.649   6.929
 5011TIP3    H136592   5.739   0.684   6.849
 5011TIP3    H236593   5.863   0.695   6.937
 5012TIP3   OH236594   0.246   5.100   7.172
 5012TIP3    H136595   0.326   5.068   7.130
 5012TIP3    H236596   0.272   5.118   7.262
 5013TIP3   OH236597   4.638   1.681   8.870
 5013TIP3    H136598   4.671   1.739   8.802
 5013TIP3    H236599   4.698   1.695   0.069
 5014TIP3   OH236600   1.654   5.879   2.174
 5014TIP3    H136601   1.650   5.846   2.264
 5014TIP3    H236602   1.716   5.952   2.178
 5015TIP3   OH236603   5.529   1.047   8.649
 5015TIP3    H136604   5.495   1.015   8.566
 5015TIP3    H236605   5.517   1.142   8.645
 5016TIP3   OH236606   0.108   4.914   8.615
 5016TIP3    H136607   0.093   4.894   8.522
 5016TIP3    H236608   0.202   4.932   8.620
 5017TIP3   OH236609   2.201   0.743   1.068
 5017TIP3    H136610   2.163   0.828   1.091
 5017TIP3    H236611   2.250   0.760   0.987
 5018TIP3   OH236612   4.365   2.293   8.112
 5018TIP3    H136613   4.346   2.279   8.205
 5018TIP3    H236614   4.429   2.364   8.111
 5019TIP3   OH236615   4.314   2.029   0.718
 5019TIP3    H136616   4.352   2.105   0.674
 5019TIP3    H236617   4.388   1.974   0.741
 5020TIP3   OH236618   0.863   3.713   7.806
 5020TIP3    H136619   0.953   3.699   7.836
 5020TIP3    H236620   0.832   3.625   7.786
 5021TIP3   OH236621   2.958   0.661   1.472
 5021TIP3    H136622   2.989   0.719   1.542
 5021TIP3    H236623   2.896   0.715   1.422
 5022TIP3   OH236624   4.622   4.327   8.817
 5022TIP3    H136625   4.691   4.358   0.001
 5022TIP3    H236626   4.650   4.353   8.729
 5023TIP3   OH236627   5.537   1.475   0.220
 5023TIP3    H136628   5.499   1.428   0.146
 5023TIP3    H236629   5.571   1.407   0.277
 5024TIP3   OH236630   1.326   0.408   0.737
 5024TIP3    H136631   1.401   0.375   0.687
 5024TIP3    H236632   1.298   0.486   0.689
 5025TIP3   OH236633   2.693   5.052   8.332
 5025TIP3    H136634   2.719   4.994   8.260
 5025TIP3    H236635   2.767   5.050   8.392
 5026TIP3   OH236636   3.667   4.719   8.424
 5026TIP3    H136637   3.592   4.680   8.470
 5026TIP3    H236638   3.726   4.645   8.407
 5027TIP3   OH236639   0.241   6.327   2.104
 5027TIP3    H136640   0.175   6.342   2.171
 5027TIP3    H236641   0.205   6.256   2.050
 5028TIP3   OH236642   2.223   4.109   7.302
 5028TIP3    H136643   2.189   4.019   7.308
 5028TIP3    H236644   2.157   4.157   7.253
 5029TIP3   OH236645   2.809   6.302   1.159
 5029TIP3    H136646   2.812   6.333   1.069
 5029TIP3    H236647   2.740   6.236   1.160
 5030TIP3   OH236648   4.633   4.712   7.908
 5030TIP3    H136649   4.606   4.636   7.961
 5030TIP3    H236650   4.560   4.726   7.847
 5031TIP3   OH236651   5.917   5.347   2.338
 5031TIP3    H136652   6.005   5.309   2.331
 5031TIP3    H236653   5.861   5.275   2.364
 5032TIP3   OH236654   2.056   5.741   7.531
 5032TIP3    H136655   2.132   5.694   7.497
 5032TIP3    H236656   2.090   5.826   7.558
 5033TIP3   OH236657   0.332   3.333   1.231
 5033TIP3    H136658   0.327   3.350   1.325
 5033TIP3    H236659   0.241   3.321   1.204
 5034TIP3   OH236660   4.138   6.642   1.235
 5034TIP3    H136661   4.200   6.641   1.161
 5034TIP3    H236662   4.165   6.568   1.289
 5035TIP3   OH236663   2.836   5.064   8.780
 5035TIP3    H136664   2.866   5.030   8.696
 5035TIP3    H236665   2.745   5.091   8.764
 5036TIP3   OH236666   3.050   5.552   1.019
 5036TIP3    H136667   3.050   5.646   1.000
 5036TIP3    H236668   2.971   5.519   0.976
 5037TIP3   OH236669   1.712   5.817   1.837
 5037TIP3    H136670   1.650   5.794   1.768
 5037TIP3    H236671   1.717   5.739   1.892
 5038TIP3   OH236672   3.341   4.146   7.637
 5038TIP3    H136673   3.342   4.239   7.613
 5038TIP3    H236674   3.385   4.143   7.722
 5039TIP3   OH236675   1.680   3.283   1.989
 5039TIP3    H136676   1.588   3.299   2.012
 5039TIP3    H236677   1.677   3.202   1.938
 5040TIP3   OH236678   3.122   5.563   0.078
 5040TIP3    H136679   3.165   5.647   0.066
 5040TIP3    H236680   3.032   5.585   0.103
 5041TIP3   OH236681   1.407   5.752   6.905
 5041TIP3    H136682   1.454   5.791   6.979
 5041TIP3    H236683   1.317   5.743   6.937
 5042TIP3   OH236684   1.663   0.805   8.610
 5042TIP3    H136685   1.610   0.852   8.546
 5042TIP3    H236686   1.704   0.734   8.561
 5043TIP3   OH236687   2.210   6.018   2.541
 5043TIP3    H136688   2.233   6.107   2.567
 5043TIP3    H236689   2.295   5.974   2.529
 5044TIP3   OH236690   1.677   0.888   1.623
 5044TIP3    H136691   1.628   0.965   1.650
 5044TIP3    H236692   1.713   0.852   1.705
 5045TIP3   OH236693   1.273   6.209   7.485
 5045TIP3    H136694   1.280   6.161   7.402
 5045TIP3    H236695   1.208   6.277   7.468
 5046TIP3   OH236696   1.203   6.205   8.388
 5046TIP3    H136697   1.152   6.126   8.370
 5046TIP3    H236698   1.151   6.254   8.451
 5047TIP3   OH236699   0.906   6.400   7.139
 5047TIP3    H136700   0.813   6.424   7.136
 5047TIP3    H236701   0.942   6.452   7.211
 5048TIP3   OH236702   1.447   5.674   0.062
 5048TIP3    H136703   1.443   5.707   8.847
 5048TIP3    H236704   1.494   5.591   0.055
 5049TIP3   OH236705   4.377   4.029   7.881
 5049TIP3    H136706   4.471   4.039   7.863
 5049TIP3    H236707   4.371   4.031   7.976
 5050TIP3   OH236708   4.796   1.781   8.203
 5050TIP3    H136709   4.726   1.806   8.142
 5050TIP3    H236710   4.873   1.828   8.172
 5051TIP3   OH236711   1.378   1.761   0.976
 5051TIP3    H136712   1.427   1.680   0.992
 5051TIP3    H236713   1.444   1.830   0.982
 5052TIP3   OH236714   5.854   4.991   7.929
 5052TIP3    H136715   5.761   5.009   7.914
 5052TIP3    H236716   5.864   4.997   8.024
 5053TIP3   OH236717   3.723   1.102   2.426
 5053TIP3    H136718   3.804   1.052   2.421
 5053TIP3    H236719   3.742   1.173   2.487
 5054TIP3   OH236720   1.622   3.401   8.490
 5054TIP3    H136721   1.609   3.495   8.477
 5054TIP3    H236722   1.715   3.392   8.511
 5055TIP3   OH236723   3.158   2.519   0.170
 5055TIP3    H136724   3.126   2.428   0.173
 5055TIP3    H236725   3.079   2.572   0.181
 5056TIP3   OH236726   5.803   1.263   2.550
 5056TIP3    H136727   5.780   1.172   2.529
 5056TIP3    H236728   5.889   1.257   2.591
 5057TIP3   OH236729   4.471   0.603   0.741
 5057TIP3    H136730   4.480   0.696   0.721
 5057TIP3    H236731   4.482   0.559   0.656
 5058TIP3   OH236732   0.240   5.162   7.882
 5058TIP3    H136733   0.274   5.246   7.853
 5058TIP3    H236734   0.226   5.113   7.800
 5059TIP3   OH236735   5.550   6.451   1.474
 5059TIP3    H136736   5.642   6.429   1.487
 5059TIP3    H236737   5.509   6.368   1.450
 5060TIP3   OH236738   3.834   1.628   1.258
 5060TIP3    H136739   3.763   1.689   1.280
 5060TIP3    H236740   3.899   1.682   1.214
 5061TIP3   OH236741   0.584   2.788   0.629
 5061TIP3    H136742   0.637   2.813   0.705
 5061TIP3    H236743   0.608   2.697   0.612
 5062TIP3   OH236744   0.544   4.286   1.966
 5062TIP3    H136745   0.552   4.217   2.032
 5062TIP3    H236746   0.584   4.362   2.008
 5063TIP3   OH236747   2.609   5.599   7.236
 5063TIP3    H136748   2.638   5.556   7.156
 5063TIP3    H236749   2.657   5.555   7.306
 5064TIP3   OH236750   4.445   3.731   7.101
 5064TIP3    H136751   4.435   3.637   7.116
 5064TIP3    H236752   4.374   3.771   7.152
 5065TIP3   OH236753   6.690   4.563   7.824
 5065TIP3    H136754   6.725   4.474   7.832
 5065TIP3    H236755   6.595   4.552   7.829
 5066TIP3   OH236756   4.710   5.134   8.089
 5066TIP3    H136757   4.685   5.118   8.180
 5066TIP3    H236758   4.747   5.051   8.059
 5067TIP3   OH236759   0.012   2.077   7.537
 5067TIP3    H136760   0.030   2.164   7.573
 5067TIP3    H236761   6.715   2.080   7.515
 5068TIP3   OH236762   4.776   0.813   7.442
 5068TIP3    H136763   4.788   0.907   7.424
 5068TIP3    H236764   4.685   0.805   7.471
 5069TIP3   OH236765   6.773   4.443   0.001
 5069TIP3    H136766   6.697   4.397   0.037
 5069TIP3    H236767   0.012   4.492   0.075
 5070TIP3   OH236768   1.603   4.026   0.684
 5070TIP3    H136769   1.695   4.010   0.666
 5070TIP3    H236770   1.577   3.956   0.743
 5071TIP3   OH236771   1.506   5.470   0.807
 5071TIP3    H136772   1.495   5.415   0.731
 5071TIP3    H236773   1.418   5.483   0.841
 5072TIP3   OH236774   2.889   1.560   0.849
 5072TIP3    H136775   2.956   1.625   0.825
 5072TIP3    H236776   2.907   1.485   0.792
 5073TIP3   OH236777   1.778   4.526   1.193
 5073TIP3    H136778   1.775   4.444   1.143
 5073TIP3    H236779   1.838   4.508   1.265
 5074TIP3   OH236780   4.498   0.870   0.698
 5074TIP3    H136781   4.571   0.931   0.707
 5074TIP3    H236782   4.442   0.909   0.631
 5075TIP3   OH236783   2.088   6.721   8.613
 5075TIP3    H136784   2.104   6.626   8.612
 5075TIP3    H236785   1.994   6.729   8.627
 5076TIP3   OH236786   3.129   5.789   8.755
 5076TIP3    H136787   3.191   5.762   8.687
 5076TIP3    H236788   3.183   5.800   8.834
 5077TIP3   OH236789   3.221   2.473   6.895
 5077TIP3    H136790   3.233   2.547   6.835
 5077TIP3    H236791   3.151   2.421   6.856
 5078TIP3   OH236792   0.275   2.321   6.651
 5078TIP3    H136793   0.286   2.285   6.739
 5078TIP3    H236794   0.355   2.297   6.605
 5079TIP3   OH236795   2.748   5.643   2.370
 5079TIP3    H136796   2.727   5.736   2.364
 5079TIP3    H236797   2.748   5.624   2.464
 5080TIP3   OH236798   4.179   5.025   7.817
 5080TIP3    H136799   4.129   5.089   7.868
 5080TIP3    H236800   4.251   5.000   7.875
 5081TIP3   OH236801   1.164   0.845   6.930
 5081TIP3    H136802   1.181   0.818   7.020
 5081TIP3    H236803   1.249   0.877   6.899
 5082TIP3   OH236804   2.373   5.751   7.957
 5082TIP3    H136805   2.381   5.718   8.046
 5082TIP3    H236806   2.424   5.690   7.904
 5083TIP3   OH236807   3.668   0.953   7.178
 5083TIP3    H136808   3.689   0.904   7.098
 5083TIP3    H236809   3.657   1.043   7.149
 5084TIP3   OH236810   1.822   2.659   0.918
 5084TIP3    H136811   1.741   2.622   0.882
 5084TIP3    H236812   1.874   2.583   0.944
 5085TIP3   OH236813   3.633   4.057   8.009
 5085TIP3    H136814   3.614   3.964   8.016
 5085TIP3    H236815   3.549   4.097   7.988
 5086TIP3   OH236816   4.879   1.704   7.130
 5086TIP3    H136817   4.877   1.628   7.190
 5086TIP3    H236818   4.879   1.665   7.043
 5087TIP3   OH236819   3.284   3.468   1.546
 5087TIP3    H136820   3.372   3.438   1.570
 5087TIP3    H236821   3.225   3.416   1.600
 5088TIP3   OH236822   4.315   6.345   8.762
 5088TIP3    H136823   4.254   6.272   8.770
 5088TIP3    H236824   4.384   6.326   8.826
 5089TIP3   OH236825   6.073   0.551   2.022
 5089TIP3    H136826   6.035   0.638   2.032
 5089TIP3    H236827   6.107   0.529   2.109
 5090TIP3   OH236828   6.234   4.159   7.776
 5090TIP3    H136829   6.286   4.216   7.832
 5090TIP3    H236830   6.288   4.081   7.764
 5091TIP3   OH236831   6.762   2.063   7.001
 5091TIP3    H136832   0.019   2.114   6.940
 5091TIP3    H236833   6.776   2.105   7.086
 5092TIP3   OH236834   0.427   3.679   0.459
 5092TIP3    H136835   0.389   3.765   0.442
 5092TIP3    H236836   0.470   3.688   0.544
 5093TIP3   OH236837   0.105   1.862   0.313
 5093TIP3    H136838   0.181   1.919   0.324
 5093TIP3    H236839   0.136   1.792   0.255
 5094TIP3   OH236840   0.248   4.447   8.090
 5094TIP3    H136841   0.197   4.399   8.156
 5094TIP3    H236842   0.251   4.389   8.014
 5095TIP3   OH236843   6.141   3.138   1.579
 5095TIP3    H136844   6.149   3.141   1.674
 5095TIP3    H236845   6.230   3.121   1.548
 5096TIP3   OH236846   2.425   3.815   0.001
 5096TIP3    H136847   2.398   3.890   0.055
 5096TIP3    H236848   2.381   3.740   0.041
 5097TIP3   OH236849   3.515   1.471   1.293
 5097TIP3    H136850   3.440   1.438   1.343
 5097TIP3    H236851   3.574   1.396   1.287
 5098TIP3   OH236852   1.390   3.311   0.936
 5098TIP3    H136853   1.320   3.323   1.001
 5098TIP3    H236854   1.470   3.305   0.989
 5099TIP3   OH236855   1.747   5.563   1.991
 5099TIP3    H136856   1.760   5.578   2.085
 5099TIP3    H236857   1.698   5.481   1.987
 5100TIP3   OH236858   2.196   6.176   0.335
 5100TIP3    H136859   2.213   6.255   0.386
 5100TIP3    H236860   2.164   6.208   0.250
 5101TIP3   OH236861   0.324   6.042   0.228
 5101TIP3    H136862   0.301   6.122   0.275
 5101TIP3    H236863   0.414   6.055   0.198
 5102TIP3   OH236864   4.774   3.315   6.895
 5102TIP3    H136865   4.837   3.321   6.823
 5102TIP3    H236866   4.689   3.314   6.852
 5103TIP3   OH236867   5.708   5.702   0.713
 5103TIP3    H136868   5.780   5.672   0.658
 5103TIP3    H236869   5.736   5.788   0.745
 5104TIP3   OH236870   3.853   2.511   0.870
 5104TIP3    H136871   3.797   2.525   0.946
 5104TIP3    H236872   3.938   2.543   0.897
 5105TIP3   OH236873   2.816   0.091   7.413
 5105TIP3    H136874   2.724   0.112   7.428
 5105TIP3    H236875   2.857   0.099   7.500
 5106TIP3   OH236876   0.813   6.746   8.109
 5106TIP3    H136877   0.772   6.704   8.185
 5106TIP3    H236878   0.882   0.005   8.147
 5107TIP3   OH236879   3.500   1.692   1.155
 5107TIP3    H136880   3.495   1.619   1.216
 5107TIP3    H236881   3.555   1.757   1.199
 5108TIP3   OH236882   4.436   6.263   2.381
 5108TIP3    H136883   4.529   6.285   2.390
 5108TIP3    H236884   4.401   6.268   2.470
 5109TIP3   OH236885   4.998   1.509   2.344
 5109TIP3    H136886   4.938   1.504   2.418
 5109TIP3    H236887   5.083   1.533   2.383
 5110TIP3   OH236888   1.026   6.102   0.362
 5110TIP3    H136889   1.022   6.037   0.292
 5110TIP3    H236890   1.112   6.088   0.402
 5111TIP3   OH236891   5.334   0.026   8.514
 5111TIP3    H136892   5.404   0.089   8.528
 5111TIP3    H236893   5.364   6.743   8.558
 5112TIP3   OH236894   0.414   1.449   6.722
 5112TIP3    H136895   0.369   1.397   6.655
 5112TIP3    H236896   0.395   1.540   6.699
 5113TIP3   OH236897   6.304   0.213   0.580
 5113TIP3    H136898   6.243   0.202   0.653
 5113TIP3    H236899   6.376   0.154   0.600
 5114TIP3   OH236900   3.357   5.035   0.344
 5114TIP3    H136901   3.350   4.985   0.262
 5114TIP3    H236902   3.323   4.975   0.411
 5115TIP3   OH236903   4.657   3.971   7.845
 5115TIP3    H136904   4.647   3.933   7.757
 5115TIP3    H236905   4.702   3.902   7.895
 5116TIP3   OH236906   6.744   6.278   8.412
 5116TIP3    H136907   0.036   6.313   8.426
 5116TIP3    H236908   6.718   6.244   8.497
 5117TIP3   OH236909   5.703   6.060   2.375
 5117TIP3    H136910   5.684   5.978   2.329
 5117TIP3    H236911   5.784   6.042   2.423
 5118TIP3   OH236912   3.675   2.343   2.242
 5118TIP3    H136913   3.723   2.260   2.240
 5118TIP3    H236914   3.583   2.318   2.237
 5119TIP3   OH236915   3.778   0.942   8.101
 5119TIP3    H136916   3.692   0.955   8.061
 5119TIP3    H236917   3.808   0.858   8.066
 5120TIP3   OH236918   5.798   3.845   8.730
 5120TIP3    H136919   5.888   3.846   8.763
 5120TIP3    H236920   5.747   3.804   8.800
 5121TIP3   OH236921   5.154   4.279   7.349
 5121TIP3    H136922   5.098   4.208   7.316
 5121TIP3    H236923   5.234   4.273   7.297
 5122TIP3   OH236924   1.119   5.838   1.326
 5122TIP3    H136925   1.143   5.821   1.418
 5122TIP3    H236926   1.050   5.905   1.332
 5123TIP3   OH236927   6.584   2.579   8.619
 5123TIP3    H136928   6.505   2.627   8.644
 5123TIP3    H236929   6.556   2.487   8.616
 5124TIP3   OH236930   4.208   5.701   7.285
 5124TIP3    H136931   4.244   5.714   7.372
 5124TIP3    H236932   4.113   5.703   7.297
 5125TIP3   OH236933   5.736   6.676   3.033
 5125TIP3    H136934   5.816   6.640   2.995
 5125TIP3    H236935   5.697   6.727   2.962
 5126TIP3   OH236936   2.732   1.131   7.076
 5126TIP3    H136937   2.817   1.169   7.096
 5126TIP3    H236938   2.668   1.194   7.110
 5127TIP3   OH236939   1.027   0.770   0.677
 5127TIP3    H136940   1.099   0.821   0.640
 5127TIP3    H236941   1.058   0.679   0.674
 5128TIP3   OH236942   0.832   3.102   1.680
 5128TIP3    H136943   0.856   3.041   1.750
 5128TIP3    H236944   0.906   3.099   1.619
 5129TIP3   OH236945   4.617   5.746   7.764
 5129TIP3    H136946   4.646   5.693   7.690
 5129TIP3    H236947   4.622   5.836   7.732
 5130TIP3   OH236948   2.255   5.193   1.629
 5130TIP3    H136949   2.275   5.105   1.663
 5130TIP3    H236950   2.186   5.178   1.565
 5131TIP3   OH236951   1.177   6.208   6.989
 5131TIP3    H136952   1.259   6.257   6.985
 5131TIP3    H236953   1.194   6.138   7.052
 5132TIP3   OH236954   4.757   5.577   0.530
 5132TIP3    H136955   4.815   5.609   0.599
 5132TIP3    H236956   4.684   5.538   0.578
 5133TIP3   OH236957   4.165   4.546   7.004
 5133TIP3    H136958   4.253   4.563   7.036
 5133TIP3    H236959   4.172   4.552   6.909
 5134TIP3   OH236960   5.399   1.218   8.155
 5134TIP3    H136961   5.323   1.187   8.106
 5134TIP3    H236962   5.372   1.214   8.246
 5135TIP3   OH236963   4.773   2.785   0.002
 5135TIP3    H136964   4.773   2.848   8.805
 5135TIP3    H236965   4.859   2.742   8.871
 5136TIP3   OH236966   3.240   5.364   8.082
 5136TIP3    H136967   3.187   5.304   8.030
 5136TIP3    H236968   3.207   5.451   8.060
 5137TIP3   OH236969   0.120   1.453   7.404
 5137TIP3    H136970   0.055   1.383   7.399
 5137TIP3    H236971   0.093   1.505   7.480
 5138TIP3   OH236972   2.458   0.569   1.016
 5138TIP3    H136973   2.386   0.588   0.955
 5138TIP3    H236974   2.473   0.475   1.006
 5139TIP3   OH236975   4.672   0.417   0.667
 5139TIP3    H136976   4.611   0.434   0.595
 5139TIP3    H236977   4.627   0.452   0.744
 5140TIP3   OH236978   0.744   2.317   0.326
 5140TIP3    H136979   0.670   2.302   0.266
 5140TIP3    H236980   0.791   2.391   0.288
 5141TIP3   OH236981   3.777   4.038   2.136
 5141TIP3    H136982   3.728   3.956   2.130
 5141TIP3    H236983   3.712   4.102   2.165
 5142TIP3   OH236984   6.323   4.794   1.572
 5142TIP3    H136985   6.350   4.829   1.487
 5142TIP3    H236986   6.228   4.784   1.565
 5143TIP3   OH236987   2.543   1.525   2.008
 5143TIP3    H136988   2.501   1.549   1.925
 5143TIP3    H236989   2.595   1.448   1.986
 5144TIP3   OH236990   2.885   4.262   1.235
 5144TIP3    H136991   2.903   4.333   1.297
 5144TIP3    H236992   2.954   4.198   1.250
 5145TIP3   OH236993   6.620   4.798   2.356
 5145TIP3    H136994   6.530   4.832   2.350
 5145TIP3    H236995   6.614   4.724   2.415
 5146TIP3   OH236996   3.134   5.440   8.403
 5146TIP3    H136997   3.172   5.507   8.346
 5146TIP3    H236998   3.189   5.363   8.390
 5147TIP3   OH236999   2.416   6.393   0.202
 5147TIP3    H137000   2.387   6.431   0.119
 5147TIP3    H237001   2.379   6.305   0.202
 5148TIP3   OH237002   1.675   6.154   7.247
 5148TIP3    H137003   1.621   6.078   7.226
 5148TIP3    H237004   1.617   6.212   7.297
 5149TIP3   OH237005   4.700   4.021   7.094
 5149TIP3    H137006   4.700   4.109   7.131
 5149TIP3    H237007   4.791   4.007   7.067
 5150TIP3   OH237008   2.481   6.671   7.381
 5150TIP3    H137009   2.395   6.702   7.411
 5150TIP3    H237010   2.462   6.628   7.297
 5151TIP3   OH237011   6.208   2.569   7.679
 5151TIP3    H137012   6.271   2.562   7.607
 5151TIP3    H237013   6.160   2.650   7.661
 5152TIP3   OH237014   0.023   3.621   6.505
 5152TIP3    H137015   0.042   3.634   6.598
 5152TIP3    H237016   6.759   3.547   6.503
 5153TIP3   OH237017   1.383   6.591   0.808
 5153TIP3    H137018   1.438   6.643   0.866
 5153TIP3    H237019   1.298   6.635   0.809
 5154TIP3   OH237020   3.917   1.388   0.109
 5154TIP3    H137021   3.948   1.472   0.144
 5154TIP3    H237022   3.966   1.322   0.158
 5155TIP3   OH237023   5.298   2.610   1.974
 5155TIP3    H137024   5.229   2.575   2.031
 5155TIP3    H237025   5.358   2.654   2.034
 5156TIP3   OH237026   1.840   0.477   0.170
 5156TIP3    H137027   1.823   0.403   0.113
 5156TIP3    H237028   1.756   0.523   0.177
 5157TIP3   OH237029   6.757   3.909   1.767
 5157TIP3    H137030   6.744   3.962   1.689
 5157TIP3    H237031   6.719   3.824   1.744
 5158TIP3   OH237032   2.915   3.879   2.372
 5158TIP3    H137033   2.932   3.845   2.460
 5158TIP3    H237034   2.988   3.848   2.319
 5159TIP3   OH237035   6.744   4.657   1.201
 5159TIP3    H137036   6.715   4.699   1.281
 5159TIP3    H237037   6.663   4.640   1.152
 5160TIP3   OH237038   3.222   6.393   8.095
 5160TIP3    H137039   3.209   6.389   8.190
 5160TIP3    H237040   3.199   6.483   8.071
 5161TIP3   OH237041   0.558   0.458   0.108
 5161TIP3    H137042   0.630   0.520   0.123
 5161TIP3    H237043   0.497   0.473   0.180
 5162TIP3   OH237044   3.786   1.736   7.996
 5162TIP3    H137045   3.790   1.825   8.031
 5162TIP3    H237046   3.720   1.692   8.049
 5163TIP3   OH237047   4.965   2.385   0.282
 5163TIP3    H137048   4.982   2.298   0.318
 5163TIP3    H237049   4.907   2.370   0.208
 5164TIP3   OH237050   1.599   0.744   0.872
 5164TIP3    H137051   1.620   0.802   0.946
 5164TIP3    H237052   1.589   0.658   0.912
 5165TIP3   OH237053   5.588   4.722   8.013
 5165TIP3    H137054   5.536   4.746   8.090
 5165TIP3    H237055   5.535   4.656   7.968
 5166TIP3   OH237056   1.200   0.254   7.334
 5166TIP3    H137057   1.259   0.246   7.409
 5166TIP3    H237058   1.236   0.327   7.283
 5167TIP3   OH237059   1.370   5.824   7.602
 5167TIP3    H137060   1.380   5.917   7.622
 5167TIP3    H237061   1.412   5.813   7.517
 5168TIP3   OH237062   0.436   3.410   7.842
 5168TIP3    H137063   0.385   3.458   7.907
 5168TIP3    H237064   0.414   3.452   7.759
 5169TIP3   OH237065   3.522   1.112   1.490
 5169TIP3    H137066   3.547   1.031   1.535
 5169TIP3    H237067   3.476   1.083   1.412
 5170TIP3   OH237068   6.411   3.068   7.284
 5170TIP3    H137069   6.498   3.108   7.294
 5170TIP3    H237070   6.417   3.021   7.201
 5171TIP3   OH237071   5.705   6.542   8.660
 5171TIP3    H137072   5.786   6.495   8.644
 5171TIP3    H237073   5.672   6.564   8.573
 5172TIP3   OH237074   0.293   5.791   1.041
 5172TIP3    H137075   0.357   5.829   1.101
 5172TIP3    H237076   0.330   5.808   0.954
 5173TIP3   OH237077   4.220   1.293   2.623
 5173TIP3    H137078   4.234   1.296   2.528
 5173TIP3    H237079   4.273   1.219   2.652
 5174TIP3   OH237080   5.465   4.876   1.040
 5174TIP3    H137081   5.505   4.891   0.954
 5174TIP3    H237082   5.522   4.922   1.101
 5175TIP3   OH237083   2.874   4.444   2.220
 5175TIP3    H137084   2.865   4.353   2.192
 5175TIP3    H237085   2.958   4.471   2.184
 5176TIP3   OH237086   1.540   1.797   7.798
 5176TIP3    H137087   1.455   1.754   7.787
 5176TIP3    H237088   1.548   1.854   7.721
 5177TIP3   OH237089   1.060   1.942   1.334
 5177TIP3    H137090   1.093   1.936   1.424
 5177TIP3    H237091   1.090   1.862   1.292
 5178TIP3   OH237092   1.980   1.589   0.197
 5178TIP3    H137093   2.044   1.536   0.244
 5178TIP3    H237094   1.947   1.532   0.128
 5179TIP3   OH237095   6.287   6.139   8.611
 5179TIP3    H137096   6.376   6.171   8.623
 5179TIP3    H237097   6.273   6.142   8.516
 5180TIP3   OH237098   3.024   1.381   0.237
 5180TIP3    H137099   3.102   1.332   0.264
 5180TIP3    H237100   3.056   1.440   0.168
 5181TIP3   OH237101   5.187   2.800   1.397
 5181TIP3    H137102   5.231   2.869   1.447
 5181TIP3    H237103   5.249   2.777   1.328
 5182TIP3   OH237104   0.887   2.321   1.515
 5182TIP3    H137105   0.944   2.391   1.547
 5182TIP3    H237106   0.912   2.309   1.424
 5183TIP3   OH237107   3.577   2.565   7.100
 5183TIP3    H137108   3.636   2.635   7.125
 5183TIP3    H237109   3.489   2.600   7.116
 5184TIP3   OH237110   0.869   4.410   7.669
 5184TIP3    H137111   0.869   4.494   7.622
 5184TIP3    H237112   0.848   4.345   7.601
 5185TIP3   OH237113   2.930   2.693   0.248
 5185TIP3    H137114   2.871   2.767   0.256
 5185TIP3    H237115   3.012   2.723   0.288
 5186TIP3   OH237116   1.207   4.148   8.859
 5186TIP3    H137117   1.236   4.106   0.066
 5186TIP3    H237118   1.112   4.148   8.865
 5187TIP3   OH237119   0.206   4.598   1.270
 5187TIP3    H137120   0.219   4.645   1.353
 5187TIP3    H237121   0.119   4.624   1.241
 5188TIP3   OH237122   1.088   4.173   7.971
 5188TIP3    H137123   1.138   4.172   8.053
 5188TIP3    H237124   1.058   4.083   7.959
 5189TIP3   OH237125   6.155   0.043   8.773
 5189TIP3    H137126   6.245   0.058   8.742
 5189TIP3    H237127   6.111   0.002   8.698
 5190TIP3   OH237128   1.478   6.705   8.456
 5190TIP3    H137129   1.421   6.781   8.447
 5190TIP3    H237130   1.498   6.701   8.550
 5191TIP3   OH237131   4.326   1.873   8.661
 5191TIP3    H137132   4.346   1.816   8.587
 5191TIP3    H237133   4.272   1.943   8.623
 5192TIP3   OH237134   1.553   0.561   0.526
 5192TIP3    H137135   1.614   0.568   0.599
 5192TIP3    H237136   1.532   0.652   0.503
 5193TIP3   OH237137   3.470   0.927   6.822
 5193TIP3    H137138   3.472   0.969   6.908
 5193TIP3    H237139   3.391   0.874   6.823
 5194TIP3   OH237140   0.670   3.315   2.672
 5194TIP3    H137141   0.580   3.282   2.670
 5194TIP3    H237142   0.700   3.308   2.581
 5195TIP3   OH237143   0.667   4.392   0.054
 5195TIP3    H137144   0.702   4.316   0.009
 5195TIP3    H237145   0.735   4.459   0.045
 5196TIP3   OH237146   0.725   0.821   0.768
 5196TIP3    H137147   0.634   0.828   0.794
 5196TIP3    H237148   0.774   0.826   0.850
 5197TIP3   OH237149   4.753   2.283   6.852
 5197TIP3    H137150   4.766   2.198   6.810
 5197TIP3    H237151   4.723   2.340   6.781
 5198TIP3   OH237152   5.055   2.088   0.943
 5198TIP3    H137153   5.025   2.003   0.911
 5198TIP3    H237154   4.977   2.129   0.981
 5199TIP3   OH237155   5.595   1.987   6.502
 5199TIP3    H137156   5.571   2.070   6.461
 5199TIP3    H237157   5.690   1.988   6.503
 5200TIP3   OH237158   0.101   6.373   1.692
 5200TIP3    H137159   0.186   6.342   1.660
 5200TIP3    H237160   0.103   6.468   1.678
 5201TIP3   OH237161   1.389   4.653   0.633
 5201TIP3    H137162   1.440   4.590   0.684
 5201TIP3    H237163   1.454   4.711   0.593
 5202TIP3   OH237164   2.820   0.028   8.367
 5202TIP3    H137165   2.895   0.077   8.401
 5202TIP3    H237166   2.857   6.739   8.343
 5203TIP3   OH237167   5.066   3.229   0.343
 5203TIP3    H137168   5.159   3.215   0.360
 5203TIP3    H237169   5.064   3.268   0.255
 5204TIP3   OH237170   0.903   2.587   7.719
 5204TIP3    H137171   0.877   2.583   7.627
 5204TIP3    H237172   0.885   2.500   7.753
 5205TIP3   OH237173   3.254   4.455   0.844
 5205TIP3    H137174   3.212   4.480   0.762
 5205TIP3    H237175   3.279   4.363   0.831
 5206TIP3   OH237176   1.491   3.828   1.842
 5206TIP3    H137177   1.495   3.743   1.885
 5206TIP3    H237178   1.573   3.871   1.864
 5207TIP3   OH237179   1.252   3.305   0.177
 5207TIP3    H137180   1.164   3.314   0.213
 5207TIP3    H237181   1.293   3.238   0.231
 5208TIP3   OH237182   0.627   0.207   2.036
 5208TIP3    H137183   0.665   0.292   2.059
 5208TIP3    H237184   0.534   0.224   2.023
 5209TIP3   OH237185   2.105   2.127   7.009
 5209TIP3    H137186   2.059   2.044   6.997
 5209TIP3    H237187   2.040   2.194   6.988
 5210TIP3   OH237188   5.349   4.067   6.618
 5210TIP3    H137189   5.265   4.063   6.663
 5210TIP3    H237190   5.395   3.987   6.645
 5211TIP3   OH237191   2.550   2.918   6.426
 5211TIP3    H137192   2.505   2.946   6.346
 5211TIP3    H237193   2.512   2.972   6.495
 5212TIP3   OH237194   6.663   0.988   8.510
 5212TIP3    H137195   6.747   0.971   8.466
 5212TIP3    H237196   6.687   0.997   8.602
 5213TIP3   OH237197   3.347   2.070   6.856
 5213TIP3    H137198   3.395   2.111   6.928
 5213TIP3    H237199   3.271   2.030   6.898
 5214TIP3   OH237200   0.161   6.511   7.370
 5214TIP3    H137201   0.091   6.519   7.435
 5214TIP3    H237202   0.182   6.602   7.347
 5215TIP3   OH237203   3.611   3.818   8.716
 5215TIP3    H137204   3.617   3.912   8.735
 5215TIP3    H237205   3.672   3.805   8.644
 5216TIP3   OH237206   5.884   2.004   6.495
 5216TIP3    H137207   5.931   1.942   6.439
 5216TIP3    H237208   5.953   2.059   6.532
 5217TIP3   OH237209   4.654   4.235   7.461
 5217TIP3    H137210   4.631   4.242   7.368
 5217TIP3    H237211   4.718   4.164   7.464
 5218TIP3   OH237212   3.337   0.379   2.065
 5218TIP3    H137213   3.410   0.339   2.112
 5218TIP3    H237214   3.357   0.365   1.972
 5219TIP3   OH237215   3.708   2.127   6.989
 5219TIP3    H137216   3.753   2.045   6.972
 5219TIP3    H237217   3.763   2.194   6.948
 5220TIP3   OH237218   4.133   1.191   1.850
 5220TIP3    H137219   4.131   1.123   1.917
 5220TIP3    H237220   4.100   1.269   1.894
 5221TIP3   OH237221   5.214   0.897   8.377
 5221TIP3    H137222   5.132   0.943   8.396
 5221TIP3    H237223   5.246   0.868   8.462
 5222TIP3   OH237224   3.303   2.893   2.175
 5222TIP3    H137225   3.339   2.980   2.156
 5222TIP3    H237226   3.255   2.905   2.257
 5223TIP3   OH237227   3.015   0.499   8.458
 5223TIP3    H137228   2.938   0.520   8.511
 5223TIP3    H237229   3.083   0.560   8.488
 5224TIP3   OH237230   2.123   5.471   6.983
 5224TIP3    H137231   2.126   5.518   6.899
 5224TIP3    H237232   2.175   5.392   6.968
 5225TIP3   OH237233   1.936   1.006   7.322
 5225TIP3    H137234   1.922   0.924   7.276
 5225TIP3    H237235   1.877   1.003   7.397
 5226TIP3   OH237236   0.108   4.693   1.527
 5226TIP3    H137237   0.172   4.755   1.562
 5226TIP3    H237238   0.036   4.748   1.497
 5227TIP3   OH237239   1.045   3.788   0.585
 5227TIP3    H137240   1.052   3.883   0.594
 5227TIP3    H237241   1.135   3.758   0.578
 5228TIP3   OH237242   6.224   5.825   8.460
 5228TIP3    H137243   6.290   5.773   8.505
 5228TIP3    H237244   6.271   5.904   8.433
 5229TIP3   OH237245   6.342   3.046   6.920
 5229TIP3    H137246   6.367   2.962   6.958
 5229TIP3    H237247   6.287   3.024   6.845
 5230TIP3   OH237248   6.340   4.062   7.185
 5230TIP3    H137249   6.340   3.969   7.205
 5230TIP3    H237250   6.368   4.104   7.268
 5231TIP3   OH237251   3.395   1.023   6.529
 5231TIP3    H137252   3.381   1.115   6.508
 5231TIP3    H237253   3.490   1.016   6.544
 5232TIP3   OH237254   5.319   2.739   7.837
 5232TIP3    H137255   5.325   2.746   7.932
 5232TIP3    H237256   5.312   2.645   7.820
 5233TIP3   OH237257   2.971   5.700   1.396
 5233TIP3    H137258   2.882   5.686   1.362
 5233TIP3    H237259   2.965   5.781   1.445
 5234TIP3   OH237260   0.146   5.769   6.746
 5234TIP3    H137261   0.090   5.714   6.691
 5234TIP3    H237262   0.205   5.706   6.788
 5235TIP3   OH237263   4.688   3.379   0.752
 5235TIP3    H137264   4.622   3.348   0.815
 5235TIP3    H237265   4.673   3.326   0.674
 5236TIP3   OH237266   5.414   3.229   7.269
 5236TIP3    H137267   5.423   3.227   7.364
 5236TIP3    H237268   5.321   3.249   7.254
 5237TIP3   OH237269   4.262   2.361   1.418
 5237TIP3    H137270   4.243   2.444   1.462
 5237TIP3    H237271   4.353   2.343   1.442
 5238TIP3   OH237272   0.978   1.949   0.958
 5238TIP3    H137273   1.001   1.862   0.992
 5238TIP3    H237274   0.902   1.976   1.010
 5239TIP3   OH237275   3.309   3.999   0.010
 5239TIP3    H137276   3.343   4.085   8.861
 5239TIP3    H237277   3.279   4.008   0.100
 5240TIP3   OH237278   3.130   5.149   8.568
 5240TIP3    H137279   3.190   5.207   8.521
 5240TIP3    H237280   3.085   5.207   8.629
 5241TIP3   OH237281   5.916   6.251   0.097
 5241TIP3    H137282   5.829   6.269   0.060
 5241TIP3    H237283   5.919   6.303   0.177
 5242TIP3   OH237284   0.712   6.185   0.417
 5242TIP3    H137285   0.690   6.211   0.328
 5242TIP3    H237286   0.633   6.205   0.468
 5243TIP3   OH237287   4.635   2.512   7.331
 5243TIP3    H137288   4.667   2.548   7.248
 5243TIP3    H237289   4.665   2.421   7.332
 5244TIP3   OH237290   0.101   5.148   1.830
 5244TIP3    H137291   0.073   5.056   1.833
 5244TIP3    H237292   0.022   5.198   1.851
 5245TIP3   OH237293   4.329   6.670   1.037
 5245TIP3    H137294   4.319   6.591   0.983
 5245TIP3    H237295   4.320   6.743   0.976
 5246TIP3   OH237296   5.182   4.590   0.358
 5246TIP3    H137297   5.087   4.593   0.375
 5246TIP3    H237298   5.199   4.498   0.337
 5247TIP3   OH237299   6.220   1.697   8.516
 5247TIP3    H137300   6.251   1.705   8.606
 5247TIP3    H237301   6.138   1.746   8.514
 5248TIP3   OH237302   0.221   5.327   0.137
 5248TIP3    H137303   0.242   5.276   0.059
 5248TIP3    H237304   0.172   5.402   0.104
 5249TIP3   OH237305   2.560   2.976   8.108
 5249TIP3    H137306   2.523   2.974   8.020
 5249TIP3    H237307   2.495   2.933   8.163
 5250TIP3   OH237308   6.200   0.490   2.502
 5250TIP3    H137309   6.223   0.452   2.417
 5250TIP3    H237310   6.274   0.467   2.559
 5251TIP3   OH237311   4.527   0.899   8.829
 5251TIP3    H137312   4.561   0.850   8.754
 5251TIP3    H237313   4.600   0.955   8.856
 5252TIP3   OH237314   1.894   3.465   1.923
 5252TIP3    H137315   1.934   3.433   1.842
 5252TIP3    H237316   1.817   3.410   1.935
 5253TIP3   OH237317   4.588   4.296   0.930
 5253TIP3    H137318   4.603   4.202   0.927
 5253TIP3    H237319   4.518   4.307   0.994
 5254TIP3   OH237320   1.734   3.400   7.520
 5254TIP3    H137321   1.743   3.313   7.480
 5254TIP3    H237322   1.726   3.460   7.447
 5255TIP3   OH237323   3.160   6.121   7.572
 5255TIP3    H137324   3.082   6.166   7.538
 5255TIP3    H237325   3.185   6.059   7.504
 5256TIP3   OH237326   5.952   5.675   1.290
 5256TIP3    H137327   5.881   5.666   1.226
 5256TIP3    H237328   5.982   5.765   1.280
 5257TIP3   OH237329   2.168   2.653   0.078
 5257TIP3    H137330   2.186   2.745   0.060
 5257TIP3    H237331   2.254   2.611   0.077
 5258TIP3   OH237332   1.967   3.310   1.696
 5258TIP3    H137333   2.008   3.224   1.705
 5258TIP3    H237334   1.915   3.303   1.616
 5259TIP3   OH237335   4.992   6.573   8.329
 5259TIP3    H137336   5.062   6.543   8.271
 5259TIP3    H237337   4.911   6.550   8.283
 5260TIP3   OH237338   0.849   6.000   7.166
 5260TIP3    H137339   0.788   5.929   7.149
 5260TIP3    H237340   0.912   5.996   7.094
 5261TIP3   OH237341   4.746   2.712   7.125
 5261TIP3    H137342   4.796   2.638   7.159
 5261TIP3    H237343   4.793   2.789   7.157
 5262TIP3   OH237344   5.468   0.232   7.989
 5262TIP3    H137345   5.543   0.240   7.930
 5262TIP3    H237346   5.502   0.260   8.074
 5263TIP3   OH237347   2.327   3.085   2.281
 5263TIP3    H137348   2.318   3.016   2.347
 5263TIP3    H237349   2.240   3.092   2.241
 5264TIP3   OH237350   3.552   2.076   6.676
 5264TIP3    H137351   3.620   2.011   6.659
 5264TIP3    H237352   3.495   2.035   6.741
 5265TIP3   OH237353   5.091   6.681   7.872
 5265TIP3    H137354   5.061   6.597   7.838
 5265TIP3    H237355   5.174   6.661   7.915
 5266TIP3   OH237356   3.036   1.334   0.960
 5266TIP3    H137357   3.037   1.328   0.865
 5266TIP3    H237358   3.035   1.428   0.978
 5267TIP3   OH237359   1.338   0.728   1.273
 5267TIP3    H137360   1.415   0.676   1.295
 5267TIP3    H237361   1.370   0.818   1.265
 5268TIP3   OH237362   4.391   3.972   8.157
 5268TIP3    H137363   4.373   3.966   8.251
 5268TIP3    H237364   4.480   3.938   8.148
 5269TIP3   OH237365   5.631   1.216   0.911
 5269TIP3    H137366   5.594   1.276   0.847
 5269TIP3    H237367   5.706   1.177   0.867
 5270TIP3   OH237368   3.772   0.120   7.816
 5270TIP3    H137369   3.798   0.211   7.836
 5270TIP3    H237370   3.853   0.070   7.829
 5271TIP3   OH237371   5.468   2.730   0.611
 5271TIP3    H137372   5.431   2.815   0.634
 5271TIP3    H237373   5.392   2.674   0.595
 5272TIP3   OH237374   3.973   3.154   8.224
 5272TIP3    H137375   3.992   3.227   8.283
 5272TIP3    H237376   3.966   3.195   8.137
 5273TIP3   OH237377   5.774   4.054   0.156
 5273TIP3    H137378   5.765   3.965   0.190
 5273TIP3    H237379   5.866   4.061   0.131
 5274TIP3   OH237380   2.889   1.559   7.278
 5274TIP3    H137381   2.923   1.609   7.352
 5274TIP3    H237382   2.802   1.531   7.305
 5275TIP3   OH237383   0.458   2.253   8.493
 5275TIP3    H137384   0.421   2.165   8.499
 5275TIP3    H237385   0.391   2.310   8.532
 5276TIP3   OH237386   5.214   0.076   0.507
 5276TIP3    H137387   5.126   0.066   0.469
 5276TIP3    H237388   5.270   0.098   0.432
 5277TIP3   OH237389   2.891   2.632   0.524
 5277TIP3    H137390   2.975   2.628   0.478
 5277TIP3    H237391   2.838   2.563   0.483
 5278TIP3   OH237392   3.802   2.442   2.727
 5278TIP3    H137393   3.870   2.498   2.690
 5278TIP3    H237394   3.805   2.460   2.821
 5279TIP3   OH237395   0.577   4.894   6.601
 5279TIP3    H137396   0.634   4.872   6.675
 5279TIP3    H237397   0.492   4.910   6.640
 5280TIP3   OH237398   1.403   0.997   1.272
 5280TIP3    H137399   1.455   1.030   1.345
 5280TIP3    H237400   1.429   1.051   1.198
 5281TIP3   OH237401   1.203   6.021   7.287
 5281TIP3    H137402   1.107   6.012   7.292
 5281TIP3    H237403   1.233   5.938   7.251
 5282TIP3   OH237404   2.216   4.327   7.843
 5282TIP3    H137405   2.247   4.331   7.933
 5282TIP3    H237406   2.296   4.318   7.790
 5283TIP3   OH237407   2.330   5.506   8.427
 5283TIP3    H137408   2.304   5.432   8.482
 5283TIP3    H237409   2.425   5.498   8.420
 5284TIP3   OH237410   3.009   4.112   1.671
 5284TIP3    H137411   2.958   4.166   1.732
 5284TIP3    H237412   2.946   4.086   1.604
 5285TIP3   OH237413   0.287   1.066   0.229
 5285TIP3    H137414   0.205   1.078   0.277
 5285TIP3    H237415   0.354   1.103   0.287
 5286TIP3   OH237416   5.235   0.225   0.755
 5286TIP3    H137417   5.226   0.231   0.660
 5286TIP3    H237418   5.157   0.177   0.784
 5287TIP3   OH237419   2.624   6.189   8.352
 5287TIP3    H137420   2.616   6.246   8.276
 5287TIP3    H237421   2.592   6.241   8.426
 5288TIP3   OH237422   1.181   6.751   8.654
 5288TIP3    H137423   1.151   6.775   8.741
 5288TIP3    H237424   1.245   0.023   8.632
 5289TIP3   OH237425   0.629   2.371   0.928
 5289TIP3    H137426   0.580   2.291   0.947
 5289TIP3    H237427   0.588   2.407   0.849
 5290TIP3   OH237428   6.084   2.008   8.625
 5290TIP3    H137429   6.017   1.945   8.651
 5290TIP3    H237430   6.071   2.020   8.531
 5291TIP3   OH237431   4.476   4.169   1.547
 5291TIP3    H137432   4.548   4.107   1.535
 5291TIP3    H237433   4.434   4.174   1.462
 5292TIP3   OH237434   2.771   0.998   1.731
 5292TIP3    H137435   2.813   1.080   1.705
 5292TIP3    H237436   2.751   1.009   1.824
 5293TIP3   OH237437   6.624   2.952   0.625
 5293TIP3    H137438   6.619   3.047   0.615
 5293TIP3    H237439   6.596   2.917   0.541
 5294TIP3   OH237440   5.021   4.434   1.402
 5294TIP3    H137441   5.053   4.357   1.356
 5294TIP3    H237442   5.095   4.495   1.403
 5295TIP3   OH237443   0.056   3.921   1.190
 5295TIP3    H137444   6.763   3.914   1.224
 5295TIP3    H237445   0.110   3.934   1.268
 5296TIP3   OH237446   3.974   6.342   6.980
 5296TIP3    H137447   4.020   6.348   7.064
 5296TIP3    H237448   3.951   6.250   6.971
 5297TIP3   OH237449   3.803   5.059   0.432
 5297TIP3    H137450   3.729   5.119   0.443
 5297TIP3    H237451   3.769   4.990   0.375
 5298TIP3   OH237452   4.800   2.118   1.089
 5298TIP3    H137453   4.764   2.029   1.083
 5298TIP3    H237454   4.750   2.168   1.025
 5299TIP3   OH237455   1.700   1.991   2.033
 5299TIP3    H137456   1.621   2.044   2.042
 5299TIP3    H237457   1.728   1.974   2.123
 5300TIP3   OH237458   5.562   4.681   1.558
 5300TIP3    H137459   5.545   4.775   1.559
 5300TIP3    H237460   5.567   4.657   1.651
 5301TIP3   OH237461   5.544   0.302   7.161
 5301TIP3    H137462   5.554   0.376   7.222
 5301TIP3    H237463   5.629   0.259   7.162
 5302TIP3   OH237464   5.935   2.475   7.129
 5302TIP3    H137465   5.981   2.419   7.066
 5302TIP3    H237466   5.919   2.418   7.204
 5303TIP3   OH237467   2.101   3.542   1.652
 5303TIP3    H137468   2.192   3.513   1.641
 5303TIP3    H237469   2.054   3.463   1.677
 5304TIP3   OH237470   4.959   0.025   0.420
 5304TIP3    H137471   4.875   0.019   0.374
 5304TIP3    H237472   4.964   6.740   0.471
 5305TIP3   OH237473   2.304   3.784   0.330
 5305TIP3    H137474   2.209   3.772   0.342
 5305TIP3    H237475   2.327   3.723   0.260
 5306TIP3   OH237476   3.006   2.318   1.887
 5306TIP3    H137477   2.911   2.315   1.880
 5306TIP3    H237478   3.035   2.228   1.871
 5307TIP3   OH237479   4.583   6.464   8.005
 5307TIP3    H137480   4.550   6.468   7.915
 5307TIP3    H237481   4.526   6.400   8.049
 5308TIP3   OH237482   5.519   0.198   1.482
 5308TIP3    H137483   5.495   0.285   1.514
 5308TIP3    H237484   5.486   0.195   1.392
 5309TIP3   OH237485   6.219   1.350   0.440
 5309TIP3    H137486   6.204   1.444   0.450
 5309TIP3    H237487   6.295   1.331   0.495
 5310TIP3   OH237488   3.701   6.548   0.570
 5310TIP3    H137489   3.687   6.467   0.522
 5310TIP3    H237490   3.721   6.613   0.502
 5311TIP3   OH237491   2.684   3.083   7.704
 5311TIP3    H137492   2.685   2.993   7.670
 5311TIP3    H237493   2.721   3.076   7.792
 5312TIP3   OH237494   3.440   4.147   6.984
 5312TIP3    H137495   3.379   4.133   6.912
 5312TIP3    H237496   3.394   4.204   7.045
 5313TIP3   OH237497   5.483   6.036   7.205
 5313TIP3    H137498   5.399   6.082   7.204
 5313TIP3    H237499   5.543   6.097   7.247
 5314TIP3   OH237500   6.236   6.266   0.433
 5314TIP3    H137501   6.294   6.331   0.473
 5314TIP3    H237502   6.250   6.276   0.339
 5315TIP3   OH237503   2.414   0.820   8.026
 5315TIP3    H137504   2.419   0.749   8.090
 5315TIP3    H237505   2.329   0.860   8.040
 5316TIP3   OH237506   5.068   5.808   6.942
 5316TIP3    H137507   5.161   5.816   6.963
 5316TIP3    H237508   5.040   5.727   6.985
 5317TIP3   OH237509   4.218   5.693   5.932
 5317TIP3    H137510   4.140   5.739   5.963
 5317TIP3    H237511   4.287   5.722   5.993
 5318TIP3   OH237512   4.728   5.551   8.190
 5318TIP3    H137513   4.754   5.538   8.281
 5318TIP3    H237514   4.634   5.537   8.189
 5319TIP3   OH237515   2.918   1.560   1.600
 5319TIP3    H137516   2.935   1.615   1.676
 5319TIP3    H237517   2.898   1.621   1.529
 5320TIP3   OH237518   1.262   1.851   7.686
 5320TIP3    H137519   1.265   1.774   7.630
 5320TIP3    H237520   1.190   1.833   7.747
 5321TIP3   OH237521   0.282   6.641   2.316
 5321TIP3    H137522   0.263   6.667   2.226
 5321TIP3    H237523   0.356   6.696   2.342
 5322TIP3   OH237524   3.200   3.893   7.829
 5322TIP3    H137525   3.200   3.941   7.746
 5322TIP3    H237526   3.110   3.862   7.838
 5323TIP3   OH237527   2.323   5.677   2.408
 5323TIP3    H137528   2.367   5.756   2.437
 5323TIP3    H237529   2.356   5.662   2.319
 5324TIP3   OH237530   5.556   4.929   7.218
 5324TIP3    H137531   5.610   5.001   7.184
 5324TIP3    H237532   5.488   4.917   7.152
 5325TIP3   OH237533   2.799   5.505   2.695
 5325TIP3    H137534   2.721   5.504   2.750
 5325TIP3    H237535   2.811   5.415   2.667
 5326TIP3   OH237536   4.267   2.236   1.739
 5326TIP3    H137537   4.286   2.289   1.817
 5326TIP3    H237538   4.187   2.188   1.762
 5327TIP3   OH237539   2.679   3.215   0.683
 5327TIP3    H137540   2.659   3.217   0.777
 5327TIP3    H237541   2.658   3.126   0.656
 5328TIP3   OH237542   1.753   0.144   7.885
 5328TIP3    H137543   1.831   0.191   7.858
 5328TIP3    H237544   1.773   0.052   7.869
 5329TIP3   OH237545   0.946   4.119   1.067
 5329TIP3    H137546   0.896   4.063   1.007
 5329TIP3    H237547   0.936   4.078   1.152
 5330TIP3   OH237548   2.608   0.725   8.838
 5330TIP3    H137549   2.524   0.683   8.859
 5330TIP3    H237550   2.657   0.724   0.046
 5331TIP3   OH237551   3.336   4.289   0.049
 5331TIP3    H137552   3.423   4.329   0.046
 5331TIP3    H237553   3.287   4.333   8.854
 5332TIP3   OH237554   5.917   0.645   0.897
 5332TIP3    H137555   5.969   0.620   0.821
 5332TIP3    H237556   5.911   0.740   0.891
 5333TIP3   OH237557   0.549   3.100   6.042
 5333TIP3    H137558   0.577   3.098   6.134
 5333TIP3    H237559   0.630   3.117   5.993
 5334TIP3   OH237560   5.623   0.259   1.171
 5334TIP3    H137561   5.595   0.347   1.143
 5334TIP3    H237562   5.542   0.208   1.173
 5335TIP3   OH237563   3.633   2.787   0.772
 5335TIP3    H137564   3.599   2.759   0.857
 5335TIP3    H237565   3.578   2.742   0.708
 5336TIP3   OH237566   3.071   6.237   1.298
 5336TIP3    H137567   3.002   6.291   1.334
 5336TIP3    H237568   3.130   6.221   1.372
 5337TIP3   OH237569   2.195   3.261   7.299
 5337TIP3    H137570   2.203   3.348   7.337
 5337TIP3    H237571   2.283   3.240   7.269
 5338TIP3   OH237572   2.581   1.907   7.561
 5338TIP3    H137573   2.551   1.835   7.616
 5338TIP3    H237574   2.506   1.966   7.553
 5339TIP3   OH237575   6.647   2.060   0.866
 5339TIP3    H137576   6.591   2.095   0.797
 5339TIP3    H237577   6.687   2.138   0.906
 5340TIP3   OH237578   2.308   3.602   0.126
 5340TIP3    H137579   2.367   3.532   0.098
 5340TIP3    H237580   2.232   3.556   0.162
 5341TIP3   OH237581   3.763   3.066   8.776
 5341TIP3    H137582   3.748   3.155   8.807
 5341TIP3    H237583   3.717   3.010   8.839
 5342TIP3   OH237584   1.620   0.011   6.575
 5342TIP3    H137585   1.534   6.768   6.560
 5342TIP3    H237586   1.652   6.764   6.654
 5343TIP3   OH237587   6.165   1.905   2.376
 5343TIP3    H137588   6.182   1.994   2.345
 5343TIP3    H237589   6.251   1.875   2.407
 5344TIP3   OH237590   0.191   1.734   8.693
 5344TIP3    H137591   0.165   1.643   8.709
 5344TIP3    H237592   0.286   1.731   8.681
 5345TIP3   OH237593   3.270   6.536   1.379
 5345TIP3    H137594   3.292   6.444   1.389
 5345TIP3    H237595   3.353   6.582   1.394
 5346TIP3   OH237596   5.586   6.666   2.111
 5346TIP3    H137597   5.556   6.748   2.151
 5346TIP3    H237598   5.507   6.627   2.074
 5347TIP3   OH237599   1.721   3.899   7.899
 5347TIP3    H137600   1.814   3.902   7.922
 5347TIP3    H237601   1.684   3.833   7.957
 5348TIP3   OH237602   4.519   3.225   0.904
 5348TIP3    H137603   4.508   3.134   0.877
 5348TIP3    H237604   4.449   3.239   0.968
 5349TIP3   OH237605   1.442   1.367   0.302
 5349TIP3    H137606   1.377   1.437   0.303
 5349TIP3    H237607   1.519   1.405   0.259
 5350TIP3   OH237608   6.063   4.400   1.376
 5350TIP3    H137609   6.054   4.323   1.431
 5350TIP3    H237610   6.153   4.396   1.344
 5351TIP3   OH237611   4.622   1.568   8.250
 5351TIP3    H137612   4.575   1.555   8.167
 5351TIP3    H237613   4.687   1.635   8.230
 5352TIP3   OH237614   0.179   1.097   7.989
 5352TIP3    H137615   0.187   1.041   7.911
 5352TIP3    H237616   0.230   1.175   7.968
 5353TIP3   OH237617   2.488   1.694   7.763
 5353TIP3    H137618   2.518   1.641   7.838
 5353TIP3    H237619   2.393   1.685   7.764
 5354TIP3   OH237620   0.762   2.962   8.071
 5354TIP3    H137621   0.789   2.888   8.126
 5354TIP3    H237622   0.799   2.942   7.985
 5355TIP3   OH237623   0.299   4.980   0.355
 5355TIP3    H137624   0.299   4.996   0.450
 5355TIP3    H237625   0.210   4.952   0.336
 5356TIP3   OH237626   6.596   5.413   8.611
 5356TIP3    H137627   6.640   5.341   8.656
 5356TIP3    H237628   6.505   5.409   8.643
 5357TIP3   OH237629   0.609   0.940   2.152
 5357TIP3    H137630   0.643   0.925   2.240
 5357TIP3    H237631   0.520   0.904   2.154
 5358TIP3   OH237632   1.823   4.947   7.352
 5358TIP3    H137633   1.771   4.919   7.276
 5358TIP3    H237634   1.787   4.897   7.425
 5359TIP3   OH237635   2.927   0.228   8.791
 5359TIP3    H137636   2.851   0.175   8.816
 5359TIP3    H237637   2.959   0.188   8.710
 5360TIP3   OH237638   3.576   6.239   8.820
 5360TIP3    H137639   3.550   6.330   8.830
 5360TIP3    H237640   3.497   6.195   8.789
 5361TIP3   OH237641   2.250   4.764   2.015
 5361TIP3    H137642   2.319   4.775   2.081
 5361TIP3    H237643   2.169   4.757   2.066
 5362TIP3   OH237644   1.913   5.083   0.571
 5362TIP3    H137645   1.926   5.166   0.617
 5362TIP3    H237646   1.894   5.020   0.640
 5363TIP3   OH237647   5.068   1.366   8.068
 5363TIP3    H137648   5.103   1.293   8.118
 5363TIP3    H237649   5.041   1.430   8.134
 5364TIP3   OH237650   5.332   1.763   0.035
 5364TIP3    H137651   5.395   1.834   0.043
 5364TIP3    H237652   5.325   1.726   0.123
 5365TIP3   OH237653   4.207   5.506   7.086
 5365TIP3    H137654   4.182   5.551   7.167
 5365TIP3    H237655   4.288   5.460   7.108
 5366TIP3   OH237656   5.521   2.075   1.289
 5366TIP3    H137657   5.438   2.045   1.327
 5366TIP3    H237658   5.570   2.110   1.364
 5367TIP3   OH237659   0.695   1.546   8.548
 5367TIP3    H137660   0.638   1.527   8.474
 5367TIP3    H237661   0.752   1.616   8.517
 5368TIP3   OH237662   3.736   4.469   1.081
 5368TIP3    H137663   3.828   4.463   1.108
 5368TIP3    H237664   3.686   4.456   1.161
 5369TIP3   OH237665   5.522   0.803   1.298
 5369TIP3    H137666   5.452   0.738   1.297
 5369TIP3    H237667   5.524   0.837   1.209
 5370TIP3   OH237668   5.407   2.203   8.214
 5370TIP3    H137669   5.420   2.237   8.303
 5370TIP3    H237670   5.458   2.122   8.212
 5371TIP3   OH237671   6.247   3.664   1.447
 5371TIP3    H137672   6.202   3.607   1.509
 5371TIP3    H237673   6.333   3.623   1.435
 5372TIP3   OH237674   6.448   0.440   0.164
 5372TIP3    H137675   6.399   0.377   0.216
 5372TIP3    H237676   6.449   0.520   0.217
 5373TIP3   OH237677   2.364   0.877   8.859
 5373TIP3    H137678   2.429   0.850   8.794
 5373TIP3    H237679   2.334   0.795   0.025
 5374TIP3   OH237680   0.109   6.101   7.423
 5374TIP3    H137681   0.105   6.129   7.331
 5374TIP3    H237682   0.017   6.095   7.450
 5375TIP3   OH237683   6.490   3.053   1.703
 5375TIP3    H137684   6.526   3.092   1.782
 5375TIP3    H237685   6.563   3.003   1.665
 5376TIP3   OH237686   1.571   6.715   0.987
 5376TIP3    H137687   1.615   6.635   1.016
 5376TIP3    H237688   1.531   6.750   1.067
 5377TIP3   OH237689   1.073   6.655   0.506
 5377TIP3    H137690   1.108   6.743   0.488
 5377TIP3    H237691   1.109   6.600   0.437
 5378TIP3   OH237692   0.492   0.039   2.341
 5378TIP3    H137693   0.450   0.082   2.266
 5378TIP3    H237694   0.457   0.085   2.417
 5379TIP3   OH237695   3.694   4.242   2.321
 5379TIP3    H137696   3.730   4.318   2.274
 5379TIP3    H237697   3.603   4.236   2.291
 5380TIP3   OH237698   3.776   1.053   0.808
 5380TIP3    H137699   3.696   1.006   0.831
 5380TIP3    H237700   3.769   1.137   0.854
 5381TIP3   OH237701   2.439   2.346   8.387
 5381TIP3    H137702   2.513   2.333   8.327
 5381TIP3    H237703   2.433   2.264   8.436
 5382TIP3   OH237704   0.868   3.669   7.073
 5382TIP3    H137705   0.846   3.755   7.036
 5382TIP3    H237706   0.868   3.610   6.997
 5383TIP3   OH237707   3.274   3.493   6.676
 5383TIP3    H137708   3.210   3.485   6.746
 5383TIP3    H237709   3.279   3.406   6.637
 5384TIP3   OH237710   4.924   3.314   8.408
 5384TIP3    H137711   4.899   3.225   8.433
 5384TIP3    H237712   4.841   3.361   8.401
 5385TIP3   OH237713   0.541   6.200   1.169
 5385TIP3    H137714   0.617   6.190   1.225
 5385TIP3    H237715   0.468   6.167   1.221
 5386TIP3   OH237716   1.480   4.394   1.211
 5386TIP3    H137717   1.414   4.463   1.223
 5386TIP3    H237718   1.562   4.441   1.197
 5387TIP3   OH237719   6.781   2.565   1.627
 5387TIP3    H137720   0.057   2.556   1.690
 5387TIP3    H237721   0.015   2.631   1.565
 5388TIP3   OH237722   0.087   4.758   7.790
 5388TIP3    H137723   0.000   4.727   7.817
 5388TIP3    H237724   0.101   4.717   7.704
 5389TIP3   OH237725   2.775   1.174   1.070
 5389TIP3    H137726   2.778   1.202   0.978
 5389TIP3    H237727   2.686   1.195   1.098
 5390TIP3   OH237728   4.374   1.188   7.975
 5390TIP3    H137729   4.330   1.135   7.908
 5390TIP3    H237730   4.337   1.276   7.964
 5391TIP3   OH237731   0.217   2.253   2.113
 5391TIP3    H137732   0.209   2.266   2.018
 5391TIP3    H237733   0.304   2.285   2.134
 5392TIP3   OH237734   6.003   4.584   1.574
 5392TIP3    H137735   5.942   4.562   1.644
 5392TIP3    H237736   5.979   4.526   1.502
 5393TIP3   OH237737   3.204   1.084   1.674
 5393TIP3    H137738   3.171   1.173   1.660
 5393TIP3    H237739   3.230   1.082   1.766
 5394TIP3   OH237740   1.992   0.783   7.789
 5394TIP3    H137741   1.967   0.736   7.710
 5394TIP3    H237742   2.058   0.728   7.830
 5395TIP3   OH237743   4.851   3.359   7.976
 5395TIP3    H137744   4.815   3.285   8.025
 5395TIP3    H237745   4.856   3.328   7.885
 5396TIP3   OH237746   2.757   2.023   0.607
 5396TIP3    H137747   2.846   1.993   0.626
 5396TIP3    H237748   2.757   2.116   0.628
 5397TIP3   OH237749   4.122   4.406   7.305
 5397TIP3    H137750   4.200   4.448   7.267
 5397TIP3    H237751   4.113   4.324   7.256
 5398TIP3   OH237752   5.552   1.993   1.889
 5398TIP3    H137753   5.487   1.928   1.864
 5398TIP3    H237754   5.588   1.961   1.971
 5399TIP3   OH237755   5.826   1.987   0.232
 5399TIP3    H137756   5.822   2.021   0.142
 5399TIP3    H237757   5.745   2.018   0.273
 5400TIP3   OH237758   5.159   5.223   2.167
 5400TIP3    H137759   5.200   5.307   2.189
 5400TIP3    H237760   5.201   5.160   2.226
 5401TIP3   OH237761   4.664   1.980   0.329
 5401TIP3    H137762   4.623   2.007   0.412
 5401TIP3    H237763   4.590   1.956   0.273
 5402TIP3   OH237764   4.621   5.550   1.516
 5402TIP3    H137765   4.594   5.626   1.568
 5402TIP3    H237766   4.577   5.476   1.557
 5403TIP3   OH237767   4.740   3.205   8.183
 5403TIP3    H137768   4.697   3.286   8.210
 5403TIP3    H237769   4.685   3.135   8.217
 5404TIP3   OH237770   1.287   4.034   6.555
 5404TIP3    H137771   1.312   4.035   6.463
 5404TIP3    H237772   1.245   3.949   6.568
 5405TIP3   OH237773   3.982   4.510   1.738
 5405TIP3    H137774   3.899   4.474   1.706
 5405TIP3    H237775   4.048   4.471   1.680
 5406TIP3   OH237776   1.765   6.658   7.944
 5406TIP3    H137777   1.724   6.646   8.030
 5406TIP3    H237778   1.840   6.598   7.945
 5407TIP3   OH237779   5.618   1.595   8.213
 5407TIP3    H137780   5.585   1.653   8.144
 5407TIP3    H237781   5.598   1.641   8.294
 5408TIP3   OH237782   2.333   0.648   1.309
 5408TIP3    H137783   2.338   0.637   1.214
 5408TIP3    H237784   2.246   0.685   1.325
 5409TIP3   OH237785   3.677   4.784   8.151
 5409TIP3    H137786   3.666   4.750   8.240
 5409TIP3    H237787   3.705   4.874   8.164
 5410TIP3   OH237788   5.872   3.911   1.264
 5410TIP3    H137789   5.812   3.863   1.321
 5410TIP3    H237790   5.859   4.003   1.288
 5411TIP3   OH237791   2.737   5.012   7.509
 5411TIP3    H137792   2.713   4.922   7.489
 5411TIP3    H237793   2.758   5.011   7.603
 5412TIP3   OH237794   3.721   2.437   1.697
 5412TIP3    H137795   3.660   2.497   1.653
 5412TIP3    H237796   3.701   2.446   1.790
 5413TIP3   OH237797   5.666   3.175   7.852
 5413TIP3    H137798   5.673   3.258   7.805
 5413TIP3    H237799   5.572   3.164   7.866
 5414TIP3   OH237800   3.687   0.313   1.525
 5414TIP3    H137801   3.679   0.404   1.495
 5414TIP3    H237802   3.774   0.286   1.496
 5415TIP3   OH237803   4.949   4.691   8.689
 5415TIP3    H137804   4.878   4.741   8.649
 5415TIP3    H237805   5.024   4.750   8.686
 5416TIP3   OH237806   0.057   5.978   2.491
 5416TIP3    H137807   0.029   6.069   2.492
 5416TIP3    H237808   0.105   5.969   2.408
 5417TIP3   OH237809   5.173   3.238   8.558
 5417TIP3    H137810   5.182   3.278   8.644
 5417TIP3    H237811   5.217   3.298   8.498
 5418TIP3   OH237812   3.414   6.327   1.658
 5418TIP3    H137813   3.379   6.414   1.676
 5418TIP3    H237814   3.387   6.275   1.734
 5419TIP3   OH237815   2.968   4.597   1.072
 5419TIP3    H137816   3.005   4.621   1.157
 5419TIP3    H237817   3.035   4.542   1.032
 5420TIP3   OH237818   2.933   0.651   7.330
 5420TIP3    H137819   2.994   0.696   7.388
 5420TIP3    H237820   2.866   0.716   7.311
 5421TIP3   OH237821   0.265   0.078   0.007
 5421TIP3    H137822   0.253   0.161   0.054
 5421TIP3    H237823   0.179   0.036   0.011
 5422TIP3   OH237824   1.446   5.001   1.225
 5422TIP3    H137825   1.507   5.068   1.194
 5422TIP3    H237826   1.405   4.967   1.145
 5423TIP3   OH237827   4.572   5.430   1.273
 5423TIP3    H137828   4.596   5.470   1.357
 5423TIP3    H237829   4.548   5.504   1.217
 5424TIP3   OH237830   2.027   0.961   1.127
 5424TIP3    H137831   2.013   0.985   1.035
 5424TIP3    H237832   1.991   1.034   1.177
 5425TIP3   OH237833   1.259   5.265   1.962
 5425TIP3    H137834   1.220   5.353   1.962
 5425TIP3    H237835   1.234   5.228   1.877
 5426TIP3   OH237836   2.029   0.285   0.809
 5426TIP3    H137837   2.004   0.356   0.868
 5426TIP3    H237838   2.021   0.206   0.863
 5427TIP3   OH237839   1.604   1.119   2.150
 5427TIP3    H137840   1.587   1.036   2.195
 5427TIP3    H237841   1.518   1.158   2.140
 5428TIP3   OH237842   1.080   4.966   0.140
 5428TIP3    H137843   1.138   4.906   0.187
 5428TIP3    H237844   1.138   5.028   0.097
 5429TIP3   OH237845   2.425   2.051   0.201
 5429TIP3    H137846   2.430   2.021   0.291
 5429TIP3    H237847   2.346   2.105   0.197
 5430TIP3   OH237848   2.580   1.287   7.505
 5430TIP3    H137849   2.599   1.220   7.570
 5430TIP3    H237850   2.658   1.341   7.503
 5431TIP3   OH237851   4.758   6.044   7.960
 5431TIP3    H137852   4.720   5.956   7.968
 5431TIP3    H237853   4.691   6.095   7.914
 5432TIP3   OH237854   6.793   5.817   8.744
 5432TIP3    H137855   0.078   5.857   8.777
 5432TIP3    H237856   6.734   5.819   8.819
 5433TIP3   OH237857   4.143   3.330   0.852
 5433TIP3    H137858   4.213   3.286   0.804
 5433TIP3    H237859   4.145   3.421   0.820
 5434TIP3   OH237860   5.950   3.892   0.334
 5434TIP3    H137861   6.018   3.910   0.270
 5434TIP3    H237862   5.989   3.828   0.393
 5435TIP3   OH237863   4.811   3.548   6.749
 5435TIP3    H137864   4.743   3.552   6.816
 5435TIP3    H237865   4.762   3.546   6.666
 5436TIP3   OH237866   6.303   1.777   7.506
 5436TIP3    H137867   6.265   1.706   7.559
 5436TIP3    H237868   6.390   1.790   7.543
 5437TIP3   OH237869   3.021   5.502   2.515
 5437TIP3    H137870   3.061   5.415   2.514
 5437TIP3    H237871   2.967   5.502   2.594
 5438TIP3   OH237872   3.830   0.683   8.048
 5438TIP3    H137873   3.872   0.616   8.102
 5438TIP3    H237874   3.871   0.674   7.962
 5439TIP3   OH237875   3.963   6.214   1.072
 5439TIP3    H137876   3.883   6.182   1.031
 5439TIP3    H237877   3.933   6.259   1.151
 5440TIP3   OH237878   2.851   6.630   1.026
 5440TIP3    H137879   2.926   6.588   1.068
 5440TIP3    H237880   2.815   6.563   0.968
 5441TIP3   OH237881   2.830   6.201   7.025
 5441TIP3    H137882   2.871   6.286   7.042
 5441TIP3    H237883   2.782   6.181   7.104
 5442TIP3   OH237884   1.172   0.558   7.486
 5442TIP3    H137885   1.164   0.517   7.400
 5442TIP3    H237886   1.159   0.486   7.548
 5443TIP3   OH237887   3.707   5.762   6.938
 5443TIP3    H137888   3.617   5.729   6.940
 5443TIP3    H237889   3.711   5.818   6.861
 5444TIP3   OH237890   4.972   4.779   8.407
 5444TIP3    H137891   4.968   4.683   8.404
 5444TIP3    H237892   4.954   4.806   8.317
 5445TIP3   OH237893   4.387   0.063   0.507
 5445TIP3    H137894   4.451   0.033   0.571
 5445TIP3    H237895   4.307   0.015   0.529
 5446TIP3   OH237896   0.514   3.336   7.248
 5446TIP3    H137897   0.528   3.402   7.316
 5446TIP3    H237898   0.442   3.282   7.281
 5447TIP3   OH237899   6.429   4.639   7.930
 5447TIP3    H137900   6.479   4.718   7.911
 5447TIP3    H237901   6.377   4.661   8.007
 5448TIP3   OH237902   4.462   4.251   0.524
 5448TIP3    H137903   4.501   4.327   0.482
 5448TIP3    H237904   4.478   4.179   0.463
 5449TIP3   OH237905   2.653   1.428   0.651
 5449TIP3    H137906   2.587   1.494   0.628
 5449TIP3    H237907   2.728   1.450   0.596
 5450TIP3   OH237908   3.576   4.969   7.059
 5450TIP3    H137909   3.627   5.047   7.038
 5450TIP3    H237910   3.539   4.941   6.975
 5451TIP3   OH237911   0.130   4.891   0.666
 5451TIP3    H137912   0.071   4.928   0.601
 5451TIP3    H237913   0.114   4.796   0.661
 5452TIP3   OH237914   6.163   6.020   0.878
 5452TIP3    H137915   6.169   5.952   0.945
 5452TIP3    H237916   6.238   6.077   0.895
 5453TIP3   OH237917   0.894   3.166   8.367
 5453TIP3    H137918   0.920   3.157   8.458
 5453TIP3    H237919   0.955   3.110   8.319
 5454TIP3   OH237920   5.449   2.996   0.735
 5454TIP3    H137921   5.471   3.040   0.818
 5454TIP3    H237922   5.493   3.048   0.668
 5455TIP3   OH237923   5.891   1.794   8.670
 5455TIP3    H137924   5.841   1.736   8.726
 5455TIP3    H237925   5.845   1.878   8.675
 5456TIP3   OH237926   3.401   1.466   8.741
 5456TIP3    H137927   3.399   1.371   8.729
 5456TIP3    H237928   3.483   1.493   8.698
 5457TIP3   OH237929   4.013   6.775   7.837
 5457TIP3    H137930   4.065   0.053   7.808
 5457TIP3    H237931   3.988   6.796   7.927
 5458TIP3   OH237932   5.704   5.581   1.979
 5458TIP3    H137933   5.720   5.577   1.884
 5458TIP3    H237934   5.618   5.622   1.987
 5459TIP3   OH237935   1.493   1.771   7.166
 5459TIP3    H137936   1.438   1.740   7.094
 5459TIP3    H237937   1.452   1.852   7.195
 5460TIP3   OH237938   4.191   1.498   2.806
 5460TIP3    H137939   4.133   1.565   2.771
 5460TIP3    H237940   4.176   1.422   2.750
 5461TIP3   OH237941   3.068   1.317   1.579
 5461TIP3    H137942   3.011   1.393   1.565
 5461TIP3    H237943   3.018   1.242   1.547
 5462TIP3   OH237944   6.338   6.431   2.094
 5462TIP3    H137945   6.433   6.428   2.080
 5462TIP3    H237946   6.328   6.470   2.181
 5463TIP3   OH237947   5.143   4.345   0.573
 5463TIP3    H137948   5.226   4.388   0.595
 5463TIP3    H237949   5.078   4.392   0.625
 5464TIP3   OH237950   1.477   3.703   6.749
 5464TIP3    H137951   1.440   3.764   6.813
 5464TIP3    H237952   1.431   3.723   6.667
 5465TIP3   OH237953   6.452   2.336   8.579
 5465TIP3    H137954   6.456   2.244   8.551
 5465TIP3    H237955   6.364   2.364   8.554
 5466TIP3   OH237956   1.431   1.855   8.732
 5466TIP3    H137957   1.386   1.934   8.705
 5466TIP3    H237958   1.453   1.810   8.650
 5467TIP3   OH237959   5.097   1.770   0.624
 5467TIP3    H137960   5.186   1.786   0.655
 5467TIP3    H237961   5.105   1.766   0.529
 5468TIP3   OH237962   1.809   1.752   0.691
 5468TIP3    H137963   1.871   1.794   0.631
 5468TIP3    H237964   1.728   1.802   0.681
 5469TIP3   OH237965   1.819   6.424   0.971
 5469TIP3    H137966   1.724   6.426   0.980
 5469TIP3    H237967   1.852   6.467   1.050
 5470TIP3   OH237968   4.979   4.300   0.352
 5470TIP3    H137969   5.037   4.340   0.416
 5470TIP3    H237970   4.940   4.225   0.397
 5471TIP3   OH237971   1.104   3.942   7.756
 5471TIP3    H137972   1.068   3.889   7.826
 5471TIP3    H237973   1.027   3.977   7.710
 5472TIP3   OH237974   1.561   5.873   8.320
 5472TIP3    H137975   1.548   5.816   8.245
 5472TIP3    H237976   1.637   5.927   8.298
 5473TIP3   OH237977   5.597   5.831   2.287
 5473TIP3    H137978   5.637   5.744   2.275
 5473TIP3    H237979   5.543   5.843   2.209
 5474TIP3   OH237980   6.468   2.583   7.532
 5474TIP3    H137981   6.455   2.488   7.529
 5474TIP3    H237982   6.491   2.607   7.443
 5475TIP3   OH237983   0.052   5.563   0.396
 5475TIP3    H137984   0.143   5.578   0.370
 5475TIP3    H237985   0.039   5.469   0.386
 5476TIP3   OH237986   5.455   1.058   0.649
 5476TIP3    H137987   5.414   0.978   0.615
 5476TIP3    H237988   5.505   1.028   0.725
 5477TIP3   OH237989   2.373   4.859   8.787
 5477TIP3    H137990   2.367   4.844   0.007
 5477TIP3    H237991   2.283   4.863   8.757
 5478TIP3   OH237992   1.166   5.674   6.614
 5478TIP3    H137993   1.086   5.627   6.590
 5478TIP3    H237994   1.220   5.608   6.659
 5479TIP3   OH237995   0.553   1.460   8.340
 5479TIP3    H137996   0.485   1.442   8.405
 5479TIP3    H237997   0.506   1.464   8.256
 5480TIP3   OH237998   6.653   0.907   8.165
 5480TIP3    H137999   6.599   0.985   8.180
 5480TIP3    H238000   6.602   0.856   8.101
 5481TIP3   OH238001   6.541   6.466   8.413
 5481TIP3    H138002   6.618   6.415   8.385
 5481TIP3    H238003   6.575   6.555   8.425
 5482TIP3   OH238004   3.565   3.512   8.677
 5482TIP3    H138005   3.659   3.516   8.664
 5482TIP3    H238006   3.538   3.604   8.687
 5483TIP3   OH238007   6.759   4.818   2.132
 5483TIP3    H138008   6.756   4.910   2.161
 5483TIP3    H238009   6.680   4.779   2.170
 5484TIP3   OH238010   5.368   4.325   8.599
 5484TIP3    H138011   5.319   4.273   8.663
 5484TIP3    H238012   5.303   4.385   8.563
 5485TIP3   OH238013   0.267   1.466   8.732
 5485TIP3    H138014   0.203   1.408   8.772
 5485TIP3    H238015   0.334   1.478   8.799
 5486TIP3   OH238016   3.986   6.796   0.961
 5486TIP3    H138017   4.003   6.705   0.937
 5486TIP3    H238018   3.890   0.007   0.961
 5487TIP3   OH238019   4.858   3.422   7.155
 5487TIP3    H138020   4.835   3.514   7.144
 5487TIP3    H238021   4.840   3.382   7.070
 5488TIP3   OH238022   1.553   5.460   1.082
 5488TIP3    H138023   1.472   5.412   1.097
 5488TIP3    H238024   1.566   5.457   0.987
 5489TIP3   OH238025   1.797   1.678   7.639
 5489TIP3    H138026   1.812   1.669   7.733
 5489TIP3    H238027   1.709   1.641   7.625
 5490TIP3   OH238028   4.124   1.926   1.545
 5490TIP3    H138029   4.212   1.906   1.513
 5490TIP3    H238030   4.077   1.843   1.542
 5491TIP3   OH238031   0.416   4.898   7.162
 5491TIP3    H138032   0.461   4.878   7.079
 5491TIP3    H238033   0.343   4.836   7.165
 5492TIP3   OH238034   3.549   2.985   1.098
 5492TIP3    H138035   3.571   3.049   1.030
 5492TIP3    H238036   3.453   2.981   1.096
 5493TIP3   OH238037   5.236   1.232   8.380
 5493TIP3    H138038   5.183   1.298   8.426
 5493TIP3    H238039   5.172   1.177   8.336
 5494TIP3   OH238040   5.156   2.894   8.863
 5494TIP3    H138041   5.181   2.987   8.863
 5494TIP3    H238042   5.239   2.848   8.848
 5495TIP3   OH238043   5.094   2.325   6.738
 5495TIP3    H138044   5.033   2.398   6.727
 5495TIP3    H238045   5.045   2.259   6.786
 5496TIP3   OH238046   3.017   5.174   0.073
 5496TIP3    H138047   2.988   5.243   0.012
 5496TIP3    H238048   2.952   5.104   0.062
 5497TIP3   OH238049   4.657   2.848   8.043
 5497TIP3    H138050   4.619   2.793   7.974
 5497TIP3    H238051   4.688   2.926   7.997
 5498TIP3   OH238052   6.255   2.317   7.787
 5498TIP3    H138053   6.346   2.304   7.817
 5498TIP3    H238054   6.249   2.412   7.772
 5499TIP3   OH238055   4.489   6.652   7.014
 5499TIP3    H138056   4.549   6.579   7.027
 5499TIP3    H238057   4.459   6.643   6.923
 5500TIP3   OH238058   3.978   1.953   2.801
 5500TIP3    H138059   4.052   2.011   2.786
 5500TIP3    H238060   3.902   2.003   2.773
 5501TIP3   OH238061   0.858   6.636   0.675
 5501TIP3    H138062   0.837   6.545   0.655
 5501TIP3    H238063   0.923   6.660   0.609
 5502TIP3   OH238064   5.223   6.371   7.365
 5502TIP3    H138065   5.224   6.443   7.428
 5502TIP3    H238066   5.206   6.414   7.280
 5503TIP3   OH238067   4.345   6.761   1.796
 5503TIP3    H138068   4.299   6.694   1.847
 5503TIP3    H238069   4.343   6.727   1.706
 5504TIP3   OH238070   2.580   3.351   8.365
 5504TIP3    H138071   2.638   3.420   8.334
 5504TIP3    H238072   2.494   3.375   8.330
 5505TIP3   OH238073   2.396   0.580   6.918
 5505TIP3    H138074   2.377   0.580   7.012
 5505TIP3    H238075   2.464   0.647   6.908
 5506TIP3   OH238076   6.771   4.202   7.006
 5506TIP3    H138077   6.781   4.289   6.969
 5506TIP3    H238078   0.064   4.168   7.012
 5507TIP3   OH238079   1.570   4.066   7.730
 5507TIP3    H138080   1.616   4.001   7.784
 5507TIP3    H238081   1.481   4.068   7.767
 5508TIP3   OH238082   3.076   1.806   8.756
 5508TIP3    H138083   3.147   1.773   8.812
 5508TIP3    H238084   2.996   1.779   8.802
 5509TIP3   OH238085   1.000   2.051   8.418
 5509TIP3    H138086   0.906   2.067   8.405
 5509TIP3    H238087   1.031   2.129   8.464
 5510TIP3   OH238088   2.478   5.470   2.766
 5510TIP3    H138089   2.469   5.395   2.825
 5510TIP3    H238090   2.503   5.543   2.823
 5511TIP3   OH238091   1.689   5.767   2.457
 5511TIP3    H138092   1.773   5.733   2.487
 5511TIP3    H238093   1.679   5.850   2.503
 5512TIP3   OH238094   4.111   3.480   0.099
 5512TIP3    H138095   4.064   3.509   0.177
 5512TIP3    H238096   4.085   3.388   0.088
 5513TIP3   OH238097   3.896   4.210   1.963
 5513TIP3    H138098   3.969   4.209   2.025
 5513TIP3    H238099   3.832   4.150   2.001
 5514TIP3   OH238100   2.812   1.609   7.935
 5514TIP3    H138101   2.722   1.634   7.959
 5514TIP3    H238102   2.820   1.518   7.966
 5515TIP3   OH238103   1.490   6.503   0.279
 5515TIP3    H138104   1.531   6.417   0.280
 5515TIP3    H238105   1.563   6.564   0.264
 5516TIP3   OH238106   2.374   2.448   0.503
 5516TIP3    H138107   2.455   2.438   0.453
 5516TIP3    H238108   2.308   2.402   0.451
 5517TIP3   OH238109   5.577   4.960   1.637
 5517TIP3    H138110   5.570   5.050   1.606
 5517TIP3    H238111   5.525   4.958   1.718
 5518TIP3   OH238112   4.701   6.479   0.185
 5518TIP3    H138113   4.768   6.437   0.240
 5518TIP3    H238114   4.669   6.552   0.237
 5519TIP3   OH238115   2.874   3.910   0.446
 5519TIP3    H138116   2.861   3.823   0.408
 5519TIP3    H238117   2.854   3.900   0.539
 5520TIP3   OH238118   4.788   3.223   0.238
 5520TIP3    H138119   4.713   3.168   0.214
 5520TIP3    H238120   4.863   3.182   0.195
 5521TIP3   OH238121   4.222   2.588   0.082
 5521TIP3    H138122   4.143   2.536   0.092
 5521TIP3    H238123   4.197   2.676   0.110
 5522TIP3   OH238124   0.591   6.017   0.106
 5522TIP3    H138125   0.607   6.111   0.099
 5522TIP3    H238126   0.653   5.986   0.171
 5523TIP3   OH238127   1.612   5.342   1.945
 5523TIP3    H138128   1.522   5.328   1.972
 5523TIP3    H238129   1.618   5.301   1.858
 5524TIP3   OH238130   4.593   5.463   0.720
 5524TIP3    H138131   4.603   5.511   0.802
 5524TIP3    H238132   4.631   5.377   0.738
 5525TIP3   OH238133   5.581   0.619   8.393
 5525TIP3    H138134   5.525   0.623   8.471
 5525TIP3    H238135   5.623   0.533   8.398
 5526TIP3   OH238136   5.925   0.149   7.727
 5526TIP3    H138137   5.877   0.186   7.653
 5526TIP3    H238138   6.001   0.106   7.687
 5527TIP3   OH238139   0.833   3.973   7.691
 5527TIP3    H138140   0.757   4.015   7.731
 5527TIP3    H238141   0.811   3.880   7.688
 5528TIP3   OH238142   5.295   2.092   1.698
 5528TIP3    H138143   5.270   2.096   1.606
 5528TIP3    H238144   5.282   2.181   1.730
 5529TIP3   OH238145   2.455   2.547   1.432
 5529TIP3    H138146   2.444   2.578   1.522
 5529TIP3    H238147   2.385   2.590   1.383
 5530TIP3   OH238148   4.507   2.311   6.544
 5530TIP3    H138149   4.424   2.354   6.563
 5530TIP3    H238150   4.573   2.364   6.589
 5531TIP3   OH238151   0.210   4.173   7.930
 5531TIP3    H138152   0.288   4.167   7.875
 5531TIP3    H238153   0.178   4.083   7.937
 5532TIP3   OH238154   2.232   6.449   8.025
 5532TIP3    H138155   2.160   6.440   8.088
 5532TIP3    H238156   2.311   6.442   8.079
 5533TIP3   OH238157   0.869   4.521   6.985
 5533TIP3    H138158   0.924   4.599   6.994
 5533TIP3    H238159   0.783   4.549   7.018
 5534TIP3   OH238160   0.779   3.284   8.082
 5534TIP3    H138161   0.841   3.289   8.155
 5534TIP3    H238162   0.776   3.191   8.060
 5535TIP3   OH238163   3.331   1.262   7.810
 5535TIP3    H138164   3.426   1.275   7.811
 5535TIP3    H238165   3.319   1.177   7.768
 5536TIP3   OH238166   5.857   1.825   7.570
 5536TIP3    H138167   5.949   1.842   7.591
 5536TIP3    H238168   5.842   1.735   7.600
 5537TIP3   OH238169   4.969   2.428   0.794
 5537TIP3    H138170   4.975   2.524   0.791
 5537TIP3    H238171   4.960   2.407   0.887
 5538TIP3   OH238172   4.563   6.357   8.422
 5538TIP3    H138173   4.473   6.363   8.391
 5538TIP3    H238174   4.615   6.344   8.343
 5539TIP3   OH238175   5.603   3.932   7.653
 5539TIP3    H138176   5.569   3.854   7.608
 5539TIP3    H238177   5.532   3.958   7.712
 5540TIP3   OH238178   2.697   4.557   1.280
 5540TIP3    H138179   2.655   4.609   1.349
 5540TIP3    H238180   2.790   4.557   1.303
 5541TIP3   OH238181   3.234   4.902   7.502
 5541TIP3    H138182   3.206   4.962   7.432
 5541TIP3    H238183   3.170   4.916   7.572
 5542TIP3   OH238184   0.517   2.149   1.013
 5542TIP3    H138185   0.548   2.071   0.966
 5542TIP3    H238186   0.522   2.124   1.105
 5543TIP3   OH238187   5.486   4.127   1.257
 5543TIP3    H138188   5.446   4.041   1.240
 5543TIP3    H238189   5.578   4.108   1.276
 5544TIP3   OH238190   3.140   0.634   6.786
 5544TIP3    H138191   3.086   0.640   6.865
 5544TIP3    H238192   3.179   0.722   6.778
 5545TIP3   OH238193   1.192   3.564   0.211
 5545TIP3    H138194   1.220   3.482   0.169
 5545TIP3    H238195   1.189   3.543   0.304
 5546TIP3   OH238196   2.818   6.136   8.591
 5546TIP3    H138197   2.783   6.178   8.669
 5546TIP3    H238198   2.765   6.171   8.519
 5547TIP3   OH238199   3.229   5.469   7.708
 5547TIP3    H138200   3.180   5.495   7.786
 5547TIP3    H238201   3.292   5.540   7.695
 5548TIP3   OH238202   2.571   2.830   1.021
 5548TIP3    H138203   2.588   2.897   1.087
 5548TIP3    H238204   2.507   2.772   1.061
 5549TIP3   OH238205   2.545   0.096   8.306
 5549TIP3    H138206   2.640   0.083   8.313
 5549TIP3    H238207   2.508   0.039   8.374
 5550TIP3   OH238208   3.720   4.386   2.072
 5550TIP3    H138209   3.757   4.319   2.014
 5550TIP3    H238210   3.769   4.465   2.053
 5551TIP3   OH238211   1.572   4.588   8.621
 5551TIP3    H138212   1.549   4.498   8.646
 5551TIP3    H238213   1.526   4.644   8.683
 5552TIP3   OH238214   6.057   1.795   6.934
 5552TIP3    H138215   6.071   1.855   7.007
 5552TIP3    H238216   5.980   1.829   6.888
 5553TIP3   OH238217   5.984   6.631   0.053
 5553TIP3    H138218   5.933   6.628   8.847
 5553TIP3    H238219   6.065   6.584   0.033
 5554TIP3   OH238220   6.523   1.717   0.449
 5554TIP3    H138221   6.556   1.796   0.406
 5554TIP3    H238222   6.592   1.653   0.438
 5555TIP3   OH238223   2.803   0.332   8.018
 5555TIP3    H138224   2.803   0.236   8.015
 5555TIP3    H238225   2.843   0.353   8.102
 5556TIP3   OH238226   2.504   6.355   7.348
 5556TIP3    H138227   2.447   6.393   7.281
 5556TIP3    H238228   2.446   6.341   7.423
 5557TIP3   OH238229   2.462   5.647   1.063
 5557TIP3    H138230   2.445   5.587   1.136
 5557TIP3    H238231   2.450   5.594   0.984
 5558TIP3   OH238232   4.724   5.502   8.507
 5558TIP3    H138233   4.805   5.452   8.501
 5558TIP3    H238234   4.730   5.547   8.592
 5559TIP3   OH238235   2.787   1.969   8.468
 5559TIP3    H138236   2.757   1.979   8.378
 5559TIP3    H238237   2.707   1.969   8.520
 5560TIP3   OH238238   5.315   2.250   1.204
 5560TIP3    H138239   5.405   2.252   1.237
 5560TIP3    H238240   5.309   2.168   1.155
 5561TIP3   OH238241   5.082   4.558   8.247
 5561TIP3    H138242   5.058   4.577   8.157
 5561TIP3    H238243   5.177   4.542   8.244
 5562TIP3   OH238244   1.211   3.497   8.500
 5562TIP3    H138245   1.236   3.474   8.410
 5562TIP3    H238246   1.189   3.590   8.496
 5563TIP3   OH238247   0.040   3.004   0.289
 5563TIP3    H138248   0.131   2.972   0.290
 5563TIP3    H238249   0.038   3.071   0.358
 5564TIP3   OH238250   2.570   5.846   8.688
 5564TIP3    H138251   2.647   5.794   8.665
 5564TIP3    H238252   2.604   5.918   8.742
 5565TIP3   OH238253   1.242   1.770   1.236
 5565TIP3    H138254   1.276   1.787   1.148
 5565TIP3    H238255   1.320   1.758   1.290
 5566TIP3   OH238256   1.822   1.647   7.929
 5566TIP3    H138257   1.863   1.572   7.974
 5566TIP3    H238258   1.728   1.627   7.930
 5567TIP3   OH238259   3.259   0.328   8.717
 5567TIP3    H138260   3.184   0.270   8.710
 5567TIP3    H238261   3.291   0.316   8.806
 5568TIP3   OH238262   5.376   1.994   8.714
 5568TIP3    H138263   5.432   2.066   8.742
 5568TIP3    H238264   5.337   1.961   8.794
 5569TIP3   OH238265   4.793   3.576   8.470
 5569TIP3    H138266   4.768   3.512   8.536
 5569TIP3    H238267   4.781   3.661   8.513
 5570TIP3   OH238268   3.569   5.794   0.531
 5570TIP3    H138269   3.658   5.766   0.554
 5570TIP3    H238270   3.550   5.864   0.594
 5571TIP3   OH238271   5.194   5.882   0.968
 5571TIP3    H138272   5.246   5.933   0.907
 5571TIP3    H238273   5.109   5.871   0.924
 5572TIP3   OH238274   5.722   1.455   1.099
 5572TIP3    H138275   5.693   1.392   1.033
 5572TIP3    H238276   5.805   1.489   1.066
 5573TIP3   OH238277   3.275   0.102   0.628
 5573TIP3    H138278   3.322   0.020   0.615
 5573TIP3    H238279   3.186   0.083   0.601
 5574TIP3   OH238280   0.884   3.854   0.014
 5574TIP3    H138281   0.898   3.848   8.794
 5574TIP3    H238282   0.816   3.920   0.024
 5575TIP3   OH238283   5.099   5.386   1.489
 5575TIP3    H138284   5.152   5.449   1.440
 5575TIP3    H238285   5.115   5.302   1.446
 5576TIP3   OH238286   3.870   1.897   1.885
 5576TIP3    H138287   3.864   1.808   1.920
 5576TIP3    H238288   3.783   1.935   1.900
 5577TIP3   OH238289   0.322   3.847   8.118
 5577TIP3    H138290   0.327   3.767   8.065
 5577TIP3    H238291   0.295   3.816   8.205
 5578TIP3   OH238292   0.058   5.444   7.566
 5578TIP3    H138293   0.035   5.535   7.546
 5578TIP3    H238294   0.048   5.398   7.483
 5579TIP3   OH238295   3.532   2.809   2.077
 5579TIP3    H138296   3.439   2.814   2.097
 5579TIP3    H238297   3.542   2.727   2.029
 5580TIP3   OH238298   0.740   2.833   1.354
 5580TIP3    H138299   0.671   2.771   1.330
 5580TIP3    H238300   0.783   2.854   1.271
 5581TIP3   OH238301   3.567   6.603   0.092
 5581TIP3    H138302   3.558   6.693   0.061
 5581TIP3    H238303   3.481   6.563   0.077
 5582TIP3   OH238304   6.631   4.668   1.801
 5582TIP3    H138305   6.666   4.619   1.875
 5582TIP3    H238306   6.663   4.620   1.724
 5583TIP3   OH238307   2.352   3.453   1.581
 5583TIP3    H138308   2.394   3.369   1.602
 5583TIP3    H238309   2.422   3.505   1.541
 5584TIP3   OH238310   1.264   2.381   1.569
 5584TIP3    H138311   1.265   2.475   1.588
 5584TIP3    H238312   1.249   2.376   1.475
 5585TIP3   OH238313   4.658   4.836   8.344
 5585TIP3    H138314   4.714   4.871   8.275
 5585TIP3    H238315   4.628   4.751   8.311
 5586TIP3   OH238316   4.374   0.085   7.703
 5586TIP3    H138317   4.332   0.084   7.617
 5586TIP3    H238318   4.348   0.003   7.744
 5587TIP3   OH238319   1.457   4.732   7.993
 5587TIP3    H138320   1.518   4.673   7.949
 5587TIP3    H238321   1.395   4.757   7.926
 5588TIP3   OH238322   4.990   4.519   7.979
 5588TIP3    H138323   4.973   4.441   8.032
 5588TIP3    H238324   5.076   4.504   7.941
 5589TIP3   OH238325   5.649   3.663   8.225
 5589TIP3    H138326   5.567   3.693   8.264
 5589TIP3    H238327   5.627   3.642   8.134
 5590TIP3   OH238328   0.543   0.560   7.254
 5590TIP3    H138329   0.488   0.512   7.315
 5590TIP3    H238330   0.617   0.502   7.238
 5591TIP3   OH238331   1.921   5.626   2.556
 5591TIP3    H138332   1.988   5.651   2.619
 5591TIP3    H238333   1.872   5.557   2.600
 5592TIP3   OH238334   5.804   3.907   8.446
 5592TIP3    H138335   5.823   3.816   8.424
 5592TIP3    H238336   5.795   3.908   8.541
 5593TIP3   OH238337   2.369   4.433   8.658
 5593TIP3    H138338   2.313   4.398   8.728
 5593TIP3    H238339   2.447   4.465   8.704
 5594TIP3   OH238340   5.722   2.830   8.383
 5594TIP3    H138341   5.672   2.775   8.322
 5594TIP3    H238342   5.728   2.779   8.463
 5595TIP3   OH238343   6.665   0.502   7.880
 5595TIP3    H138344   6.591   0.521   7.936
 5595TIP3    H238345   6.742   0.527   7.932
 5596TIP3   OH238346   5.246   4.850   7.923
 5596TIP3    H138347   5.303   4.826   7.996
 5596TIP3    H238348   5.257   4.779   7.860
 5597TIP3   OH238349   6.487   3.062   2.316
 5597TIP3    H138350   6.414   3.002   2.332
 5597TIP3    H238351   6.565   3.010   2.335
 5598TIP3   OH238352   2.975   4.433   6.810
 5598TIP3    H138353   2.967   4.488   6.733
 5598TIP3    H238354   2.888   4.432   6.849
 5599TIP3   OH238355   2.445   0.289   1.119
 5599TIP3    H138356   2.381   0.222   1.092
 5599TIP3    H238357   2.416   0.315   1.206
 5600TIP3   OH238358   2.949   1.293   1.886
 5600TIP3    H138359   3.020   1.357   1.884
 5600TIP3    H238360   2.989   1.216   1.927
 5601TIP3   OH238361   1.598   3.128   6.755
 5601TIP3    H138362   1.578   3.108   6.664
 5601TIP3    H238363   1.527   3.088   6.805
 5602TIP3   OH238364   4.439   3.507   8.459
 5602TIP3    H138365   4.530   3.514   8.488
 5602TIP3    H238366   4.401   3.439   8.515
 5603TIP3   OH238367   4.396   3.959   7.497
 5603TIP3    H138368   4.392   4.003   7.411
 5603TIP3    H238369   4.372   4.028   7.559
 5604TIP3   OH238370   4.985   2.148   0.001
 5604TIP3    H138371   4.892   2.167   8.857
 5604TIP3    H238372   4.983   2.081   0.069
 5605TIP3   OH238373   2.116   0.293   6.634
 5605TIP3    H138374   2.025   0.266   6.645
 5605TIP3    H238375   2.151   0.232   6.568
 5606TIP3   OH238376   6.235   4.274   7.392
 5606TIP3    H138377   6.157   4.260   7.338
 5606TIP3    H238378   6.218   4.224   7.472
 5607TIP3   OH238379   5.397   1.014   6.605
 5607TIP3    H138380   5.372   0.929   6.641
 5607TIP3    H238381   5.337   1.027   6.532
 5608TIP3   OH238382   3.267   1.497   2.256
 5608TIP3    H138383   3.198   1.538   2.309
 5608TIP3    H238384   3.325   1.569   2.233
 5609TIP3   OH238385   2.154   2.617   0.972
 5609TIP3    H138386   2.204   2.588   0.896
 5609TIP3    H238387   2.114   2.537   1.007
 5610TIP3   OH238388   3.549   5.402   8.162
 5610TIP3    H138389   3.560   5.338   8.092
 5610TIP3    H238390   3.460   5.436   8.150
 5611TIP3   OH238391   2.749   4.162   8.241
 5611TIP3    H138392   2.767   4.152   8.148
 5611TIP3    H238393   2.675   4.222   8.244
 5612TIP3   OH238394   4.207   0.984   6.566
 5612TIP3    H138395   4.187   1.066   6.610
 5612TIP3    H238396   4.214   1.007   6.473
 5613TIP3   OH238397   1.436   4.565   1.829
 5613TIP3    H138398   1.446   4.659   1.812
 5613TIP3    H238399   1.523   4.536   1.855
 5614TIP3   OH238400   6.081   0.874   7.945
 5614TIP3    H138401   6.054   0.792   7.903
 5614TIP3    H238402   6.103   0.932   7.872
 5615TIP3   OH238403   4.604   6.661   8.214
 5615TIP3    H138404   4.543   6.710   8.159
 5615TIP3    H238405   4.603   6.572   8.179
 5616TIP3   OH238406   2.680   2.496   0.347
 5616TIP3    H138407   2.730   2.551   0.287
 5616TIP3    H238408   2.654   2.421   0.294
 5617TIP3   OH238409   1.466   4.012   2.125
 5617TIP3    H138410   1.542   3.982   2.076
 5617TIP3    H238411   1.419   3.932   2.149
 5618TIP3   OH238412   1.928   4.002   8.417
 5618TIP3    H138413   1.853   4.061   8.431
 5618TIP3    H238414   1.891   3.915   8.426
 5619TIP3   OH238415   3.259   5.211   8.315
 5619TIP3    H138416   3.212   5.135   8.283
 5619TIP3    H238417   3.269   5.267   8.238
 5620TIP3   OH238418   0.283   3.443   7.603
 5620TIP3    H138419   0.194   3.477   7.595
 5620TIP3    H238420   0.281   3.358   7.558
 5621TIP3   OH238421   4.102   0.437   1.435
 5621TIP3    H138422   4.044   0.488   1.379
 5621TIP3    H238423   4.174   0.496   1.456
 5622TIP3   OH238424   2.219   1.481   7.155
 5622TIP3    H138425   2.215   1.386   7.151
 5622TIP3    H238426   2.206   1.510   7.065
 5623TIP3   OH238427   5.049   0.135   6.293
 5623TIP3    H138428   4.993   0.210   6.314
 5623TIP3    H238429   5.127   0.173   6.254
 5624TIP3   OH238430   1.409   4.417   7.825
 5624TIP3    H138431   1.325   4.392   7.787
 5624TIP3    H238432   1.389   4.433   7.918
 5625TIP3   OH238433   0.989   0.159   7.680
 5625TIP3    H138434   1.017   0.076   7.642
 5625TIP3    H238435   0.978   0.140   7.773
 5626TIP3   OH238436   4.070   0.811   1.472
 5626TIP3    H138437   4.157   0.772   1.465
 5626TIP3    H238438   4.082   0.885   1.532
 5627TIP3   OH238439   4.623   3.547   7.846
 5627TIP3    H138440   4.645   3.606   7.918
 5627TIP3    H238441   4.657   3.462   7.874
 5628TIP3   OH238442   1.038   5.310   0.951
 5628TIP3    H138443   0.976   5.237   0.954
 5628TIP3    H238444   0.998   5.373   0.892
 5629TIP3   OH238445   5.536   5.624   0.153
 5629TIP3    H138446   5.597   5.673   0.208
 5629TIP3    H238447   5.464   5.600   0.211
 5630TIP3   OH238448   4.769   4.772   0.266
 5630TIP3    H138449   4.783   4.741   0.176
 5630TIP3    H238450   4.812   4.707   0.321
 5631TIP3   OH238451   0.964   0.546   7.180
 5631TIP3    H138452   0.918   0.485   7.238
 5631TIP3    H238453   0.895   0.598   7.140
 5632TIP3   OH238454   6.321   3.369   8.789
 5632TIP3    H138455   6.361   3.309   8.727
 5632TIP3    H238456   6.227   3.359   8.775
 5633TIP3   OH238457   0.911   3.440   8.292
 5633TIP3    H138458   0.999   3.412   8.270
 5633TIP3    H238459   0.875   3.369   8.344
 5634TIP3   OH238460   4.242   4.478   7.809
 5634TIP3    H138461   4.196   4.497   7.727
 5634TIP3    H238462   4.172   4.462   7.872
 5635TIP3   OH238463   5.457   0.048   0.858
 5635TIP3    H138464   5.537   0.090   0.825
 5635TIP3    H238465   5.393   0.119   0.860
 5636TIP3   OH238466   6.228   1.883   0.699
 5636TIP3    H138467   6.188   1.917   0.619
 5636TIP3    H238468   6.154   1.855   0.753
 5637TIP3   OH238469   5.459   4.509   1.362
 5637TIP3    H138470   5.494   4.577   1.419
 5637TIP3    H238471   5.369   4.497   1.391
 5638TIP3   OH238472   0.511   3.329   8.338
 5638TIP3    H138473   0.555   3.261   8.389
 5638TIP3    H238474   0.532   3.309   8.247
 5639TIP3   OH238475   2.889   5.328   7.682
 5639TIP3    H138476   2.840   5.374   7.613
 5639TIP3    H238477   2.913   5.245   7.642
 5640TIP3   OH238478   5.164   4.077   0.955
 5640TIP3    H138479   5.254   4.107   0.939
 5640TIP3    H238480   5.164   3.985   0.928
 5641TIP3   OH238481   5.364   0.569   8.206
 5641TIP3    H138482   5.422   0.605   8.273
 5641TIP3    H238483   5.373   0.474   8.213
 5642TIP3   OH238484   6.455   0.805   7.969
 5642TIP3    H138485   6.426   0.797   7.878
 5642TIP3    H238486   6.427   0.723   8.010
 5643TIP3   OH238487   2.660   3.874   7.685
 5643TIP3    H138488   2.608   3.795   7.673
 5643TIP3    H238489   2.746   3.852   7.649
 5644TIP3   OH238490   2.395   1.608   1.806
 5644TIP3    H138491   2.306   1.597   1.771
 5644TIP3    H238492   2.412   1.702   1.798
 5645TIP3   OH238493   4.050   3.952   2.188
 5645TIP3    H138494   3.983   3.974   2.253
 5645TIP3    H238495   4.133   3.966   2.233
 5646TIP3   OH238496   2.041   6.004   0.492
 5646TIP3    H138497   2.039   6.015   0.587
 5646TIP3    H238498   2.084   6.083   0.459
 5647TIP3   OH238499   1.476   4.125   1.319
 5647TIP3    H138500   1.488   4.203   1.265
 5647TIP3    H238501   1.442   4.159   1.402
 5648TIP3   OH238502   4.126   0.771   7.847
 5648TIP3    H138503   4.070   0.821   7.789
 5648TIP3    H238504   4.136   0.827   7.924
 5649TIP3   OH238505   6.776   4.735   0.331
 5649TIP3    H138506   0.023   4.696   0.255
 5649TIP3    H238507   6.694   4.686   0.339
 5650TIP3   OH238508   1.467   1.187   8.450
 5650TIP3    H138509   1.445   1.094   8.453
 5650TIP3    H238510   1.391   1.229   8.411
 5651TIP3   OH238511   4.918   3.459   0.477
 5651TIP3    H138512   4.929   3.368   0.451
 5651TIP3    H238513   4.825   3.476   0.468
 5652TIP3   OH238514   5.439   2.514   0.052
 5652TIP3    H138515   5.372   2.446   0.044
 5652TIP3    H238516   5.468   2.509   0.143
 5653TIP3   OH238517   6.691   3.996   2.663
 5653TIP3    H138518   6.725   4.040   2.741
 5653TIP3    H238519   6.678   4.066   2.599
 5654TIP3   OH238520   3.841   5.674   0.990
 5654TIP3    H138521   3.891   5.654   1.069
 5654TIP3    H238522   3.815   5.588   0.956
 5655TIP3   OH238523   6.559   0.036   1.399
 5655TIP3    H138524   6.551   6.741   1.425
 5655TIP3    H238525   6.486   0.080   1.444
 5656TIP3   OH238526   4.031   6.529   7.753
 5656TIP3    H138527   4.020   6.619   7.781
 5656TIP3    H238528   4.032   6.478   7.834
 5657TIP3   OH238529   3.592   5.469   7.461
 5657TIP3    H138530   3.620   5.470   7.552
 5657TIP3    H238531   3.641   5.540   7.420
 5658TIP3   OH238532   1.207   4.269   8.532
 5658TIP3    H138533   1.253   4.332   8.587
 5658TIP3    H238534   1.248   4.185   8.553
 5659TIP3   OH238535   3.442   6.060   8.220
 5659TIP3    H138536   3.451   5.970   8.249
 5659TIP3    H238537   3.467   6.059   8.127
 5660TIP3   OH238538   0.843   3.120   2.265
 5660TIP3    H138539   0.884   3.038   2.291
 5660TIP3    H238540   0.799   3.100   2.182
 5661TIP3   OH238541   2.638   2.728   8.784
 5661TIP3    H138542   2.677   2.736   8.697
 5661TIP3    H238543   2.549   2.761   8.773
 5662TIP3   OH238544   4.145   3.736   2.417
 5662TIP3    H138545   4.203   3.802   2.380
 5662TIP3    H238546   4.178   3.653   2.383
 5663TIP3   OH238547   4.277   5.679   1.355
 5663TIP3    H138548   4.352   5.732   1.383
 5663TIP3    H238549   4.304   5.642   1.271
 5664TIP3   OH238550   3.752   4.458   8.332
 5664TIP3    H138551   3.710   4.385   8.379
 5664TIP3    H238552   3.832   4.476   8.380
 5665TIP3   OH238553   5.669   1.327   8.080
 5665TIP3    H138554   5.584   1.285   8.090
 5665TIP3    H238555   5.657   1.416   8.113
 5666TIP3   OH238556   0.083   3.074   8.866
 5666TIP3    H138557   0.050   3.071   0.081
 5666TIP3    H238558   0.137   2.995   8.857
 5667TIP3   OH238559   3.375   5.180   6.780
 5667TIP3    H138560   3.427   5.114   6.735
 5667TIP3    H238561   3.285   5.163   6.752
 5668TIP3   OH238562   1.541   2.573   1.584
 5668TIP3    H138563   1.625   2.619   1.575
 5668TIP3    H238564   1.498   2.616   1.657
 5669TIP3   OH238565   6.285   4.518   7.649
 5669TIP3    H138566   6.199   4.477   7.645
 5669TIP3    H238567   6.335   4.477   7.579
 5670TIP3   OH238568   5.039   5.315   8.348
 5670TIP3    H138569   5.130   5.289   8.333
 5670TIP3    H238570   5.044   5.409   8.370
 5671TIP3   OH238571   6.265   5.480   7.767
 5671TIP3    H138572   6.232   5.400   7.809
 5671TIP3    H238573   6.275   5.542   7.839
 5672TIP3   OH238574   6.188   5.521   0.307
 5672TIP3    H138575   6.097   5.549   0.323
 5672TIP3    H238576   6.196   5.520   0.211
 5673TIP3   OH238577   1.388   2.090   7.526
 5673TIP3    H138578   1.366   2.013   7.579
 5673TIP3    H238579   1.359   2.068   7.438
 5674TIP3   OH238580   6.088   0.487   6.962
 5674TIP3    H138581   6.156   0.462   6.899
 5674TIP3    H238582   6.103   0.581   6.978
 5675TIP3   OH238583   1.318   0.132   7.560
 5675TIP3    H138584   1.327   0.088   7.645
 5675TIP3    H238585   1.408   0.138   7.527
 5676TIP3   OH238586   1.022   0.091   1.038
 5676TIP3    H138587   1.048   0.182   1.027
 5676TIP3    H238588   1.103   0.041   1.028
 5677TIP3   OH238589   6.082   1.132   7.227
 5677TIP3    H138590   6.049   1.219   7.207
 5677TIP3    H238591   6.164   1.125   7.178
 5678TIP3   OH238592   0.903   2.501   8.516
 5678TIP3    H138593   0.832   2.473   8.457
 5678TIP3    H238594   0.915   2.593   8.496
 5679TIP3   OH238595   4.592   1.368   1.437
 5679TIP3    H138596   4.514   1.372   1.492
 5679TIP3    H238597   4.620   1.277   1.442
 5680TIP3   OH238598   6.563   0.703   0.845
 5680TIP3    H138599   6.496   0.635   0.835
 5680TIP3    H238600   6.523   0.782   0.808
 5681TIP3   OH238601   1.083   3.569   6.331
 5681TIP3    H138602   1.013   3.631   6.351
 5681TIP3    H238603   1.038   3.493   6.294
 5682TIP3   OH238604   3.222   5.264   0.545
 5682TIP3    H138605   3.158   5.330   0.517
 5682TIP3    H238606   3.237   5.285   0.637
 5683TIP3   OH238607   0.587   2.366   7.304
 5683TIP3    H138608   0.543   2.451   7.292
 5683TIP3    H238609   0.516   2.303   7.314
 5684TIP3   OH238610   0.540   3.046   7.312
 5684TIP3    H138611   0.560   3.091   7.394
 5684TIP3    H238612   0.619   3.056   7.259
 5685TIP3   OH238613   0.245   2.340   6.359
 5685TIP3    H138614   0.199   2.380   6.433
 5685TIP3    H238615   0.289   2.413   6.316
 5686TIP3   OH238616   1.652   4.439   0.523
 5686TIP3    H138617   1.675   4.530   0.539
 5686TIP3    H238618   1.623   4.406   0.608
 5687TIP3   OH238619   5.204   1.510   7.887
 5687TIP3    H138620   5.154   1.479   7.963
 5687TIP3    H238621   5.291   1.473   7.899
 5688TIP3   OH238622   2.022   3.548   0.173
 5688TIP3    H138623   2.006   3.573   0.264
 5688TIP3    H238624   1.935   3.541   0.134
 5689TIP3   OH238625   6.620   1.916   0.313
 5689TIP3    H138626   6.713   1.906   0.334
 5689TIP3    H238627   6.619   1.949   0.223
 5690TIP3   OH238628   3.528   2.106   8.269
 5690TIP3    H138629   3.492   2.066   8.189
 5690TIP3    H238630   3.570   2.033   8.315
 5691TIP3   OH238631   4.952   3.095   0.086
 5691TIP3    H138632   4.988   3.015   0.124
 5691TIP3    H238633   5.029   3.146   0.061
 5692TIP3   OH238634   4.121   3.096   1.915
 5692TIP3    H138635   4.210   3.131   1.911
 5692TIP3    H238636   4.073   3.144   1.848
 5693TIP3   OH238637   2.088   6.013   7.752
 5693TIP3    H138638   2.018   6.075   7.732
 5693TIP3    H238639   2.133   6.001   7.668
 5694TIP3   OH238640   0.998   1.672   1.130
 5694TIP3    H138641   0.989   1.585   1.092
 5694TIP3    H238642   1.084   1.672   1.171
 5695TIP3   OH238643   4.845   0.583   0.431
 5695TIP3    H138644   4.849   0.499   0.384
 5695TIP3    H238645   4.762   0.621   0.403
 5696TIP3   OH238646   1.233   1.918   0.615
 5696TIP3    H138647   1.240   1.827   0.646
 5696TIP3    H238648   1.222   1.969   0.694
 5697TIP3   OH238649   6.756   6.620   7.512
 5697TIP3    H138650   6.715   6.705   7.494
 5697TIP3    H238651   6.736   6.604   7.605
 5698TIP3   OH238652   3.459   5.602   6.878
 5698TIP3    H138653   3.393   5.663   6.913
 5698TIP3    H238654   3.419   5.516   6.886
 5699TIP3   OH238655   5.922   2.247   7.295
 5699TIP3    H138656   5.833   2.220   7.273
 5699TIP3    H238657   5.965   2.166   7.323
 5700TIP3   OH238658   4.114   1.834   6.925
 5700TIP3    H138659   4.202   1.833   6.887
 5700TIP3    H238660   4.060   1.787   6.862
 5701TIP3   OH238661   1.629   0.935   8.200
 5701TIP3    H138662   1.688   0.918   8.126
 5701TIP3    H238663   1.663   1.015   8.239
 5702TIP3   OH238664   3.374   5.342   6.395
 5702TIP3    H138665   3.300   5.321   6.451
 5702TIP3    H238666   3.397   5.258   6.354
 5703TIP3   OH238667   6.162   2.314   6.969
 5703TIP3    H138668   6.190   2.252   7.036
 5703TIP3    H238669   6.212   2.290   6.891
 5704TIP3   OH238670   1.190   2.379   7.379
 5704TIP3    H138671   1.271   2.422   7.351
 5704TIP3    H238672   1.120   2.434   7.346
 5705TIP3   OH238673   1.563   1.562   8.069
 5705TIP3    H138674   1.509   1.575   8.148
 5705TIP3    H238675   1.595   1.472   8.077
 5706TIP3   OH238676   0.694   4.622   0.973
 5706TIP3    H138677   0.641   4.577   0.908
 5706TIP3    H238678   0.781   4.581   0.966
 5707TIP3   OH238679   2.923   1.449   0.474
 5707TIP3    H138680   2.939   1.543   0.479
 5707TIP3    H238681   2.953   1.423   0.387
 5708TIP3   OH238682   4.432   5.476   2.134
 5708TIP3    H138683   4.408   5.386   2.109
 5708TIP3    H238684   4.363   5.530   2.095
 5709TIP3   OH238685   2.209   0.017   1.316
 5709TIP3    H138686   2.304   0.009   1.319
 5709TIP3    H238687   2.194   0.110   1.298
 5710TIP3   OH238688   3.824   1.340   7.705
 5710TIP3    H138689   3.909   1.304   7.678
 5710TIP3    H238690   3.827   1.338   7.801
 5711TIP3   OH238691   2.167   2.733   8.424
 5711TIP3    H138692   2.136   2.818   8.454
 5711TIP3    H238693   2.091   2.692   8.382
 5712TIP3   OH238694   1.090   3.340   8.097
 5712TIP3    H138695   1.057   3.362   8.010
 5712TIP3    H238696   1.143   3.261   8.082
 5713TIP3   OH238697   0.265   3.363   0.453
 5713TIP3    H138698   0.338   3.326   0.404
 5713TIP3    H238699   0.234   3.436   0.399
 5714TIP3   OH238700   5.103   3.257   7.201
 5714TIP3    H138701   5.088   3.245   7.107
 5714TIP3    H238702   5.026   3.302   7.233
 5715TIP3   OH238703   2.643   6.529   0.313
 5715TIP3    H138704   2.684   6.499   0.393
 5715TIP3    H238705   2.600   6.451   0.277
 5716TIP3   OH238706   3.713   5.302   8.370
 5716TIP3    H138707   3.661   5.363   8.319
 5716TIP3    H238708   3.652   5.232   8.393
 5717TIP3   OH238709   2.321   3.347   2.368
 5717TIP3    H138710   2.265   3.379   2.297
 5717TIP3    H238711   2.357   3.265   2.334
 5718TIP3   OH238712   0.150   0.260   0.414
 5718TIP3    H138713   0.071   0.310   0.392
 5718TIP3    H238714   0.118   0.189   0.469
 5719TIP3   OH238715   3.125   5.582   7.981
 5719TIP3    H138716   3.157   5.672   7.995
 5719TIP3    H238717   3.035   5.584   8.013
 5720TIP3   OH238718   2.881   2.554   7.391
 5720TIP3    H138719   2.920   2.621   7.447
 5720TIP3    H238720   2.846   2.489   7.451
 5721TIP3   OH238721   2.475   0.415   8.857
 5721TIP3    H138722   2.420   0.473   0.035
 5721TIP3    H238723   2.560   0.459   8.854
 5722TIP3   OH238724   5.855   3.601   0.224
 5722TIP3    H138725   5.786   3.657   0.188
 5722TIP3    H238726   5.831   3.590   0.316
 5723TIP3   OH238727   4.072   3.008   6.464
 5723TIP3    H138728   4.044   2.957   6.388
 5723TIP3    H238729   3.990   3.036   6.505
 5724TIP3   OH238730   0.598   1.102   8.495
 5724TIP3    H138731   0.529   1.166   8.513
 5724TIP3    H238732   0.658   1.110   8.569
 5725TIP3   OH238733   5.073   5.241   0.129
 5725TIP3    H138734   5.040   5.166   0.079
 5725TIP3    H238735   5.162   5.253   0.099
 5726TIP3   OH238736   1.928   0.337   7.597
 5726TIP3    H138737   1.832   0.344   7.596
 5726TIP3    H238738   1.948   0.313   7.688
 5727TIP3   OH238739   0.809   1.225   1.520
 5727TIP3    H138740   0.742   1.226   1.588
 5727TIP3    H238741   0.809   1.314   1.485
 5728TIP3   OH238742   4.677   6.437   7.039
 5728TIP3    H138743   4.748   6.444   7.103
 5728TIP3    H238744   4.707   6.368   6.978
 5729TIP3   OH238745   1.002   4.906   1.663
 5729TIP3    H138746   0.960   4.977   1.614
 5729TIP3    H238747   1.075   4.947   1.708
 5730TIP3   OH238748   0.058   5.583   1.865
 5730TIP3    H138749   0.059   5.678   1.852
 5730TIP3    H238750   0.079   5.572   1.958
 5731TIP3   OH238751   4.377   0.512   6.505
 5731TIP3    H138752   4.448   0.455   6.476
 5731TIP3    H238753   4.420   0.593   6.533
 5732TIP3   OH238754   3.340   4.568   0.078
 5732TIP3    H138755   3.403   4.636   0.102
 5732TIP3    H238756   3.333   4.512   0.155
 5733TIP3   OH238757   4.374   1.638   8.435
 5733TIP3    H138758   4.465   1.622   8.409
 5733TIP3    H238759   4.324   1.628   8.354
 5734TIP3   OH238760   3.570   2.709   1.033
 5734TIP3    H138761   3.549   2.785   1.087
 5734TIP3    H238762   3.550   2.633   1.088
 5735TIP3   OH238763   4.110   2.885   0.977
 5735TIP3    H138764   4.160   2.931   1.045
 5735TIP3    H238765   4.050   2.828   1.026
 5736TIP3   OH238766   2.651   5.182   0.432
 5736TIP3    H138767   2.701   5.110   0.392
 5736TIP3    H238768   2.681   5.260   0.385
 5737TIP3   OH238769   4.389   1.090   0.878
 5737TIP3    H138770   4.380   1.062   0.969
 5737TIP3    H238771   4.418   1.012   0.831
 5738TIP3   OH238772   4.526   1.968   1.619
 5738TIP3    H138773   4.489   1.932   1.699
 5738TIP3    H238774   4.621   1.969   1.635
 5739TIP3   OH238775   6.678   2.266   6.764
 5739TIP3    H138776   6.608   2.288   6.703
 5739TIP3    H238777   6.742   2.337   6.754
 5740TIP3   OH238778   4.223   3.100   7.580
 5740TIP3    H138779   4.283   3.029   7.602
 5740TIP3    H238780   4.137   3.067   7.606
 5741TIP3   OH238781   5.537   3.644   8.682
 5741TIP3    H138782   5.552   3.681   8.768
 5741TIP3    H238783   5.471   3.701   8.642
 5742TIP3   OH238784   5.393   4.183   0.877
 5742TIP3    H138785   5.402   4.276   0.859
 5742TIP3    H238786   5.471   4.143   0.839
 5743TIP3   OH238787   4.628   1.071   2.289
 5743TIP3    H138788   4.607   1.060   2.197
 5743TIP3    H238789   4.723   1.081   2.291
 5744TIP3   OH238790   2.461   3.220   1.626
 5744TIP3    H138791   2.536   3.225   1.567
 5744TIP3    H238792   2.499   3.222   1.713
 5745TIP3   OH238793   6.514   3.021   1.231
 5745TIP3    H138794   6.549   2.969   1.303
 5745TIP3    H238795   6.424   2.991   1.222
 5746TIP3   OH238796   3.047   3.448   8.043
 5746TIP3    H138797   3.135   3.415   8.064
 5746TIP3    H238798   3.047   3.537   8.077
 5747TIP3   OH238799   4.003   1.646   6.784
 5747TIP3    H138800   4.038   1.617   6.699
 5747TIP3    H238801   4.021   1.574   6.843
 5748TIP3   OH238802   5.086   3.507   8.565
 5748TIP3    H138803   5.023   3.473   8.502
 5748TIP3    H238804   5.082   3.602   8.554
 5749TIP3   OH238805   5.188   1.649   6.751
 5749TIP3    H138806   5.143   1.565   6.749
 5749TIP3    H238807   5.275   1.630   6.784
 5750TIP3   OH238808   2.734   4.922   0.788
 5750TIP3    H138809   2.672   4.929   0.716
 5750TIP3    H238810   2.680   4.924   0.867
 5751TIP3   OH238811   0.002   1.920   1.080
 5751TIP3    H138812   0.031   2.000   1.124
 5751TIP3    H238813   6.711   1.940   1.048
 5752TIP3   OH238814   2.198   5.991   7.507
 5752TIP3    H138815   2.167   6.073   7.468
 5752TIP3    H238816   2.244   5.947   7.436
 5753TIP3   OH238817   2.620   1.333   6.857
 5753TIP3    H138818   2.656   1.275   6.790
 5753TIP3    H238819   2.697   1.374   6.898
 5754TIP3   OH238820   1.735   4.927   0.186
 5754TIP3    H138821   1.701   4.966   0.267
 5754TIP3    H238822   1.799   4.990   0.154
 5755TIP3   OH238823   0.943   4.938   1.925
 5755TIP3    H138824   0.901   4.873   1.981
 5755TIP3    H238825   0.941   4.899   1.837
 5756TIP3   OH238826   5.947   2.866   8.088
 5756TIP3    H138827   5.965   2.960   8.094
 5756TIP3    H238828   6.019   2.824   8.135
 5757TIP3   OH238829   1.413   5.226   8.377
 5757TIP3    H138830   1.337   5.252   8.324
 5757TIP3    H238831   1.374   5.189   8.456
 5758TIP3   OH238832   5.972   3.689   8.385
 5758TIP3    H138833   5.941   3.633   8.457
 5758TIP3    H238834   5.948   3.642   8.306
 5759TIP3   OH238835   3.394   1.827   8.362
 5759TIP3    H138836   3.363   1.764   8.426
 5759TIP3    H238837   3.318   1.882   8.344
 5760TIP3   OH238838   4.426   2.807   7.287
 5760TIP3    H138839   4.393   2.785   7.200
 5760TIP3    H238840   4.389   2.741   7.345
 5761TIP3   OH238841   2.552   1.237   1.518
 5761TIP3    H138842   2.506   1.311   1.477
 5761TIP3    H238843   2.619   1.277   1.572
 5762TIP3   OH238844   1.550   1.603   7.566
 5762TIP3    H138845   1.469   1.580   7.612
 5762TIP3    H238846   1.537   1.569   7.477
 5763TIP3   OH238847   2.307   5.645   7.397
 5763TIP3    H138848   2.276   5.713   7.336
 5763TIP3    H238849   2.403   5.650   7.390
 5764TIP3   OH238850   1.976   4.537   8.871
 5764TIP3    H138851   1.883   4.558   0.006
 5764TIP3    H238852   2.018   4.622   8.858
 5765TIP3   OH238853   4.313   3.633   8.775
 5765TIP3    H138854   4.346   3.590   8.854
 5765TIP3    H238855   4.229   3.669   8.802
 5766TIP3   OH238856   4.385   3.407   0.417
 5766TIP3    H138857   4.353   3.369   0.499
 5766TIP3    H238858   4.361   3.344   0.350
 5767TIP3   OH238859   2.946   2.589   0.961
 5767TIP3    H138860   3.004   2.583   0.885
 5767TIP3    H238861   2.991   2.538   1.029
 5768TIP3   OH238862   1.242   3.582   2.511
 5768TIP3    H138863   1.261   3.666   2.552
 5768TIP3    H238864   1.291   3.583   2.429
 5769TIP3   OH238865   0.761   1.801   0.049
 5769TIP3    H138866   0.828   1.780   0.114
 5769TIP3    H238867   0.752   1.896   0.054
 5770TIP3   OH238868   3.394   5.898   1.643
 5770TIP3    H138869   3.332   5.945   1.587
 5770TIP3    H238870   3.357   5.810   1.652
 5771TIP3   OH238871   0.119   4.863   8.319
 5771TIP3    H138872   0.183   4.793   8.299
 5771TIP3    H238873   0.158   4.942   8.282
 5772TIP3   OH238874   2.802   0.875   7.229
 5772TIP3    H138875   2.847   0.843   7.151
 5772TIP3    H238876   2.743   0.943   7.196
 5773TIP3   OH238877   5.102   3.824   1.693
 5773TIP3    H138878   5.044   3.850   1.764
 5773TIP3    H238879   5.093   3.729   1.688
 5774TIP3   OH238880   1.119   1.827   0.122
 5774TIP3    H138881   1.050   1.764   0.142
 5774TIP3    H238882   1.175   1.826   0.199
 5775TIP3   OH238883   6.120   2.551   0.388
 5775TIP3    H138884   6.074   2.613   0.332
 5775TIP3    H238885   6.188   2.602   0.432
 5776TIP3   OH238886   3.490   4.051   1.358
 5776TIP3    H138887   3.517   4.113   1.426
 5776TIP3    H238888   3.518   4.091   1.276
 5777TIP3   OH238889   1.774   6.642   2.538
 5777TIP3    H138890   1.854   6.597   2.512
 5777TIP3    H238891   1.719   6.642   2.460
 5778TIP3   OH238892   1.611   2.235   7.467
 5778TIP3    H138893   1.530   2.196   7.499
 5778TIP3    H238894   1.597   2.244   7.373
 5779TIP3   OH238895   4.689   2.130   6.446
 5779TIP3    H138896   4.722   2.080   6.521
 5779TIP3    H238897   4.628   2.193   6.485
 5780TIP3   OH238898   1.726   1.362   0.060
 5780TIP3    H138899   1.693   1.272   0.056
 5780TIP3    H238900   1.648   1.416   0.051
 5781TIP3   OH238901   6.178   1.037   1.861
 5781TIP3    H138902   6.166   1.013   1.953
 5781TIP3    H238903   6.271   1.023   1.845
 5782TIP3   OH238904   2.236   2.691   8.051
 5782TIP3    H138905   2.291   2.739   8.112
 5782TIP3    H238906   2.275   2.708   7.965
 5783TIP3   OH238907   4.188   2.889   1.582
 5783TIP3    H138908   4.229   2.804   1.573
 5783TIP3    H238909   4.155   2.892   1.672
 5784TIP3   OH238910   3.048   5.841   7.186
 5784TIP3    H138911   2.953   5.839   7.201
 5784TIP3    H238912   3.062   5.923   7.138
 5785TIP3   OH238913   2.477   5.248   0.989
 5785TIP3    H138914   2.405   5.204   0.943
 5785TIP3    H238915   2.475   5.212   1.077
 5786TIP3   OH238916   6.763   2.198   8.627
 5786TIP3    H138917   6.678   2.240   8.616
 5786TIP3    H238918   6.761   2.161   8.715
 5787TIP3   OH238919   5.530   3.359   7.062
 5787TIP3    H138920   5.494   3.308   7.135
 5787TIP3    H238921   5.625   3.348   7.070
 5788TIP3   OH238922   1.089   2.336   1.816
 5788TIP3    H138923   1.074   2.382   1.733
 5788TIP3    H238924   1.010   2.354   1.868
 5789TIP3   OH238925   5.305   1.311   7.432
 5789TIP3    H138926   5.315   1.300   7.526
 5789TIP3    H238927   5.373   1.256   7.393
 5790TIP3   OH238928   5.166   1.746   0.354
 5790TIP3    H138929   5.144   1.666   0.307
 5790TIP3    H238930   5.251   1.773   0.318
 5791TIP3   OH238931   6.215   4.748   0.210
 5791TIP3    H138932   6.138   4.762   0.154
 5791TIP3    H238933   6.281   4.711   0.150
 5792TIP3   OH238934   6.433   2.333   0.271
 5792TIP3    H138935   6.456   2.286   0.191
 5792TIP3    H238936   6.513   2.330   0.324
 5793TIP3   OH238937   2.209   5.843   7.220
 5793TIP3    H138938   2.118   5.874   7.221
 5793TIP3    H238939   2.223   5.813   7.130
 5794TIP3   OH238940   2.085   6.703   8.158
 5794TIP3    H138941   2.081   6.768   8.228
 5794TIP3    H238942   2.141   6.743   8.091
 5795TIP3   OH238943   2.675   3.921   0.013
 5795TIP3    H138944   2.604   3.861   8.862
 5795TIP3    H238945   2.746   3.863   0.041
 5796TIP3   OH238946   6.735   3.163   8.453
 5796TIP3    H138947   0.024   3.187   8.415
 5796TIP3    H238948   6.737   3.201   8.541
 5797TIP3   OH238949   3.721   5.049   8.206
 5797TIP3    H138950   3.678   5.105   8.142
 5797TIP3    H238951   3.680   5.072   8.289
 5798TIP3   OH238952   3.639   3.161   0.882
 5798TIP3    H138953   3.623   3.135   0.791
 5798TIP3    H238954   3.726   3.126   0.901
 5799TIP3   OH238955   1.850   0.195   0.616
 5799TIP3    H138956   1.925   0.217   0.670
 5799TIP3    H238957   1.791   0.146   0.674
 5800TIP3   OH238958   0.940   0.731   2.210
 5800TIP3    H138959   0.968   0.717   2.300
 5800TIP3    H238960   0.990   0.667   2.159
 5801TIP3   OH238961   0.958   3.424   8.603
 5801TIP3    H138962   1.050   3.449   8.592
 5801TIP3    H238963   0.962   3.339   8.646
 5802TIP3   OH238964   2.598   1.691   0.867
 5802TIP3    H138965   2.525   1.636   0.894
 5802TIP3    H238966   2.670   1.630   0.853
 5803TIP3   OH238967   6.117   2.243   0.729
 5803TIP3    H138968   6.060   2.198   0.666
 5803TIP3    H238969   6.175   2.296   0.675
 5804TIP3   OH238970   6.100   6.042   8.191
 5804TIP3    H138971   6.056   6.037   8.276
 5804TIP3    H238972   6.042   5.994   8.132
 5805TIP3   OH238973   3.887   4.654   8.585
 5805TIP3    H138974   3.977   4.677   8.562
 5805TIP3    H238975   3.850   4.735   8.619
 5806TIP3   OH238976   1.160   2.965   1.352
 5806TIP3    H138977   1.248   2.981   1.319
 5806TIP3    H238978   1.164   2.878   1.391
 5807TIP3   OH238979   2.210   2.048   6.605
 5807TIP3    H138980   2.277   1.991   6.565
 5807TIP3    H238981   2.260   2.111   6.656
 5808TIP3   OH238982   2.759   1.668   7.674
 5808TIP3    H138983   2.665   1.667   7.694
 5808TIP3    H238984   2.802   1.677   7.759
 5809TIP3   OH238985   4.625   2.203   0.853
 5809TIP3    H138986   4.633   2.131   0.790
 5809TIP3    H238987   4.673   2.275   0.812
 5810TIP3   OH238988   0.841   6.267   8.555
 5810TIP3    H138989   0.876   6.336   8.612
 5810TIP3    H238990   0.847   6.187   8.608
 5811TIP3   OH238991   3.203   5.921   7.399
 5811TIP3    H138992   3.154   5.894   7.322
 5811TIP3    H238993   3.272   5.855   7.408
 5812TIP3   OH238994   5.025   5.219   0.425
 5812TIP3    H138995   4.955   5.220   0.360
 5812TIP3    H238996   5.104   5.236   0.374
 5813TIP3   OH238997   1.404   2.345   8.449
 5813TIP3    H138998   1.332   2.400   8.482
 5813TIP3    H238999   1.369   2.256   8.451
 5814TIP3   OH239000   1.384   6.560   7.464
 5814TIP3    H139001   1.328   6.620   7.415
 5814TIP3    H239002   1.360   6.574   7.556
 5815TIP3   OH239003   2.098   0.220   8.870
 5815TIP3    H139004   2.015   0.244   0.037
 5815TIP3    H239005   2.123   0.138   0.037
 5816TIP3   OH239006   2.901   5.338   1.093
 5816TIP3    H139007   2.956   5.416   1.102
 5816TIP3    H239008   2.820   5.370   1.053
 5817TIP3   OH239009   2.770   3.447   8.013
 5817TIP3    H139010   2.861   3.475   7.998
 5817TIP3    H239011   2.744   3.405   7.932
 5818TIP3   OH239012   4.960   2.830   1.531
 5818TIP3    H139013   5.021   2.780   1.477
 5818TIP3    H239014   5.000   2.917   1.539
 5819TIP3   OH239015   4.768   0.537   8.789
 5819TIP3    H139016   4.800   0.559   0.002
 5819TIP3    H239017   4.834   0.477   8.753
 5820TIP3   OH239018   0.779   3.157   7.787
 5820TIP3    H139019   0.873   3.138   7.790
 5820TIP3    H239020   0.745   3.099   7.719
 5821TIP3   OH239021   1.447   5.046   1.978
 5821TIP3    H139022   1.394   5.125   1.967
 5821TIP3    H239023   1.442   5.026   2.072
 5822TIP3   OH239024   4.377   6.325   1.884
 5822TIP3    H139025   4.396   6.258   1.818
 5822TIP3    H239026   4.326   6.391   1.838
 5823TIP3   OH239027   4.205   5.129   8.515
 5823TIP3    H139028   4.159   5.148   8.597
 5823TIP3    H239029   4.277   5.071   8.542
 5824TIP3   OH239030   0.968   4.424   0.465
 5824TIP3    H139031   1.020   4.473   0.530
 5824TIP3    H239032   1.029   4.359   0.431
 5825TIP3   OH239033   1.896   6.593   1.242
 5825TIP3    H139034   1.962   6.564   1.305
 5825TIP3    H239035   1.914   6.686   1.230
 5826TIP3   OH239036   1.568   2.671   8.239
 5826TIP3    H139037   1.594   2.627   8.158
 5826TIP3    H239038   1.549   2.599   8.300
 5827TIP3   OH239039   3.213   2.840   1.603
 5827TIP3    H139040   3.199   2.901   1.676
 5827TIP3    H239041   3.294   2.794   1.626
 5828TIP3   OH239042   1.441   1.081   1.558
 5828TIP3    H139043   1.431   1.056   1.650
 5828TIP3    H239044   1.396   1.165   1.552
 5829TIP3   OH239045   0.574   2.667   1.248
 5829TIP3    H139046   0.641   2.602   1.228
 5829TIP3    H239047   0.539   2.693   1.163
 5830TIP3   OH239048   1.176   4.884   1.441
 5830TIP3    H139049   1.126   4.895   1.521
 5830TIP3    H239050   1.112   4.895   1.371
 5831TIP3   OH239051   1.837   5.671   1.118
 5831TIP3    H139052   1.818   5.640   1.206
 5831TIP3    H239053   1.752   5.693   1.081
 5832TIP3   OH239054   5.797   6.594   0.444
 5832TIP3    H139055   5.877   6.543   0.455
 5832TIP3    H239056   5.786   6.601   0.349
 5833TIP3   OH239057   1.711   0.811   0.637
 5833TIP3    H139058   1.793   0.766   0.619
 5833TIP3    H239059   1.683   0.777   0.722
 5834TIP3   OH239060   5.007   2.676   8.761
 5834TIP3    H139061   4.985   2.661   8.669
 5834TIP3    H239062   5.048   2.763   8.763
 5835TIP3   OH239063   1.839   3.024   8.029
 5835TIP3    H139064   1.786   3.081   8.085
 5835TIP3    H239065   1.804   2.937   8.044
 5836TIP3   OH239066   5.003   3.505   2.326
 5836TIP3    H139067   4.955   3.539   2.401
 5836TIP3    H239068   5.042   3.423   2.357
 5837TIP3   OH239069   6.020   1.987   7.971
 5837TIP3    H139070   6.067   1.965   8.051
 5837TIP3    H239071   5.954   2.051   7.998
 5838TIP3   OH239072   4.335   0.339   0.134
 5838TIP3    H139073   4.322   0.312   0.043
 5838TIP3    H239074   4.361   0.431   0.127
 5839TIP3   OH239075   4.741   2.897   8.607
 5839TIP3    H139076   4.791   2.977   8.620
 5839TIP3    H239077   4.807   2.830   8.589
 5840TIP3   OH239078   1.194   5.357   8.226
 5840TIP3    H139079   1.189   5.375   8.132
 5840TIP3    H239080   1.163   5.438   8.268
 5841TIP3   OH239081   1.766   1.438   0.969
 5841TIP3    H139082   1.859   1.440   0.947
 5841TIP3    H239083   1.742   1.345   0.961
 5842TIP3   OH239084   2.082   0.536   7.173
 5842TIP3    H139085   2.074   0.458   7.118
 5842TIP3    H239086   2.173   0.564   7.162
 5843TIP3   OH239087   2.838   0.374   0.936
 5843TIP3    H139088   2.894   0.338   0.867
 5843TIP3    H239089   2.892   0.441   0.978
 5844TIP3   OH239090   6.501   6.726   8.419
 5844TIP3    H139091   6.572   6.783   8.449
 5844TIP3    H239092   6.431   6.787   8.394
 5845TIP3   OH239093   2.332   1.215   0.351
 5845TIP3    H139094   2.334   1.203   0.445
 5845TIP3    H239095   2.397   1.153   0.317
 5846TIP3   OH239096   1.558   6.772   7.275
 5846TIP3    H139097   1.553   0.031   7.197
 5846TIP3    H239098   1.557   0.037   7.349
 5847TIP3   OH239099   5.137   0.720   0.800
 5847TIP3    H139100   5.068   0.658   0.780
 5847TIP3    H239101   5.092   0.797   0.834
 5848TIP3   OH239102   6.456   6.110   0.098
 5848TIP3    H139103   6.481   6.127   0.189
 5848TIP3    H239104   6.495   6.025   0.078
 5849TIP3   OH239105   0.422   6.373   8.034
 5849TIP3    H139106   0.399   6.379   7.941
 5849TIP3    H239107   0.465   6.288   8.043
 5850TIP3   OH239108   6.241   0.407   6.721
 5850TIP3    H139109   6.177   0.392   6.651
 5850TIP3    H239110   6.314   0.453   6.677
 5851TIP3   OH239111   4.352   6.021   8.692
 5851TIP3    H139112   4.426   5.985   8.742
 5851TIP3    H239113   4.291   5.948   8.684
 5852TIP3   OH239114   2.205   0.469   8.371
 5852TIP3    H139115   2.247   0.473   8.458
 5852TIP3    H239116   2.261   0.409   8.321
 5853TIP3   OH239117   2.693   0.389   6.370
 5853TIP3    H139118   2.618   0.380   6.429
 5853TIP3    H239119   2.769   0.395   6.429
 5854TIP3   OH239120   0.381   2.979   8.713
 5854TIP3    H139121   0.413   2.892   8.686
 5854TIP3    H239122   0.305   2.995   8.658
 5855TIP3   OH239123   0.507   6.133   8.681
 5855TIP3    H139124   0.478   6.184   8.605
 5855TIP3    H239125   0.443   6.154   8.749
 5856TIP3   OH239126   6.173   0.725   1.273
 5856TIP3    H139127   6.240   0.664   1.303
 5856TIP3    H239128   6.159   0.783   1.347
 5857TIP3   OH239129   2.668   6.476   7.066
 5857TIP3    H139130   2.599   6.442   7.009
 5857TIP3    H239131   2.715   6.397   7.096
 5858TIP3   OH239132   6.742   2.558   8.311
 5858TIP3    H139133   6.787   2.620   8.369
 5858TIP3    H239134   6.654   2.551   8.348
 5859TIP3   OH239135   6.427   6.000   1.995
 5859TIP3    H139136   6.440   5.906   1.978
 5859TIP3    H239137   6.333   6.008   2.010
 5860TIP3   OH239138   0.918   1.011   2.204
 5860TIP3    H139139   0.831   1.048   2.222
 5860TIP3    H239140   0.906   0.916   2.212
 5861TIP3   OH239141   3.323   5.271   1.986
 5861TIP3    H139142   3.264   5.279   2.061
 5861TIP3    H239143   3.352   5.360   1.968
 5862TIP3   OH239144   5.561   5.238   1.601
 5862TIP3    H139145   5.499   5.249   1.674
 5862TIP3    H239146   5.580   5.328   1.572
 5863TIP3   OH239147   2.476   4.548   8.447
 5863TIP3    H139148   2.452   4.494   8.522
 5863TIP3    H239149   2.393   4.571   8.406
 5864TIP3   OH239150   4.942   5.747   7.759
 5864TIP3    H139151   4.976   5.717   7.843
 5864TIP3    H239152   4.884   5.676   7.730
 5865TIP3   OH239153   0.725   4.687   7.206
 5865TIP3    H139154   0.777   4.646   7.275
 5865TIP3    H239155   0.635   4.662   7.224
 5866TIP3   OH239156   3.749   1.580   0.269
 5866TIP3    H139157   3.735   1.538   0.353
 5866TIP3    H239158   3.830   1.629   0.280
 5867TIP3   OH239159   1.707   2.210   6.608
 5867TIP3    H139160   1.679   2.285   6.555
 5867TIP3    H239161   1.796   2.191   6.577
 5868TIP3   OH239162   6.447   4.421   7.442
 5868TIP3    H139163   6.490   4.414   7.357
 5868TIP3    H239164   6.372   4.362   7.435
 5869TIP3   OH239165   2.875   1.324   8.016
 5869TIP3    H139166   2.926   1.250   7.982
 5869TIP3    H239167   2.787   1.289   8.027
 5870TIP3   OH239168   4.932   3.997   0.136
 5870TIP3    H139169   4.926   3.925   0.074
 5870TIP3    H239170   4.851   3.992   0.186
 5871TIP3   OH239171   1.791   3.238   0.582
 5871TIP3    H139172   1.745   3.217   0.501
 5871TIP3    H239173   1.883   3.243   0.557
 5872TIP3   OH239174   3.917   5.731   0.395
 5872TIP3    H139175   3.997   5.677   0.396
 5872TIP3    H239176   3.846   5.668   0.382
 5873TIP3   OH239177   2.085   3.850   7.390
 5873TIP3    H139178   2.050   3.791   7.323
 5873TIP3    H239179   2.173   3.816   7.408
 5874TIP3   OH239180   0.586   2.616   1.604
 5874TIP3    H139181   0.495   2.646   1.606
 5874TIP3    H239182   0.637   2.693   1.628
 5875TIP3   OH239183   3.556   2.836   8.660
 5875TIP3    H139184   3.572   2.851   8.567
 5875TIP3    H239185   3.522   2.919   8.692
 5876TIP3   OH239186   4.951   6.738   1.221
 5876TIP3    H139187   4.991   6.688   1.149
 5876TIP3    H239188   5.023   6.752   1.283
 5877TIP3   OH239189   2.852   1.605   2.080
 5877TIP3    H139190   2.873   1.632   2.170
 5877TIP3    H239191   2.758   1.589   2.080
 5878TIP3   OH239192   3.448   1.202   8.683
 5878TIP3    H139193   3.526   1.152   8.660
 5878TIP3    H239194   3.384   1.177   8.616
 5879TIP3   OH239195   5.785   2.004   8.236
 5879TIP3    H139196   5.692   1.992   8.221
 5879TIP3    H239197   5.828   1.942   8.177
 5880TIP3   OH239198   5.449   5.649   8.550
 5880TIP3    H139199   5.543   5.643   8.566
 5880TIP3    H239200   5.411   5.676   8.634
 5881TIP3   OH239201   6.430   3.306   0.254
 5881TIP3    H139202   6.411   3.352   0.336
 5881TIP3    H239203   6.424   3.375   0.187
 5882TIP3   OH239204   2.738   4.305   7.601
 5882TIP3    H139205   2.719   4.364   7.529
 5882TIP3    H239206   2.704   4.220   7.573
 5883TIP3   OH239207   6.760   0.643   8.606
 5883TIP3    H139208   6.703   0.604   8.674
 5883TIP3    H239209   0.052   0.622   8.635
 5884TIP3   OH239210   5.477   0.699   2.410
 5884TIP3    H139211   5.403   0.754   2.437
 5884TIP3    H239212   5.497   0.647   2.488
 5885TIP3   OH239213   2.998   2.197   8.091
 5885TIP3    H139214   3.001   2.208   8.186
 5885TIP3    H239215   2.972   2.106   8.079
 5886TIP3   OH239216   1.055   5.449   8.793
 5886TIP3    H139217   1.009   5.406   8.720
 5886TIP3    H239218   1.146   5.455   8.763
 5887TIP3   OH239219   4.984   3.080   8.104
 5887TIP3    H139220   4.962   3.038   8.021
 5887TIP3    H239221   4.905   3.129   8.128
 5888TIP3   OH239222   4.649   0.915   0.404
 5888TIP3    H139223   4.636   0.984   0.339
 5888TIP3    H239224   4.616   0.952   0.486
 5889TIP3   OH239225   5.344   6.138   0.112
 5889TIP3    H139226   5.351   6.195   0.188
 5889TIP3    H239227   5.306   6.194   0.044
 5890TIP3   OH239228   5.999   4.053   0.770
 5890TIP3    H139229   5.989   3.965   0.807
 5890TIP3    H239230   6.004   4.111   0.847
 5891TIP3   OH239231   2.262   1.505   2.251
 5891TIP3    H139232   2.193   1.479   2.190
 5891TIP3    H239233   2.260   1.439   2.320
 5892TIP3   OH239234   4.746   3.526   1.591
 5892TIP3    H139235   4.765   3.455   1.530
 5892TIP3    H239236   4.728   3.482   1.674
 5893TIP3   OH239237   4.600   5.216   2.382
 5893TIP3    H139238   4.673   5.276   2.392
 5893TIP3    H239239   4.639   5.134   2.351
 5894TIP3   OH239240   6.074   1.245   8.280
 5894TIP3    H139241   6.050   1.326   8.327
 5894TIP3    H239242   5.991   1.199   8.269
 5895TIP3   OH239243   5.895   4.248   7.881
 5895TIP3    H139244   5.850   4.279   7.960
 5895TIP3    H239245   5.988   4.259   7.902
 5896TIP3   OH239246   5.965   6.236   0.827
 5896TIP3    H139247   5.878   6.259   0.794
 5896TIP3    H239248   5.977   6.144   0.802
 5897TIP3   OH239249   1.301   4.599   7.445
 5897TIP3    H139250   1.300   4.656   7.368
 5897TIP3    H239251   1.376   4.627   7.496
 5898TIP3   OH239252   0.992   1.500   8.733
 5898TIP3    H139253   1.028   1.578   8.690
 5898TIP3    H239254   1.046   1.428   8.701
 5899TIP3   OH239255   4.409   2.148   0.330
 5899TIP3    H139256   4.316   2.143   0.307
 5899TIP3    H239257   4.414   2.222   0.391
 5900TIP3   OH239258   5.287   2.823   8.120
 5900TIP3    H139259   5.325   2.908   8.144
 5900TIP3    H239260   5.229   2.802   8.193
 5901TIP3   OH239261   3.057   6.043   7.006
 5901TIP3    H139262   2.963   6.063   7.016
 5901TIP3    H239263   3.094   6.120   6.964
 5902TIP3   OH239264   2.602   4.546   0.844
 5902TIP3    H139265   2.683   4.553   0.794
 5902TIP3    H239266   2.625   4.496   0.922
 5903TIP3   OH239267   6.643   6.298   7.070
 5903TIP3    H139268   6.634   6.208   7.037
 5903TIP3    H239269   6.655   6.351   6.991
 5904TIP3   OH239270   1.620   1.512   6.846
 5904TIP3    H139271   1.546   1.550   6.799
 5904TIP3    H239272   1.679   1.481   6.777
 5905TIP3   OH239273   5.236   1.993   7.313
 5905TIP3    H139274   5.210   1.905   7.338
 5905TIP3    H239275   5.156   2.045   7.321
 5906TIP3   OH239276   6.157   3.513   1.959
 5906TIP3    H139277   6.178   3.420   1.966
 5906TIP3    H239278   6.062   3.517   1.974
 5907TIP3   OH239279   3.826   1.619   1.976
 5907TIP3    H139280   3.740   1.610   2.016
 5907TIP3    H239281   3.888   1.596   2.045
 5908TIP3   OH239282   4.756   0.431   2.403
 5908TIP3    H139283   4.682   0.491   2.392
 5908TIP3    H239284   4.724   0.348   2.369
 5909TIP3   OH239285   3.922   4.147   1.696
 5909TIP3    H139286   3.923   4.183   1.785
 5909TIP3    H239287   3.979   4.070   1.701
 5910TIP3   OH239288   5.729   0.952   1.885
 5910TIP3    H139289   5.801   0.909   1.931
 5910TIP3    H239290   5.708   0.893   1.813
 5911TIP3   OH239291   5.579   4.516   0.323
 5911TIP3    H139292   5.625   4.581   0.270
 5911TIP3    H239293   5.597   4.433   0.279
 5912TIP3   OH239294   3.451   1.042   0.567
 5912TIP3    H139295   3.425   1.095   0.643
 5912TIP3    H239296   3.395   0.964   0.572
 5913TIP3   OH239297   6.460   5.121   0.232
 5913TIP3    H139298   6.370   5.123   0.265
 5913TIP3    H239299   6.515   5.121   0.310
 5914TIP3   OH239300   6.208   2.397   1.221
 5914TIP3    H139301   6.287   2.377   1.272
 5914TIP3    H239302   6.234   2.386   1.130
 5915TIP3   OH239303   1.145   4.387   7.089
 5915TIP3    H139304   1.086   4.454   7.125
 5915TIP3    H239305   1.088   4.312   7.072
 5916TIP3   OH239306   2.324   4.970   1.795
 5916TIP3    H139307   2.267   4.900   1.826
 5916TIP3    H239308   2.373   4.996   1.873
 5917TIP3   OH239309   4.493   2.278   1.586
 5917TIP3    H139310   4.427   2.255   1.652
 5917TIP3    H239311   4.520   2.194   1.549
 5918TIP3   OH239312   1.468   6.522   7.182
 5918TIP3    H139313   1.483   6.465   7.258
 5918TIP3    H239314   1.491   6.610   7.213
 5919TIP3   OH239315   5.891   5.376   0.530
 5919TIP3    H139316   5.939   5.458   0.543
 5919TIP3    H239317   5.843   5.389   0.448
 5920TIP3   OH239318   4.075   4.645   1.466
 5920TIP3    H139319   4.033   4.583   1.407
 5920TIP3    H239320   4.095   4.721   1.410
 5921TIP3   OH239321   5.614   0.052   8.747
 5921TIP3    H139322   5.580   6.768   8.788
 5921TIP3    H239323   5.684   0.022   8.690
 5922TIP3   OH239324   0.878   1.530   6.940
 5922TIP3    H139325   0.924   1.561   6.862
 5922TIP3    H239326   0.787   1.521   6.912
 5923TIP3   OH239327   5.524   2.580   1.801
 5923TIP3    H139328   5.539   2.639   1.726
 5923TIP3    H239329   5.432   2.596   1.825
 5924TIP3   OH239330   2.921   3.661   2.541
 5924TIP3    H139331   2.976   3.722   2.590
 5924TIP3    H239332   2.940   3.575   2.579
 5925TIP3   OH239333   2.062   6.484   1.436
 5925TIP3    H139334   2.148   6.503   1.473
 5925TIP3    H239335   2.041   6.396   1.467
 5926TIP3   OH239336   6.169   6.422   0.852
 5926TIP3    H139337   6.083   6.379   0.853
 5926TIP3    H239338   6.201   6.413   0.942
 5927TIP3   OH239339   4.747   3.921   0.342
 5927TIP3    H139340   4.707   3.846   0.388
 5927TIP3    H239341   4.814   3.952   0.403
 5928TIP3   OH239342   6.139   1.160   0.239
 5928TIP3    H139343   6.089   1.081   0.256
 5928TIP3    H239344   6.163   1.193   0.325
 5929TIP3   OH239345   2.491   2.188   1.660
 5929TIP3    H139346   2.512   2.270   1.704
 5929TIP3    H239347   2.575   2.156   1.627
 5930TIP3   OH239348   2.605   0.936   8.213
 5930TIP3    H139349   2.525   0.898   8.176
 5930TIP3    H239350   2.650   0.863   8.255
 5931TIP3   OH239351   5.357   5.615   7.795
 5931TIP3    H139352   5.379   5.563   7.717
 5931TIP3    H239353   5.279   5.571   7.830
 5932TIP3   OH239354   2.518   4.601   7.166
 5932TIP3    H139355   2.490   4.622   7.255
 5932TIP3    H239356   2.492   4.510   7.153
 5933TIP3   OH239357   5.276   3.289   1.624
 5933TIP3    H139358   5.261   3.240   1.705
 5933TIP3    H239359   5.189   3.298   1.585
 5934TIP3   OH239360   2.995   2.308   0.671
 5934TIP3    H139361   2.903   2.334   0.667
 5934TIP3    H239362   2.997   2.220   0.631
 5935TIP3   OH239363   6.702   0.259   0.108
 5935TIP3    H139364   6.653   0.256   0.191
 5935TIP3    H239365   6.783   0.305   0.130
 5936TIP3   OH239366   5.489   4.222   7.479
 5936TIP3    H139367   5.509   4.140   7.525
 5936TIP3    H239368   5.401   4.246   7.509
 5937TIP3   OH239369   5.954   2.009   1.283
 5937TIP3    H139370   5.999   1.926   1.263
 5937TIP3    H239371   5.997   2.074   1.227
 5938TIP3   OH239372   2.155   3.015   0.432
 5938TIP3    H139373   2.250   3.005   0.424
 5938TIP3    H239374   2.137   2.994   0.524
 5939TIP3   OH239375   4.735   5.022   2.244
 5939TIP3    H139376   4.666   4.983   2.192
 5939TIP3    H239377   4.756   4.956   2.310
 5940TIP3   OH239378   3.153   4.879   8.668
 5940TIP3    H139379   3.111   4.813   8.614
 5940TIP3    H239380   3.173   4.951   8.608
 5941TIP3   OH239381   6.202   6.752   6.944
 5941TIP3    H139382   6.272   0.022   6.940
 5941TIP3    H239383   6.136   6.791   7.001
 5942TIP3   OH239384   0.873   1.361   7.834
 5942TIP3    H139385   0.933   1.304   7.787
 5942TIP3    H239386   0.788   1.318   7.825
 5943TIP3   OH239387   2.260   2.061   1.792
 5943TIP3    H139388   2.226   2.026   1.710
 5943TIP3    H239389   2.347   2.096   1.770
 5944TIP3   OH239390   6.130   1.976   7.511
 5944TIP3    H139391   6.207   1.919   7.514
 5944TIP3    H239392   6.128   2.019   7.597
 5945TIP3   OH239393   4.655   5.659   0.921
 5945TIP3    H139394   4.691   5.726   0.864
 5945TIP3    H239395   4.732   5.623   0.966
 5946TIP3   OH239396   2.817   3.671   0.064
 5946TIP3    H139397   2.835   3.580   0.040
 5946TIP3    H239398   2.790   3.665   0.156
 5947TIP3   OH239399   5.997   4.274   7.255
 5947TIP3    H139400   5.932   4.336   7.286
 5947TIP3    H239401   6.028   4.310   7.172
 5948TIP3   OH239402   1.616   5.302   8.019
 5948TIP3    H139403   1.541   5.359   8.003
 5948TIP3    H239404   1.579   5.214   8.023
 5949TIP3   OH239405   3.223   5.821   8.062
 5949TIP3    H139406   3.162   5.890   8.037
 5949TIP3    H239407   3.305   5.845   8.020
 5950TIP3   OH239408   3.929   6.154   8.297
 5950TIP3    H139409   3.835   6.169   8.296
 5950TIP3    H239410   3.966   6.232   8.338
 5951TIP3   OH239411   4.212   2.814   2.077
 5951TIP3    H139412   4.143   2.876   2.100
 5951TIP3    H239413   4.252   2.789   2.160
 5952TIP3   OH239414   3.179   1.207   2.297
 5952TIP3    H139415   3.084   1.192   2.297
 5952TIP3    H239416   3.216   1.125   2.330
 5953TIP3   OH239417   1.402   3.228   7.146
 5953TIP3    H139418   1.455   3.157   7.183
 5953TIP3    H239419   1.321   3.226   7.195
 5954TIP3   OH239420   1.736   5.657   8.489
 5954TIP3    H139421   1.684   5.598   8.434
 5954TIP3    H239422   1.672   5.695   8.550
 5955TIP3   OH239423   4.702   4.524   1.968
 5955TIP3    H139424   4.657   4.454   2.014
 5955TIP3    H239425   4.683   4.603   2.019
 5956TIP3   OH239426   0.420   3.047   6.896
 5956TIP3    H139427   0.399   3.133   6.933
 5956TIP3    H239428   0.351   2.989   6.929
 5957TIP3   OH239429   3.156   3.030   2.693
 5957TIP3    H139430   3.223   2.973   2.730
 5957TIP3    H239431   3.183   3.118   2.719
 5958TIP3   OH239432   3.468   3.081   0.522
 5958TIP3    H139433   3.441   3.010   0.464
 5958TIP3    H239434   3.555   3.055   0.552
 5959TIP3   OH239435   2.775   2.323   7.027
 5959TIP3    H139436   2.704   2.317   6.963
 5959TIP3    H239437   2.740   2.281   7.105
 5960TIP3   OH239438   6.554   5.838   7.885
 5960TIP3    H139439   6.472   5.805   7.921
 5960TIP3    H239440   6.546   5.933   7.889
 5961TIP3   OH239441   2.669   3.668   8.576
 5961TIP3    H139442   2.742   3.631   8.625
 5961TIP3    H239443   2.706   3.689   8.490
 5962TIP3   OH239444   6.517   6.450   2.540
 5962TIP3    H139445   6.525   6.546   2.538
 5962TIP3    H239446   6.496   6.430   2.631
 5963TIP3   OH239447   4.027   0.261   7.767
 5963TIP3    H139448   4.112   0.261   7.723
 5963TIP3    H239449   4.006   0.354   7.778
 5964TIP3   OH239450   0.803   5.189   1.045
 5964TIP3    H139451   0.795   5.120   0.980
 5964TIP3    H239452   0.724   5.242   1.034
 5965TIP3   OH239453   2.227   5.136   7.268
 5965TIP3    H139454   2.272   5.085   7.334
 5965TIP3    H239455   2.287   5.208   7.248
 5966TIP3   OH239456   0.775   4.346   0.757
 5966TIP3    H139457   0.808   4.260   0.730
 5966TIP3    H239458   0.688   4.352   0.718
 5967TIP3   OH239459   4.903   4.202   0.913
 5967TIP3    H139460   4.990   4.161   0.911
 5967TIP3    H239461   4.917   4.291   0.881
 5968TIP3   OH239462   6.334   2.819   1.931
 5968TIP3    H139463   6.420   2.853   1.957
 5968TIP3    H239464   6.276   2.895   1.939
 5969TIP3   OH239465   2.536   4.835   0.498
 5969TIP3    H139466   2.526   4.924   0.532
 5969TIP3    H239467   2.516   4.779   0.573
 5970TIP3   OH239468   0.122   4.115   2.751
 5970TIP3    H139469   0.091   4.204   2.763
 5970TIP3    H239470   0.193   4.123   2.686
 5971TIP3   OH239471   4.633   1.221   0.304
 5971TIP3    H139472   4.656   1.194   0.393
 5971TIP3    H239473   4.634   1.317   0.307
 5972TIP3   OH239474   2.460   2.452   2.096
 5972TIP3    H139475   2.375   2.459   2.139
 5972TIP3    H239476   2.501   2.375   2.134
 5973TIP3   OH239477   3.416   4.829   8.745
 5973TIP3    H139478   3.328   4.807   8.714
 5973TIP3    H239479   3.475   4.797   8.677
 5974TIP3   OH239480   4.257   3.060   8.765
 5974TIP3    H139481   4.176   3.110   8.778
 5974TIP3    H239482   4.228   2.970   8.750
 5975TIP3   OH239483   1.150   5.277   0.579
 5975TIP3    H139484   1.067   5.264   0.532
 5975TIP3    H239485   1.127   5.335   0.651
 5976TIP3   OH239486   2.264   3.525   0.489
 5976TIP3    H139487   2.186   3.578   0.473
 5976TIP3    H239488   2.232   3.435   0.492
 5977TIP3   OH239489   2.487   0.307   2.087
 5977TIP3    H139490   2.479   0.335   1.996
 5977TIP3    H239491   2.432   0.369   2.136
 5978TIP3   OH239492   1.971   2.143   1.829
 5978TIP3    H139493   2.052   2.099   1.858
 5978TIP3    H239494   1.937   2.185   1.907
 5979TIP3   OH239495   2.530   0.196   7.746
 5979TIP3    H139496   2.586   0.118   7.743
 5979TIP3    H239497   2.592   0.269   7.746
 5980TIP3   OH239498   6.267   5.154   2.634
 5980TIP3    H139499   6.303   5.066   2.643
 5980TIP3    H239500   6.208   5.163   2.709
 5981TIP3   OH239501   3.363   4.163   7.902
 5981TIP3    H139502   3.356   4.248   7.946
 5981TIP3    H239503   3.300   4.107   7.949
 5982TIP3   OH239504   1.615   2.942   8.215
 5982TIP3    H139505   1.588   2.853   8.237
 5982TIP3    H239506   1.579   2.996   8.285
 5983TIP3   OH239507   3.439   0.520   7.144
 5983TIP3    H139508   3.445   0.542   7.051
 5983TIP3    H239509   3.365   0.460   7.149
 5984TIP3   OH239510   4.309   3.516   2.311
 5984TIP3    H139511   4.280   3.436   2.354
 5984TIP3    H239512   4.381   3.549   2.365
 5985TIP3   OH239513   5.265   3.069   0.513
 5985TIP3    H139514   5.357   3.084   0.492
 5985TIP3    H239515   5.237   2.999   0.454
 5986TIP3   OH239516   4.198   1.892   0.400
 5986TIP3    H139517   4.157   1.806   0.389
 5986TIP3    H239518   4.144   1.937   0.464
 5987TIP3   OH239519   1.613   2.413   6.438
 5987TIP3    H139520   1.528   2.440   6.403
 5987TIP3    H239521   1.677   2.456   6.382
 5988TIP3   OH239522   0.392   4.687   0.323
 5988TIP3    H139523   0.438   4.658   0.402
 5988TIP3    H239524   0.370   4.778   0.339
 5989TIP3   OH239525   1.735   3.666   6.577
 5989TIP3    H139526   1.682   3.741   6.553
 5989TIP3    H239527   1.742   3.615   6.496
 5990TIP3   OH239528   5.715   2.727   8.813
 5990TIP3    H139529   5.738   2.647   8.766
 5990TIP3    H239530   5.632   2.706   8.857
 5991TIP3   OH239531   5.849   1.082   1.144
 5991TIP3    H139532   5.865   0.998   1.101
 5991TIP3    H239533   5.755   1.080   1.165
 5992TIP3   OH239534   5.670   4.678   0.103
 5992TIP3    H139535   5.609   4.632   0.046
 5992TIP3    H239536   5.751   4.682   0.052
 5993TIP3   OH239537   4.129   3.684   1.368
 5993TIP3    H139538   4.206   3.631   1.347
 5993TIP3    H239539   4.151   3.727   1.450
 5994TIP3   OH239540   3.191   2.981   1.162
 5994TIP3    H139541   3.184   3.066   1.118
 5994TIP3    H239542   3.146   2.920   1.103
 5995TIP3   OH239543   2.010   6.438   1.974
 5995TIP3    H139544   2.006   6.361   1.917
 5995TIP3    H239545   2.047   6.405   2.056
 5996TIP3   OH239546   6.277   0.850   0.471
 5996TIP3    H139547   6.196   0.898   0.452
 5996TIP3    H239548   6.286   0.855   0.566
 5997TIP3   OH239549   5.397   4.035   8.234
 5997TIP3    H139550   5.313   4.077   8.252
 5997TIP3    H239551   5.379   3.974   8.163
 5998TIP3   OH239552   0.477   3.745   1.250
 5998TIP3    H139553   0.559   3.765   1.204
 5998TIP3    H239554   0.497   3.761   1.342
 5999TIP3   OH239555   4.034   3.224   0.080
 5999TIP3    H139556   3.954   3.248   0.035
 5999TIP3    H239557   4.019   3.133   0.108
 6000TIP3   OH239558   0.920   3.059   1.058
 6000TIP3    H139559   0.890   3.092   1.143
 6000TIP3    H239560   0.927   2.965   1.070
 6001TIP3   OH239561   0.527   5.617   1.465
 6001TIP3    H139562   0.536   5.702   1.508
 6001TIP3    H239563   0.613   5.602   1.425
 6002TIP3   OH239564   4.887   5.459   0.112
 6002TIP3    H139565   4.821   5.411   0.061
 6002TIP3    H239566   4.954   5.393   0.131
 6003TIP3   OH239567   2.560   6.679   1.554
 6003TIP3    H139568   2.540   6.588   1.533
 6003TIP3    H239569   2.539   6.728   1.474
 6004TIP3   OH239570   5.461   3.696   7.566
 6004TIP3    H139571   5.400   3.678   7.495
 6004TIP3    H239572   5.527   3.627   7.561
 6005TIP3   OH239573   1.932   5.537   8.675
 6005TIP3    H139574   1.942   5.443   8.660
 6005TIP3    H239575   1.865   5.564   8.613
 6006TIP3   OH239576   3.919   1.276   7.113
 6006TIP3    H139577   3.965   1.302   7.033
 6006TIP3    H239578   3.831   1.250   7.083
 6007TIP3   OH239579   6.483   3.116   6.561
 6007TIP3    H139580   6.461   3.023   6.552
 6007TIP3    H239581   6.562   3.127   6.509
 6008TIP3   OH239582   2.838   1.823   0.039
 6008TIP3    H139583   2.838   1.834   0.134
 6008TIP3    H239584   2.764   1.875   0.009
 6009TIP3   OH239585   3.078   2.555   0.721
 6009TIP3    H139586   3.013   2.592   0.661
 6009TIP3    H239587   3.064   2.460   0.716
 6010TIP3   OH239588   3.879   6.201   0.384
 6010TIP3    H139589   3.801   6.157   0.416
 6010TIP3    H239590   3.894   6.271   0.448
 6011TIP3   OH239591   0.878   1.793   1.582
 6011TIP3    H139592   0.946   1.861   1.582
 6011TIP3    H239593   0.858   1.779   1.674
 6012TIP3   OH239594   1.629   5.196   1.139
 6012TIP3    H139595   1.700   5.216   1.079
 6012TIP3    H239596   1.575   5.276   1.140
 6013TIP3   OH239597   1.625   2.396   8.019
 6013TIP3    H139598   1.541   2.396   8.065
 6013TIP3    H239599   1.638   2.305   7.993
 6014TIP3   OH239600   2.072   0.512   1.029
 6014TIP3    H139601   2.121   0.593   1.046
 6014TIP3    H239602   2.112   0.447   1.086
 6015TIP3   OH239603   3.405   4.177   8.266
 6015TIP3    H139604   3.353   4.098   8.273
 6015TIP3    H239605   3.352   4.245   8.307
 6016TIP3   OH239606   0.356   1.299   1.397
 6016TIP3    H139607   0.385   1.209   1.384
 6016TIP3    H239608   0.407   1.350   1.335
 6017TIP3   OH239609   0.056   2.077   8.396
 6017TIP3    H139610   6.795   2.099   8.469
 6017TIP3    H239611   0.117   2.013   8.431
 6018TIP3   OH239612   5.104   4.870   0.201
 6018TIP3    H139613   5.163   4.795   0.185
 6018TIP3    H239614   5.039   4.836   0.262
 6019TIP3   OH239615   1.364   5.957   6.255
 6019TIP3    H139616   1.334   6.015   6.185
 6019TIP3    H239617   1.284   5.928   6.299
 6020TIP3   OH239618   1.559   3.205   7.911
 6020TIP3    H139619   1.566   3.109   7.912
 6020TIP3    H239620   1.616   3.234   7.982
 6021TIP3   OH239621   6.735   1.128   7.791
 6021TIP3    H139622   0.019   1.082   7.768
 6021TIP3    H239623   6.764   1.201   7.846
 6022TIP3   OH239624   5.441   2.258   6.629
 6022TIP3    H139625   5.497   2.250   6.552
 6022TIP3    H239626   5.488   2.211   6.698
 6023TIP3   OH239627   3.368   1.708   0.894
 6023TIP3    H139628   3.306   1.776   0.920
 6023TIP3    H239629   3.425   1.698   0.970
 6024TIP3   OH239630   6.477   0.859   7.194
 6024TIP3    H139631   6.521   0.821   7.118
 6024TIP3    H239632   6.458   0.784   7.251
 6025TIP3   OH239633   2.074   6.728   1.731
 6025TIP3    H139634   2.111   6.754   1.815
 6025TIP3    H239635   2.145   6.680   1.688
 6026TIP3   OH239636   5.192   0.663   2.142
 6026TIP3    H139637   5.218   0.737   2.197
 6026TIP3    H239638   5.224   0.586   2.190
 6027TIP3   OH239639   3.332   2.704   7.804
 6027TIP3    H139640   3.288   2.624   7.831
 6027TIP3    H239641   3.320   2.708   7.710
 6028TIP3   OH239642   1.742   5.961   1.035
 6028TIP3    H139643   1.685   6.035   1.013
 6028TIP3    H239644   1.684   5.885   1.031
 6029TIP3   OH239645   1.211   3.005   1.830
 6029TIP3    H139646   1.130   2.965   1.864
 6029TIP3    H239647   1.275   2.991   1.900
 6030TIP3   OH239648   2.757   2.335   8.484
 6030TIP3    H139649   2.727   2.255   8.442
 6030TIP3    H239650   2.754   2.401   8.415
 6031TIP3   OH239651   2.957   5.665   8.382
 6031TIP3    H139652   2.895   5.613   8.331
 6031TIP3    H239653   2.988   5.605   8.450
 6032TIP3   OH239654   3.084   5.838   1.766
 6032TIP3    H139655   3.138   5.783   1.708
 6032TIP3    H239656   3.103   5.806   1.854
 6033TIP3   OH239657   2.433   1.216   0.888
 6033TIP3    H139658   2.483   1.138   0.915
 6033TIP3    H239659   2.367   1.227   0.956
 6034TIP3   OH239660   6.438   2.329   7.558
 6034TIP3    H139661   6.466   2.240   7.537
 6034TIP3    H239662   6.367   2.318   7.621
 6035TIP3   OH239663   2.470   4.910   7.705
 6035TIP3    H139664   2.453   4.841   7.770
 6035TIP3    H239665   2.524   4.974   7.752
 6036TIP3   OH239666   4.706   3.372   1.808
 6036TIP3    H139667   4.681   3.280   1.818
 6036TIP3    H239668   4.738   3.398   1.894
 6037TIP3   OH239669   4.809   0.201   8.445
 6037TIP3    H139670   4.746   0.192   8.373
 6037TIP3    H239671   4.892   0.173   8.407
 6038TIP3   OH239672   2.329   2.203   2.061
 6038TIP3    H139673   2.403   2.193   2.120
 6038TIP3    H239674   2.277   2.274   2.099
 6039TIP3   OH239675   4.988   4.012   7.325
 6039TIP3    H139676   4.996   3.987   7.233
 6039TIP3    H239677   5.069   3.982   7.365
 6040TIP3   OH239678   3.692   0.363   8.341
 6040TIP3    H139679   3.702   0.458   8.347
 6040TIP3    H239680   3.620   0.342   8.401
 6041TIP3   OH239681   2.867   1.730   0.489
 6041TIP3    H139682   2.775   1.726   0.514
 6041TIP3    H239683   2.909   1.782   0.557
 6042TIP3   OH239684   4.424   4.624   6.883
 6042TIP3    H139685   4.443   4.718   6.887
 6042TIP3    H239686   4.340   4.619   6.837
 6043TIP3   OH239687   0.794   1.073   0.357
 6043TIP3    H139688   0.880   1.052   0.321
 6043TIP3    H239689   0.801   1.053   0.450
 6044TIP3   OH239690   1.577   1.927   0.640
 6044TIP3    H139691   1.514   1.994   0.614
 6044TIP3    H239692   1.601   1.950   0.729
 6045TIP3   OH239693   1.681   4.583   6.748
 6045TIP3    H139694   1.659   4.498   6.786
 6045TIP3    H239695   1.598   4.618   6.716
 6046TIP3   OH239696   4.108   0.788   0.041
 6046TIP3    H139697   4.015   0.764   0.037
 6046TIP3    H239698   4.154   0.707   0.019
 6047TIP3   OH239699   0.984   5.151   1.542
 6047TIP3    H139700   0.943   5.139   1.456
 6047TIP3    H239701   1.036   5.231   1.532
 6048TIP3   OH239702   1.575   2.924   7.894
 6048TIP3    H139703   1.610   2.835   7.893
 6048TIP3    H239704   1.503   2.921   7.957
 6049TIP3   OH239705   4.484   3.833   8.701
 6049TIP3    H139706   4.410   3.774   8.717
 6049TIP3    H239707   4.451   3.920   8.721
 6050TIP3   OH239708   6.071   2.787   7.628
 6050TIP3    H139709   5.997   2.781   7.688
 6050TIP3    H239710   6.083   2.881   7.613
 6051TIP3   OH239711   2.143   2.916   0.032
 6051TIP3    H139712   2.059   2.930   8.862
 6051TIP3    H239713   2.139   2.972   0.109
 6052TIP3   OH239714   1.011   5.777   1.916
 6052TIP3    H139715   1.070   5.783   1.991
 6052TIP3    H239716   0.924   5.771   1.955
 6053TIP3   OH239717   1.957   5.037   8.263
 6053TIP3    H139718   1.870   5.077   8.273
 6053TIP3    H239719   1.939   4.950   8.227
 6054TIP3   OH239720   2.112   6.206   6.791
 6054TIP3    H139721   2.069   6.214   6.705
 6054TIP3    H239722   2.201   6.179   6.770
 6055TIP3   OH239723   5.092   0.262   1.693
 6055TIP3    H139724   5.065   0.171   1.691
 6055TIP3    H239725   5.019   0.308   1.734
 6056TIP3   OH239726   5.281   5.533   1.325
 6056TIP3    H139727   5.218   5.602   1.303
 6056TIP3    H239728   5.331   5.518   1.245
 6057TIP3   OH239729   4.137   5.215   1.428
 6057TIP3    H139730   4.185   5.286   1.471
 6057TIP3    H239731   4.186   5.136   1.452
 6058TIP3   OH239732   6.637   5.491   6.832
 6058TIP3    H139733   6.551   5.513   6.797
 6058TIP3    H239734   6.696   5.500   6.757
 6059TIP3   OH239735   2.842   3.888   0.738
 6059TIP3    H139736   2.797   3.803   0.736
 6059TIP3    H239737   2.897   3.884   0.817
 6060TIP3   OH239738   0.324   4.657   8.741
 6060TIP3    H139739   0.366   4.638   8.825
 6060TIP3    H239740   0.367   4.737   8.711
 6061TIP3   OH239741   4.244   0.504   7.887
 6061TIP3    H139742   4.172   0.561   7.861
 6061TIP3    H239743   4.240   0.503   7.983
 6062TIP3   OH239744   0.867   5.092   0.784
 6062TIP3    H139745   0.868   4.997   0.771
 6062TIP3    H239746   0.819   5.127   0.709
 6063TIP3   OH239747   2.338   2.390   7.472
 6063TIP3    H139748   2.400   2.423   7.407
 6063TIP3    H239749   2.391   2.340   7.533
 6064TIP3   OH239750   2.161   0.224   1.757
 6064TIP3    H139751   2.201   0.137   1.763
 6064TIP3    H239752   2.137   0.245   1.848
 6065TIP3   OH239753   1.911   4.498   8.442
 6065TIP3    H139754   1.883   4.432   8.506
 6065TIP3    H239755   1.830   4.532   8.405
 6066TIP3   OH239756   6.703   2.549   7.674
 6066TIP3    H139757   6.741   2.631   7.707
 6066TIP3    H239758   6.624   2.577   7.628
 6067TIP3   OH239759   6.748   2.251   1.473
 6067TIP3    H139760   6.654   2.245   1.487
 6067TIP3    H239761   6.783   2.280   1.557
 6068TIP3   OH239762   2.139   2.023   0.317
 6068TIP3    H139763   2.157   2.109   0.280
 6068TIP3    H239764   2.167   1.961   0.250
 6069TIP3   OH239765   4.684   6.363   2.376
 6069TIP3    H139766   4.719   6.354   2.464
 6069TIP3    H239767   4.752   6.410   2.327
 6070TIP3   OH239768   5.894   3.812   0.879
 6070TIP3    H139769   5.844   3.730   0.881
 6070TIP3    H239770   5.854   3.866   0.947
 6071TIP3   OH239771   1.327   3.252   6.828
 6071TIP3    H139772   1.306   3.335   6.871
 6071TIP3    H239773   1.245   3.225   6.786
 6072TIP3   OH239774   4.340   4.605   8.025
 6072TIP3    H139775   4.293   4.687   8.039
 6072TIP3    H239776   4.309   4.573   7.940
 6073TIP3   OH239777   3.622   0.595   0.212
 6073TIP3    H139778   3.547   0.587   0.153
 6073TIP3    H239779   3.599   0.666   0.272
 6074TIP3   OH239780   2.005   1.630   1.463
 6074TIP3    H139781   1.969   1.566   1.402
 6074TIP3    H239782   2.040   1.700   1.408
 6075TIP3   OH239783   3.311   6.489   0.388
 6075TIP3    H139784   3.365   6.546   0.443
 6075TIP3    H239785   3.354   6.404   0.394
 6076TIP3   OH239786   3.786   3.976   1.235
 6076TIP3    H139787   3.698   3.993   1.203
 6076TIP3    H239788   3.783   3.997   1.328
 6077TIP3   OH239789   1.584   1.185   0.892
 6077TIP3    H139790   1.618   1.098   0.874
 6077TIP3    H239791   1.601   1.235   0.812
 6078TIP3   OH239792   3.633   4.104   7.705
 6078TIP3    H139793   3.594   4.137   7.787
 6078TIP3    H239794   3.711   4.056   7.734
 6079TIP3   OH239795   5.497   0.300   7.479
 6079TIP3    H139796   5.456   0.251   7.551
 6079TIP3    H239797   5.567   0.350   7.520
 6080TIP3   OH239798   2.482   3.730   7.183
 6080TIP3    H139799   2.397   3.759   7.148
 6080TIP3    H239800   2.531   3.703   7.106
 6081TIP3   OH239801   0.283   1.599   2.268
 6081TIP3    H139802   0.342   1.667   2.236
 6081TIP3    H239803   0.202   1.614   2.219
 6082TIP3   OH239804   5.506   5.002   8.641
 6082TIP3    H139805   5.506   4.957   8.726
 6082TIP3    H239806   5.427   4.971   8.598
 6083TIP3   OH239807   0.641   3.469   1.745
 6083TIP3    H139808   0.568   3.530   1.748
 6083TIP3    H239809   0.616   3.403   1.680
 6084TIP3   OH239810   4.871   5.805   1.465
 6084TIP3    H139811   4.789   5.834   1.425
 6084TIP3    H239812   4.854   5.808   1.559
 6085TIP3   OH239813   0.814   1.993   1.205
 6085TIP3    H139814   0.754   1.922   1.227
 6085TIP3    H239815   0.890   1.979   1.262
 6086TIP3   OH239816   5.606   2.625   1.392
 6086TIP3    H139817   5.541   2.680   1.350
 6086TIP3    H239818   5.689   2.649   1.351
 6087TIP3   OH239819   3.272   6.197   0.101
 6087TIP3    H139820   3.317   6.151   0.172
 6087TIP3    H239821   3.191   6.229   0.141
 6088TIP3   OH239822   1.050   0.495   0.706
 6088TIP3    H139823   0.963   0.487   0.745
 6088TIP3    H239824   1.091   0.410   0.719
 6089TIP3   OH239825   5.537   2.670   7.232
 6089TIP3    H139826   5.550   2.596   7.291
 6089TIP3    H239827   5.586   2.742   7.272
 6090TIP3   OH239828   4.664   1.868   7.980
 6090TIP3    H139829   4.596   1.806   8.008
 6090TIP3    H239830   4.621   1.953   7.985
 6091TIP3   OH239831   4.988   6.197   8.871
 6091TIP3    H139832   4.944   6.216   0.080
 6091TIP3    H239833   5.066   6.252   8.873
 6092TIP3   OH239834   4.439   3.508   0.123
 6092TIP3    H139835   4.366   3.446   0.134
 6092TIP3    H239836   4.501   3.462   0.066
 6093TIP3   OH239837   2.507   0.422   0.487
 6093TIP3    H139838   2.562   0.378   0.422
 6093TIP3    H239839   2.536   0.387   0.571
 6094TIP3   OH239840   6.784   5.669   1.280
 6094TIP3    H139841   6.722   5.611   1.324
 6094TIP3    H239842   0.072   5.624   1.289
 6095TIP3   OH239843   3.573   4.034   0.184
 6095TIP3    H139844   3.570   4.053   0.090
 6095TIP3    H239845   3.499   4.084   0.221
 6096TIP3   OH239846   1.289   5.746   7.945
 6096TIP3    H139847   1.295   5.685   7.872
 6096TIP3    H239848   1.325   5.828   7.911
 6097TIP3   OH239849   6.334   5.334   1.851
 6097TIP3    H139850   6.396   5.403   1.827
 6097TIP3    H239851   6.365   5.256   1.804
 6098TIP3   OH239852   3.678   3.093   7.280
 6098TIP3    H139853   3.607   3.154   7.298
 6098TIP3    H239854   3.737   3.101   7.355
 6099TIP3   OH239855   6.307   3.901   0.024
 6099TIP3    H139856   6.385   3.947   0.056
 6099TIP3    H239857   6.337   3.812   0.007
 6100TIP3   OH239858   5.803   3.724   7.006
 6100TIP3    H139859   5.884   3.774   6.992
 6100TIP3    H239860   5.756   3.729   6.923
 6101TIP3   OH239861   1.188   5.251   7.170
 6101TIP3    H139862   1.233   5.246   7.086
 6101TIP3    H239863   1.096   5.238   7.149
 6102TIP3   OH239864   3.038   5.063   0.527
 6102TIP3    H139865   3.116   5.118   0.520
 6102TIP3    H239866   2.996   5.090   0.609
 6103TIP3   OH239867   3.315   1.757   8.873
 6103TIP3    H139868   3.393   1.701   0.008
 6103TIP3    H239869   3.341   1.840   0.038
 6104TIP3   OH239870   2.077   2.942   7.590
 6104TIP3    H139871   2.080   2.855   7.631
 6104TIP3    H239872   2.013   2.990   7.643
 6105TIP3   OH239873   2.490   4.317   8.297
 6105TIP3    H139874   2.515   4.407   8.320
 6105TIP3    H239875   2.482   4.273   8.382
 6106TIP3   OH239876   1.151   5.772   0.614
 6106TIP3    H139877   1.209   5.841   0.580
 6106TIP3    H239878   1.063   5.805   0.598
 6107TIP3   OH239879   0.086   3.945   0.913
 6107TIP3    H139880   0.099   4.039   0.926
 6107TIP3    H239881   0.068   3.911   1.001
 6108TIP3   OH239882   5.039   3.874   7.647
 6108TIP3    H139883   5.034   3.779   7.639
 6108TIP3    H239884   4.954   3.905   7.615
 6109TIP3   OH239885   5.481   4.209   7.968
 6109TIP3    H139886   5.418   4.165   8.026
 6109TIP3    H239887   5.557   4.227   8.023
 6110TIP3   OH239888   0.712   3.803   7.428
 6110TIP3    H139889   0.748   3.890   7.413
 6110TIP3    H239890   0.787   3.744   7.425
 6111TIP3   OH239891   5.672   0.901   1.499
 6111TIP3    H139892   5.667   0.837   1.570
 6111TIP3    H239893   5.608   0.870   1.435
 6112TIP3   OH239894   3.152   3.299   1.713
 6112TIP3    H139895   3.228   3.264   1.759
 6112TIP3    H239896   3.080   3.240   1.738
 6113TIP3   OH239897   0.172   2.078   0.851
 6113TIP3    H139898   0.208   1.992   0.871
 6113TIP3    H239899   0.084   2.061   0.817
 6114TIP3   OH239900   5.705   0.736   1.072
 6114TIP3    H139901   5.661   0.655   1.096
 6114TIP3    H239902   5.787   0.709   1.031
 6115TIP3   OH239903   4.480   2.242   2.333
 6115TIP3    H139904   4.436   2.316   2.374
 6115TIP3    H239905   4.540   2.281   2.270
 6116TIP3   OH239906   3.963   6.199   1.677
 6116TIP3    H139907   3.957   6.216   1.771
 6116TIP3    H239908   3.902   6.260   1.637
 6117TIP3   OH239909   0.895   5.987   6.412
 6117TIP3    H139910   0.819   5.941   6.447
 6117TIP3    H239911   0.924   6.043   6.484
 6118TIP3   OH239912   6.500   1.193   2.105
 6118TIP3    H139913   6.478   1.196   2.198
 6118TIP3    H239914   6.476   1.280   2.073
 6119TIP3   OH239915   3.169   4.887   7.079
 6119TIP3    H139916   3.206   4.880   6.991
 6119TIP3    H239917   3.192   4.976   7.107
 6120TIP3   OH239918   2.060   2.238   8.418
 6120TIP3    H139919   2.142   2.200   8.449
 6120TIP3    H239920   2.079   2.330   8.404
 6121TIP3   OH239921   1.951   1.491   7.297
 6121TIP3    H139922   1.898   1.502   7.218
 6121TIP3    H239923   1.944   1.398   7.318
 6122TIP3   OH239924   0.645   1.767   8.099
 6122TIP3    H139925   0.670   1.814   8.020
 6122TIP3    H239926   0.634   1.676   8.071
 6123TIP3   OH239927   0.091   5.918   8.050
 6123TIP3    H139928   0.020   5.957   8.101
 6123TIP3    H239929   0.161   5.903   8.114
 6124TIP3   OH239930   6.618   6.088   7.391
 6124TIP3    H139931   6.610   6.184   7.396
 6124TIP3    H239932   6.611   6.068   7.297
 6125TIP3   OH239933   3.711   2.370   1.399
 6125TIP3    H139934   3.620   2.338   1.395
 6125TIP3    H239935   3.704   2.463   1.377
 6126TIP3   OH239936   2.965   4.675   0.505
 6126TIP3    H139937   3.012   4.751   0.540
 6126TIP3    H239938   2.984   4.676   0.412
 6127TIP3   OH239939   6.281   0.306   7.437
 6127TIP3    H139940   6.274   0.210   7.437
 6127TIP3    H239941   6.318   0.327   7.351
 6128TIP3   OH239942   5.728   0.388   8.391
 6128TIP3    H139943   5.799   0.452   8.395
 6128TIP3    H239944   5.743   0.342   8.308
 6129TIP3   OH239945   3.240   0.822   6.640
 6129TIP3    H139946   3.312   0.881   6.619
 6129TIP3    H239947   3.274   0.734   6.622
 6130TIP3   OH239948   2.114   0.093   8.361
 6130TIP3    H139949   2.044   0.069   8.421
 6130TIP3    H239950   2.163   0.162   8.406
 6131TIP3   OH239951   3.298   2.731   0.744
 6131TIP3    H139952   3.344   2.698   0.821
 6131TIP3    H239953   3.225   2.670   0.732
 6132TIP3   OH239954   5.724   1.500   7.131
 6132TIP3    H139955   5.730   1.586   7.089
 6132TIP3    H239956   5.705   1.520   7.222
 6133TIP3   OH239957   2.531   5.274   1.955
 6133TIP3    H139958   2.547   5.181   1.938
 6133TIP3    H239959   2.560   5.288   2.045
 6134TIP3   OH239960   3.790   2.153   2.694
 6134TIP3    H139961   3.788   2.248   2.705
 6134TIP3    H239962   3.705   2.123   2.725
 6135TIP3   OH239963   5.104   5.685   1.747
 6135TIP3    H139964   5.054   5.623   1.695
 6135TIP3    H239965   5.127   5.755   1.685
 6136TIP3   OH239966   3.439   5.516   1.953
 6136TIP3    H139967   3.531   5.498   1.938
 6136TIP3    H239968   3.437   5.573   2.030
 6137TIP3   OH239969   4.413   3.987   8.430
 6137TIP3    H139970   4.358   3.910   8.445
 6137TIP3    H239971   4.415   4.031   8.515
 6138TIP3   OH239972   3.706   3.323   8.872
 6138TIP3    H139973   3.664   3.392   8.822
 6138TIP3    H239974   3.755   3.368   0.066
 6139TIP3   OH239975   6.021   1.803   2.155
 6139TIP3    H139976   6.065   1.830   2.236
 6139TIP3    H239977   5.968   1.878   2.130
 6140TIP3   OH239978   3.031   3.376   0.390
 6140TIP3    H139979   3.120   3.345   0.403
 6140TIP3    H239980   3.025   3.390   0.295
 6141TIP3   OH239981   5.363   3.303   1.240
 6141TIP3    H139982   5.414   3.276   1.316
 6141TIP3    H239983   5.297   3.363   1.275
 6142TIP3   OH239984   4.678   5.948   1.337
 6142TIP3    H139985   4.585   5.932   1.325
 6142TIP3    H239986   4.706   5.993   1.258
 6143TIP3   OH239987   3.578   3.969   6.743
 6143TIP3    H139988   3.613   4.024   6.673
 6143TIP3    H239989   3.489   3.947   6.714
 6144TIP3   OH239990   3.987   3.456   8.723
 6144TIP3    H139991   4.035   3.492   8.798
 6144TIP3    H239992   4.001   3.361   8.729
 6145TIP3   OH239993   2.821   3.038   7.952
 6145TIP3    H139994   2.754   2.992   8.003
 6145TIP3    H239995   2.867   3.093   8.016
 6146TIP3   OH239996   0.675   2.203   7.862
 6146TIP3    H139997   0.704   2.132   7.805
 6146TIP3    H239998   0.595   2.236   7.820
 6147TIP3   OH239999   2.711   4.657   7.568
 6147TIP3    H140000   2.678   4.708   7.642
 6147TIP3    H240001   2.650   4.583   7.560
 6148TIP3   OH240002   6.127   4.599   0.637
 6148TIP3    H140003   6.053   4.568   0.585
 6148TIP3    H240004   6.167   4.519   0.671
 6149TIP3   OH240005   1.880   1.465   0.648
 6149TIP3    H140006   1.787   1.448   0.630
 6149TIP3    H240007   1.885   1.560   0.657
 6150TIP3   OH240008   5.931   3.693   1.480
 6150TIP3    H140009   5.840   3.663   1.491
 6150TIP3    H240010   5.966   3.694   1.569
 6151TIP3   OH240011   1.644   3.886   8.316
 6151TIP3    H140012   1.718   3.841   8.276
 6151TIP3    H240013   1.653   3.977   8.287
 6152TIP3   OH240014   4.644   0.384   8.596
 6152TIP3    H140015   4.708   0.317   8.571
 6152TIP3    H240016   4.687   0.435   8.664
 6153TIP3   OH240017   5.783   1.621   1.855
 6153TIP3    H140018   5.705   1.613   1.799
 6153TIP3    H240019   5.807   1.713   1.849
 6154TIP3   OH240020   4.402   3.148   1.360
 6154TIP3    H140021   4.483   3.106   1.389
 6154TIP3    H240022   4.353   3.163   1.440
 6155TIP3   OH240023   6.553   6.184   0.660
 6155TIP3    H140024   6.480   6.237   0.693
 6155TIP3    H240025   6.563   6.114   0.725
 6156TIP3   OH240026   6.689   5.094   0.979
 6156TIP3    H140027   6.743   5.058   1.049
 6156TIP3    H240028   6.751   5.112   0.908
 6157TIP3   OH240029   2.062   3.076   0.682
 6157TIP3    H140030   2.105   3.159   0.702
 6157TIP3    H240031   2.094   3.015   0.748
 6158TIP3   OH240032   6.402   3.887   1.763
 6158TIP3    H140033   6.469   3.822   1.747
 6158TIP3    H240034   6.346   3.884   1.685
 6159TIP3   OH240035   2.299   5.465   1.520
 6159TIP3    H140036   2.283   5.371   1.522
 6159TIP3    H240037   2.293   5.492   1.612
 6160TIP3   OH240038   5.072   4.412   8.783
 6160TIP3    H140039   5.122   4.474   8.729
 6160TIP3    H240040   5.058   4.337   8.725
 6161TIP3   OH240041   1.382   3.549   7.881
 6161TIP3    H140042   1.458   3.513   7.835
 6161TIP3    H240043   1.377   3.640   7.850
 6162TIP3   OH240044   0.662   2.732   0.886
 6162TIP3    H140045   0.648   2.816   0.931
 6162TIP3    H240046   0.576   2.689   0.890
 6163TIP3   OH240047   0.856   2.057   0.297
 6163TIP3    H140048   0.864   2.058   0.201
 6163TIP3    H240049   0.811   2.138   0.319
 6164TIP3   OH240050   0.197   3.400   7.148
 6164TIP3    H140051   0.262   3.379   7.080
 6164TIP3    H240052   0.160   3.315   7.173
 6165TIP3   OH240053   4.552   6.284   0.057
 6165TIP3    H140054   4.609   6.347   0.103
 6165TIP3    H240055   4.607   6.247   8.863
 6166TIP3   OH240056   2.948   4.907   8.272
 6166TIP3    H140057   3.013   4.835   8.273
 6166TIP3    H240058   2.874   4.871   8.223
 6167TIP3   OH240059   6.020   0.976   0.459
 6167TIP3    H140060   5.944   1.028   0.434
 6167TIP3    H240061   5.995   0.886   0.439
 6168TIP3   OH240062   6.714   6.305   6.800
 6168TIP3    H140063   6.623   6.321   6.774
 6168TIP3    H240064   6.748   6.246   6.733
 6169TIP3   OH240065   6.398   4.395   6.600
 6169TIP3    H140066   6.433   4.306   6.612
 6169TIP3    H240067   6.387   4.405   6.506
 6170TIP3   OH240068   1.370   6.127   6.751
 6170TIP3    H140069   1.318   6.145   6.830
 6170TIP3    H240070   1.323   6.056   6.708
 6171TIP3   OH240071   2.978   0.401   7.427
 6171TIP3    H140072   2.890   0.380   7.458
 6171TIP3    H240073   2.968   0.485   7.382
 6172TIP3   OH240074   0.638   0.106   7.936
 6172TIP3    H140075   0.628   0.181   7.995
 6172TIP3    H240076   0.635   0.029   7.994
 6173TIP3   OH240077   4.675   4.833   6.407
 6173TIP3    H140078   4.617   4.894   6.362
 6173TIP3    H240079   4.649   4.747   6.376
 6174TIP3   OH240080   5.319   1.607   1.299
 6174TIP3    H140081   5.273   1.683   1.263
 6174TIP3    H240082   5.249   1.545   1.320
 6175TIP3   OH240083   3.500   1.456   0.861
 6175TIP3    H140084   3.427   1.505   0.824
 6175TIP3    H240085   3.575   1.479   0.806
 6176TIP3   OH240086   0.293   2.776   2.046
 6176TIP3    H140087   0.206   2.734   2.044
 6176TIP3    H240088   0.354   2.705   2.028
 6177TIP3   OH240089   6.129   2.435   1.981
 6177TIP3    H140090   6.108   2.406   2.070
 6177TIP3    H240091   6.225   2.438   1.980
 6178TIP3   OH240092   1.130   0.721   7.735
 6178TIP3    H140093   1.052   0.768   7.707
 6178TIP3    H240094   1.129   0.640   7.683
 6179TIP3   OH240095   2.200   5.647   2.665
 6179TIP3    H140096   2.249   5.707   2.720
 6179TIP3    H240097   2.228   5.668   2.576
 6180TIP3   OH240098   2.807   6.439   0.507
 6180TIP3    H140099   2.875   6.483   0.456
 6180TIP3    H240100   2.855   6.393   0.577
 6181TIP3   OH240101   3.425   4.881   8.108
 6181TIP3    H140102   3.490   4.811   8.095
 6181TIP3    H240103   3.400   4.874   8.200
 6182TIP3   OH240104   1.004   0.219   8.751
 6182TIP3    H140105   1.004   0.149   8.817
 6182TIP3    H240106   0.939   0.282   8.783
 6183TIP3   OH240107   4.605   4.453   7.682
 6183TIP3    H140108   4.609   4.402   7.600
 6183TIP3    H240109   4.623   4.389   7.750
 6184TIP3   OH240110   6.047   1.577   1.993
 6184TIP3    H140111   5.973   1.518   2.006
 6184TIP3    H240112   6.015   1.662   2.024
 6185TIP3   OH240113   3.602   4.398   0.175
 6185TIP3    H140114   3.528   4.415   0.234
 6185TIP3    H240115   3.679   4.411   0.230
 6186TIP3   OH240116   3.224   1.596   1.493
 6186TIP3    H140117   3.225   1.556   1.406
 6186TIP3    H240118   3.131   1.616   1.508
 6187TIP3   OH240119   4.497   5.001   7.701
 6187TIP3    H140120   4.482   4.995   7.607
 6187TIP3    H240121   4.459   4.921   7.736
 6188TIP3   OH240122   1.549   5.138   8.798
 6188TIP3    H140123   1.559   5.069   8.863
 6188TIP3    H240124   1.623   5.125   8.738
 6189TIP3   OH240125   4.483   1.600   2.163
 6189TIP3    H140126   4.520   1.558   2.240
 6189TIP3    H240127   4.495   1.694   2.178
 6190TIP3   OH240128   5.928   6.702   1.322
 6190TIP3    H140129   5.937   6.696   1.227
 6190TIP3    H240130   5.877   6.782   1.336
 6191TIP3   OH240131   1.152   1.101   0.637
 6191TIP3    H140132   1.147   1.134   0.726
 6191TIP3    H240133   1.189   1.174   0.586
 6192TIP3   OH240134   4.504   5.297   7.721
 6192TIP3    H140135   4.504   5.202   7.732
 6192TIP3    H240136   4.569   5.329   7.783
 6193TIP3   OH240137   1.035   5.322   7.432
 6193TIP3    H140138   1.106   5.317   7.368
 6193TIP3    H240139   0.956   5.326   7.379
 6194TIP3   OH240140   4.283   2.614   0.612
 6194TIP3    H140141   4.350   2.581   0.672
 6194TIP3    H240142   4.331   2.641   0.534
 6195TIP3   OH240143   5.554   6.513   0.314
 6195TIP3    H140144   5.617   6.560   0.260
 6195TIP3    H240145   5.608   6.467   0.379
 6196TIP3   OH240146   0.885   0.453   7.973
 6196TIP3    H140147   0.873   0.532   7.920
 6196TIP3    H240148   0.814   0.456   8.036
 6197TIP3   OH240149   6.616   3.718   1.343
 6197TIP3    H140150   6.579   3.630   1.340
 6197TIP3    H240151   6.643   3.736   1.253
 6198TIP3   OH240152   0.188   3.559   6.192
 6198TIP3    H140153   0.179   3.469   6.163
 6198TIP3    H240154   0.270   3.589   6.152
 6199TIP3   OH240155   0.045   6.760   1.372
 6199TIP3    H140156   6.767   0.017   1.401
 6199TIP3    H240157   0.121   0.020   1.385
 6200TIP3   OH240158   3.219   1.320   7.182
 6200TIP3    H140159   3.304   1.321   7.138
 6200TIP3    H240160   3.173   1.396   7.148
 6201TIP3   OH240161   4.271   0.435   2.019
 6201TIP3    H140162   4.221   0.471   2.092
 6201TIP3    H240163   4.341   0.383   2.060
 6202TIP3   OH240164   2.750   4.136   8.512
 6202TIP3    H140165   2.746   4.132   8.417
 6202TIP3    H240166   2.659   4.134   8.541
 6203TIP3   OH240167   2.412   3.799   1.160
 6203TIP3    H140168   2.387   3.868   1.222
 6203TIP3    H240169   2.331   3.777   1.115
 6204TIP3   OH240170   4.976   1.157   0.257
 6204TIP3    H140171   4.955   1.086   0.317
 6204TIP3    H240172   5.012   1.226   0.312
 6205TIP3   OH240173   4.679   6.132   0.437
 6205TIP3    H140174   4.613   6.162   0.376
 6205TIP3    H240175   4.682   6.199   0.505
 6206TIP3   OH240176   5.910   4.496   0.502
 6206TIP3    H140177   5.851   4.424   0.524
 6206TIP3    H240178   5.861   4.550   0.441
 6207TIP3   OH240179   0.463   1.138   1.892
 6207TIP3    H140180   0.532   1.184   1.844
 6207TIP3    H240181   0.499   1.127   1.980
 6208TIP3   OH240182   0.860   2.362   7.347
 6208TIP3    H140183   0.774   2.349   7.306
 6208TIP3    H240184   0.840   2.400   7.433
 6209TIP3   OH240185   3.529   4.347   6.707
 6209TIP3    H140186   3.521   4.437   6.739
 6209TIP3    H240187   3.439   4.322   6.685
 6210TIP3   OH240188   3.543   2.662   1.509
 6210TIP3    H140189   3.487   2.660   1.587
 6210TIP3    H240190   3.615   2.721   1.533
 6211TIP3   OH240191   3.110   2.928   8.526
 6211TIP3    H140192   3.203   2.951   8.524
 6211TIP3    H240193   3.084   2.942   8.617
 6212TIP3   OH240194   4.623   5.159   8.727
 6212TIP3    H140195   4.669   5.164   8.811
 6212TIP3    H240196   4.532   5.182   8.748
 6213TIP3   OH240197   5.051   4.869   8.140
 6213TIP3    H140198   5.088   4.817   8.069
 6213TIP3    H240199   5.125   4.922   8.172
 6214TIP3   OH240200   3.798   1.971   1.069
 6214TIP3    H140201   3.842   2.055   1.057
 6214TIP3    H240202   3.722   1.974   1.012
 6215TIP3   OH240203   6.600   6.574   0.018
 6215TIP3    H140204   6.554   6.563   8.810
 6215TIP3    H240205   6.538   6.621   0.074
 6216TIP3   OH240206   2.890   2.464   7.888
 6216TIP3    H140207   2.959   2.424   7.836
 6216TIP3    H240208   2.936   2.522   7.949
 6217TIP3   OH240209   5.710   0.411   8.748
 6217TIP3    H140210   5.673   0.474   8.685
 6217TIP3    H240211   5.660   0.331   8.735
 6218TIP3   OH240212   2.630   5.592   1.508
 6218TIP3    H140213   2.632   5.525   1.576
 6218TIP3    H240214   2.670   5.669   1.549
 6219TIP3   OH240215   1.857   3.727   8.218
 6219TIP3    H140216   1.847   3.672   8.140
 6219TIP3    H240217   1.855   3.665   8.291
 6220TIP3   OH240218   6.461   3.295   1.935
 6220TIP3    H140219   6.554   3.281   1.955
 6220TIP3    H240220   6.415   3.269   2.014
 6221TIP3   OH240221   3.604   3.808   1.452
 6221TIP3    H140222   3.692   3.819   1.488
 6221TIP3    H240223   3.568   3.897   1.447
 6222TIP3   OH240224   2.613   4.763   8.634
 6222TIP3    H140225   2.555   4.720   8.571
 6222TIP3    H240226   2.557   4.826   8.678
 6223TIP3   OH240227   4.999   1.814   8.416
 6223TIP3    H140228   4.927   1.813   8.354
 6223TIP3    H240229   4.972   1.755   8.487
 6224TIP3   OH240230   4.109   6.595   6.904
 6224TIP3    H140231   4.146   6.672   6.861
 6224TIP3    H240232   4.143   6.598   6.993
 6225TIP3   OH240233   1.284   3.209   7.896
 6225TIP3    H140234   1.377   3.230   7.887
 6225TIP3    H240235   1.239   3.277   7.846
 6226TIP3   OH240236   0.778   3.404   7.513
 6226TIP3    H140237   0.694   3.448   7.524
 6226TIP3    H240238   0.823   3.455   7.446
 6227TIP3   OH240239   3.765   2.467   0.104
 6227TIP3    H140240   3.810   2.542   0.142
 6227TIP3    H240241   3.725   2.502   0.024
 6228TIP3   OH240242   2.156   1.808   0.113
 6228TIP3    H140243   2.110   1.728   0.141
 6228TIP3    H240244   2.165   1.799   0.018
 6229TIP3   OH240245   4.071   1.166   8.331
 6229TIP3    H140246   4.157   1.127   8.317
 6229TIP3    H240247   4.077   1.206   8.418
 6230TIP3   OH240248   2.140   4.195   0.296
 6230TIP3    H140249   2.142   4.193   0.201
 6230TIP3    H240250   2.181   4.279   0.319
 6231TIP3   OH240251   3.239   0.621   1.601
 6231TIP3    H140252   3.204   0.615   1.512
 6231TIP3    H240253   3.187   0.689   1.643
 6232TIP3   OH240254   3.411   5.047   1.064
 6232TIP3    H140255   3.407   5.024   1.157
 6232TIP3    H240256   3.379   4.970   1.019
 6233TIP3   OH240257   6.339   4.145   1.791
 6233TIP3    H140258   6.276   4.130   1.721
 6233TIP3    H240259   6.378   4.059   1.808
 6234TIP3   OH240260   4.048   2.738   0.533
 6234TIP3    H140261   4.002   2.772   0.610
 6234TIP3    H240262   4.133   2.710   0.567
 6235TIP3   OH240263   1.243   3.634   1.316
 6235TIP3    H140264   1.297   3.708   1.346
 6235TIP3    H240265   1.228   3.583   1.395
 6236TIP3   OH240266   2.826   1.936   7.417
 6236TIP3    H140267   2.752   1.927   7.476
 6236TIP3    H240268   2.848   1.847   7.390
 6237TIP3   OH240269   5.506   1.267   7.044
 6237TIP3    H140270   5.514   1.214   7.123
 6237TIP3    H240271   5.438   1.331   7.066
 6238TIP3   OH240272   0.652   1.914   1.471
 6238TIP3    H140273   0.737   1.898   1.512
 6238TIP3    H240274   0.598   1.840   1.497
 6239TIP3   OH240275   2.907   4.146   2.324
 6239TIP3    H140276   2.951   4.066   2.352
 6239TIP3    H240277   2.826   4.116   2.283
 6240TIP3   OH240278   0.799   4.834   0.710
 6240TIP3    H140279   0.830   4.748   0.734
 6240TIP3    H240280   0.704   4.824   0.702
 6241TIP3   OH240281   0.330   2.071   6.302
 6241TIP3    H140282   0.247   2.026   6.288
 6241TIP3    H240283   0.306   2.155   6.341
 6242TIP3   OH240284   6.187   5.546   0.025
 6242TIP3    H140285   6.164   5.633   8.867
 6242TIP3    H240286   6.217   5.498   8.822
 6243TIP3   OH240287   5.496   4.305   1.758
 6243TIP3    H140288   5.486   4.265   1.672
 6243TIP3    H240289   5.582   4.276   1.788
 6244TIP3   OH240290   5.115   3.268   2.324
 6244TIP3    H140291   5.146   3.312   2.245
 6244TIP3    H240292   5.107   3.176   2.299
 6245TIP3   OH240293   4.306   5.598   7.526
 6245TIP3    H140294   4.396   5.568   7.532
 6245TIP3    H240295   4.254   5.522   7.552
 6246TIP3   OH240296   5.734   3.380   8.866
 6246TIP3    H140297   5.737   3.329   8.785
 6246TIP3    H240298   5.760   3.468   8.840
 6247TIP3   OH240299   2.877   0.152   1.402
 6247TIP3    H140300   2.869   0.110   1.488
 6247TIP3    H240301   2.938   0.097   1.354
 6248TIP3   OH240302   3.890   2.704   6.587
 6248TIP3    H140303   3.797   2.688   6.600
 6248TIP3    H240304   3.898   2.727   6.495
 6249TIP3   OH240305   0.428   4.058   7.803
 6249TIP3    H140306   0.439   4.029   7.712
 6249TIP3    H240307   0.476   3.994   7.855
 6250TIP3   OH240308   0.566   4.851   1.096
 6250TIP3    H140309   0.644   4.805   1.067
 6250TIP3    H240310   0.547   4.913   1.026
 6251TIP3   OH240311   2.616   3.208   7.420
 6251TIP3    H140312   2.569   3.251   7.491
 6251TIP3    H240313   2.708   3.213   7.445
 6252TIP3   OH240314   3.149   3.503   1.055
 6252TIP3    H140315   3.066   3.466   1.026
 6252TIP3    H240316   3.181   3.442   1.121
 6253TIP3   OH240317   2.029   6.347   7.611
 6253TIP3    H140318   1.969   6.299   7.668
 6253TIP3    H240319   2.058   6.421   7.663
 6254TIP3   OH240320   4.206   0.092   6.876
 6254TIP3    H140321   4.293   0.128   6.891
 6254TIP3    H240322   4.208   0.061   6.786
 6255TIP3   OH240323   4.737   5.984   8.299
 6255TIP3    H140324   4.723   5.951   8.210
 6255TIP3    H240325   4.673   5.937   8.352
 6256TIP3   OH240326   4.313   1.209   1.349
 6256TIP3    H140327   4.227   1.229   1.387
 6256TIP3    H240328   4.359   1.160   1.418
 6257TIP3   OH240329   4.531   4.062   0.289
 6257TIP3    H140330   4.575   4.081   0.206
 6257TIP3    H240331   4.595   4.010   0.339
 6258TIP3   OH240332   6.589   5.551   8.066
 6258TIP3    H140333   6.565   5.458   8.067
 6258TIP3    H240334   6.513   5.594   8.026
 6259TIP3   OH240335   6.738   5.171   8.275
 6259TIP3    H140336   0.008   5.138   8.215
 6259TIP3    H240337   6.784   5.236   8.328
 6260TIP3   OH240338   2.538   2.352   8.678
 6260TIP3    H140339   2.536   2.434   8.629
 6260TIP3    H240340   2.605   2.299   8.635
 6261TIP3   OH240341   4.611   3.692   1.930
 6261TIP3    H140342   4.568   3.737   1.857
 6261TIP3    H240343   4.703   3.687   1.904
 6262TIP3   OH240344   0.795   5.225   6.759
 6262TIP3    H140345   0.859   5.242   6.690
 6262TIP3    H240346   0.822   5.140   6.795
 6263TIP3   OH240347   0.293   1.773   1.285
 6263TIP3    H140348   0.336   1.858   1.268
 6263TIP3    H240349   0.250   1.751   1.203
 6264TIP3   OH240350   0.031   2.701   0.700
 6264TIP3    H140351   0.092   2.736   0.635
 6264TIP3    H240352   6.742   2.734   0.674
 6265TIP3   OH240353   1.301   0.935   7.662
 6265TIP3    H140354   1.302   0.965   7.571
 6265TIP3    H240355   1.260   0.849   7.659
 6266TIP3   OH240356   6.037   0.414   2.266
 6266TIP3    H140357   6.125   0.450   2.275
 6266TIP3    H240358   6.048   0.320   2.282
 6267TIP3   OH240359   3.842   0.528   1.759
 6267TIP3    H140360   3.750   0.505   1.759
 6267TIP3    H240361   3.857   0.572   1.843
 6268TIP3   OH240362   1.093   1.108   7.771
 6268TIP3    H140363   1.149   1.047   7.723
 6268TIP3    H240364   1.142   1.191   7.771
 6269TIP3   OH240365   5.731   0.766   7.581
 6269TIP3    H140366   5.766   0.835   7.525
 6269TIP3    H240367   5.787   0.690   7.564
 6270TIP3   OH240368   1.724   3.033   0.251
 6270TIP3    H140369   1.652   2.986   0.293
 6270TIP3    H240370   1.734   2.991   0.166
 6271TIP3   OH240371   0.026   5.873   7.791
 6271TIP3    H140372   0.059   5.887   7.880
 6271TIP3    H240373   6.737   5.832   7.804
 6272TIP3   OH240374   4.802   6.744   7.557
 6272TIP3    H140375   4.767   6.695   7.632
 6272TIP3    H240376   4.894   6.757   7.577
 6273TIP3   OH240377   3.526   4.791   2.677
 6273TIP3    H140378   3.583   4.715   2.687
 6273TIP3    H240379   3.524   4.809   2.583
 6274TIP3   OH240380   1.860   0.190   6.649
 6274TIP3    H140381   1.817   0.274   6.663
 6274TIP3    H240382   1.802   0.144   6.588
 6275TIP3   OH240383   4.957   1.557   8.226
 6275TIP3    H140384   4.899   1.627   8.196
 6275TIP3    H240385   4.984   1.583   8.314
 6276TIP3   OH240386   4.435   5.696   7.963
 6276TIP3    H140387   4.509   5.709   7.903
 6276TIP3    H240388   4.475   5.686   8.049
 6277TIP3   OH240389   1.155   2.122   1.083
 6277TIP3    H140390   1.072   2.074   1.078
 6277TIP3    H240391   1.142   2.198   1.026
 6278TIP3   OH240392   3.025   2.216   7.444
 6278TIP3    H140393   2.939   2.220   7.401
 6278TIP3    H240394   3.026   2.292   7.503
 6279TIP3   OH240395   0.729   4.453   7.926
 6279TIP3    H140396   0.645   4.420   7.894
 6279TIP3    H240397   0.781   4.468   7.847
 6280TIP3   OH240398   2.733   1.566   8.845
 6280TIP3    H140399   2.795   1.524   8.785
 6280TIP3    H240400   2.786   1.631   0.017
 6281TIP3   OH240401   6.219   2.995   2.390
 6281TIP3    H140402   6.150   2.955   2.337
 6281TIP3    H240403   6.226   3.085   2.356
 6282TIP3   OH240404   4.430   6.155   1.656
 6282TIP3    H140405   4.349   6.105   1.644
 6282TIP3    H240406   4.417   6.235   1.606
 6283TIP3   OH240407   0.541   3.306   0.312
 6283TIP3    H140408   0.494   3.376   0.265
 6283TIP3    H240409   0.634   3.327   0.299
 6284TIP3   OH240410   3.466   1.390   2.449
 6284TIP3    H140411   3.548   1.351   2.479
 6284TIP3    H240412   3.444   1.454   2.516
 6285TIP3   OH240413   2.714   1.916   1.863
 6285TIP3    H140414   2.729   1.902   1.956
 6285TIP3    H240415   2.784   1.866   1.819
 6286TIP3   OH240416   5.180   1.547   7.448
 6286TIP3    H140417   5.264   1.587   7.425
 6286TIP3    H240418   5.194   1.453   7.434
 6287TIP3   OH240419   1.821   2.421   0.698
 6287TIP3    H140420   1.861   2.491   0.646
 6287TIP3    H240421   1.829   2.343   0.643
 6288TIP3   OH240422   1.488   2.878   0.458
 6288TIP3    H140423   1.469   2.850   0.548
 6288TIP3    H240424   1.495   2.797   0.409
 6289TIP3   OH240425   2.509   1.347   2.660
 6289TIP3    H140426   2.457   1.395   2.595
 6289TIP3    H240427   2.478   1.256   2.652
 6290TIP3   OH240428   4.712   1.919   8.615
 6290TIP3    H140429   4.746   1.830   8.605
 6290TIP3    H240430   4.737   1.963   8.534
 6291TIP3   OH240431   3.201   3.946   7.114
 6291TIP3    H140432   3.206   4.000   7.035
 6291TIP3    H240433   3.127   3.981   7.163
 6292TIP3   OH240434   0.478   1.541   7.153
 6292TIP3    H140435   0.490   1.619   7.098
 6292TIP3    H240436   0.536   1.476   7.114
 6293TIP3   OH240437   6.449   3.192   1.474
 6293TIP3    H140438   6.461   3.138   1.552
 6293TIP3    H240439   6.495   3.145   1.404
 6294TIP3   OH240440   3.164   2.626   8.760
 6294TIP3    H140441   3.191   2.620   8.851
 6294TIP3    H240442   3.209   2.704   8.727
 6295TIP3   OH240443   4.999   1.425   7.221
 6295TIP3    H140444   5.038   1.489   7.280
 6295TIP3    H240445   5.071   1.396   7.166
 6296TIP3   OH240446   4.902   0.030   8.065
 6296TIP3    H140447   4.958   0.049   7.990
 6296TIP3    H240448   4.900   6.731   8.071
 6297TIP3   OH240449   3.083   1.915   1.230
 6297TIP3    H140450   3.147   1.868   1.283
 6297TIP3    H240451   3.100   1.887   1.140
 6298TIP3   OH240452   2.497   3.441   8.666
 6298TIP3    H140453   2.531   3.530   8.659
 6298TIP3    H240454   2.514   3.402   8.580
 6299TIP3   OH240455   3.667   0.331   7.517
 6299TIP3    H140456   3.639   0.364   7.602
 6299TIP3    H240457   3.744   0.277   7.536
 6300TIP3   OH240458   2.943   3.038   7.565
 6300TIP3    H140459   2.927   3.133   7.568
 6300TIP3    H240460   2.907   3.011   7.480
 6301TIP3   OH240461   5.054   4.910   1.188
 6301TIP3    H140462   5.064   5.000   1.158
 6301TIP3    H240463   5.141   4.885   1.220
 6302TIP3   OH240464   6.695   6.389   2.173
 6302TIP3    H140465   6.730   6.395   2.084
 6302TIP3    H240466   6.731   6.465   2.218
 6303TIP3   OH240467   1.330   3.895   8.009
 6303TIP3    H140468   1.337   3.832   7.938
 6303TIP3    H240469   1.334   3.981   7.966
 6304TIP3   OH240470   5.623   6.039   8.099
 6304TIP3    H140471   5.622   5.985   8.178
 6304TIP3    H240472   5.537   6.026   8.060
 6305TIP3   OH240473   3.752   3.325   8.136
 6305TIP3    H140474   3.743   3.323   8.040
 6305TIP3    H240475   3.806   3.402   8.153
 6306TIP3   OH240476   0.416   4.583   6.970
 6306TIP3    H140477   0.400   4.493   7.000
 6306TIP3    H240478   0.412   4.635   7.050
 6307TIP3   OH240479   2.615   3.355   1.850
 6307TIP3    H140480   2.687   3.363   1.789
 6307TIP3    H240481   2.553   3.423   1.824
 6308TIP3   OH240482   6.184   3.735   0.886
 6308TIP3    H140483   6.089   3.745   0.897
 6308TIP3    H240484   6.214   3.708   0.973
 6309TIP3   OH240485   0.265   4.833   8.001
 6309TIP3    H140486   0.199   4.813   7.934
 6309TIP3    H240487   0.323   4.757   8.001
 6310TIP3   OH240488   2.268   2.116   0.538
 6310TIP3    H140489   2.358   2.087   0.526
 6310TIP3    H240490   2.218   2.069   0.471
 6311TIP3   OH240491   1.776   6.307   1.293
 6311TIP3    H140492   1.775   6.366   1.368
 6311TIP3    H240493   1.778   6.219   1.332
 6312TIP3   OH240494   2.049   1.836   1.298
 6312TIP3    H140495   1.996   1.893   1.354
 6312TIP3    H240496   1.985   1.788   1.245
 6313TIP3   OH240497   0.004   5.871   0.274
 6313TIP3    H140498   0.092   5.861   0.239
 6313TIP3    H240499   6.784   5.790   0.323
 6314TIP3   OH240500   0.161   4.172   2.401
 6314TIP3    H140501   0.211   4.092   2.385
 6314TIP3    H240502   0.203   4.238   2.345
 6315TIP3   OH240503   4.383   6.705   8.430
 6315TIP3    H140504   4.466   6.675   8.466
 6315TIP3    H240505   4.347   6.762   8.498
 6316TIP3   OH240506   0.177   2.708   8.525
 6316TIP3    H140507   0.218   2.640   8.472
 6316TIP3    H240508   0.210   2.790   8.490
 6317TIP3   OH240509   1.479   4.906   8.476
 6317TIP3    H140510   1.525   4.983   8.442
 6317TIP3    H240511   1.445   4.862   8.399
 6318TIP3   OH240512   4.709   2.358   1.721
 6318TIP3    H140513   4.795   2.338   1.684
 6318TIP3    H240514   4.647   2.323   1.657
 6319TIP3   OH240515   3.209   0.068   7.608
 6319TIP3    H140516   3.228   6.779   7.648
 6319TIP3    H240517   3.293   0.097   7.572
 6320TIP3   OH240518   0.512   1.766   0.748
 6320TIP3    H140519   0.432   1.748   0.698
 6320TIP3    H240520   0.581   1.719   0.700
 6321TIP3   OH240521   4.650   4.355   8.093
 6321TIP3    H140522   4.665   4.321   8.005
 6321TIP3    H240523   4.565   4.319   8.118
 6322TIP3   OH240524   4.320   2.760   7.026
 6322TIP3    H140525   4.379   2.697   6.984
 6322TIP3    H240526   4.256   2.706   7.071
 6323TIP3   OH240527   3.803   0.741   7.326
 6323TIP3    H140528   3.738   0.670   7.323
 6323TIP3    H240529   3.756   0.818   7.295
 6324TIP3   OH240530   4.426   1.243   1.755
 6324TIP3    H140531   4.407   1.308   1.687
 6324TIP3    H240532   4.343   1.233   1.802
 6325TIP3   OH240533   3.731   2.283   7.774
 6325TIP3    H140534   3.697   2.372   7.777
 6325TIP3    H240535   3.717   2.248   7.862
 6326TIP3   OH240536   4.260   1.883   7.770
 6326TIP3    H140537   4.237   1.952   7.832
 6326TIP3    H240538   4.188   1.882   7.707
 6327TIP3   OH240539   4.869   2.116   7.893
 6327TIP3    H140540   4.787   2.090   7.935
 6327TIP3    H240541   4.906   2.183   7.951
 6328TIP3   OH240542   2.012   6.113   0.922
 6328TIP3    H140543   1.946   6.061   0.875
 6328TIP3    H240544   2.092   6.100   0.872
 6329TIP3   OH240545   1.153   6.574   8.210
 6329TIP3    H140546   1.124   6.622   8.132
 6329TIP3    H240547   1.126   6.628   8.284
 6330TIP3   OH240548   6.741   3.511   7.135
 6330TIP3    H140549   6.695   3.494   7.052
 6330TIP3    H240550   0.021   3.454   7.132
 6331TIP3   OH240551   6.109   1.597   7.644
 6331TIP3    H140552   6.029   1.593   7.697
 6331TIP3    H240553   6.179   1.608   7.708
 6332TIP3   OH240554   2.156   4.160   8.704
 6332TIP3    H140555   2.109   4.085   8.740
 6332TIP3    H240556   2.167   4.220   8.778
 6333TIP3   OH240557   1.758   2.024   0.097
 6333TIP3    H140558   1.760   2.019   0.192
 6333TIP3    H240559   1.800   1.943   0.068
 6334TIP3   OH240560   4.751   5.303   0.871
 6334TIP3    H140561   4.732   5.297   0.964
 6334TIP3    H240562   4.821   5.368   0.864
 6335TIP3   OH240563   2.299   5.206   8.211
 6335TIP3    H140564   2.272   5.115   8.202
 6335TIP3    H240565   2.216   5.254   8.222
 6336TIP3   OH240566   3.032   5.236   2.530
 6336TIP3    H140567   2.941   5.250   2.556
 6336TIP3    H240568   3.027   5.172   2.459
 6337TIP3   OH240569   2.812   1.736   1.405
 6337TIP3    H140570   2.789   1.826   1.426
 6337TIP3    H240571   2.738   1.684   1.437
 6338TIP3   OH240572   4.067   4.789   7.406
 6338TIP3    H140573   3.989   4.801   7.460
 6338TIP3    H240574   4.119   4.725   7.454
 6339TIP3   OH240575   1.565   2.659   0.277
 6339TIP3    H140576   1.611   2.578   0.297
 6339TIP3    H240577   1.603   2.689   0.194
 6340TIP3   OH240578   3.165   0.945   0.321
 6340TIP3    H140579   3.074   0.919   0.340
 6340TIP3    H240580   3.194   0.883   0.254
 6341TIP3   OH240581   6.034   0.745   8.187
 6341TIP3    H140582   5.948   0.765   8.225
 6341TIP3    H240583   6.041   0.803   8.112
 6342TIP3   OH240584   0.997   5.935   6.967
 6342TIP3    H140585   1.027   5.909   6.879
 6342TIP3    H240586   1.001   6.031   6.965
 6343TIP3   OH240587   0.912   5.512   8.359
 6343TIP3    H140588   0.984   5.541   8.303
 6343TIP3    H240589   0.951   5.505   8.446
 6344TIP3   OH240590   5.781   5.894   0.977
 6344TIP3    H140591   5.764   5.931   1.063
 6344TIP3    H240592   5.869   5.924   0.954
 6345TIP3   OH240593   5.492   1.599   8.693
 6345TIP3    H140594   5.563   1.595   8.758
 6345TIP3    H240595   5.435   1.670   8.723
 6346TIP3   OH240596   1.427   2.134   0.533
 6346TIP3    H140597   1.357   2.105   0.475
 6346TIP3    H240598   1.477   2.198   0.482
 6347TIP3   OH240599   0.030   5.529   8.191
 6347TIP3    H140600   0.097   5.506   8.127
 6347TIP3    H240601   6.744   5.519   8.143
 6348TIP3   OH240602   6.647   2.615   7.242
 6348TIP3    H140603   6.580   2.583   7.181
 6348TIP3    H240604   6.672   2.539   7.294
 6349TIP3   OH240605   3.325   4.459   2.138
 6349TIP3    H140606   3.261   4.398   2.176
 6349TIP3    H240607   3.280   4.543   2.139
 6350TIP3   OH240608   4.686   0.812   7.818
 6350TIP3    H140609   4.687   0.908   7.825
 6350TIP3    H240610   4.598   0.791   7.789
 6351TIP3   OH240611   4.471   3.505   6.885
 6351TIP3    H140612   4.394   3.555   6.857
 6351TIP3    H240613   4.455   3.485   6.977
 6352TIP3   OH240614   0.519   4.727   1.889
 6352TIP3    H140615   0.500   4.644   1.846
 6352TIP3    H240616   0.582   4.770   1.831
 6353TIP3   OH240617   0.237   2.268   0.140
 6353TIP3    H140618   0.195   2.317   0.070
 6353TIP3    H240619   0.185   2.287   0.218
 6354TIP3   OH240620   4.153   0.038   1.428
 6354TIP3    H140621   4.193   0.105   1.373
 6354TIP3    H240622   4.151   6.756   1.372
 6355TIP3   OH240623   3.496   0.094   6.399
 6355TIP3    H140624   3.415   0.058   6.362
 6355TIP3    H240625   3.566   0.048   6.351
 6356TIP3   OH240626   2.822   6.406   0.878
 6356TIP3    H140627   2.745   6.353   0.857
 6356TIP3    H240628   2.892   6.371   0.823
 6357TIP3   OH240629   5.752   3.515   8.514
 6357TIP3    H140630   5.726   3.550   8.428
 6357TIP3    H240631   5.681   3.541   8.572
 6358TIP3   OH240632   4.072   0.457   0.264
 6358TIP3    H140633   4.050   0.387   0.204
 6358TIP3    H240634   4.161   0.436   0.294
 6359TIP3   OH240635   4.448   6.511   2.218
 6359TIP3    H140636   4.359   6.477   2.208
 6359TIP3    H240637   4.496   6.441   2.262
 6360TIP3   OH240638   4.687   2.400   8.222
 6360TIP3    H140639   4.614   2.437   8.174
 6360TIP3    H240640   4.655   2.391   8.312
 6361TIP3   OH240641   5.391   5.191   7.623
 6361TIP3    H140642   5.322   5.128   7.643
 6361TIP3    H240643   5.469   5.156   7.665
 6362TIP3   OH240644   0.843   5.799   8.489
 6362TIP3    H140645   0.828   5.792   8.394
 6362TIP3    H240646   0.780   5.865   8.518
 6363TIP3   OH240647   2.656   2.097   7.957
 6363TIP3    H140648   2.595   2.169   7.967
 6363TIP3    H240649   2.725   2.131   7.899
 6364TIP3   OH240650   0.742   6.353   7.371
 6364TIP3    H140651   0.704   6.369   7.457
 6364TIP3    H240652   0.758   6.259   7.369
 6365TIP3   OH240653   6.625   1.003   7.419
 6365TIP3    H140654   6.587   0.949   7.350
 6365TIP3    H240655   6.551   1.043   7.463
 6366TIP3   OH240656   2.511   1.728   8.794
 6366TIP3    H140657   2.557   1.807   8.823
 6366TIP3    H240658   2.581   1.668   8.768
 6367TIP3   OH240659   1.834   3.876   0.618
 6367TIP3    H140660   1.868   3.786   0.621
 6367TIP3    H240661   1.894   3.921   0.558
 6368TIP3   OH240662   2.989   2.869   1.006
 6368TIP3    H140663   2.959   2.779   1.009
 6368TIP3    H240664   2.911   2.919   0.981
 6369TIP3   OH240665   5.293   1.446   7.125
 6369TIP3    H140666   5.314   1.523   7.178
 6369TIP3    H240667   5.274   1.481   7.038
 6370TIP3   OH240668   6.005   1.358   7.099
 6370TIP3    H140669   5.938   1.308   7.052
 6370TIP3    H240670   5.957   1.431   7.139
 6371TIP3   OH240671   5.999   5.541   8.002
 6371TIP3    H140672   5.982   5.564   7.911
 6371TIP3    H240673   6.075   5.593   8.027
 6372TIP3   OH240674   0.685   6.678   8.663
 6372TIP3    H140675   0.725   6.694   8.749
 6372TIP3    H240676   0.609   6.623   8.682
 6373TIP3   OH240677   2.552   4.149   1.015
 6373TIP3    H140678   2.508   4.080   0.964
 6373TIP3    H240679   2.488   4.220   1.018
 6374TIP3   OH240680   6.716   2.884   2.329
 6374TIP3    H140681   6.767   2.820   2.378
 6374TIP3    H240682   6.781   2.930   2.276
 6375TIP3   OH240683   4.356   6.386   1.501
 6375TIP3    H140684   4.371   6.387   1.406
 6375TIP3    H240685   4.265   6.414   1.512
 6376TIP3   OH240686   4.871   2.518   0.563
 6376TIP3    H140687   4.914   2.467   0.631
 6376TIP3    H240688   4.830   2.451   0.507
 6377TIP3   OH240689   5.114   3.561   1.610
 6377TIP3    H140690   5.181   3.599   1.552
 6377TIP3    H240691   5.072   3.494   1.557
 6378TIP3   OH240692   5.096   3.435   1.891
 6378TIP3    H140693   5.137   3.497   1.952
 6378TIP3    H240694   5.126   3.464   1.805
 6379TIP3   OH240695   0.501   4.069   7.535
 6379TIP3    H140696   0.427   4.013   7.509
 6379TIP3    H240697   0.481   4.154   7.497
 6380TIP3   OH240698   2.290   6.096   2.143
 6380TIP3    H140699   2.217   6.040   2.170
 6380TIP3    H240700   2.366   6.060   2.189
 6381TIP3   OH240701   3.760   6.627   2.011
 6381TIP3    H140702   3.826   6.692   2.036
 6381TIP3    H240703   3.783   6.549   2.062
 6382TIP3   OH240704   3.101   4.499   7.312
 6382TIP3    H140705   3.027   4.478   7.254
 6382TIP3    H240706   3.163   4.546   7.255
 6383TIP3   OH240707   0.433   0.676   8.819
 6383TIP3    H140708   0.421   0.703   0.035
 6383TIP3    H240709   0.491   0.599   8.825
 6384TIP3   OH240710   1.899   0.979   8.499
 6384TIP3    H140711   1.923   0.899   8.546
 6384TIP3    H240712   1.962   0.987   8.428
 6385TIP3   OH240713   3.495   1.056   1.192
 6385TIP3    H140714   3.551   0.979   1.195
 6385TIP3    H240715   3.553   1.127   1.166
 6386TIP3   OH240716   4.213   5.293   0.426
 6386TIP3    H140717   4.197   5.275   0.519
 6386TIP3    H240718   4.133   5.263   0.382
 6387TIP3   OH240719   5.792   3.294   0.259
 6387TIP3    H140720   5.802   3.349   0.181
 6387TIP3    H240721   5.709   3.322   0.297
 6388TIP3   OH240722   6.326   4.920   1.320
 6388TIP3    H140723   6.249   4.871   1.291
 6388TIP3    H240724   6.348   4.976   1.245
 6389TIP3   OH240725   1.562   0.220   1.489
 6389TIP3    H140726   1.557   0.146   1.549
 6389TIP3    H240727   1.645   0.263   1.510
 6390TIP3   OH240728   2.519   4.101   7.615
 6390TIP3    H140729   2.488   4.079   7.527
 6390TIP3    H240730   2.569   4.024   7.643
 6391TIP3   OH240731   4.724   1.827   1.413
 6391TIP3    H140732   4.740   1.745   1.366
 6391TIP3    H240733   4.706   1.799   1.504
 6392TIP3   OH240734   0.613   3.078   8.430
 6392TIP3    H140735   0.707   3.078   8.412
 6392TIP3    H240736   0.606   3.101   8.523
 6393TIP3   OH240737   5.770   5.538   1.690
 6393TIP3    H140738   5.675   5.549   1.684
 6393TIP3    H240739   5.795   5.502   1.605
 6394TIP3   OH240740   4.626   1.383   6.769
 6394TIP3    H140741   4.715   1.394   6.735
 6394TIP3    H240742   4.591   1.471   6.775
 6395TIP3   OH240743   4.565   4.563   1.217
 6395TIP3    H140744   4.503   4.493   1.197
 6395TIP3    H240745   4.602   4.586   1.132
 6396TIP3   OH240746   3.131   0.200   7.339
 6396TIP3    H140747   3.157   0.151   7.418
 6396TIP3    H240748   3.055   0.251   7.366
 6397TIP3   OH240749   1.540   4.225   0.910
 6397TIP3    H140750   1.582   4.158   0.856
 6397TIP3    H240751   1.457   4.184   0.938
 6398TIP3   OH240752   0.287   4.889   7.417
 6398TIP3    H140753   0.339   4.855   7.344
 6398TIP3    H240754   0.197   4.888   7.385
 6399TIP3   OH240755   3.624   0.684   7.592
 6399TIP3    H140756   3.710   0.647   7.612
 6399TIP3    H240757   3.601   0.645   7.507
 6400TIP3   OH240758   4.802   3.585   0.906
 6400TIP3    H140759   4.858   3.592   0.828
 6400TIP3    H240760   4.737   3.518   0.884
 6401TIP3   OH240761   6.442   4.312   1.194
 6401TIP3    H140762   6.404   4.274   1.273
 6401TIP3    H240763   6.369   4.316   1.131
 6402TIP3   OH240764   1.678   3.186   0.823
 6402TIP3    H140765   1.672   3.090   0.825
 6402TIP3    H240766   1.696   3.206   0.731
 6403TIP3   OH240767   2.512   6.456   2.540
 6403TIP3    H140768   2.571   6.526   2.568
 6403TIP3    H240769   2.452   6.498   2.478
 6404TIP3   OH240770   0.851   2.203   0.046
 6404TIP3    H140771   0.909   2.276   0.065
 6404TIP3    H240772   0.822   2.217   8.830
 6405TIP3   OH240773   3.398   3.736   6.760
 6405TIP3    H140774   3.375   3.645   6.743
 6405TIP3    H240775   3.315   3.783   6.759
 6406TIP3   OH240776   1.111   5.068   7.415
 6406TIP3    H140777   1.022   5.056   7.446
 6406TIP3    H240778   1.138   5.152   7.454
 6407TIP3   OH240779   1.110   5.523   1.633
 6407TIP3    H140780   1.088   5.578   1.709
 6407TIP3    H240781   1.192   5.480   1.658
 6408TIP3   OH240782   5.947   5.487   0.114
 6408TIP3    H140783   6.029   5.507   0.069
 6408TIP3    H240784   5.907   5.418   0.061
 6409TIP3   OH240785   3.106   2.961   6.815
 6409TIP3    H140786   3.104   2.963   6.911
 6409TIP3    H240787   3.105   2.868   6.793
 6410TIP3   OH240788   5.522   1.812   2.128
 6410TIP3    H140789   5.603   1.787   2.173
 6410TIP3    H240790   5.501   1.899   2.164
 6411TIP3   OH240791   5.667   6.323   0.493
 6411TIP3    H140792   5.662   6.266   0.569
 6411TIP3    H240793   5.756   6.312   0.460
 6412TIP3   OH240794   5.600   1.085   7.666
 6412TIP3    H140795   5.670   1.125   7.718
 6412TIP3    H240796   5.625   1.102   7.575
 6413TIP3   OH240797   6.772   6.463   8.665
 6413TIP3    H140798   0.032   6.497   8.596
 6413TIP3    H240799   6.796   6.513   8.743
 6414TIP3   OH240800   4.682   1.611   1.638
 6414TIP3    H140801   4.666   1.520   1.612
 6414TIP3    H240802   4.597   1.643   1.667
 6415TIP3   OH240803   0.932   3.693   1.244
 6415TIP3    H140804   0.961   3.783   1.259
 6415TIP3    H240805   1.003   3.652   1.194
 6416TIP3   OH240806   6.424   4.651   2.523
 6416TIP3    H140807   6.427   4.591   2.598
 6416TIP3    H240808   6.406   4.594   2.448
 6417TIP3   OH240809   2.708   1.865   2.139
 6417TIP3    H140810   2.652   1.917   2.197
 6417TIP3    H240811   2.760   1.811   2.198
 6418TIP3   OH240812   0.706   1.954   1.812
 6418TIP3    H140813   0.764   2.019   1.853
 6418TIP3    H240814   0.749   1.871   1.830
 6419TIP3   OH240815   5.501   1.117   1.109
 6419TIP3    H140816   5.504   1.200   1.157
 6419TIP3    H240817   5.543   1.136   1.025
 6420TIP3   OH240818   6.775   6.241   0.181
 6420TIP3    H140819   0.004   6.177   0.114
 6420TIP3    H240820   6.710   6.195   0.234
 6421TIP3   OH240821   4.334   1.443   0.367
 6421TIP3    H140822   4.394   1.391   0.421
 6421TIP3    H240823   4.349   1.411   0.278
 6422TIP3   OH240824   0.658   1.716   1.281
 6422TIP3    H140825   0.603   1.679   1.212
 6422TIP3    H240826   0.647   1.657   1.355
 6423TIP3   OH240827   5.103   6.763   8.741
 6423TIP3    H140828   5.181   6.709   8.743
 6423TIP3    H240829   5.047   6.724   8.674
 6424TIP3   OH240830   4.444   5.765   0.304
 6424TIP3    H140831   4.524   5.713   0.296
 6424TIP3    H240832   4.442   5.793   0.395
 6425TIP3   OH240833   5.473   5.981   7.588
 6425TIP3    H140834   5.484   5.908   7.649
 6425TIP3    H240835   5.394   5.959   7.538
 6426TIP3   OH240836   0.603   1.239   2.561
 6426TIP3    H140837   0.539   1.183   2.605
 6426TIP3    H240838   0.551   1.306   2.517
 6427TIP3   OH240839   5.850   2.436   6.729
 6427TIP3    H140840   5.778   2.461   6.672
 6427TIP3    H240841   5.842   2.496   6.804
 6428TIP3   OH240842   4.871   1.659   8.624
 6428TIP3    H140843   4.820   1.587   8.661
 6428TIP3    H240844   4.930   1.684   8.694
 6429TIP3   OH240845   3.575   4.151   1.130
 6429TIP3    H140846   3.566   4.238   1.169
 6429TIP3    H240847   3.576   4.167   1.036
 6430TIP3   OH240848   3.327   5.965   7.746
 6430TIP3    H140849   3.319   5.996   7.836
 6430TIP3    H240850   3.245   5.993   7.704
 6431TIP3   OH240851   1.109   6.653   0.821
 6431TIP3    H140852   1.125   6.744   0.797
 6431TIP3    H240853   1.040   6.624   0.761
 6432TIP3   OH240854   6.043   2.620   8.556
 6432TIP3    H140855   5.948   2.616   8.542
 6432TIP3    H240856   6.053   2.616   8.651
 6433TIP3   OH240857   0.835   6.350   0.591
 6433TIP3    H140858   0.834   6.283   0.659
 6433TIP3    H240859   0.849   6.302   0.509
 6434TIP3   OH240860   3.831   2.627   1.913
 6434TIP3    H140861   3.905   2.684   1.893
 6434TIP3    H240862   3.755   2.672   1.877
 6435TIP3   OH240863   2.194   0.008   0.132
 6435TIP3    H140864   2.272   0.060   0.153
 6435TIP3    H240865   2.228   6.731   0.080
 6436TIP3   OH240866   3.534   1.052   7.960
 6436TIP3    H140867   3.575   1.026   7.877
 6436TIP3    H240868   3.529   1.147   7.955
 6437TIP3   OH240869   3.886   1.385   2.195
 6437TIP3    H140870   3.874   1.297   2.229
 6437TIP3    H240871   3.956   1.376   2.130
 6438TIP3   OH240872   2.358   3.241   0.715
 6438TIP3    H140873   2.381   3.163   0.665
 6438TIP3    H240874   2.438   3.263   0.764
 6439TIP3   OH240875   5.572   3.091   1.424
 6439TIP3    H140876   5.617   3.175   1.420
 6439TIP3    H240877   5.626   3.038   1.482
 6440TIP3   OH240878   1.977   1.647   0.872
 6440TIP3    H140879   1.982   1.556   0.841
 6440TIP3    H240880   1.899   1.683   0.830
 6441TIP3   OH240881   1.574   6.250   8.163
 6441TIP3    H140882   1.602   6.181   8.224
 6441TIP3    H240883   1.546   6.322   8.220
 6442TIP3   OH240884   1.393   1.241   1.083
 6442TIP3    H140885   1.454   1.234   1.009
 6442TIP3    H240886   1.311   1.204   1.050
 6443TIP3   OH240887   5.599   6.675   7.823
 6443TIP3    H140888   5.606   6.582   7.843
 6443TIP3    H240889   5.662   6.717   7.881
 6444TIP3   OH240890   5.756   5.782   7.464
 6444TIP3    H140891   5.760   5.862   7.517
 6444TIP3    H240892   5.678   5.793   7.409
 6445TIP3   OH240893   2.945   0.481   6.986
 6445TIP3    H140894   3.008   0.499   7.056
 6445TIP3    H240895   2.861   0.471   7.030
 6446TIP3   OH240896   4.449   2.658   0.387
 6446TIP3    H140897   4.464   2.579   0.336
 6446TIP3    H240898   4.490   2.728   0.336
 6447TIP3   OH240899   5.949   6.274   8.212
 6447TIP3    H140900   5.979   6.184   8.194
 6447TIP3    H240901   5.880   6.264   8.278
 6448TIP3   OH240902   3.686   3.159   8.361
 6448TIP3    H140903   3.591   3.163   8.370
 6448TIP3    H240904   3.707   3.229   8.298
 6449TIP3   OH240905   5.749   5.291   8.613
 6449TIP3    H140906   5.759   5.295   8.708
 6449TIP3    H240907   5.821   5.235   8.584
 6450TIP3   OH240908   6.225   1.494   0.153
 6450TIP3    H140909   6.291   1.426   0.140
 6450TIP3    H240910   6.144   1.446   0.171
 6451TIP3   OH240911   5.277   4.252   1.500
 6451TIP3    H140912   5.236   4.221   1.581
 6451TIP3    H240913   5.341   4.183   1.478
 6452TIP3   OH240914   4.989   3.644   0.714
 6452TIP3    H140915   4.978   3.579   0.645
 6452TIP3    H240916   4.995   3.727   0.668
 6453TIP3   OH240917   3.214   0.599   8.701
 6453TIP3    H140918   3.244   0.509   8.687
 6453TIP3    H240919   3.140   0.590   8.762
 6454TIP3   OH240920   4.004   2.648   7.972
 6454TIP3    H140921   3.935   2.667   7.908
 6454TIP3    H240922   3.971   2.572   8.020
 6455TIP3   OH240923   5.366   4.542   7.988
 6455TIP3    H140924   5.356   4.494   8.070
 6455TIP3    H240925   5.322   4.488   7.922
 6456TIP3   OH240926   3.608   2.513   8.258
 6456TIP3    H140927   3.699   2.543   8.254
 6456TIP3    H240928   3.562   2.572   8.198
 6457TIP3   OH240929   1.791   2.965   1.739
 6457TIP3    H140930   1.873   3.011   1.718
 6457TIP3    H240931   1.741   3.029   1.789
 6458TIP3   OH240932   5.681   0.565   0.758
 6458TIP3    H140933   5.608   0.536   0.813
 6458TIP3    H240934   5.759   0.542   0.807
 6459TIP3   OH240935   1.111   4.158   0.780
 6459TIP3    H140936   1.082   4.075   0.818
 6459TIP3    H240937   1.101   4.146   0.686
 6460TIP3   OH240938   1.853   6.296   0.741
 6460TIP3    H140939   1.853   6.339   0.826
 6460TIP3    H240940   1.938   6.318   0.703
 6461TIP3   OH240941   2.227   2.217   0.141
 6461TIP3    H140942   2.194   2.205   0.052
 6461TIP3    H240943   2.233   2.312   0.152
 6462TIP3   OH240944   4.668   2.097   8.277
 6462TIP3    H140945   4.759   2.105   8.307
 6462TIP3    H240946   4.669   2.128   8.187
 6463TIP3   OH240947   5.974   0.591   7.885
 6463TIP3    H140948   6.039   0.531   7.922
 6463TIP3    H240949   5.954   0.555   7.799
 6464TIP3   OH240950   3.017   3.233   1.090
 6464TIP3    H140951   2.964   3.265   1.163
 6464TIP3    H240952   2.963   3.164   1.050
 6465TIP3   OH240953   6.045   6.449   1.438
 6465TIP3    H140954   6.133   6.474   1.407
 6465TIP3    H240955   5.993   6.529   1.427
 6466TIP3   OH240956   0.762   1.774   7.210
 6466TIP3    H140957   0.678   1.762   7.166
 6466TIP3    H240958   0.811   1.833   7.152
 6467TIP3   OH240959   2.917   4.489   7.737
 6467TIP3    H140960   2.861   4.563   7.759
 6467TIP3    H240961   2.857   4.423   7.703
 6468TIP3   OH240962   1.321   6.604   6.951
 6468TIP3    H140963   1.354   6.596   7.041
 6468TIP3    H240964   1.392   6.568   6.897
 6469TIP3   OH240965   2.799   2.723   2.941
 6469TIP3    H140966   2.806   2.632   2.912
 6469TIP3    H240967   2.868   2.769   2.894
 6470TIP3   OH240968   3.491   4.636   7.897
 6470TIP3    H140969   3.427   4.640   7.826
 6470TIP3    H240970   3.532   4.550   7.887
 6471TIP3   OH240971   0.793   5.274   7.936
 6471TIP3    H140972   0.807   5.369   7.945
 6471TIP3    H240973   0.756   5.247   8.019
 6472TIP3   OH240974   5.292   2.654   8.383
 6472TIP3    H140975   5.289   2.596   8.459
 6472TIP3    H240976   5.213   2.707   8.390
 6473TIP3   OH240977   4.613   3.733   0.467
 6473TIP3    H140978   4.628   3.639   0.479
 6473TIP3    H240979   4.535   3.738   0.411
 6474TIP3   OH240980   5.373   0.528   7.786
 6474TIP3    H140981   5.464   0.501   7.801
 6474TIP3    H240982   5.321   0.451   7.807
 6475TIP3   OH240983   2.036   3.681   0.436
 6475TIP3    H140984   1.991   3.761   0.409
 6475TIP3    H240985   2.010   3.668   0.527
 6476TIP3   OH240986   5.097   2.481   7.634
 6476TIP3    H140987   5.133   2.473   7.722
 6476TIP3    H240988   5.136   2.408   7.585
 6477TIP3   OH240989   4.414   2.445   0.223
 6477TIP3    H140990   4.353   2.431   0.295
 6477TIP3    H240991   4.364   2.495   0.158
 6478TIP3   OH240992   4.376   0.155   8.694
 6478TIP3    H140993   4.471   0.140   8.697
 6478TIP3    H240994   4.367   0.244   8.661
 6479TIP3   OH240995   2.670   5.958   1.319
 6479TIP3    H140996   2.588   5.916   1.345
 6479TIP3    H240997   2.655   5.988   1.229
 6480TIP3   OH240998   0.846   5.641   1.236
 6480TIP3    H140999   0.933   5.604   1.221
 6480TIP3    H241000   0.819   5.604   1.320
 6481TIP3   OH241001   0.309   5.319   0.904
 6481TIP3    H141002   0.286   5.339   0.994
 6481TIP3    H241003   0.241   5.259   0.874
 6482TIP3   OH241004   6.288   2.775   1.235
 6482TIP3    H141005   6.262   2.848   1.178
 6482TIP3    H241006   6.364   2.737   1.191
 6483TIP3   OH241007   1.496   6.008   6.489
 6483TIP3    H141008   1.470   6.093   6.526
 6483TIP3    H241009   1.453   6.005   6.404
 6484TIP3   OH241010   6.376   2.704   8.746
 6484TIP3    H141011   6.338   2.658   8.821
 6484TIP3    H241012   6.409   2.786   8.781
 6485TIP3   OH241013   5.190   3.457   7.602
 6485TIP3    H141014   5.253   3.436   7.670
 6485TIP3    H241015   5.158   3.372   7.571
 6486TIP3   OH241016   3.338   5.449   1.187
 6486TIP3    H141017   3.304   5.520   1.240
 6486TIP3    H241018   3.261   5.399   1.161
 6487TIP3   OH241019   6.734   5.175   8.675
 6487TIP3    H141020   6.702   5.131   8.754
 6487TIP3    H241021   6.768   5.104   8.621
 6488TIP3   OH241022   4.287   4.171   7.625
 6488TIP3    H141023   4.321   4.151   7.712
 6488TIP3    H241024   4.195   4.195   7.639
 6489TIP3   OH241025   5.694   4.798   1.319
 6489TIP3    H141026   5.661   4.739   1.386
 6489TIP3    H241027   5.636   4.875   1.324
 6490TIP3   OH241028   5.104   0.400   0.450
 6490TIP3    H141029   5.053   0.350   0.513
 6490TIP3    H241030   5.084   0.360   0.365
 6491TIP3   OH241031   3.391   1.187   0.809
 6491TIP3    H141032   3.442   1.256   0.852
 6491TIP3    H241033   3.309   1.230   0.784
 6492TIP3   OH241034   0.914   2.923   1.871
 6492TIP3    H141035   0.877   2.947   1.956
 6492TIP3    H241036   0.845   2.874   1.827
 6493TIP3   OH241037   3.365   3.519   0.108
 6493TIP3    H141038   3.425   3.589   0.083
 6493TIP3    H241039   3.320   3.553   0.186
 6494TIP3   OH241040   1.349   2.625   7.694
 6494TIP3    H141041   1.310   2.539   7.681
 6494TIP3    H241042   1.440   2.616   7.666
 6495TIP3   OH241043   3.963   5.593   1.226
 6495TIP3    H141044   4.037   5.535   1.243
 6495TIP3    H241045   3.886   5.540   1.243
 6496TIP3   OH241046   1.112   4.695   2.190
 6496TIP3    H141047   1.124   4.603   2.217
 6496TIP3    H241048   1.023   4.698   2.155
 6497TIP3   OH241049   2.712   0.386   7.712
 6497TIP3    H141050   2.710   0.424   7.624
 6497TIP3    H241051   2.804   0.390   7.738
 6498TIP3   OH241052   1.103   0.506   8.176
 6498TIP3    H141053   1.053   0.532   8.253
 6498TIP3    H241054   1.038   0.485   8.110
 6499TIP3   OH241055   6.464   3.054   8.079
 6499TIP3    H141056   6.462   3.024   8.169
 6499TIP3    H241057   6.556   3.052   8.054
 6500TIP3   OH241058   0.532   0.116   0.042
 6500TIP3    H141059   0.456   0.093   8.863
 6500TIP3    H241060   0.497   0.127   0.130
 6501TIP3   OH241061   2.896   4.609   7.115
 6501TIP3    H141062   2.986   4.610   7.081
 6501TIP3    H241063   2.856   4.531   7.077
 6502TIP3   OH241064   6.708   6.677   1.131
 6502TIP3    H141065   6.751   6.698   1.214
 6502TIP3    H241066   6.702   6.761   1.086
 6503TIP3   OH241067   2.242   6.480   8.625
 6503TIP3    H141068   2.333   6.459   8.604
 6503TIP3    H241069   2.190   6.419   8.572
 6504TIP3   OH241070   3.703   3.248   7.884
 6504TIP3    H141071   3.611   3.232   7.906
 6504TIP3    H241072   3.700   3.278   7.793
 6505TIP3   OH241073   2.150   1.527   7.991
 6505TIP3    H141074   2.159   1.613   8.033
 6505TIP3    H241075   2.237   1.508   7.957
 6506TIP3   OH241076   5.184   2.608   6.562
 6506TIP3    H141077   5.089   2.606   6.550
 6506TIP3    H241078   5.203   2.532   6.618
 6507TIP3   OH241079   1.233   1.343   7.673
 6507TIP3    H141080   1.246   1.426   7.627
 6507TIP3    H241081   1.316   1.328   7.718
 6508TIP3   OH241082   4.416   1.323   0.120
 6508TIP3    H141083   4.376   1.236   0.131
 6508TIP3    H241084   4.510   1.304   0.110
 6509TIP3   OH241085   1.804   6.204   6.592
 6509TIP3    H141086   1.766   6.291   6.578
 6509TIP3    H241087   1.751   6.166   6.661
 6510TIP3   OH241088   0.329   5.211   8.352
 6510TIP3    H141089   0.249   5.233   8.400
 6510TIP3    H241090   0.322   5.117   8.335
 6511TIP3   OH241091   2.893   6.087   0.305
 6511TIP3    H141092   2.941   6.165   0.276
 6511TIP3    H241093   2.830   6.121   0.369
 6512TIP3   OH241094   4.304   4.504   0.058
 6512TIP3    H141095   4.349   4.528   8.852
 6512TIP3    H241096   4.343   4.559   0.125
 6513TIP3   OH241097   0.526   6.269   7.778
 6513TIP3    H141098   0.595   6.315   7.730
 6513TIP3    H241099   0.532   6.178   7.747
 6514TIP3   OH241100   2.960   0.276   2.591
 6514TIP3    H141101   3.017   0.211   2.550
 6514TIP3    H241102   2.911   0.315   2.518
 6515TIP3   OH241103   3.450   5.988   0.775
 6515TIP3    H141104   3.505   5.956   0.846
 6515TIP3    H241105   3.394   5.914   0.752
 6516TIP3   OH241106   1.745   2.904   1.067
 6516TIP3    H141107   1.705   2.934   0.985
 6516TIP3    H241108   1.757   2.810   1.054
 6517TIP3   OH241109   6.421   5.008   1.057
 6517TIP3    H141110   6.359   5.063   1.007
 6517TIP3    H241111   6.507   5.044   1.036
 6518TIP3   OH241112   1.076   5.364   7.956
 6518TIP3    H141113   1.012   5.292   7.961
 6518TIP3    H241114   1.031   5.438   7.997
 6519TIP3   OH241115   1.328   6.308   8.868
 6519TIP3    H141116   1.273   6.239   8.832
 6519TIP3    H241117   1.404   6.311   8.810
 6520TIP3   OH241118   2.842   1.428   6.986
 6520TIP3    H141119   2.877   1.400   7.071
 6520TIP3    H241120   2.904   1.493   6.954
 6521TIP3   OH241121   1.170   6.254   7.728
 6521TIP3    H141122   1.198   6.236   7.639
 6521TIP3    H241123   1.252   6.258   7.778
 6522TIP3   OH241124   2.390   1.360   8.001
 6522TIP3    H141125   2.442   1.299   7.949
 6522TIP3    H241126   2.386   1.320   8.088
 6523TIP3   OH241127   0.264   2.957   8.423
 6523TIP3    H141128   0.216   3.040   8.421
 6523TIP3    H241129   0.305   2.951   8.337
 6524TIP3   OH241130   0.099   1.214   1.484
 6524TIP3    H141131   0.112   1.126   1.519
 6524TIP3    H241132   0.185   1.241   1.452
 6525TIP3   OH241133   0.639   4.605   0.510
 6525TIP3    H141134   0.620   4.603   0.604
 6525TIP3    H241135   0.683   4.522   0.492
 6526TIP3   OH241136   2.382   2.645   1.128
 6526TIP3    H141137   2.303   2.648   1.074
 6526TIP3    H241138   2.416   2.557   1.116
 6527TIP3   OH241139   0.629   4.648   8.460
 6527TIP3    H141140   0.549   4.618   8.502
 6527TIP3    H241141   0.693   4.653   8.532
 6528TIP3   OH241142   1.987   1.270   0.202
 6528TIP3    H141143   2.032   1.199   0.156
 6528TIP3    H241144   1.894   1.255   0.185
 6529TIP3   OH241145   4.068   3.932   1.904
 6529TIP3    H141146   4.163   3.917   1.905
 6529TIP3    H241147   4.043   3.932   1.996
 6530TIP3   OH241148   5.903   4.288   8.852
 6530TIP3    H141149   5.882   4.315   0.066
 6530TIP3    H241150   5.820   4.253   8.817
 6531TIP3   OH241151   5.543   4.311   8.384
 6531TIP3    H141152   5.494   4.316   8.466
 6531TIP3    H241153   5.630   4.280   8.411
 6532TIP3   OH241154   2.347   5.904   1.890
 6532TIP3    H141155   2.330   5.998   1.896
 6532TIP3    H241156   2.267   5.863   1.923
 6533TIP3   OH241157   2.372   2.793   7.793
 6533TIP3    H141158   2.294   2.758   7.749
 6533TIP3    H241159   2.380   2.883   7.761
 6534TIP3   OH241160   3.460   4.829   6.412
 6534TIP3    H141161   3.488   4.760   6.352
 6534TIP3    H241162   3.421   4.782   6.486
 6535TIP3   OH241163   1.180   0.958   8.621
 6535TIP3    H141164   1.234   0.974   8.698
 6535TIP3    H241165   1.090   0.974   8.650
 6536TIP3   OH241166   5.420   2.761   1.235
 6536TIP3    H141167   5.403   2.681   1.186
 6536TIP3    H241168   5.419   2.830   1.169
 6537TIP3   OH241169   4.858   1.796   1.750
 6537TIP3    H141170   4.791   1.745   1.705
 6537TIP3    H241171   4.837   1.785   1.843
 6538TIP3   OH241172   1.529   1.568   0.122
 6538TIP3    H141173   1.447   1.567   0.073
 6538TIP3    H241174   1.551   1.661   0.130
 6539TIP3   OH241175   0.511   4.675   0.088
 6539TIP3    H141176   0.564   4.600   0.059
 6539TIP3    H241177   0.483   4.652   0.176
 6540TIP3   OH241178   5.957   5.870   7.297
 6540TIP3    H141179   6.036   5.816   7.304
 6540TIP3    H241180   5.889   5.817   7.338
 6541TIP3   OH241181   5.852   4.921   1.721
 6541TIP3    H141182   5.827   4.943   1.811
 6541TIP3    H241183   5.768   4.914   1.674
 6542TIP3   OH241184   0.878   1.748   0.736
 6542TIP3    H141185   0.902   1.797   0.657
 6542TIP3    H241186   0.827   1.674   0.703
 6543TIP3   OH241187   0.583   4.139   1.500
 6543TIP3    H141188   0.499   4.183   1.513
 6543TIP3    H241189   0.590   4.078   1.573
 6544TIP3   OH241190   3.481   1.083   2.270
 6544TIP3    H141191   3.561   1.080   2.324
 6544TIP3    H241192   3.462   0.991   2.251
 6545TIP3   OH241193   2.747   4.297   1.758
 6545TIP3    H141194   2.677   4.234   1.775
 6545TIP3    H241195   2.774   4.327   1.845
 6546TIP3   OH241196   5.078   3.224   7.486
 6546TIP3    H141197   4.998   3.175   7.467
 6546TIP3    H241198   5.121   3.232   7.402
 6547TIP3   OH241199   1.934   1.339   8.589
 6547TIP3    H141200   1.855   1.285   8.582
 6547TIP3    H241201   1.994   1.300   8.525
 6548TIP3   OH241202   5.796   3.224   1.788
 6548TIP3    H141203   5.848   3.214   1.708
 6548TIP3    H241204   5.785   3.318   1.799
 6549TIP3   OH241205   3.403   4.860   8.389
 6549TIP3    H141206   3.474   4.924   8.395
 6549TIP3    H241207   3.444   4.778   8.418
 6550TIP3   OH241208   3.044   1.700   0.249
 6550TIP3    H141209   3.094   1.755   0.309
 6550TIP3    H241210   2.966   1.675   0.299
 6551TIP3   OH241211   4.132   1.370   2.056
 6551TIP3    H141212   4.142   1.424   2.134
 6551TIP3    H241213   4.194   1.298   2.069
 6552TIP3   OH241214   2.083   1.584   7.638
 6552TIP3    H141215   2.128   1.653   7.688
 6552TIP3    H241216   2.151   1.520   7.619
 6553TIP3   OH241217   0.022   4.458   6.882
 6553TIP3    H141218   0.056   4.473   6.794
 6553TIP3    H241219   0.051   4.534   6.932
 6554TIP3   OH241220   3.455   6.774   8.364
 6554TIP3    H141221   3.434   0.009   8.453
 6554TIP3    H241222   3.548   6.754   8.367
 6555TIP3   OH241223   5.092   4.046   8.673
 6555TIP3    H141224   5.183   4.063   8.700
 6555TIP3    H241225   5.044   4.036   8.755
 6556TIP3   OH241226   1.677   1.268   8.643
 6556TIP3    H141227   1.598   1.274   8.590
 6556TIP3    H241228   1.690   1.357   8.677
 6557TIP3   OH241229   0.120   3.918   7.928
 6557TIP3    H141230   0.114   3.838   7.877
 6557TIP3    H241231   0.156   3.890   8.013
 6558TIP3   OH241232   5.369   6.620   7.955
 6558TIP3    H141233   5.379   6.529   7.927
 6558TIP3    H241234   5.447   6.664   7.922
 6559TIP3   OH241235   4.474   4.243   8.335
 6559TIP3    H141236   4.452   4.150   8.339
 6559TIP3    H241237   4.449   4.269   8.247
 6560TIP3   OH241238   0.788   4.954   7.143
 6560TIP3    H141239   0.717   4.974   7.082
 6560TIP3    H241240   0.775   4.862   7.167
 6561TIP3   OH241241   0.561   0.037   6.960
 6561TIP3    H141242   0.499   0.054   7.031
 6561TIP3    H241243   0.548   6.742   6.937
 6562TIP3   OH241244   1.019   2.140   0.771
 6562TIP3    H141245   0.997   2.072   0.835
 6562TIP3    H241246   1.105   2.172   0.800
 6563TIP3   OH241247   1.355   0.733   7.127
 6563TIP3    H141248   1.357   0.828   7.132
 6563TIP3    H241249   1.396   0.712   7.043
 6564TIP3   OH241250   5.574   4.352   7.234
 6564TIP3    H141251   5.500   4.410   7.216
 6564TIP3    H241252   5.567   4.332   7.327
 6565TIP3   OH241253   3.792   2.783   1.614
 6565TIP3    H141254   3.767   2.855   1.671
 6565TIP3    H241255   3.798   2.823   1.527
 6566TIP3   OH241256   0.031   4.883   1.861
 6566TIP3    H141257   0.030   4.853   1.952
 6566TIP3    H241258   6.746   4.849   1.824
 6567TIP3   OH241259   4.211   2.619   1.820
 6567TIP3    H141260   4.295   2.601   1.861
 6567TIP3    H241261   4.186   2.705   1.855
 6568TIP3   OH241262   2.084   2.314   0.569
 6568TIP3    H141263   2.161   2.258   0.560
 6568TIP3    H241264   2.010   2.257   0.548
 6569TIP3   OH241265   1.413   3.553   1.868
 6569TIP3    H141266   1.420   3.484   1.935
 6569TIP3    H241267   1.448   3.513   1.789
 6570TIP3   OH241268   0.775   2.921   7.561
 6570TIP3    H141269   0.693   2.965   7.537
 6570TIP3    H241270   0.755   2.828   7.555
 6571TIP3   OH241271   2.314   4.760   8.354
 6571TIP3    H141272   2.362   4.822   8.409
 6571TIP3    H241273   2.224   4.762   8.389
 6572TIP3   OH241274   3.457   0.432   8.486
 6572TIP3    H141275   3.382   0.400   8.536
 6572TIP3    H241276   3.423   0.507   8.438
 6573TIP3   OH241277   5.897   6.764   0.675
 6573TIP3    H141278   5.870   6.705   0.606
 6573TIP3    H241279   5.816   0.001   0.713
 6574TIP3   OH241280   1.720   1.069   0.186
 6574TIP3    H141281   1.700   1.043   0.096
 6574TIP3    H241282   1.714   0.987   0.236
 6575TIP3   OH241283   0.828   3.422   7.764
 6575TIP3    H141284   0.801   3.419   7.672
 6575TIP3    H241285   0.779   3.351   7.806
 6576TIP3   OH241286   2.207   5.220   8.851
 6576TIP3    H141287   2.273   5.197   0.042
 6576TIP3    H241288   2.126   5.181   0.009
 6577TIP3   OH241289   6.037   0.661   0.527
 6577TIP3    H141290   6.064   0.646   0.618
 6577TIP3    H241291   6.050   0.577   0.484
 6578TIP3   OH241292   2.081   5.493   1.119
 6578TIP3    H141293   2.006   5.523   1.068
 6578TIP3    H241294   2.096   5.563   1.183
 6579TIP3   OH241295   1.734   5.909   6.936
 6579TIP3    H141296   1.799   5.960   6.985
 6579TIP3    H241297   1.695   5.971   6.875
 6580TIP3   OH241298   2.067   0.777   8.613
 6580TIP3    H141299   2.044   0.802   8.702
 6580TIP3    H241300   2.023   0.693   8.599
 6581TIP3   OH241301   0.199   3.473   0.040
 6581TIP3    H141302   0.264   3.474   0.110
 6581TIP3    H241303   0.115   3.472   0.085
 6582TIP3   OH241304   2.709   5.762   6.913
 6582TIP3    H141305   2.639   5.827   6.913
 6582TIP3    H241306   2.695   5.712   6.833
 6583TIP3   OH241307   2.749   4.001   7.269
 6583TIP3    H141308   2.732   4.051   7.189
 6583TIP3    H241309   2.674   4.020   7.326
 6584TIP3   OH241310   4.569   1.574   1.260
 6584TIP3    H141311   4.497   1.636   1.272
 6584TIP3    H241312   4.564   1.516   1.337
 6585TIP3   OH241313   3.144   4.271   2.243
 6585TIP3    H141314   3.053   4.251   2.266
 6585TIP3    H241315   3.195   4.199   2.281
 6586TIP3   OH241316   2.596   0.705   7.832
 6586TIP3    H141317   2.665   0.657   7.878
 6586TIP3    H241318   2.542   0.741   7.902
 6587TIP3   OH241319   3.328   5.366   8.631
 6587TIP3    H141320   3.386   5.332   8.699
 6587TIP3    H241321   3.364   5.452   8.609
 6588TIP3   OH241322   3.136   5.310   2.185
 6588TIP3    H141323   3.071   5.380   2.177
 6588TIP3    H241324   3.089   5.239   2.229
 6589TIP3   OH241325   6.244   5.494   2.083
 6589TIP3    H141326   6.156   5.517   2.112
 6589TIP3    H241327   6.233   5.464   1.993
 6590TIP3   OH241328   4.349   6.204   7.524
 6590TIP3    H141329   4.401   6.280   7.547
 6590TIP3    H241330   4.260   6.225   7.553
 6591TIP3   OH241331   2.303   4.416   0.363
 6591TIP3    H141332   2.295   4.508   0.337
 6591TIP3    H241333   2.365   4.378   0.301
 6592TIP3   OH241334   5.415   6.627   1.315
 6592TIP3    H141335   5.477   6.643   1.244
 6592TIP3    H241336   5.458   6.562   1.370
 6593TIP3   OH241337   0.266   6.642   7.627
 6593TIP3    H141338   0.216   6.680   7.700
 6593TIP3    H241339   0.287   6.554   7.656
 6594TIP3   OH241340   6.261   0.530   7.593
 6594TIP3    H141341   6.175   0.562   7.565
 6594TIP3    H241342   6.269   0.444   7.550
 6595TIP3   OH241343   0.627   0.135   7.406
 6595TIP3    H141344   0.680   0.154   7.484
 6595TIP3    H241345   0.563   0.070   7.437
 6596TIP3   OH241346   2.644   1.542   1.169
 6596TIP3    H141347   2.662   1.489   1.092
 6596TIP3    H241348   2.686   1.495   1.241
 6597TIP3   OH241349   4.906   2.751   1.058
 6597TIP3    H141350   4.972   2.797   1.110
 6597TIP3    H241351   4.843   2.819   1.034
 6598TIP3   OH241352   3.820   3.674   7.844
 6598TIP3    H141353   3.907   3.669   7.885
 6598TIP3    H241354   3.838   3.696   7.753
 6599TIP3   OH241355   4.867   5.117   8.323
 6599TIP3    H141356   4.915   5.200   8.319
 6599TIP3    H241357   4.924   5.054   8.280
 6600TIP3   OH241358   4.415   4.383   7.432
 6600TIP3    H141359   4.506   4.365   7.410
 6600TIP3    H241360   4.386   4.306   7.481
 6601TIP3   OH241361   3.411   4.609   0.542
 6601TIP3    H141362   3.368   4.578   0.622
 6601TIP3    H241363   3.387   4.701   0.536
 6602TIP3   OH241364   0.198   2.653   7.970
 6602TIP3    H141365   0.172   2.569   8.007
 6602TIP3    H241366   0.221   2.707   8.046
 6603TIP3   OH241367   0.265   2.437   0.492
 6603TIP3    H141368   0.309   2.370   0.543
 6603TIP3    H241369   0.323   2.514   0.499
 6604TIP3   OH241370   2.050   2.067   2.104
 6604TIP3    H141371   2.059   2.139   2.166
 6604TIP3    H241372   1.960   2.036   2.116
 6605TIP3   OH241373   2.059   6.006   6.972
 6605TIP3    H141374   2.112   5.940   6.927
 6605TIP3    H241375   2.076   6.087   6.924
 6606TIP3   OH241376   0.548   4.024   1.742
 6606TIP3    H141377   0.458   3.995   1.751
 6606TIP3    H241378   0.600   3.947   1.766
 6607TIP3   OH241379   3.927   3.776   0.630
 6607TIP3    H141380   3.895   3.730   0.708
 6607TIP3    H241381   4.014   3.807   0.654
 6608TIP3   OH241382   1.374   2.020   7.216
 6608TIP3    H141383   1.446   2.082   7.227
 6608TIP3    H241384   1.304   2.073   7.176
 6609TIP3   OH241385   0.989   6.658   7.635
 6609TIP3    H141386   1.037   6.577   7.621
 6609TIP3    H241387   0.911   6.632   7.684
 6610TIP3   OH241388   1.276   6.196   0.488
 6610TIP3    H141389   1.304   6.208   0.398
 6610TIP3    H241390   1.257   6.284   0.520
 6611TIP3   OH241391   5.209   6.013   7.271
 6611TIP3    H141392   5.129   6.024   7.322
 6611TIP3    H241393   5.211   5.920   7.248
 6612TIP3   OH241394   0.597   0.460   0.561
 6612TIP3    H141395   0.607   0.386   0.501
 6612TIP3    H241396   0.504   0.459   0.584
 6613TIP3   OH241397   3.421   1.192   0.134
 6613TIP3    H141398   3.456   1.262   0.078
 6613TIP3    H241399   3.441   1.111   0.087
 6614TIP3   OH241400   2.755   3.090   6.885
 6614TIP3    H141401   2.795   3.105   6.800
 6614TIP3    H241402   2.747   2.994   6.891
 6615TIP3   OH241403   5.752   4.472   1.454
 6615TIP3    H141404   5.778   4.448   1.544
 6615TIP3    H241405   5.692   4.546   1.466
 6616TIP3   OH241406   4.443   5.890   0.565
 6616TIP3    H141407   4.433   5.984   0.580
 6616TIP3    H241408   4.508   5.863   0.630
 6617TIP3   OH241409   0.681   4.111   7.150
 6617TIP3    H141410   0.622   4.109   7.075
 6617TIP3    H241411   0.686   4.204   7.173
 6618TIP3   OH241412   1.786   6.061   8.256
 6618TIP3    H141413   1.802   6.024   8.169
 6618TIP3    H241414   1.852   6.021   8.312
 6619TIP3   OH241415   4.460   2.752   1.124
 6619TIP3    H141416   4.375   2.732   1.163
 6619TIP3    H241417   4.495   2.667   1.099
 6620TIP3   OH241418   2.414   1.331   8.625
 6620TIP3    H141419   2.482   1.389   8.660
 6620TIP3    H241420   2.387   1.372   8.543
 6621TIP3   OH241421   4.676   0.932   7.139
 6621TIP3    H141422   4.734   0.932   7.064
 6621TIP3    H241423   4.727   0.972   7.210
 6622TIP3   OH241424   4.784   5.020   0.869
 6622TIP3    H141425   4.786   5.116   0.860
 6622TIP3    H241426   4.743   5.005   0.954
 6623TIP3   OH241427   5.551   1.965   0.840
 6623TIP3    H141428   5.640   1.966   0.803
 6623TIP3    H241429   5.516   2.051   0.819
 6624TIP3   OH241430   0.086   0.332   8.699
 6624TIP3    H141431   0.066   0.370   8.785
 6624TIP3    H241432   0.153   0.389   8.663
 6625TIP3   OH241433   1.400   3.890   1.042
 6625TIP3    H141434   1.382   3.984   1.046
 6625TIP3    H241435   1.403   3.862   1.133
 6626TIP3   OH241436   5.461   2.462   8.083
 6626TIP3    H141437   5.457   2.370   8.110
 6626TIP3    H241438   5.438   2.460   7.990
 6627TIP3   OH241439   0.439   6.497   1.972
 6627TIP3    H141440   0.523   6.467   2.006
 6627TIP3    H241441   0.376   6.431   2.003
 6628TIP3   OH241442   0.200   6.265   0.369
 6628TIP3    H141443   0.124   6.271   0.311
 6628TIP3    H241444   0.164   6.237   0.453
 6629TIP3   OH241445   5.854   4.533   7.345
 6629TIP3    H141446   5.882   4.538   7.253
 6629TIP3    H241447   5.803   4.612   7.359
 6630TIP3   OH241448   4.852   2.225   1.958
 6630TIP3    H141449   4.842   2.131   1.971
 6630TIP3    H241450   4.787   2.247   1.892
 6631TIP3   OH241451   2.108   1.775   8.332
 6631TIP3    H141452   2.040   1.841   8.347
 6631TIP3    H241453   2.072   1.694   8.369
 6632TIP3   OH241454   4.353   4.819   0.322
 6632TIP3    H141455   4.342   4.865   0.239
 6632TIP3    H241456   4.335   4.886   0.389
 6633TIP3   OH241457   0.852   3.826   8.602
 6633TIP3    H141458   0.838   3.870   8.518
 6633TIP3    H241459   0.810   3.740   8.592
 6634TIP3   OH241460   6.597   3.667   7.325
 6634TIP3    H141461   6.620   3.585   7.283
 6634TIP3    H241462   6.662   3.730   7.294
 6635TIP3   OH241463   1.433   1.740   8.311
 6635TIP3    H141464   1.399   1.789   8.237
 6635TIP3    H241465   1.490   1.801   8.357
 6636TIP3   OH241466   4.296   2.915   0.460
 6636TIP3    H141467   4.254   3.001   0.457
 6636TIP3    H241468   4.274   2.882   0.547
 6637TIP3   OH241469   4.415   5.077   7.959
 6637TIP3    H141470   4.464   5.063   7.878
 6637TIP3    H241471   4.446   5.161   7.992
 6638TIP3   OH241472   2.260   6.361   2.206
 6638TIP3    H141473   2.166   6.359   2.222
 6638TIP3    H241474   2.283   6.271   2.183
 6639TIP3   OH241475   3.716   4.781   7.799
 6639TIP3    H141476   3.735   4.845   7.868
 6639TIP3    H241477   3.647   4.726   7.837
 6640TIP3   OH241478   6.372   4.370   0.676
 6640TIP3    H141479   6.373   4.283   0.714
 6640TIP3    H241480   6.398   4.357   0.584
 6641TIP3   OH241481   3.972   5.892   8.151
 6641TIP3    H141482   3.998   5.840   8.227
 6641TIP3    H241483   3.934   5.972   8.189
 6642TIP3   OH241484   0.461   6.198   8.416
 6642TIP3    H141485   0.452   6.150   8.334
 6642TIP3    H241486   0.535   6.257   8.401
 6643TIP3   OH241487   2.753   0.322   0.211
 6643TIP3    H141488   2.698   0.253   0.248
 6643TIP3    H241489   2.842   0.286   0.213
 6644TIP3   OH241490   0.621   6.722   7.721
 6644TIP3    H141491   0.698   6.699   7.773
 6644TIP3    H241492   0.564   6.769   7.781
 6645TIP3   OH241493   1.166   3.640   7.420
 6645TIP3    H141494   1.198   3.730   7.424
 6645TIP3    H241495   1.217   3.593   7.485
 6646TIP3   OH241496   3.908   2.690   0.186
 6646TIP3    H141497   3.887   2.761   0.246
 6646TIP3    H241498   3.897   2.729   0.099
 6647TIP3   OH241499   0.921   2.674   0.353
 6647TIP3    H141500   0.956   2.760   0.377
 6647TIP3    H241501   0.942   2.618   0.428
 6648TIP3   OH241502   6.650   0.496   8.832
 6648TIP3    H141503   6.603   0.440   0.018
 6648TIP3    H241504   6.714   0.543   0.011
 6649TIP3   OH241505   1.358   0.540   6.603
 6649TIP3    H141506   1.389   0.455   6.572
 6649TIP3    H241507   1.429   0.572   6.660
 6650TIP3   OH241508   6.351   6.572   1.444
 6650TIP3    H141509   6.299   6.576   1.525
 6650TIP3    H241510   6.442   6.569   1.474
 6651TIP3   OH241511   5.299   1.402   1.116
 6651TIP3    H141512   5.320   1.317   1.155
 6651TIP3    H241513   5.203   1.405   1.116
 6652TIP3   OH241514   0.965   0.203   2.131
 6652TIP3    H141515   0.947   0.130   2.190
 6652TIP3    H241516   1.059   0.221   2.143
 6653TIP3   OH241517   3.851   1.972   8.577
 6653TIP3    H141518   3.759   1.995   8.581
 6653TIP3    H241519   3.856   1.901   8.513
 6654TIP3   OH241520   2.413   3.943   0.839
 6654TIP3    H141521   2.334   3.904   0.878
 6654TIP3    H241522   2.419   3.903   0.752
 6655TIP3   OH241523   5.656   5.445   8.858
 6655TIP3    H141524   5.630   5.516   0.042
 6655TIP3    H241525   5.596   5.373   0.006
 6656TIP3   OH241526   2.622   0.896   0.421
 6656TIP3    H141527   2.545   0.844   0.445
 6656TIP3    H241528   2.587   0.984   0.405
 6657TIP3   OH241529   5.130   5.613   8.687
 6657TIP3    H141530   5.081   5.530   8.690
 6657TIP3    H241531   5.212   5.594   8.731
 6658TIP3   OH241532   1.804   2.341   2.409
 6658TIP3    H141533   1.738   2.308   2.348
 6658TIP3    H241534   1.882   2.288   2.391
 6659TIP3   OH241535   6.224   1.268   1.607
 6659TIP3    H141536   6.315   1.296   1.617
 6659TIP3    H241537   6.228   1.194   1.547
 6660TIP3   OH241538   1.890   3.399   8.470
 6660TIP3    H141539   1.903   3.406   8.376
 6660TIP3    H241540   1.951   3.463   8.508
 6661TIP3   OH241541   5.102   6.570   0.497
 6661TIP3    H141542   5.133   6.577   0.407
 6661TIP3    H241543   5.176   6.533   0.545
 6662TIP3   OH241544   1.486   1.142   7.961
 6662TIP3    H141545   1.428   1.098   8.024
 6662TIP3    H241546   1.497   1.078   7.890
 6663TIP3   OH241547   3.122   0.782   0.094
 6663TIP3    H141548   3.062   0.722   0.138
 6663TIP3    H241549   3.069   0.860   0.077
 6664TIP3   OH241550   4.948   3.611   7.615
 6664TIP3    H141551   4.934   3.638   7.525
 6664TIP3    H241552   5.020   3.547   7.610
 6665TIP3   OH241553   5.633   0.535   8.067
 6665TIP3    H141554   5.688   0.599   8.111
 6665TIP3    H241555   5.545   0.551   8.102
 6666TIP3   OH241556   3.942   6.567   7.361
 6666TIP3    H141557   3.858   6.543   7.323
 6666TIP3    H241558   4.006   6.517   7.310
 6667TIP3   OH241559   4.868   3.696   7.375
 6667TIP3    H141560   4.913   3.704   7.291
 6667TIP3    H241561   4.792   3.753   7.367
 6668TIP3   OH241562   4.466   1.300   0.557
 6668TIP3    H141563   4.399   1.306   0.624
 6668TIP3    H241564   4.489   1.207   0.554
 6669TIP3   OH241565   5.194   1.828   1.180
 6669TIP3    H141566   5.104   1.838   1.212
 6669TIP3    H241567   5.184   1.799   1.089
 6670TIP3   OH241568   6.378   3.419   7.367
 6670TIP3    H141569   6.444   3.363   7.326
 6670TIP3    H241570   6.327   3.359   7.421
 6671TIP3   OH241571   1.966   0.812   0.502
 6671TIP3    H141572   1.973   0.906   0.486
 6671TIP3    H241573   1.926   0.777   0.422
 6672TIP3   OH241574   0.547   6.355   0.933
 6672TIP3    H141575   0.640   6.377   0.931
 6672TIP3    H241576   0.535   6.308   1.015
 6673TIP3   OH241577   0.830   2.399   6.469
 6673TIP3    H141578   0.926   2.402   6.461
 6673TIP3    H241579   0.798   2.401   6.379
 6674TIP3   OH241580   6.687   1.129   0.154
 6674TIP3    H141581   6.621   1.060   0.164
 6674TIP3    H241582   6.755   1.107   0.217
 6675TIP3   OH241583   5.155   2.302   0.649
 6675TIP3    H141584   5.078   2.328   0.699
 6675TIP3    H241585   5.144   2.208   0.634
 6676TIP3   OH241586   2.807   2.909   0.656
 6676TIP3    H141587   2.848   2.823   0.649
 6676TIP3    H241588   2.879   2.968   0.676
 6677TIP3   OH241589   4.381   3.172   1.946
 6677TIP3    H141590   4.450   3.118   1.985
 6677TIP3    H241591   4.425   3.218   1.875
 6678TIP3   OH241592   0.141   0.918   1.612
 6678TIP3    H141593   0.154   0.875   1.697
 6678TIP3    H241594   0.054   0.890   1.584
 6679TIP3   OH241595   6.008   2.170   7.678
 6679TIP3    H141596   5.982   2.259   7.701
 6679TIP3    H241597   6.098   2.162   7.710
 6680TIP3   OH241598   4.017   4.138   0.029
 6680TIP3    H141599   4.066   4.060   0.055
 6680TIP3    H241600   4.083   4.207   0.020
 6681TIP3   OH241601   6.279   5.074   0.004
 6681TIP3    H141602   6.346   5.068   0.072
 6681TIP3    H241603   6.196   5.057   0.049
 6682TIP3   OH241604   5.318   2.389   0.858
 6682TIP3    H141605   5.243   2.393   0.798
 6682TIP3    H241606   5.336   2.295   0.867
 6683TIP3   OH241607   4.572   6.667   8.822
 6683TIP3    H141608   4.597   6.575   8.818
 6683TIP3    H241609   4.647   6.714   8.787
 6684TIP3   OH241610   5.675   2.279   6.462
 6684TIP3    H141611   5.754   2.250   6.507
 6684TIP3    H241612   5.680   2.239   6.375
 6685TIP3   OH241613   3.296   1.301   2.032
 6685TIP3    H141614   3.361   1.321   1.965
 6685TIP3    H241615   3.256   1.386   2.053
 6686TIP3   OH241616   6.227   0.077   0.173
 6686TIP3    H141617   6.170   0.154   0.181
 6686TIP3    H241618   6.198   0.033   0.093
 6687TIP3   OH241619   3.585   1.841   1.605
 6687TIP3    H141620   3.518   1.861   1.671
 6687TIP3    H241621   3.615   1.753   1.627
 6688TIP3   OH241622   2.913   4.244   7.910
 6688TIP3    H141623   2.903   4.324   7.963
 6688TIP3    H241624   3.003   4.215   7.929
 6689TIP3   OH241625   4.671   3.216   0.544
 6689TIP3    H141626   4.658   3.132   0.500
 6689TIP3    H241627   4.662   3.281   0.474
 6690TIP3   OH241628   4.868   2.568   1.869
 6690TIP3    H141629   4.832   2.614   1.793
 6690TIP3    H241630   4.957   2.544   1.843
 6691TIP3   OH241631   0.019   0.283   1.220
 6691TIP3    H141632   0.033   0.368   1.178
 6691TIP3    H241633   0.076   0.285   1.297
 6692TIP3   OH241634   4.349   3.202   8.242
 6692TIP3    H141635   4.328   3.287   8.281
 6692TIP3    H241636   4.325   3.212   8.149
 6693TIP3   OH241637   5.774   5.761   7.954
 6693TIP3    H141638   5.762   5.719   8.039
 6693TIP3    H241639   5.845   5.824   7.968
 6694TIP3   OH241640   1.660   2.515   8.615
 6694TIP3    H141641   1.726   2.465   8.568
 6694TIP3    H241642   1.580   2.505   8.564
 6695TIP3   OH241643   1.437   0.455   8.449
 6695TIP3    H141644   1.403   0.535   8.409
 6695TIP3    H241645   1.528   0.477   8.471
 6696TIP3   OH241646   3.731   6.214   7.363
 6696TIP3    H141647   3.791   6.154   7.408
 6696TIP3    H241648   3.646   6.196   7.404
 6697TIP3   OH241649   4.829   0.761   2.248
 6697TIP3    H141650   4.866   0.846   2.272
 6697TIP3    H241651   4.901   0.699   2.260
 6698TIP3   OH241652   3.035   6.754   2.094
 6698TIP3    H141653   3.031   0.049   2.123
 6698TIP3    H241654   2.952   6.716   2.121
 6699TIP3   OH241655   1.125   5.856   0.922
 6699TIP3    H141656   1.210   5.872   0.963
 6699TIP3    H241657   1.145   5.847   0.829
 6700TIP3   OH241658   6.289   6.018   7.946
 6700TIP3    H141659   6.229   6.035   7.874
 6700TIP3    H241660   6.261   5.934   7.982
 6701TIP3   OH241661   3.074   4.033   2.060
 6701TIP3    H141662   3.060   3.939   2.074
 6701TIP3    H241663   3.117   4.063   2.140
 6702TIP3   OH241664   1.481   4.158   0.064
 6702TIP3    H141665   1.432   4.126   0.140
 6702TIP3    H241666   1.522   4.080   0.028
 6703TIP3   OH241667   3.861   0.377   8.658
 6703TIP3    H141668   3.777   0.332   8.654
 6703TIP3    H241669   3.845   0.462   8.616
 6704TIP3   OH241670   6.676   5.694   8.359
 6704TIP3    H141671   6.729   5.631   8.310
 6704TIP3    H241672   6.707   5.780   8.330
 6705TIP3   OH241673   3.126   0.048   1.326
 6705TIP3    H141674   3.172   6.762   1.342
 6705TIP3    H241675   3.177   0.092   1.258
 6706TIP3   OH241676   3.484   0.032   7.830
 6706TIP3    H141677   3.578   0.049   7.839
 6706TIP3    H241678   3.466   0.042   7.737
 6707TIP3   OH241679   2.211   1.080   1.725
 6707TIP3    H141680   2.266   1.153   1.753
 6707TIP3    H241681   2.265   1.002   1.741
 6708TIP3   OH241682   1.260   4.484   0.154
 6708TIP3    H141683   1.205   4.417   0.194
 6708TIP3    H241684   1.327   4.503   0.219
 6709TIP3   OH241685   4.881   2.554   7.809
 6709TIP3    H141686   4.933   2.511   7.741
 6709TIP3    H241687   4.940   2.556   7.885
 6710TIP3   OH241688   3.307   4.963   0.084
 6710TIP3    H141689   3.222   4.998   0.058
 6710TIP3    H241690   3.340   4.918   0.007
 6711TIP3   OH241691   5.628   5.645   8.182
 6711TIP3    H141692   5.552   5.693   8.215
 6711TIP3    H241693   5.593   5.565   8.145
 6712TIP3   OH241694   5.206   6.255   1.581
 6712TIP3    H141695   5.233   6.292   1.665
 6712TIP3    H241696   5.117   6.221   1.597
 6713TIP3   OH241697   0.841   5.722   1.687
 6713TIP3    H141698   0.887   5.727   1.771
 6713TIP3    H241699   0.749   5.728   1.711
 6714TIP3   OH241700   0.221   2.825   6.593
 6714TIP3    H141701   0.200   2.910   6.554
 6714TIP3    H241702   0.311   2.835   6.624
 6715TIP3   OH241703   0.216   1.577   1.487
 6715TIP3    H141704   0.235   1.626   1.406
 6715TIP3    H241705   0.236   1.486   1.465
 6716TIP3   OH241706   3.932   0.455   8.160
 6716TIP3    H141707   3.935   0.373   8.112
 6716TIP3    H241708   3.886   0.433   8.242
 6717TIP3   OH241709   0.186   1.718   7.714
 6717TIP3    H141710   0.163   1.777   7.642
 6717TIP3    H241711   0.277   1.694   7.698
 6718TIP3   OH241712   5.763   0.507   7.305
 6718TIP3    H141713   5.807   0.500   7.390
 6718TIP3    H241714   5.828   0.477   7.242
 6719TIP3   OH241715   4.262   2.711   7.646
 6719TIP3    H141716   4.284   2.619   7.658
 6719TIP3    H241717   4.293   2.732   7.558
 6720TIP3   OH241718   6.305   4.233   1.426
 6720TIP3    H141719   6.304   4.314   1.476
 6720TIP3    H241720   6.288   4.165   1.491
 6721TIP3   OH241721   2.717   1.909   8.202
 6721TIP3    H141722   2.698   1.819   8.230
 6721TIP3    H241723   2.781   1.898   8.131
 6722TIP3   OH241724   4.031   4.792   2.167
 6722TIP3    H141725   3.969   4.836   2.225
 6722TIP3    H241726   4.117   4.811   2.205
 6723TIP3   OH241727   0.068   2.614   6.504
 6723TIP3    H141728   0.116   2.690   6.537
 6723TIP3    H241729   0.069   2.623   6.409
 6724TIP3   OH241730   2.920   2.998   7.296
 6724TIP3    H141731   2.956   3.074   7.250
 6724TIP3    H241732   2.993   2.936   7.299
 6725TIP3   OH241733   3.998   0.051   8.125
 6725TIP3    H141734   3.963   0.104   8.196
 6725TIP3    H241735   4.086   0.028   8.153
 6726TIP3   OH241736   2.567   2.378   1.827
 6726TIP3    H141737   2.565   2.470   1.853
 6726TIP3    H241738   2.544   2.330   1.907
 6727TIP3   OH241739   4.152   3.871   0.088
 6727TIP3    H141740   4.123   3.791   0.132
 6727TIP3    H241741   4.245   3.877   0.109
 6728TIP3   OH241742   1.225   1.403   0.872
 6728TIP3    H141743   1.200   1.312   0.890
 6728TIP3    H241744   1.308   1.397   0.826
 6729TIP3   OH241745   2.972   1.098   7.732
 6729TIP3    H141746   3.003   1.106   7.822
 6729TIP3    H241747   2.883   1.063   7.740
 6730TIP3   OH241748   6.479   0.955   0.103
 6730TIP3    H141749   6.481   0.874   0.052
 6730TIP3    H241750   6.430   0.933   0.182
 6731TIP3   OH241751   4.349   1.016   0.499
 6731TIP3    H141752   4.266   1.055   0.530
 6731TIP3    H241753   4.327   0.976   0.415
 6732TIP3   OH241754   3.118   6.516   0.870
 6732TIP3    H141755   3.139   6.484   0.958
 6732TIP3    H241756   3.044   6.576   0.884
 6733TIP3   OH241757   4.937   6.524   0.761
 6733TIP3    H141758   4.961   6.559   0.847
 6733TIP3    H241759   4.998   6.567   0.701
 6734TIP3   OH241760   2.540   3.361   0.898
 6734TIP3    H141761   2.562   3.439   0.847
 6734TIP3    H241762   2.477   3.392   0.963
 6735TIP3   OH241763   1.640   1.816   8.530
 6735TIP3    H141764   1.673   1.884   8.589
 6735TIP3    H241765   1.698   1.819   8.454
 6736TIP3   OH241766   5.326   5.221   7.342
 6736TIP3    H141767   5.414   5.242   7.375
 6736TIP3    H241768   5.340   5.195   7.251
 6737TIP3   OH241769   1.935   5.552   7.145
 6737TIP3    H141770   1.877   5.586   7.076
 6737TIP3    H241771   2.013   5.522   7.098
 6738TIP3   OH241772   0.278   0.691   7.653
 6738TIP3    H141773   0.238   0.632   7.717
 6738TIP3    H241774   0.244   0.661   7.568
 6739TIP3   OH241775   4.609   2.994   7.617
 6739TIP3    H141776   4.566   3.078   7.606
 6739TIP3    H241777   4.587   2.944   7.539
 6740TIP3   OH241778   3.726   5.124   1.586
 6740TIP3    H141779   3.771   5.144   1.668
 6740TIP3    H241780   3.747   5.032   1.568
 6741TIP3   OH241781   1.203   4.355   7.419
 6741TIP3    H141782   1.284   4.320   7.382
 6741TIP3    H241783   1.227   4.444   7.447
 6742TIP3   OH241784   4.689   2.959   1.096
 6742TIP3    H141785   4.655   2.885   1.147
 6742TIP3    H241786   4.674   2.934   1.004
 6743TIP3   OH241787   0.942   4.165   8.860
 6743TIP3    H141788   0.911   4.208   8.781
 6743TIP3    H241789   0.864   4.151   0.038
 6744TIP3   OH241790   6.756   4.398   8.435
 6744TIP3    H141791   6.689   4.439   8.380
 6744TIP3    H241792   6.791   4.470   8.488
 6745TIP3   OH241793   4.849   0.564   7.752
 6745TIP3    H141794   4.890   0.482   7.778
 6745TIP3    H241795   4.912   0.605   7.693
 6746TIP3   OH241796   5.230   2.626   0.615
 6746TIP3    H141797   5.202   2.651   0.704
 6746TIP3    H241798   5.186   2.542   0.600
 6747TIP3   OH241799   4.840   1.052   7.353
 6747TIP3    H141800   4.930   1.044   7.385
 6747TIP3    H241801   4.824   1.147   7.354
 6748TIP3   OH241802   0.559   1.807   7.516
 6748TIP3    H141803   0.524   1.764   7.438
 6748TIP3    H241804   0.647   1.835   7.491
 6749TIP3   OH241805   0.971   6.471   8.700
 6749TIP3    H141806   0.955   6.554   8.656
 6749TIP3    H241807   1.052   6.485   8.749
 6750TIP3   OH241808   4.315   1.576   1.746
 6750TIP3    H141809   4.385   1.563   1.810
 6750TIP3    H241810   4.254   1.637   1.789
 6751TIP3   OH241811   5.275   3.853   6.850
 6751TIP3    H141812   5.205   3.791   6.833
 6751TIP3    H241813   5.344   3.828   6.788
 6752TIP3   OH241814   3.341   0.812   7.125
 6752TIP3    H141815   3.417   0.753   7.120
 6752TIP3    H241816   3.349   0.854   7.211
 6753TIP3   OH241817   2.744   5.378   0.248
 6753TIP3    H141818   2.839   5.382   0.237
 6753TIP3    H241819   2.710   5.389   0.159
 6754TIP3   OH241820   3.440   3.188   1.603
 6754TIP3    H141821   3.481   3.261   1.650
 6754TIP3    H241822   3.440   3.116   1.666
 6755TIP3   OH241823   3.000   6.604   1.571
 6755TIP3    H141824   2.959   6.524   1.538
 6755TIP3    H241825   3.094   6.589   1.558
 6756TIP3   OH241826   1.900   2.927   8.778
 6756TIP3    H141827   1.912   2.858   8.713
 6756TIP3    H241828   1.828   2.980   8.745
 6757TIP3   OH241829   0.632   3.172   7.533
 6757TIP3    H141830   0.700   3.239   7.523
 6757TIP3    H241831   0.559   3.219   7.573
 6758TIP3   OH241832   3.198   4.969   7.907
 6758TIP3    H141833   3.267   4.954   7.971
 6758TIP3    H241834   3.176   5.062   7.916
 6759TIP3   OH241835   3.371   0.453   7.726
 6759TIP3    H141836   3.347   0.455   7.634
 6759TIP3    H241837   3.306   0.396   7.767
 6760TIP3   OH241838   4.193   6.053   1.627
 6760TIP3    H141839   4.165   5.962   1.636
 6760TIP3    H241840   4.114   6.105   1.640
 6761TIP3   OH241841   5.741   3.580   0.907
 6761TIP3    H141842   5.683   3.509   0.934
 6761TIP3    H241843   5.757   3.564   0.814
 6762TIP3   OH241844   0.574   2.933   1.828
 6762TIP3    H141845   0.544   3.024   1.835
 6762TIP3    H241846   0.504   2.888   1.781
 6763TIP3   OH241847   6.638   5.908   1.625
 6763TIP3    H141848   6.545   5.896   1.644
 6763TIP3    H241849   6.661   5.835   1.568
 6764TIP3   OH241850   6.720   3.150   1.863
 6764TIP3    H141851   6.771   3.070   1.849
 6764TIP3    H241852   6.709   3.187   1.775
 6765TIP3   OH241853   3.030   3.591   8.601
 6765TIP3    H141854   3.009   3.575   8.693
 6765TIP3    H241855   3.120   3.562   8.591
 6766TIP3   OH241856   1.385   1.664   1.463
 6766TIP3    H141857   1.409   1.732   1.526
 6766TIP3    H241858   1.469   1.625   1.437
 6767TIP3   OH241859   3.003   1.307   0.686
 6767TIP3    H141860   2.981   1.357   0.607
 6767TIP3    H241861   3.049   1.230   0.654
 6768TIP3   OH241862   1.007   6.147   6.631
 6768TIP3    H141863   1.060   6.198   6.569
 6768TIP3    H241864   0.919   6.186   6.624
 6769TIP3   OH241865   4.667   3.050   1.518
 6769TIP3    H141866   4.690   3.072   1.608
 6769TIP3    H241867   4.631   2.961   1.524
 6770TIP3   OH241868   0.722   2.454   1.191
 6770TIP3    H141869   0.674   2.400   1.128
 6770TIP3    H241870   0.793   2.492   1.140
 6771TIP3   OH241871   6.218   1.381   1.891
 6771TIP3    H141872   6.304   1.402   1.856
 6771TIP3    H241873   6.174   1.466   1.899
 6772TIP3   OH241874   1.425   6.784   8.171
 6772TIP3    H141875   1.389   0.029   8.250
 6772TIP3    H241876   1.425   0.058   8.106
 6773TIP3   OH241877   5.725   0.586   1.348
 6773TIP3    H141878   5.730   0.680   1.330
 6773TIP3    H241879   5.815   0.555   1.339
 6774TIP3   OH241880   2.462   5.506   1.306
 6774TIP3    H141881   2.379   5.484   1.348
 6774TIP3    H241882   2.525   5.510   1.378
 6775TIP3   OH241883   2.859   0.257   0.661
 6775TIP3    H141884   2.775   0.211   0.656
 6775TIP3    H241885   2.848   0.334   0.606
 6776TIP3   OH241886   0.990   6.613   7.297
 6776TIP3    H141887   0.909   6.660   7.318
 6776TIP3    H241888   1.058   6.680   7.301
 6777TIP3   OH241889   1.220   4.411   1.118
 6777TIP3    H141890   1.129   4.409   1.088
 6777TIP3    H241891   1.214   4.440   1.209
 6778TIP3   OH241892   1.874   3.020   6.677
 6778TIP3    H141893   1.958   3.060   6.655
 6778TIP3    H241894   1.817   3.039   6.603
 6779TIP3   OH241895   3.621   4.633   0.904
 6779TIP3    H141896   3.637   4.586   0.986
 6779TIP3    H241897   3.706   4.632   0.859
 6780TIP3   OH241898   1.799   5.675   7.371
 6780TIP3    H141899   1.862   5.743   7.395
 6780TIP3    H241900   1.825   5.650   7.282
 6781TIP3   OH241901   0.491   3.096   0.773
 6781TIP3    H141902   0.409   3.052   0.752
 6781TIP3    H241903   0.551   3.071   0.703
 6782TIP3   OH241904   5.029   5.642   1.101
 6782TIP3    H141905   5.045   5.681   1.187
 6782TIP3    H241906   4.954   5.691   1.066
 6783TIP3   OH241907   3.299   4.353   8.652
 6783TIP3    H141908   3.373   4.306   8.612
 6783TIP3    H241909   3.222   4.304   8.623
 6784TIP3   OH241910   5.542   5.280   0.431
 6784TIP3    H141911   5.601   5.284   0.355
 6784TIP3    H241912   5.500   5.365   0.433
 6785TIP3   OH241913   5.386   3.640   0.668
 6785TIP3    H141914   5.319   3.605   0.609
 6785TIP3    H241915   5.397   3.572   0.734
 6786TIP3   OH241916   3.584   6.585   7.973
 6786TIP3    H141917   3.564   6.615   7.884
 6786TIP3    H241918   3.626   6.660   8.015
 6787TIP3   OH241919   1.244   0.500   7.227
 6787TIP3    H141920   1.291   0.580   7.205
 6787TIP3    H241921   1.163   0.505   7.176
 6788TIP3   OH241922   3.541   6.508   1.928
 6788TIP3    H141923   3.623   6.556   1.913
 6788TIP3    H241924   3.494   6.514   1.845
 6789TIP3   OH241925   5.889   1.582   7.795
 6789TIP3    H141926   5.798   1.592   7.822
 6789TIP3    H241927   5.932   1.540   7.870
 6790TIP3   OH241928   6.592   1.756   6.841
 6790TIP3    H141929   6.665   1.739   6.900
 6790TIP3    H241930   6.586   1.677   6.787
 6791TIP3   OH241931   0.530   4.510   1.563
 6791TIP3    H141932   0.436   4.501   1.550
 6791TIP3    H241933   0.542   4.601   1.591
 6792TIP3   OH241934   0.403   3.303   6.996
 6792TIP3    H141935   0.451   3.303   7.078
 6792TIP3    H241936   0.434   3.380   6.949
 6793TIP3   OH241937   1.778   1.745   0.364
 6793TIP3    H141938   1.690   1.712   0.383
 6793TIP3    H241939   1.813   1.684   0.299
 6794TIP3   OH241940   5.185   4.938   7.435
 6794TIP3    H141941   5.164   4.970   7.523
 6794TIP3    H241942   5.257   4.994   7.406
 6795TIP3   OH241943   5.810   0.417   7.023
 6795TIP3    H141944   5.800   0.511   7.011
 6795TIP3    H241945   5.896   0.397   6.984
 6796TIP3   OH241946   5.252   5.093   8.475
 6796TIP3    H141947   5.232   5.055   8.390
 6796TIP3    H241948   5.285   5.181   8.455
 6797TIP3   OH241949   5.792   5.647   1.070
 6797TIP3    H141950   5.723   5.582   1.062
 6797TIP3    H241951   5.770   5.714   1.005
 6798TIP3   OH241952   0.032   4.117   7.523
 6798TIP3    H141953   0.022   4.100   7.616
 6798TIP3    H241954   0.100   4.184   7.517
 6799TIP3   OH241955   5.226   0.836   2.395
 6799TIP3    H141956   5.213   0.930   2.400
 6799TIP3    H241957   5.141   0.798   2.420
 6800TIP3   OH241958   6.384   6.642   0.189
 6800TIP3    H141959   6.349   6.731   0.190
 6800TIP3    H241960   6.333   6.597   0.122
 6801TIP3   OH241961   2.532   6.272   6.847
 6801TIP3    H141962   2.488   6.209   6.789
 6801TIP3    H241963   2.565   6.339   6.788
 6802TIP3   OH241964   3.051   4.492   1.660
 6802TIP3    H141965   3.043   4.450   1.746
 6802TIP3    H241966   3.004   4.574   1.670
 6803TIP3   OH241967   2.222   4.389   0.021
 6803TIP3    H141968   2.139   4.437   0.019
 6803TIP3    H241969   2.281   4.446   0.069
 6804TIP3   OH241970   6.605   3.486   1.013
 6804TIP3    H141971   6.624   3.501   0.921
 6804TIP3    H241972   6.676   3.532   1.060
 6805TIP3   OH241973   0.948   6.043   7.863
 6805TIP3    H141974   0.881   6.017   7.799
 6805TIP3    H241975   1.028   6.054   7.811
 6806TIP3   OH241976   1.756   4.209   7.965
 6806TIP3    H141977   1.824   4.221   7.898
 6806TIP3    H241978   1.687   4.160   7.920
 6807TIP3   OH241979   1.673   4.476   1.915
 6807TIP3    H141980   1.759   4.519   1.918
 6807TIP3    H241981   1.693   4.384   1.900
 6808TIP3   OH241982   2.376   2.000   8.152
 6808TIP3    H141983   2.364   2.079   8.100
 6808TIP3    H241984   2.468   1.975   8.137
 6809TIP3   OH241985   1.014   0.102   0.280
 6809TIP3    H141986   1.082   0.160   0.316
 6809TIP3    H241987   0.938   0.159   0.268
 6810TIP3   OH241988   3.610   2.528   7.703
 6810TIP3    H141989   3.600   2.555   7.612
 6810TIP3    H241990   3.520   2.511   7.732
 6811TIP3   OH241991   0.027   6.363   7.838
 6811TIP3    H141992   0.104   6.400   7.795
 6811TIP3    H241993   0.018   6.275   7.801
 6812TIP3   OH241994   2.652   2.662   7.939
 6812TIP3    H141995   2.679   2.749   7.911
 6812TIP3    H241996   2.722   2.604   7.907
 6813TIP3   OH241997   2.579   5.168   1.530
 6813TIP3    H141998   2.657   5.118   1.554
 6813TIP3    H241999   2.564   5.226   1.604
 6814TIP3   OH242000   2.222   3.217   0.130
 6814TIP3    H142001   2.305   3.264   0.124
 6814TIP3    H242002   2.195   3.226   0.221
 6815TIP3   OH242003   6.381   3.638   8.835
 6815TIP3    H142004   6.371   3.546   8.859
 6815TIP3    H242005   6.458   3.639   8.777
 6816TIP3   OH242006   4.752   4.389   0.541
 6816TIP3    H142007   4.740   4.297   0.564
 6816TIP3    H242008   4.701   4.437   0.606
 6817TIP3   OH242009   3.271   2.664   8.452
 6817TIP3    H142010   3.364   2.646   8.465
 6817TIP3    H242011   3.263   2.681   8.359
 6818TIP3   OH242012   2.260   3.150   8.735
 6818TIP3    H142013   2.288   3.239   8.759
 6818TIP3    H242014   2.200   3.125   8.805
 6819TIP3   OH242015   3.791   2.924   8.471
 6819TIP3    H142016   3.761   2.944   8.560
 6819TIP3    H242017   3.778   3.006   8.423
 6820TIP3   OH242018   3.591   4.523   8.782
 6820TIP3    H142019   3.655   4.476   8.730
 6820TIP3    H242020   3.616   4.506   8.872
 6821TIP3   OH242021   0.536   5.472   7.941
 6821TIP3    H142022   0.609   5.512   7.988
 6821TIP3    H242023   0.489   5.422   8.008
 6822TIP3   OH242024   0.506   0.895   6.504
 6822TIP3    H142025   0.431   0.837   6.511
 6822TIP3    H242026   0.569   0.847   6.451
 6823TIP3   OH242027   5.174   1.506   0.204
 6823TIP3    H142028   5.259   1.485   0.165
 6823TIP3    H242029   5.168   1.447   0.280
 6824TIP3   OH242030   1.290   3.795   2.181
 6824TIP3    H142031   1.334   3.725   2.229
 6824TIP3    H242032   1.197   3.780   2.199
 6825TIP3   OH242033   2.729   0.880   8.636
 6825TIP3    H142034   2.703   0.821   8.707
 6825TIP3    H242035   2.762   0.822   8.567
 6826TIP3   OH242036   2.705   1.289   1.997
 6826TIP3    H142037   2.796   1.295   1.969
 6826TIP3    H242038   2.699   1.207   2.045
 6827TIP3   OH242039   6.753   4.246   6.573
 6827TIP3    H142040   6.791   4.319   6.622
 6827TIP3    H242041   0.029   4.183   6.563
 6828TIP3   OH242042   1.230   4.773   0.242
 6828TIP3    H142043   1.321   4.782   0.214
 6828TIP3    H242044   1.215   4.679   0.248
 6829TIP3   OH242045   4.919   0.261   0.576
 6829TIP3    H142046   4.924   0.190   0.512
 6829TIP3    H242047   4.826   0.281   0.583
 6830TIP3   OH242048   5.956   0.157   2.382
 6830TIP3    H142049   5.955   0.092   2.453
 6830TIP3    H242050   5.865   0.159   2.351
 6831TIP3   OH242051   0.461   1.716   8.671
 6831TIP3    H142052   0.514   1.790   8.643
 6831TIP3    H242053   0.523   1.658   8.716
 6832TIP3   OH242054   1.832   4.878   1.140
 6832TIP3    H142055   1.766   4.922   1.194
 6832TIP3    H242056   1.909   4.872   1.197
 6833TIP3   OH242057   5.617   4.575   7.557
 6833TIP3    H142058   5.638   4.514   7.486
 6833TIP3    H242059   5.603   4.518   7.634
 6834TIP3   OH242060   6.344   5.906   1.671
 6834TIP3    H142061   6.322   5.924   1.579
 6834TIP3    H242062   6.282   5.960   1.721
 6835TIP3   OH242063   5.973   3.049   7.139
 6835TIP3    H142064   5.945   2.973   7.087
 6835TIP3    H242065   5.908   3.116   7.120
 6836TIP3   OH242066   4.363   4.085   7.243
 6836TIP3    H142067   4.379   4.175   7.213
 6836TIP3    H242068   4.306   4.048   7.176
 6837TIP3   OH242069   4.398   4.608   8.697
 6837TIP3    H142070   4.323   4.611   8.638
 6837TIP3    H242071   4.449   4.533   8.667
 6838TIP3   OH242072   2.153   3.361   8.127
 6838TIP3    H142073   2.161   3.284   8.071
 6838TIP3    H242074   2.064   3.356   8.162
 6839TIP3   OH242075   0.378   5.856   0.463
 6839TIP3    H142076   0.394   5.859   0.369
 6839TIP3    H242077   0.324   5.778   0.476
 6840TIP3   OH242078   0.661   1.065   1.063
 6840TIP3    H142079   0.660   0.977   1.099
 6840TIP3    H242080   0.599   1.114   1.117
 6841TIP3   OH242081   2.124   2.809   0.630
 6841TIP3    H142082   2.167   2.727   0.656
 6841TIP3    H242083   2.102   2.852   0.712
 6842TIP3   OH242084   3.607   4.154   8.799
 6842TIP3    H142085   3.670   4.226   8.800
 6842TIP3    H242086   3.591   4.138   8.706
 6843TIP3   OH242087   5.842   2.262   8.482
 6843TIP3    H142088   5.809   2.174   8.463
 6843TIP3    H242089   5.807   2.316   8.411
 6844TIP3   OH242090   6.127   1.740   1.601
 6844TIP3    H142091   6.175   1.711   1.523
 6844TIP3    H242092   6.042   1.769   1.567
 6845TIP3   OH242093   3.212   5.671   1.304
 6845TIP3    H142094   3.250   5.758   1.305
 6845TIP3    H242095   3.120   5.684   1.326
 6846TIP3   OH242096   1.820   0.977   1.393
 6846TIP3    H142097   1.846   1.038   1.462
 6846TIP3    H242098   1.750   0.925   1.433
 6847TIP3   OH242099   3.190   4.747   8.268
 6847TIP3    H142100   3.265   4.692   8.247
 6847TIP3    H242101   3.227   4.820   8.319
 6848TIP3   OH242102   3.917   5.926   0.921
 6848TIP3    H142103   3.955   5.962   1.001
 6848TIP3    H242104   3.888   5.838   0.946
 6849TIP3   OH242105   6.204   2.283   6.163
 6849TIP3    H142106   6.268   2.256   6.229
 6849TIP3    H242107   6.256   2.312   6.089
 6850TIP3   OH242108   0.288   0.078   7.151
 6850TIP3    H142109   0.257   0.061   7.241
 6850TIP3    H242110   0.264   6.796   7.102
 6851TIP3   OH242111   4.639   6.639   8.537
 6851TIP3    H142112   4.687   6.643   8.455
 6851TIP3    H242113   4.669   6.558   8.579
 6852TIP3   OH242114   6.464   1.137   1.548
 6852TIP3    H142115   6.441   1.152   1.456
 6852TIP3    H242116   6.487   1.044   1.553
 6853TIP3   OH242117   1.467   4.851   0.081
 6853TIP3    H142118   1.561   4.854   0.098
 6853TIP3    H242119   1.459   4.807   8.871
 6854TIP3   OH242120   1.872   1.221   0.465
 6854TIP3    H142121   1.959   1.184   0.479
 6854TIP3    H242122   1.873   1.251   0.374
 6855TIP3   OH242123   0.361   0.413   1.825
 6855TIP3    H142124   0.351   0.491   1.879
 6855TIP3    H242125   0.335   0.340   1.882
 6856TIP3   OH242126   1.092   5.926   8.395
 6856TIP3    H142127   1.056   5.888   8.475
 6856TIP3    H242128   1.032   5.897   8.326
 6857TIP3   OH242129   3.983   3.048   7.733
 6857TIP3    H142130   3.993   2.978   7.798
 6857TIP3    H242131   3.993   3.129   7.784
 6858TIP3   OH242132   0.750   6.067   7.420
 6858TIP3    H142133   0.785   6.061   7.331
 6858TIP3    H242134   0.812   6.018   7.473
 6859TIP3   OH242135   5.268   0.047   2.110
 6859TIP3    H142136   5.277   6.758   2.067
 6859TIP3    H242137   5.337   0.048   2.176
 6860TIP3   OH242138   3.387   4.619   7.039
 6860TIP3    H142139   3.302   4.638   7.001
 6860TIP3    H242140   3.395   4.679   7.113
 6861TIP3   OH242141   5.366   0.233   1.252
 6861TIP3    H142142   5.343   0.325   1.263
 6861TIP3    H242143   5.286   0.185   1.272
 6862TIP3   OH242144   3.889   4.016   7.744
 6862TIP3    H142145   3.907   3.943   7.685
 6862TIP3    H242146   3.973   4.033   7.788
 6863TIP3   OH242147   1.754   4.273   1.090
 6863TIP3    H142148   1.832   4.260   1.036
 6863TIP3    H242149   1.682   4.240   1.036
 6864TIP3   OH242150   3.600   0.265   8.664
 6864TIP3    H142151   3.556   0.180   8.665
 6864TIP3    H242152   3.556   0.313   8.593
 6865TIP3   OH242153   6.162   6.053   7.700
 6865TIP3    H142154   6.105   5.982   7.730
 6865TIP3    H242155   6.149   6.056   7.605
 6866TIP3   OH242156   6.176   3.898   2.663
 6866TIP3    H142157   6.224   3.840   2.723
 6866TIP3    H242158   6.112   3.942   2.718
 6867TIP3   OH242159   1.011   2.557   6.969
 6867TIP3    H142160   0.990   2.629   6.911
 6867TIP3    H242161   1.004   2.479   6.914
 6868TIP3   OH242162   2.350   2.058   7.554
 6868TIP3    H142163   2.309   2.107   7.626
 6868TIP3    H242164   2.304   2.087   7.476
 6869TIP3   OH242165   2.287   2.154   8.552
 6869TIP3    H142166   2.380   2.135   8.560
 6869TIP3    H242167   2.247   2.107   8.626
 6870TIP3   OH242168   0.644   2.133   7.003
 6870TIP3    H142169   0.560   2.097   7.030
 6870TIP3    H242170   0.670   2.080   6.928
 6871TIP3   OH242171   0.780   3.848   0.832
 6871TIP3    H142172   0.720   3.774   0.821
 6871TIP3    H242173   0.765   3.878   0.921
 6872TIP3   OH242174   0.615   4.356   7.178
 6872TIP3    H142175   0.550   4.346   7.109
 6872TIP3    H242176   0.572   4.408   7.246
 6873TIP3   OH242177   6.500   4.750   1.085
 6873TIP3    H142178   6.511   4.724   0.993
 6873TIP3    H242179   6.442   4.825   1.081
 6874TIP3   OH242180   1.022   2.538   0.602
 6874TIP3    H142181   1.076   2.468   0.567
 6874TIP3    H242182   0.961   2.495   0.661
 6875TIP3   OH242183   3.625   1.729   8.720
 6875TIP3    H142184   3.610   1.692   8.807
 6875TIP3    H242185   3.640   1.653   8.664
 6876TIP3   OH242186   6.731   1.783   7.803
 6876TIP3    H142187   0.024   1.749   7.794
 6876TIP3    H242188   6.737   1.848   7.873
 6877TIP3   OH242189   0.873   3.983   7.313
 6877TIP3    H142190   0.825   4.026   7.242
 6877TIP3    H242191   0.954   4.033   7.322
 6878TIP3   OH242192   1.894   3.302   0.010
 6878TIP3    H142193   1.979   3.320   8.844
 6878TIP3    H242194   1.857   3.389   0.027
 6879TIP3   OH242195   2.243   0.003   7.889
 6879TIP3    H142196   2.272   6.786   7.798
 6879TIP3    H242197   2.317   6.771   7.942
 6880TIP3   OH242198   4.691   4.157   0.664
 6880TIP3    H142199   4.607   4.194   0.638
 6880TIP3    H242200   4.673   4.113   0.747
 6881TIP3   OH242201   4.465   2.934   0.893
 6881TIP3    H142202   4.472   2.893   0.979
 6881TIP3    H242203   4.548   2.915   0.850
 6882TIP3   OH242204   0.295   2.893   7.382
 6882TIP3    H142205   0.371   2.950   7.373
 6882TIP3    H242206   0.221   2.946   7.352
 6883TIP3   OH242207   1.187   1.538   0.273
 6883TIP3    H142208   1.131   1.601   0.317
 6883TIP3    H242209   1.223   1.586   0.198
 6884TIP3   OH242210   3.412   1.564   1.711
 6884TIP3    H142211   3.341   1.564   1.647
 6884TIP3    H242212   3.370   1.588   1.794
 6885TIP3   OH242213   5.810   4.510   8.245
 6885TIP3    H142214   5.867   4.552   8.180
 6885TIP3    H242215   5.763   4.583   8.286
 6886TIP3   OH242216   0.342   2.805   1.348
 6886TIP3    H142217   0.387   2.746   1.408
 6886TIP3    H242218   0.410   2.864   1.316
 6887TIP3   OH242219   2.129   3.865   1.234
 6887TIP3    H142220   2.154   3.778   1.263
 6887TIP3    H242221   2.034   3.861   1.225
 6888TIP3   OH242222   4.360   5.442   0.931
 6888TIP3    H142223   4.324   5.512   0.984
 6888TIP3    H242224   4.389   5.376   0.994
 6889TIP3   OH242225   5.770   2.962   0.451
 6889TIP3    H142226   5.820   2.991   0.375
 6889TIP3    H242227   5.712   2.894   0.417
 6890TIP3   OH242228   4.048   2.047   0.576
 6890TIP3    H142229   4.138   2.065   0.601
 6890TIP3    H242230   3.995   2.102   0.635
 6891TIP3   OH242231   3.362   2.775   0.031
 6891TIP3    H142232   3.437   2.819   8.866
 6891TIP3    H242233   3.387   2.683   0.036
 6892TIP3   OH242234   6.083   3.142   8.086
 6892TIP3    H142235   6.011   3.197   8.116
 6892TIP3    H242236   6.123   3.109   8.166
 6893TIP3   OH242237   2.247   0.077   1.028
 6893TIP3    H142238   2.192   0.051   1.102
 6893TIP3    H242239   2.274   6.790   0.989
 6894TIP3   OH242240   0.084   2.440   0.770
 6894TIP3    H142241   0.077   2.533   0.748
 6894TIP3    H242242   0.175   2.417   0.747
 6895TIP3   OH242243   1.983   2.588   8.013
 6895TIP3    H142244   2.074   2.617   8.008
 6895TIP3    H242245   1.952   2.592   7.923
 6896TIP3   OH242246   6.750   3.320   0.297
 6896TIP3    H142247   6.680   3.335   0.361
 6896TIP3    H242248   6.767   3.406   0.259
 6897TIP3   OH242249   3.343   3.834   8.054
 6897TIP3    H142250   3.299   3.851   7.971
 6897TIP3    H242251   3.430   3.802   8.028
 6898TIP3   OH242252   5.686   2.898   7.700
 6898TIP3    H142253   5.697   2.854   7.785
 6898TIP3    H242254   5.765   2.951   7.691
 6899TIP3   OH242255   1.826   2.501   8.196
 6899TIP3    H142256   1.890   2.525   8.129
 6899TIP3    H242257   1.747   2.477   8.147
 6900TIP3   OH242258   3.826   5.280   8.859
 6900TIP3    H142259   3.805   5.344   8.792
 6900TIP3    H242260   3.759   5.292   0.051
 6901TIP3   OH242261   6.147   3.658   7.477
 6901TIP3    H142262   6.107   3.575   7.500
 6901TIP3    H242263   6.080   3.704   7.427
 6902TIP3   OH242264   3.189   3.396   8.510
 6902TIP3    H142265   3.236   3.315   8.530
 6902TIP3    H242266   3.103   3.367   8.481
 6903TIP3   OH242267   3.359   0.100   1.871
 6903TIP3    H142268   3.269   0.127   1.852
 6903TIP3    H242269   3.350   0.030   1.936
 6904TIP3   OH242270   5.087   0.752   0.410
 6904TIP3    H142271   5.033   0.681   0.444
 6904TIP3    H242272   5.113   0.723   0.323
 6905TIP3   OH242273   6.095   6.270   1.650
 6905TIP3    H142274   6.109   6.323   1.571
 6905TIP3    H242275   6.168   6.293   1.708
 6906TIP3   OH242276   1.437   5.702   8.640
 6906TIP3    H142277   1.452   5.613   8.607
 6906TIP3    H242278   1.384   5.744   8.573
 6907TIP3   OH242279   5.922   3.313   2.034
 6907TIP3    H142280   5.924   3.254   1.959
 6907TIP3    H242281   5.839   3.292   2.078
 6908TIP3   OH242282   4.098   0.352   0.698
 6908TIP3    H142283   4.093   0.378   0.790
 6908TIP3    H242284   4.063   0.427   0.650
 6909TIP3   OH242285   3.464   0.154   1.605
 6909TIP3    H142286   3.520   0.230   1.589
 6909TIP3    H242287   3.425   0.171   1.691
 6910TIP3   OH242288   2.126   4.603   1.193
 6910TIP3    H142289   2.106   4.678   1.248
 6910TIP3    H242290   2.076   4.531   1.231
 6911TIP3   OH242291   1.312   2.750   7.077
 6911TIP3    H142292   1.305   2.845   7.066
 6911TIP3    H242293   1.229   2.724   7.117
 6912TIP3   OH242294   5.156   3.471   6.937
 6912TIP3    H142295   5.239   3.439   6.974
 6912TIP3    H242296   5.091   3.406   6.964
 6913TIP3   OH242297   3.182   6.657   6.686
 6913TIP3    H142298   3.136   6.620   6.611
 6913TIP3    H242299   3.142   6.614   6.762
 6914TIP3   OH242300   5.717   0.004   2.750
 6914TIP3    H142301   5.779   6.792   2.678
 6914TIP3    H242302   5.683   0.093   2.743
 6915TIP3   OH242303   2.851   4.413   1.489
 6915TIP3    H142304   2.937   4.455   1.497
 6915TIP3    H242305   2.847   4.354   1.564
 6916TIP3   OH242306   5.365   5.651   8.826
 6916TIP3    H142307   5.426   5.640   0.025
 6916TIP3    H242308   5.317   5.731   8.846
 6917TIP3   OH242309   2.463   6.701   8.046
 6917TIP3    H142310   2.533   6.766   8.053
 6917TIP3    H242311   2.506   6.622   8.014
 6918TIP3   OH242312   5.789   2.237   0.855
 6918TIP3    H142313   5.736   2.275   0.784
 6918TIP3    H242314   5.877   2.271   0.839
 6919TIP3   OH242315   3.699   0.332   0.107
 6919TIP3    H142316   3.754   0.358   0.034
 6919TIP3    H242317   3.658   0.414   0.136
 6920TIP3   OH242318   6.396   6.484   0.447
 6920TIP3    H142319   6.390   6.560   0.389
 6920TIP3    H242320   6.490   6.469   0.457
 6921TIP3   OH242321   3.857   5.871   8.666
 6921TIP3    H142322   3.827   5.894   8.754
 6921TIP3    H242323   3.799   5.919   8.608
 6922TIP3   OH242324   3.498   5.068   7.660
 6922TIP3    H142325   3.419   5.122   7.655
 6922TIP3    H242326   3.473   4.994   7.715
 6923TIP3   OH242327   1.720   3.700   6.933
 6923TIP3    H142328   1.769   3.777   6.905
 6923TIP3    H242329   1.666   3.731   7.005
 6924TIP3   OH242330   3.240   1.067   1.099
 6924TIP3    H142331   3.237   1.140   1.037
 6924TIP3    H242332   3.330   1.068   1.132
 6925TIP3   OH242333   2.191   6.613   6.473
 6925TIP3    H142334   2.249   6.573   6.537
 6925TIP3    H242335   2.185   6.550   6.402
 6926TIP3   OH242336   4.774   1.560   1.079
 6926TIP3    H142337   4.687   1.561   1.119
 6926TIP3    H242338   4.834   1.545   1.153
 6927TIP3   OH242339   4.525   0.009   0.729
 6927TIP3    H142340   4.577   0.066   0.785
 6927TIP3    H242341   4.442   6.794   0.776
 6928TIP3   OH242342   5.609   4.787   2.279
 6928TIP3    H142343   5.685   4.836   2.249
 6928TIP3    H242344   5.536   4.848   2.268
 6929TIP3   OH242345   6.591   6.250   1.137
 6929TIP3    H142346   6.603   6.157   1.157
 6929TIP3    H242347   6.636   6.296   1.209
 6930TIP3   OH242348   6.412   1.394   1.343
 6930TIP3    H142349   6.401   1.447   1.264
 6930TIP3    H242350   6.497   1.352   1.332
 6931TIP3   OH242351   3.101   2.070   0.450
 6931TIP3    H142352   3.087   2.030   0.536
 6931TIP3    H242353   3.183   2.031   0.418
 6932TIP3   OH242354   0.883   4.774   0.098
 6932TIP3    H142355   0.952   4.841   0.108
 6932TIP3    H242356   0.825   4.788   0.173
 6933TIP3   OH242357   6.791   5.979   7.034
 6933TIP3    H142358   6.716   5.989   7.093
 6933TIP3    H242359   0.059   5.930   7.086
 6934TIP3   OH242360   2.950   3.967   8.227
 6934TIP3    H142361   2.974   3.914   8.303
 6934TIP3    H242362   2.876   4.019   8.256
 6935TIP3   OH242363   0.928   0.952   8.771
 6935TIP3    H142364   0.878   0.898   8.709
 6935TIP3    H242365   0.890   0.933   8.856
 6936TIP3   OH242366   2.459   3.044   0.190
 6936TIP3    H142367   2.456   3.000   0.105
 6936TIP3    H242368   2.394   3.115   0.182
 6937TIP3   OH242369   1.363   2.648   0.644
 6937TIP3    H142370   1.445   2.619   0.684
 6937TIP3    H242371   1.319   2.567   0.617
 6938TIP3   OH242372   3.893   4.038   2.420
 6938TIP3    H142373   3.837   4.098   2.371
 6938TIP3    H242374   3.948   4.096   2.473
 6939TIP3   OH242375   3.842   0.901   8.371
 6939TIP3    H142376   3.886   0.899   8.285
 6939TIP3    H242377   3.914   0.895   8.434
 6940TIP3   OH242378   1.733   5.568   6.645
 6940TIP3    H142379   1.662   5.632   6.650
 6940TIP3    H242380   1.777   5.574   6.730
 6941TIP3   OH242381   5.752   1.016   0.706
 6941TIP3    H142382   5.728   0.923   0.713
 6941TIP3    H242383   5.741   1.037   0.614
 6942TIP3   OH242384   5.803   4.116   1.024
 6942TIP3    H142385   5.791   4.133   1.117
 6942TIP3    H242386   5.812   4.203   0.985
 6943TIP3   OH242387   1.520   1.001   0.610
 6943TIP3    H142388   1.590   0.935   0.605
 6943TIP3    H242389   1.497   1.018   0.519
 6944TIP3   OH242390   3.129   4.597   6.986
 6944TIP3    H142391   3.113   4.671   6.927
 6944TIP3    H242392   3.091   4.522   6.942
 6945TIP3   OH242393   5.240   1.123   7.937
 6945TIP3    H142394   5.147   1.134   7.917
 6945TIP3    H242395   5.245   1.041   7.986
 6946TIP3   OH242396   6.570   1.856   7.341
 6946TIP3    H142397   6.581   1.799   7.417
 6946TIP3    H242398   6.475   1.854   7.325
 6947TIP3   OH242399   1.930   3.816   0.919
 6947TIP3    H142400   1.926   3.853   0.830
 6947TIP3    H242401   1.911   3.890   0.976
 6948TIP3   OH242402   3.847   4.405   8.703
 6948TIP3    H142403   3.874   4.488   8.664
 6948TIP3    H242404   3.874   4.410   8.794
 6949TIP3   OH242405   1.025   1.125   8.431
 6949TIP3    H142406   0.979   1.042   8.419
 6949TIP3    H242407   1.020   1.168   8.346
 6950TIP3   OH242408   1.365   5.297   1.204
 6950TIP3    H142409   1.375   5.255   1.289
 6950TIP3    H242410   1.270   5.308   1.194
 6951TIP3   OH242411   1.415   6.493   8.099
 6951TIP3    H142412   1.459   6.572   8.068
 6951TIP3    H242413   1.332   6.524   8.136
 6952TIP3   OH242414   5.551   1.355   1.268
 6952TIP3    H142415   5.611   1.398   1.208
 6952TIP3    H242416   5.496   1.425   1.302
 6953TIP3   OH242417   5.082   5.068   2.391
 6953TIP3    H142418   5.124   5.129   2.451
 6953TIP3    H242419   5.105   4.981   2.425
 6954TIP3   OH242420   2.154   6.711   0.430
 6954TIP3    H142421   2.098   6.765   0.375
 6954TIP3    H242422   2.110   6.711   0.515
 6955TIP3   OH242423   4.931   5.420   8.072
 6955TIP3    H142424   4.852   5.412   8.126
 6955TIP3    H242425   5.001   5.437   8.135
 6956TIP3   OH242426   4.462   5.190   2.141
 6956TIP3    H142427   4.470   5.095   2.135
 6956TIP3    H242428   4.479   5.209   2.234
 6957TIP3   OH242429   3.346   0.137   1.176
 6957TIP3    H142430   3.400   0.210   1.206
 6957TIP3    H242431   3.365   0.130   1.082
 6958TIP3   OH242432   2.317   0.619   0.072
 6958TIP3    H142433   2.224   0.617   0.051
 6958TIP3    H242434   2.321   0.616   0.167
 6959TIP3   OH242435   4.616   4.001   1.206
 6959TIP3    H142436   4.626   4.002   1.110
 6959TIP3    H242437   4.522   4.009   1.220
 6960TIP3   OH242438   4.500   3.503   1.479
 6960TIP3    H142439   4.560   3.577   1.475
 6960TIP3    H242440   4.509   3.469   1.568
 6961TIP3   OH242441   1.173   4.892   8.688
 6961TIP3    H142442   1.106   4.925   8.628
 6961TIP3    H242443   1.159   4.798   8.690
 6962TIP3   OH242444   5.999   0.274   8.628
 6962TIP3    H142445   6.008   0.326   8.548
 6962TIP3    H242446   6.046   0.323   8.694
 6963TIP3   OH242447   5.215   6.213   7.762
 6963TIP3    H142448   5.119   6.219   7.757
 6963TIP3    H242449   5.234   6.122   7.738
 6964TIP3   OH242450   0.768   4.998   8.361
 6964TIP3    H142451   0.821   5.029   8.287
 6964TIP3    H242452   0.715   4.927   8.324
 6965TIP3   OH242453   0.501   3.729   1.541
 6965TIP3    H142454   0.588   3.731   1.581
 6965TIP3    H242455   0.448   3.676   1.600
 6966TIP3   OH242456   2.861   5.416   8.267
 6966TIP3    H142457   2.786   5.358   8.282
 6966TIP3    H242458   2.923   5.394   8.337
 6967TIP3   OH242459   4.200   5.961   2.500
 6967TIP3    H142460   4.188   5.921   2.586
 6967TIP3    H242461   4.147   6.041   2.504
 6968TIP3   OH242462   2.614   1.639   7.353
 6968TIP3    H142463   2.620   1.727   7.317
 6968TIP3    H242464   2.521   1.616   7.347
 6969TIP3   OH242465   1.873   5.357   7.917
 6969TIP3    H142466   1.885   5.416   7.842
 6969TIP3    H242467   1.779   5.356   7.932
 6970TIP3   OH242468   5.608   6.001   8.378
 6970TIP3    H142469   5.590   6.089   8.346
 6970TIP3    H242470   5.683   6.012   8.437
 6971TIP3   OH242471   1.929   4.744   0.314
 6971TIP3    H142472   1.895   4.807   0.250
 6971TIP3    H242473   2.015   4.778   0.338
 6972TIP3   OH242474   5.937   3.324   8.395
 6972TIP3    H142475   5.870   3.373   8.442
 6972TIP3    H242476   5.903   3.235   8.390
 6973TIP3   OH242477   3.906   1.861   7.421
 6973TIP3    H142478   3.982   1.845   7.366
 6973TIP3    H242479   3.941   1.868   7.510
 6974TIP3   OH242480   2.337   5.158   0.206
 6974TIP3    H142481   2.323   5.192   0.295
 6974TIP3    H242482   2.422   5.113   0.212
 6975TIP3   OH242483   6.165   3.989   1.636
 6975TIP3    H142484   6.080   3.981   1.679
 6975TIP3    H242485   6.145   3.980   1.543
 6976TIP3   OH242486   4.497   2.123   1.961
 6976TIP3    H142487   4.561   2.064   2.002
 6976TIP3    H242488   4.439   2.064   1.912
 6977TIP3   OH242489   4.137   6.377   0.139
 6977TIP3    H142490   4.173   6.301   0.093
 6977TIP3    H242491   4.208   6.442   0.139
 6978TIP3   OH242492   3.955   6.188   7.704
 6978TIP3    H142493   4.024   6.215   7.643
 6978TIP3    H242494   3.997   6.125   7.761
 6979TIP3   OH242495   0.617   5.999   0.646
 6979TIP3    H142496   0.689   5.975   0.704
 6979TIP3    H242497   0.658   6.013   0.561
 6980TIP3   OH242498   2.805   3.559   7.566
 6980TIP3    H142499   2.890   3.587   7.599
 6980TIP3    H242500   2.783   3.623   7.498
 6981TIP3   OH242501   3.489   1.700   2.183
 6981TIP3    H142502   3.536   1.781   2.163
 6981TIP3    H242503   3.556   1.641   2.217
 6982TIP3   OH242504   3.953   3.446   7.652
 6982TIP3    H142505   3.962   3.534   7.617
 6982TIP3    H242506   3.859   3.436   7.668
 6983TIP3   OH242507   1.186   3.151   1.605
 6983TIP3    H142508   1.202   3.080   1.543
 6983TIP3    H242509   1.174   3.108   1.689
 6984TIP3   OH242510   1.192   2.716   0.151
 6984TIP3    H142511   1.257   2.721   0.081
 6984TIP3    H242512   1.192   2.802   0.191
 6985TIP3   OH242513   3.592   5.401   1.083
 6985TIP3    H142514   3.505   5.395   1.122
 6985TIP3    H242515   3.637   5.467   1.135
 6986TIP3   OH242516   5.530   6.380   8.460
 6986TIP3    H142517   5.506   6.333   8.380
 6986TIP3    H242518   5.586   6.452   8.430
 6987TIP3   OH242519   5.425   1.363   7.900
 6987TIP3    H142520   5.417   1.291   7.964
 6987TIP3    H242521   5.438   1.319   7.816
 6988TIP3   OH242522   0.130   4.233   8.601
 6988TIP3    H142523   0.106   4.293   8.531
 6988TIP3    H242524   0.059   4.241   8.665
 6989TIP3   OH242525   1.703   6.792   8.294
 6989TIP3    H142526   1.721   6.721   8.233
 6989TIP3    H242527   1.628   6.762   8.344
 6990TIP3   OH242528   4.313   0.678   1.392
 6990TIP3    H142529   4.378   0.609   1.379
 6990TIP3    H242530   4.272   0.689   1.306
 6991TIP3   OH242531   6.498   6.267   8.064
 6991TIP3    H142532   6.474   6.319   7.987
 6991TIP3    H242533   6.593   6.259   8.059
 6992TIP3   OH242534   5.424   3.165   0.284
 6992TIP3    H142535   5.444   3.215   0.205
 6992TIP3    H242536   5.430   3.074   0.256
 6993TIP3   OH242537   4.644   3.770   1.524
 6993TIP3    H142538   4.644   3.786   1.429
 6993TIP3    H242539   4.720   3.714   1.539
 6994TIP3   OH242540   2.166   5.552   6.713
 6994TIP3    H142541   2.163   5.490   6.640
 6994TIP3    H242542   2.243   5.527   6.763
 6995TIP3   OH242543   0.870   0.198   1.353
 6995TIP3    H142544   0.776   0.205   1.336
 6995TIP3    H242545   0.904   0.149   1.278
 6996TIP3   OH242546   2.408   0.661   8.235
 6996TIP3    H142547   2.398   0.642   8.329
 6996TIP3    H242548   2.333   0.618   8.194
 6997TIP3   OH242549   4.822   5.664   8.739
 6997TIP3    H142550   4.800   5.751   8.771
 6997TIP3    H242551   4.884   5.629   8.803
 6998TIP3   OH242552   2.354   3.759   7.515
 6998TIP3    H142553   2.309   3.688   7.561
 6998TIP3    H242554   2.378   3.821   7.585
 6999TIP3   OH242555   3.058   2.727   1.882
 6999TIP3    H142556   3.060   2.729   1.978
 6999TIP3    H242557   3.113   2.801   1.856
 7000TIP3   OH242558   3.502   2.972   1.781
 7000TIP3    H142559   3.596   2.973   1.797
 7000TIP3    H242560   3.474   2.884   1.807
 7001TIP3   OH242561   5.586   4.299   0.154
 7001TIP3    H142562   5.516   4.247   0.192
 7001TIP3    H242563   5.664   4.245   0.164
 7002TIP3   OH242564   1.619   6.669   1.877
 7002TIP3    H142565   1.668   6.603   1.829
 7002TIP3    H242566   1.653   6.663   1.967
 7003TIP3   OH242567   1.404   3.779   7.741
 7003TIP3    H142568   1.372   3.817   7.660
 7003TIP3    H242569   1.498   3.770   7.728
 7004TIP3   OH242570   1.725   6.539   8.187
 7004TIP3    H142571   1.802   6.483   8.195
 7004TIP3    H242572   1.658   6.496   8.240
 7005TIP3   OH242573   1.816   6.600   0.430
 7005TIP3    H142574   1.889   6.618   0.488
 7005TIP3    H242575   1.762   6.537   0.478
 7006TIP3   OH242576   6.577   0.523   7.245
 7006TIP3    H142577   6.657   0.553   7.204
 7006TIP3    H242578   6.565   0.434   7.212
 7007TIP3   OH242579   1.031   0.158   6.645
 7007TIP3    H142580   1.069   0.127   6.563
 7007TIP3    H242581   1.106   0.177   6.701
 7008TIP3   OH242582   1.674   2.054   8.697
 7008TIP3    H142583   1.703   2.040   8.787
 7008TIP3    H242584   1.745   2.104   8.657
 7009TIP3   OH242585   2.682   0.019   8.736
 7009TIP3    H142586   2.643   6.762   8.805
 7009TIP3    H242587   2.649   6.777   8.655
 7010TIP3   OH242588   6.203   2.629   0.935
 7010TIP3    H142589   6.278   2.649   0.990
 7010TIP3    H242590   6.151   2.709   0.934
 7011TIP3   OH242591   0.016   2.660   8.738
 7011TIP3    H142592   0.079   2.681   8.669
 7011TIP3    H242593   6.733   2.636   8.692
 7012TIP3   OH242594   4.057   0.331   8.848
 7012TIP3    H142595   4.073   0.243   8.815
 7012TIP3    H242596   3.995   0.368   8.785
 7013TIP3   OH242597   3.961   5.080   1.182
 7013TIP3    H142598   3.885   5.050   1.132
 7013TIP3    H242599   4.037   5.053   1.131
 7014TIP3   OH242600   3.324   4.619   1.218
 7014TIP3    H142601   3.330   4.651   1.308
 7014TIP3    H242602   3.295   4.695   1.168
 7015TIP3   OH242603   2.457   4.947   2.375
 7015TIP3    H142604   2.419   4.918   2.458
 7015TIP3    H242605   2.462   4.868   2.322
 7016TIP3   OH242606   1.040   4.905   1.216
 7016TIP3    H142607   1.061   4.875   1.128
 7016TIP3    H242608   0.996   4.831   1.257
 7017TIP3   OH242609   6.477   5.622   0.123
 7017TIP3    H142610   6.481   5.531   0.094
 7017TIP3    H242611   6.389   5.632   0.159
 7018TIP3   OH242612   4.142   0.111   0.192
 7018TIP3    H142613   4.181   0.198   0.195
 7018TIP3    H242614   4.165   0.078   0.105
 7019TIP3   OH242615   3.679   5.118   8.634
 7019TIP3    H142616   3.728   5.193   8.668
 7019TIP3    H242617   3.603   5.111   8.692
 7020TIP3   OH242618   0.034   5.502   0.036
 7020TIP3    H142619   0.034   5.529   8.819
 7020TIP3    H242620   6.753   5.446   0.045
 7021TIP3   OH242621   2.526   1.258   1.188
 7021TIP3    H142622   2.520   1.322   1.117
 7021TIP3    H242623   2.564   1.308   1.261
 7022TIP3   OH242624   6.624   1.482   0.422
 7022TIP3    H142625   6.536   1.450   0.406
 7022TIP3    H242626   6.674   1.405   0.448
 7023TIP3   OH242627   2.800   4.146   0.775
 7023TIP3    H142628   2.835   4.062   0.806
 7023TIP3    H242629   2.759   4.125   0.691
 7024TIP3   OH242630   1.528   3.114   1.791
 7024TIP3    H142631   1.465   3.121   1.863
 7024TIP3    H242632   1.520   3.024   1.759
 7025TIP3   OH242633   2.010   5.174   6.628
 7025TIP3    H142634   2.040   5.084   6.618
 7025TIP3    H242635   1.916   5.167   6.640
 7026TIP3   OH242636   6.292   6.320   0.183
 7026TIP3    H142637   6.309   6.406   0.144
 7026TIP3    H242638   6.347   6.260   0.133
 7027TIP3   OH242639   2.925   1.394   8.738
 7027TIP3    H142640   2.976   1.372   8.660
 7027TIP3    H242641   2.980   1.455   8.787
 7028TIP3   OH242642   3.379   2.466   0.005
 7028TIP3    H142643   3.298   2.468   0.056
 7028TIP3    H242644   3.370   2.389   8.823
 7029TIP3   OH242645   1.269   3.522   6.922
 7029TIP3    H142646   1.331   3.560   6.860
 7029TIP3    H242647   1.309   3.538   7.008
 7030TIP3   OH242648   2.523   4.833   7.339
 7030TIP3    H142649   2.434   4.862   7.360
 7030TIP3    H242650   2.579   4.908   7.363
 7031TIP3   OH242651   3.928   2.488   8.682
 7031TIP3    H142652   3.924   2.396   8.708
 7031TIP3    H242653   3.845   2.504   8.637
 7032TIP3   OH242654   0.985   0.409   6.766
 7032TIP3    H142655   1.063   0.413   6.821
 7032TIP3    H242656   0.980   0.318   6.737
 7033TIP3   OH242657   5.709   1.677   6.611
 7033TIP3    H142658   5.727   1.610   6.546
 7033TIP3    H242659   5.655   1.633   6.677
 7034TIP3   OH242660   4.669   4.370   0.270
 7034TIP3    H142661   4.742   4.364   0.208
 7034TIP3    H242662   4.710   4.390   0.354
 7035TIP3   OH242663   1.801   3.831   8.770
 7035TIP3    H142664   1.870   3.880   8.814
 7035TIP3    H242665   1.844   3.793   8.694
 7036TIP3   OH242666   4.105   6.365   7.537
 7036TIP3    H142667   4.083   6.413   7.618
 7036TIP3    H242668   4.038   6.392   7.475
 7037TIP3   OH242669   1.173   2.536   6.129
 7037TIP3    H142670   1.123   2.602   6.081
 7037TIP3    H242671   1.175   2.460   6.071
 7038TIP3   OH242672   4.828   1.590   6.887
 7038TIP3    H142673   4.842   1.534   6.811
 7038TIP3    H242674   4.744   1.634   6.869
 7039TIP3   OH242675   1.930   0.648   0.847
 7039TIP3    H142676   1.962   0.589   0.915
 7039TIP3    H242677   1.872   0.593   0.794
 7040TIP3   OH242678   6.729   6.117   7.691
 7040TIP3    H142679   6.774   6.036   7.715
 7040TIP3    H242680   6.647   6.115   7.739
 7041TIP3   OH242681   1.718   1.165   8.331
 7041TIP3    H142682   1.632   1.175   8.371
 7041TIP3    H242683   1.768   1.113   8.394
 7042TIP3   OH242684   6.676   1.789   0.782
 7042TIP3    H142685   6.583   1.780   0.758
 7042TIP3    H242686   6.681   1.875   0.824
 7043TIP3   OH242687   1.134   5.930   6.742
 7043TIP3    H142688   1.101   5.989   6.675
 7043TIP3    H242689   1.152   5.848   6.695
 7044TIP3   OH242690   5.907   5.261   8.848
 7044TIP3    H142691   5.839   5.195   8.837
 7044TIP3    H242692   5.963   5.226   0.043
 7045TIP3   OH242693   6.092   1.063   7.496
 7045TIP3    H142694   6.067   1.058   7.404
 7045TIP3    H242695   6.036   1.131   7.533
 7046TIP3   OH242696   4.963   5.891   0.032
 7046TIP3    H142697   5.017   5.876   8.828
 7046TIP3    H242698   4.920   5.975   0.015
 7047TIP3   OH242699   4.379   2.368   1.966
 7047TIP3    H142700   4.388   2.406   2.053
 7047TIP3    H242701   4.420   2.281   1.973
 7048TIP3   OH242702   4.292   6.370   6.729
 7048TIP3    H142703   4.343   6.333   6.657
 7048TIP3    H242704   4.297   6.465   6.716
 7049TIP3   OH242705   2.455   5.218   1.280
 7049TIP3    H142706   2.453   5.314   1.278
 7049TIP3    H242707   2.510   5.196   1.355
 7050TIP3   OH242708   6.489   1.927   1.452
 7050TIP3    H142709   6.483   1.943   1.547
 7050TIP3    H242710   6.557   1.861   1.443
 7051TIP3   OH242711   5.887   5.611   0.351
 7051TIP3    H142712   5.867   5.573   0.265
 7051TIP3    H242713   5.813   5.669   0.369
 7052TIP3   OH242714   3.238   6.531   8.400
 7052TIP3    H142715   3.304   6.506   8.465
 7052TIP3    H242716   3.283   6.591   8.341
 7053TIP3   OH242717   2.994   1.395   8.250
 7053TIP3    H142718   2.956   1.475   8.284
 7053TIP3    H242719   2.936   1.369   8.178
 7054TIP3   OH242720   4.355   6.616   7.378
 7054TIP3    H142721   4.359   6.526   7.409
 7054TIP3    H242722   4.445   6.636   7.352
 7055TIP3   OH242723   1.977   4.192   7.784
 7055TIP3    H142724   2.064   4.171   7.817
 7055TIP3    H242725   1.967   4.137   7.706
 7056TIP3   OH242726   6.744   2.279   0.139
 7056TIP3    H142727   6.701   2.272   0.225
 7056TIP3    H242728   6.731   2.370   0.113
 7057TIP3   OH242729   3.004   0.396   1.251
 7057TIP3    H142730   2.919   0.439   1.251
 7057TIP3    H242731   2.990   0.315   1.300
 7058TIP3   OH242732   2.589   4.871   1.049
 7058TIP3    H142733   2.523   4.940   1.054
 7058TIP3    H242734   2.538   4.790   1.056
 7059TIP3   OH242735   4.304   2.953   6.610
 7059TIP3    H142736   4.242   2.951   6.538
 7059TIP3    H242737   4.382   2.995   6.574
 7060TIP3   OH242738   5.836   4.705   8.717
 7060TIP3    H142739   5.894   4.746   8.654
 7060TIP3    H242740   5.800   4.629   8.671
 7061TIP3   OH242741   2.380   0.320   1.383
 7061TIP3    H142742   2.388   0.381   1.456
 7061TIP3    H242743   2.468   0.283   1.373
 7062TIP3   OH242744   1.034   4.118   7.032
 7062TIP3    H142745   0.952   4.070   7.020
 7062TIP3    H242746   1.094   4.054   7.069
 7063TIP3   OH242747   5.747   2.070   7.531
 7063TIP3    H142748   5.761   1.983   7.568
 7063TIP3    H242749   5.833   2.113   7.539
 7064TIP3   OH242750   2.100   2.802   1.590
 7064TIP3    H142751   2.031   2.735   1.580
 7064TIP3    H242752   2.167   2.776   1.527
 7065TIP3   OH242753   2.713   4.134   0.400
 7065TIP3    H142754   2.761   4.051   0.394
 7065TIP3    H242755   2.636   4.114   0.453
 7066TIP3   OH242756   0.250   1.984   8.811
 7066TIP3    H142757   0.174   2.037   8.837
 7066TIP3    H242758   0.235   1.900   8.854
 7067TIP3   OH242759   3.504   0.850   0.348
 7067TIP3    H142760   3.584   0.893   0.378
 7067TIP3    H242761   3.436   0.916   0.359
 7068TIP3   OH242762   4.517   2.835   1.586
 7068TIP3    H142763   4.499   2.743   1.567
 7068TIP3    H242764   4.441   2.864   1.638
 7069TIP3   OH242765   2.894   1.108   8.305
 7069TIP3    H142766   2.923   1.200   8.308
 7069TIP3    H242767   2.972   1.059   8.278
 7070TIP3   OH242768   2.596   5.246   7.401
 7070TIP3    H142769   2.502   5.239   7.415
 7070TIP3    H242770   2.634   5.173   7.450
 7071TIP3   OH242771   3.236   0.815   0.659
 7071TIP3    H142772   3.159   0.774   0.621
 7071TIP3    H242773   3.259   0.759   0.734
 7072LIG      O42774   4.163   5.593   5.408
 7072LIG     C142775   4.297   5.639   5.419
 7072LIG     C242776   4.387   5.518   5.430
 7072LIG     C342777   4.332   5.739   5.312
 7072LIG     H142778   4.308   5.697   5.513
 7072LIG     H242779   4.378   5.465   5.527
 7072LIG     H342780   4.489   5.551   5.404
 7072LIG     H442781   4.363   5.445   5.350
 7072LIG     H542782   4.282   5.833   5.343
 7072LIG     H642783   4.293   5.701   5.215
 7072LIG     H742784   4.442   5.753   5.303
 7072LIG     H842785   4.144   5.524   5.473
   6.79625   6.79625   8.87449
